                         Program Version 4.2.0 -  RELEASE  -
|  1> # ORCA input file
|  2> # SCF done       -205.088171256840          0.000476208012
|  3> ! CAM-B3LYP def2-SVP def2/J RIJCOSX Grid4 TightSCF
|  4> %maxcore 5000
|  5> %tddft
|  6>     Mode sTDDFT
|  7>     Ethresh 5.0
|  8>     maxcore 5000
|  9> end
| 10>
| 11> %pal
| 12>   nprocs 6
| 13>   end
| 14> * xyz 0 1
| 15>    C       -2.57390        -3.30851         3.48360
| 16>    C       -3.43287        -4.04999         4.28138
| 17>    F       -4.46394        -3.43387         4.86677
| 18>    C       -3.24838        -5.41859         4.48618
| 19>    F       -4.10251        -6.09220         5.26332
| 20>    C       -2.18951        -6.08416         3.89035
| 21>    C       -1.33608        -5.34480         3.09518
| 22>    C       -1.51147        -3.96669         2.88315
| 23>    C       -0.44970        -3.48389         1.99907
| 24>    C       -0.29287        -2.18619         1.59187
| 25>    C       -1.14853        -1.12851         1.97192
| 26>    N       -1.80358        -0.22589         2.24070
| 27>    C        0.72984        -1.70307         0.74693
| 28>    N        1.52572        -1.22902         0.06856
| 29>    C        0.38117        -4.62554         1.65774
| 30>    C       -0.14936        -5.80855         2.35030
| 31>    O        0.28669        -6.94253         2.32319
| 32>    C        1.46102        -4.61384         0.81529
| 33>    C        2.30741        -5.66190         0.40925
| 34>    S        2.25349        -7.33594         0.90061
| 35>    C        3.59146        -7.73335        -0.12245
| 36>    C        4.06459        -6.59832        -0.81062
| 37>    C        3.34276        -5.45083        -0.50072
| 38>    C        5.15310        -6.57518        -1.69992
| 39>    N        6.03801        -6.52078        -2.42879
| 40>    C        4.03199        -9.07554        -0.17352
| 41>    C        4.96167        -9.56232        -1.04197
| 42>    C        5.34533       -10.92226        -1.06920
| 43>    N        6.23655       -11.44087        -1.98009
| 44>    C        6.96665       -10.70708        -2.98748
| 45>    C        8.14160        -9.93415        -2.39502
| 46>    C        6.41310       -12.82336        -1.81476
| 47>    O        7.13950       -13.49981        -2.51580
| 48>    C        5.55429       -13.16392        -0.69966
| 49>    C        4.91649       -11.98012        -0.26405
| 50>    C        4.06028       -12.32117         0.85400
| 51>    O        3.32560       -11.64728         1.54771
| 52>    N        4.24660       -13.70192         1.02571
| 53>    C        3.51561       -14.43834         2.03047
| 54>    C        2.29658       -15.14248         1.44125
| 55>    C        5.12088       -14.22290         0.10237
| 56>    C        5.45548       -15.59573         0.03552
| 57>    C        6.28258       -16.09986        -0.91949
| 58>    C        6.59646       -17.47447        -1.04278
| 59>    S        7.61638       -17.98775        -2.36674
| 60>    C        6.22324       -18.58725        -0.30396
| 61>    C        5.44937       -18.87282         0.91520
| 62>    O        4.84310       -18.13347         1.65511
| 63>    N        5.52883       -20.24782         1.07810
| 64>    C        4.94813       -20.95368         2.20179
| 65>    C        6.00167       -21.25791         3.26057
| 66>    C        6.25061       -20.88743         0.08670
| 67>    O        6.39092       -22.08701         0.01826
| 68>    C        6.72548       -19.80960        -0.80101
| 69>    C        7.51853       -19.67837        -1.92879
| 70>    C        8.23844       -20.63614        -2.68803
| 71>    C        8.21254       -21.96479        -2.41836
| 72>    C        8.96269       -22.93531        -3.12395
| 73>    C        9.12690       -24.22488        -2.71902
| 74>    C        9.56212       -25.28193        -3.66891
| 75>    O       10.07227       -25.12665        -4.75200
| 76>    C        9.16986       -26.55518        -3.02058
| 77>    C        8.66016       -26.29488        -1.73484
| 78>    C        8.19673       -27.33637        -0.94679
| 79>    C        8.25648       -28.62062        -1.46641
| 80>    C        8.77307       -28.87279        -2.73894
| 81>    C        9.23696       -27.83644        -3.53288
| 82>    F        8.81600       -30.12869        -3.19701
| 83>    F        7.80466       -29.64006        -0.72953
| 84>    C        8.76344       -24.86077        -1.46666
| 85>    C        8.73511       -24.27670        -0.23075
| 86>    C        9.15084       -22.95337         0.04132
| 87>    N        9.54852       -21.92100         0.34502
| 88>    C        8.38652       -24.95828         0.95534
| 89>    N        8.09373       -25.45699         1.94599
| 90>    H       -2.76293        -2.25510         3.35890
| 91>    H       -2.04166        -7.14120         4.04418
| 92>    H        1.72153        -3.66374         0.36479
| 93>    H        3.55588        -4.48396        -0.92379
| 94>    H        3.56089        -9.75076         0.53021
| 95>    H        5.41962        -8.90269        -1.76269
| 96>    H        6.28759       -10.03159        -3.51476
| 97>    H        7.33771       -11.45628        -3.69244
| 98>    H        7.80137        -9.18655        -1.68252
| 99>    H        8.68203        -9.42974        -3.19053
|100>    H        8.82051       -10.61645        -1.88919
|101>    H        3.19242       -13.70120         2.77057
|102>    H        4.17934       -15.16080         2.51082
|103>    H        1.63298       -14.41700         0.97659
|104>    H        1.75560       -15.65460         2.23149
|105>    H        2.59526       -15.87474         0.69501
|106>    H        5.02173       -16.25851         0.76947
|107>    H        6.72577       -15.43931        -1.65400
|108>    H        4.51385       -21.88283         1.82430
|109>    H        4.16173       -20.31454         2.60924
|110>    H        6.78874       -21.87965         2.83995
|111>    H        5.54479       -21.78917         4.09029
|112>    H        6.44202       -20.33596         3.63335
|113>    H        8.86473       -20.24989        -3.48155
|114>    H        7.57094       -22.31587        -1.62393
|115>    H        9.38479       -22.67052        -4.08687
|116>    H        7.78582       -27.18759         0.03858
|117>    H        9.63450       -28.02991        -4.51646
|118> *
|119>
|120>                          ****END OF INPUT****

CARTESIAN COORDINATES (ANGSTROEM)
---------------------------------
  C     -2.573900   -3.308510    3.483600
  C     -3.432870   -4.049990    4.281380
  F     -4.463940   -3.433870    4.866770
  C     -3.248380   -5.418590    4.486180
  F     -4.102510   -6.092200    5.263320
  C     -2.189510   -6.084160    3.890350
  C     -1.336080   -5.344800    3.095180
  C     -1.511470   -3.966690    2.883150
  C     -0.449700   -3.483890    1.999070
  C     -0.292870   -2.186190    1.591870
  C     -1.148530   -1.128510    1.971920
  N     -1.803580   -0.225890    2.240700
  C      0.729840   -1.703070    0.746930
  N      1.525720   -1.229020    0.068560
  C      0.381170   -4.625540    1.657740
  C     -0.149360   -5.808550    2.350300
  O      0.286690   -6.942530    2.323190
  C      1.461020   -4.613840    0.815290
  C      2.307410   -5.661900    0.409250
  S      2.253490   -7.335940    0.900610
  C      3.591460   -7.733350   -0.122450
  C      4.064590   -6.598320   -0.810620
  C      3.342760   -5.450830   -0.500720
  C      5.153100   -6.575180   -1.699920
  N      6.038010   -6.520780   -2.428790
  C      4.031990   -9.075540   -0.173520
  C      4.961670   -9.562320   -1.041970
  C      5.345330  -10.922260   -1.069200
  N      6.236550  -11.440870   -1.980090
  C      6.966650  -10.707080   -2.987480
  C      8.141600   -9.934150   -2.395020
  C      6.413100  -12.823360   -1.814760
  O      7.139500  -13.499810   -2.515800
  C      5.554290  -13.163920   -0.699660
  C      4.916490  -11.980120   -0.264050
  C      4.060280  -12.321170    0.854000
  O      3.325600  -11.647280    1.547710
  N      4.246600  -13.701920    1.025710
  C      3.515610  -14.438340    2.030470
  C      2.296580  -15.142480    1.441250
  C      5.120880  -14.222900    0.102370
  C      5.455480  -15.595730    0.035520
  C      6.282580  -16.099860   -0.919490
  C      6.596460  -17.474470   -1.042780
  S      7.616380  -17.987750   -2.366740
  C      6.223240  -18.587250   -0.303960
  C      5.449370  -18.872820    0.915200
  O      4.843100  -18.133470    1.655110
  N      5.528830  -20.247820    1.078100
  C      4.948130  -20.953680    2.201790
  C      6.001670  -21.257910    3.260570
  C      6.250610  -20.887430    0.086700
  O      6.390920  -22.087010    0.018260
  C      6.725480  -19.809600   -0.801010
  C      7.518530  -19.678370   -1.928790
  C      8.238440  -20.636140   -2.688030
  C      8.212540  -21.964790   -2.418360
  C      8.962690  -22.935310   -3.123950
  C      9.126900  -24.224880   -2.719020
  C      9.562120  -25.281930   -3.668910
  O     10.072270  -25.126650   -4.752000
  C      9.169860  -26.555180   -3.020580
  C      8.660160  -26.294880   -1.734840
  C      8.196730  -27.336370   -0.946790
  C      8.256480  -28.620620   -1.466410
  C      8.773070  -28.872790   -2.738940
  C      9.236960  -27.836440   -3.532880
  F      8.816000  -30.128690   -3.197010
  F      7.804660  -29.640060   -0.729530
  C      8.763440  -24.860770   -1.466660
  C      8.735110  -24.276700   -0.230750
  C      9.150840  -22.953370    0.041320
  N      9.548520  -21.921000    0.345020
  C      8.386520  -24.958280    0.955340
  N      8.093730  -25.456990    1.945990
  H     -2.762930   -2.255100    3.358900
  H     -2.041660   -7.141200    4.044180
  H      1.721530   -3.663740    0.364790
  H      3.555880   -4.483960   -0.923790
  H      3.560890   -9.750760    0.530210
  H      5.419620   -8.902690   -1.762690
  H      6.287590  -10.031590   -3.514760
  H      7.337710  -11.456280   -3.692440
  H      7.801370   -9.186550   -1.682520
  H      8.682030   -9.429740   -3.190530
  H      8.820510  -10.616450   -1.889190
  H      3.192420  -13.701200    2.770570
  H      4.179340  -15.160800    2.510820
  H      1.632980  -14.417000    0.976590
  H      1.755600  -15.654600    2.231490
  H      2.595260  -15.874740    0.695010
  H      5.021730  -16.258510    0.769470
  H      6.725770  -15.439310   -1.654000
  H      4.513850  -21.882830    1.824300
  H      4.161730  -20.314540    2.609240
  H      6.788740  -21.879650    2.839950
  H      5.544790  -21.789170    4.090290
  H      6.442020  -20.335960    3.633350
  H      8.864730  -20.249890   -3.481550
  H      7.570940  -22.315870   -1.623930
  H      9.384790  -22.670520   -4.086870
  H      7.785820  -27.187590    0.038580
  H      9.634500  -28.029910   -4.516460

 Total Charge           Charge          ....    0
 Multiplicity           Mult            ....    1
 Number of Electrons    NEL             ....  530
 Basis Dimension        Dim             .... 1198

ORBITAL ENERGIES
----------------

  NO   OCC          E(Eh)            E(eV)
   0   2.0000     -88.989127     -2421.5173
   1   2.0000     -88.986871     -2421.4559
   2   2.0000     -24.810090      -675.1169
   3   2.0000     -24.808759      -675.0807
   4   2.0000     -24.806263      -675.0127
   5   2.0000     -24.805986      -675.0052
   6   2.0000     -19.238707      -523.5118
   7   2.0000     -19.229980      -523.2744
   8   2.0000     -19.229260      -523.2548
   9   2.0000     -19.226378      -523.1763
  10   2.0000     -19.202480      -522.5261
  11   2.0000     -19.199521      -522.4455
  12   2.0000     -14.468714      -393.7137
  13   2.0000     -14.461569      -393.5193
  14   2.0000     -14.460754      -393.4971
  15   2.0000     -14.430788      -392.6817
  16   2.0000     -14.426701      -392.5705
  17   2.0000     -14.423993      -392.4968
  18   2.0000     -14.422753      -392.4631
  19   2.0000     -14.419376      -392.3712
  20   2.0000     -10.411394      -283.3084
  21   2.0000     -10.410862      -283.2940
  22   2.0000     -10.396113      -282.8926
  23   2.0000     -10.395718      -282.8819
  24   2.0000     -10.392624      -282.7977
  25   2.0000     -10.391648      -282.7711
  26   2.0000     -10.387251      -282.6515
  27   2.0000     -10.383990      -282.5627
  28   2.0000     -10.382095      -282.5112
  29   2.0000     -10.377861      -282.3960
  30   2.0000     -10.358130      -281.8590
  31   2.0000     -10.357030      -281.8291
  32   2.0000     -10.354623      -281.7636
  33   2.0000     -10.350335      -281.6469
  34   2.0000     -10.347858      -281.5795
  35   2.0000     -10.347088      -281.5586
  36   2.0000     -10.344464      -281.4872
  37   2.0000     -10.344371      -281.4846
  38   2.0000     -10.340225      -281.3718
  39   2.0000     -10.339137      -281.3422
  40   2.0000     -10.334648      -281.2201
  41   2.0000     -10.332860      -281.1714
  42   2.0000     -10.329841      -281.0893
  43   2.0000     -10.329008      -281.0666
  44   2.0000     -10.327620      -281.0288
  45   2.0000     -10.325645      -280.9751
  46   2.0000     -10.323959      -280.9292
  47   2.0000     -10.323854      -280.9263
  48   2.0000     -10.322768      -280.8968
  49   2.0000     -10.322205      -280.8815
  50   2.0000     -10.321003      -280.8488
  51   2.0000     -10.319017      -280.7947
  52   2.0000     -10.318264      -280.7742
  53   2.0000     -10.318006      -280.7672
  54   2.0000     -10.314858      -280.6816
  55   2.0000     -10.314260      -280.6653
  56   2.0000     -10.313995      -280.6581
  57   2.0000     -10.313981      -280.6577
  58   2.0000     -10.313339      -280.6402
  59   2.0000     -10.311073      -280.5786
  60   2.0000     -10.310512      -280.5633
  61   2.0000     -10.310353      -280.5590
  62   2.0000     -10.309462      -280.5347
  63   2.0000     -10.309192      -280.5274
  64   2.0000     -10.307724      -280.4874
  65   2.0000     -10.307562      -280.4830
  66   2.0000     -10.306670      -280.4588
  67   2.0000     -10.306443      -280.4526
  68   2.0000     -10.298916      -280.2477
  69   2.0000     -10.298514      -280.2368
  70   2.0000     -10.273680      -279.5610
  71   2.0000     -10.271593      -279.5043
  72   2.0000     -10.264461      -279.3102
  73   2.0000     -10.262560      -279.2584
  74   2.0000     -10.262491      -279.2566
  75   2.0000      -8.084597      -219.9931
  76   2.0000      -8.080244      -219.8746
  77   2.0000      -6.053807      -164.7325
  78   2.0000      -6.049566      -164.6171
  79   2.0000      -6.049520      -164.6158
  80   2.0000      -6.046853      -164.5432
  81   2.0000      -6.044954      -164.4916
  82   2.0000      -6.042697      -164.4301
  83   2.0000      -1.333684       -36.2914
  84   2.0000      -1.330241       -36.1977
  85   2.0000      -1.318399       -35.8754
  86   2.0000      -1.314950       -35.7816
  87   2.0000      -1.175353       -31.9830
  88   2.0000      -1.155040       -31.4302
  89   2.0000      -1.151838       -31.3431
  90   2.0000      -1.143100       -31.1053
  91   2.0000      -1.141971       -31.0746
  92   2.0000      -1.136214       -30.9180
  93   2.0000      -1.072966       -29.1969
  94   2.0000      -1.065762       -29.0009
  95   2.0000      -1.064142       -28.9568
  96   2.0000      -1.034300       -28.1447
  97   2.0000      -1.028216       -27.9792
  98   2.0000      -1.025553       -27.9067
  99   2.0000      -1.016267       -27.6540
 100   2.0000      -1.015539       -27.6342
 101   2.0000      -1.008908       -27.4538
 102   2.0000      -1.006825       -27.3971
 103   2.0000      -1.001356       -27.2483
 104   2.0000      -1.000048       -27.2127
 105   2.0000      -0.969869       -26.3915
 106   2.0000      -0.966245       -26.2929
 107   2.0000      -0.940330       -25.5877
 108   2.0000      -0.937059       -25.4987
 109   2.0000      -0.931751       -25.3542
 110   2.0000      -0.921715       -25.0812
 111   2.0000      -0.916693       -24.9445
 112   2.0000      -0.911896       -24.8140
 113   2.0000      -0.905745       -24.6466
 114   2.0000      -0.902624       -24.5616
 115   2.0000      -0.885333       -24.0911
 116   2.0000      -0.883262       -24.0348
 117   2.0000      -0.880609       -23.9626
 118   2.0000      -0.878058       -23.8932
 119   2.0000      -0.873152       -23.7597
 120   2.0000      -0.854837       -23.2613
 121   2.0000      -0.843553       -22.9542
 122   2.0000      -0.839111       -22.8334
 123   2.0000      -0.824145       -22.4261
 124   2.0000      -0.816564       -22.2198
 125   2.0000      -0.805760       -21.9258
 126   2.0000      -0.791199       -21.5296
 127   2.0000      -0.787177       -21.4202
 128   2.0000      -0.782864       -21.3028
 129   2.0000      -0.780258       -21.2319
 130   2.0000      -0.763969       -20.7887
 131   2.0000      -0.761143       -20.7117
 132   2.0000      -0.753674       -20.5085
 133   2.0000      -0.742313       -20.1994
 134   2.0000      -0.740264       -20.1436
 135   2.0000      -0.733712       -19.9653
 136   2.0000      -0.723719       -19.6934
 137   2.0000      -0.720728       -19.6120
 138   2.0000      -0.716543       -19.4981
 139   2.0000      -0.711602       -19.3637
 140   2.0000      -0.704418       -19.1682
 141   2.0000      -0.701968       -19.1015
 142   2.0000      -0.696260       -18.9462
 143   2.0000      -0.690062       -18.7776
 144   2.0000      -0.681900       -18.5554
 145   2.0000      -0.677377       -18.4324
 146   2.0000      -0.677062       -18.4238
 147   2.0000      -0.663166       -18.0457
 148   2.0000      -0.659150       -17.9364
 149   2.0000      -0.655088       -17.8258
 150   2.0000      -0.653917       -17.7940
 151   2.0000      -0.649076       -17.6623
 152   2.0000      -0.645957       -17.5774
 153   2.0000      -0.636874       -17.3302
 154   2.0000      -0.632402       -17.2085
 155   2.0000      -0.627635       -17.0788
 156   2.0000      -0.617610       -16.8060
 157   2.0000      -0.617404       -16.8004
 158   2.0000      -0.609707       -16.5910
 159   2.0000      -0.607063       -16.5190
 160   2.0000      -0.606248       -16.4968
 161   2.0000      -0.598627       -16.2895
 162   2.0000      -0.596582       -16.2338
 163   2.0000      -0.595048       -16.1921
 164   2.0000      -0.594835       -16.1863
 165   2.0000      -0.591974       -16.1084
 166   2.0000      -0.586832       -15.9685
 167   2.0000      -0.583262       -15.8714
 168   2.0000      -0.578834       -15.7509
 169   2.0000      -0.574484       -15.6325
 170   2.0000      -0.571364       -15.5476
 171   2.0000      -0.570266       -15.5177
 172   2.0000      -0.563150       -15.3241
 173   2.0000      -0.561127       -15.2690
 174   2.0000      -0.558858       -15.2073
 175   2.0000      -0.558142       -15.1878
 176   2.0000      -0.557666       -15.1749
 177   2.0000      -0.554901       -15.0996
 178   2.0000      -0.553764       -15.0687
 179   2.0000      -0.553585       -15.0638
 180   2.0000      -0.547948       -14.9104
 181   2.0000      -0.545675       -14.8486
 182   2.0000      -0.543040       -14.7769
 183   2.0000      -0.539387       -14.6775
 184   2.0000      -0.537815       -14.6347
 185   2.0000      -0.535956       -14.5841
 186   2.0000      -0.534598       -14.5472
 187   2.0000      -0.533698       -14.5227
 188   2.0000      -0.529547       -14.4097
 189   2.0000      -0.524859       -14.2821
 190   2.0000      -0.522878       -14.2282
 191   2.0000      -0.521173       -14.1818
 192   2.0000      -0.519334       -14.1318
 193   2.0000      -0.519003       -14.1228
 194   2.0000      -0.514746       -14.0070
 195   2.0000      -0.511099       -13.9077
 196   2.0000      -0.510287       -13.8856
 197   2.0000      -0.509859       -13.8740
 198   2.0000      -0.507113       -13.7992
 199   2.0000      -0.505626       -13.7588
 200   2.0000      -0.503305       -13.6956
 201   2.0000      -0.500348       -13.6152
 202   2.0000      -0.499609       -13.5950
 203   2.0000      -0.496799       -13.5186
 204   2.0000      -0.495016       -13.4701
 205   2.0000      -0.494495       -13.4559
 206   2.0000      -0.488384       -13.2896
 207   2.0000      -0.483530       -13.1575
 208   2.0000      -0.477534       -12.9944
 209   2.0000      -0.474449       -12.9104
 210   2.0000      -0.473233       -12.8773
 211   2.0000      -0.471614       -12.8333
 212   2.0000      -0.469548       -12.7770
 213   2.0000      -0.468891       -12.7592
 214   2.0000      -0.467672       -12.7260
 215   2.0000      -0.465260       -12.6604
 216   2.0000      -0.462929       -12.5970
 217   2.0000      -0.461565       -12.5598
 218   2.0000      -0.459761       -12.5107
 219   2.0000      -0.458142       -12.4667
 220   2.0000      -0.457332       -12.4446
 221   2.0000      -0.455790       -12.4027
 222   2.0000      -0.455285       -12.3889
 223   2.0000      -0.454949       -12.3798
 224   2.0000      -0.453386       -12.3373
 225   2.0000      -0.452990       -12.3265
 226   2.0000      -0.452129       -12.3031
 227   2.0000      -0.449007       -12.2181
 228   2.0000      -0.447040       -12.1646
 229   2.0000      -0.446569       -12.1517
 230   2.0000      -0.445903       -12.1336
 231   2.0000      -0.441115       -12.0033
 232   2.0000      -0.439504       -11.9595
 233   2.0000      -0.432552       -11.7703
 234   2.0000      -0.432114       -11.7584
 235   2.0000      -0.431908       -11.7528
 236   2.0000      -0.431303       -11.7364
 237   2.0000      -0.429045       -11.6749
 238   2.0000      -0.427610       -11.6358
 239   2.0000      -0.424647       -11.5552
 240   2.0000      -0.420841       -11.4517
 241   2.0000      -0.415256       -11.2997
 242   2.0000      -0.414207       -11.2712
 243   2.0000      -0.409205       -11.1350
 244   2.0000      -0.400529       -10.8990
 245   2.0000      -0.381458       -10.3800
 246   2.0000      -0.376870       -10.2552
 247   2.0000      -0.368432       -10.0255
 248   2.0000      -0.366222        -9.9654
 249   2.0000      -0.362698        -9.8695
 250   2.0000      -0.358156        -9.7459
 251   2.0000      -0.356277        -9.6948
 252   2.0000      -0.354888        -9.6570
 253   2.0000      -0.353135        -9.6093
 254   2.0000      -0.349569        -9.5123
 255   2.0000      -0.346110        -9.4181
 256   2.0000      -0.344889        -9.3849
 257   2.0000      -0.341439        -9.2910
 258   2.0000      -0.338633        -9.2147
 259   2.0000      -0.327207        -8.9038
 260   2.0000      -0.323807        -8.8112
 261   2.0000      -0.319885        -8.7045
 262   2.0000      -0.300803        -8.1853
 263   2.0000      -0.289599        -7.8804
 264   2.0000      -0.243087        -6.6147
 265   0.0000      -0.120913        -3.2902
 266   0.0000      -0.105260        -2.8643
 267   0.0000      -0.088889        -2.4188
 268   0.0000      -0.075223        -2.0469
 269   0.0000      -0.070218        -1.9107

MULLIKEN ATOMIC CHARGES
-----------------------
   0 C :   -0.085405
   1 C :    0.237025
   2 F :   -0.161711
   3 C :    0.235535
   4 F :   -0.164825
   5 C :   -0.099367
   6 C :   -0.010483
   7 C :    0.040276
   8 C :    0.318966
   9 C :   -0.343098
  10 C :   -0.190181
  11 N :    0.163190
  12 C :   -0.185357
  13 N :    0.152053
  14 C :   -0.092841
  15 C :    0.164577
  16 O :   -0.166245
  17 C :   -0.008979
  18 C :   -0.055430
  19 S :    0.237954
  20 C :   -0.050589
  21 C :   -0.049506
  22 C :    0.010956
  23 C :   -0.161561
  24 N :    0.121769
  25 C :    0.045218
  26 C :   -0.023124
  27 C :    0.131007
  28 N :   -0.255238
  29 C :    0.093017
  30 C :    0.008675
  31 C :    0.167579
  32 O :   -0.208114
  33 C :   -0.068796
  34 C :   -0.062736
  35 C :    0.169244
  36 O :   -0.200812
  37 N :   -0.254698
  38 C :    0.097004
  39 C :    0.008663
  40 C :    0.132627
  41 C :   -0.023229
  42 C :    0.068282
  43 C :   -0.149255
  44 S :    0.197674
  45 C :   -0.007076
  46 C :    0.213149
  47 O :   -0.176980
  48 N :   -0.290947
  49 C :    0.132817
  50 C :   -0.011223
  51 C :    0.223791
  52 O :   -0.187501
  53 C :    0.024308
  54 C :   -0.145162
  55 C :    0.062495
  56 C :    0.001393
  57 C :    0.035260
  58 C :   -0.104733
  59 C :    0.142777
  60 O :   -0.130372
  61 C :   -0.005657
  62 C :    0.035391
  63 C :   -0.085028
  64 C :    0.235784
  65 C :    0.232623
  66 C :   -0.097158
  67 F :   -0.167831
  68 F :   -0.162731
  69 C :    0.260697
  70 C :   -0.303583
  71 C :   -0.205182
  72 N :    0.166378
  73 C :   -0.181520
  74 N :    0.159877
  75 H :    0.018786
  76 H :    0.015782
  77 H :    0.011429
  78 H :    0.018648
  79 H :    0.009166
  80 H :   -0.010783
  81 H :    0.033909
  82 H :    0.042076
  83 H :    0.020986
  84 H :    0.030701
  85 H :    0.023915
  86 H :    0.040571
  87 H :    0.040496
  88 H :    0.024221
  89 H :    0.026236
  90 H :    0.017982
  91 H :   -0.005497
  92 H :   -0.000025
  93 H :    0.031011
  94 H :    0.035034
  95 H :    0.040310
  96 H :    0.027743
  97 H :    0.022751
  98 H :   -0.004317
  99 H :    0.046661
 100 H :    0.015792
 101 H :    0.017967
 102 H :    0.014681
Sum of atomic charges:   -0.0000000

LOEWDIN ATOMIC CHARGES
----------------------
   0 C :   -0.016803
   1 C :    0.075891
   2 F :   -0.040310
   3 C :    0.072188
   4 F :   -0.041999
   5 C :   -0.003148
   6 C :   -0.045499
   7 C :   -0.013910
   8 C :    0.075466
   9 C :   -0.132251
  10 C :   -0.020065
  11 N :   -0.041852
  12 C :   -0.021022
  13 N :   -0.043733
  14 C :   -0.105115
  15 C :    0.085538
  16 O :   -0.154322
  17 C :    0.059430
  18 C :   -0.188242
  19 S :    0.549416
  20 C :   -0.132001
  21 C :   -0.113082
  22 C :    0.018266
  23 C :   -0.026598
  24 N :   -0.057567
  25 C :   -0.009262
  26 C :   -0.016187
  27 C :    0.069178
  28 N :    0.003564
  29 C :    0.036468
  30 C :   -0.058564
  31 C :    0.079787
  32 O :   -0.199785
  33 C :   -0.116466
  34 C :   -0.109031
  35 C :    0.081277
  36 O :   -0.191835
  37 N :    0.005094
  38 C :    0.037957
  39 C :   -0.058836
  40 C :    0.077482
  41 C :   -0.020468
  42 C :   -0.004689
  43 C :   -0.130949
  44 S :    0.488618
  45 C :   -0.088663
  46 C :    0.098679
  47 O :   -0.163542
  48 N :   -0.020529
  49 C :    0.044365
  50 C :   -0.057989
  51 C :    0.104772
  52 O :   -0.160763
  53 C :   -0.077030
  54 C :   -0.137055
  55 C :   -0.005306
  56 C :   -0.007434
  57 C :    0.065082
  58 C :   -0.078657
  59 C :    0.082292
  60 O :   -0.132591
  61 C :   -0.047979
  62 C :   -0.010570
  63 C :   -0.019781
  64 C :    0.075669
  65 C :    0.070273
  66 C :   -0.003794
  67 F :   -0.044253
  68 F :   -0.041444
  69 C :    0.066544
  70 C :   -0.116506
  71 C :   -0.017444
  72 N :   -0.050703
  73 C :   -0.016037
  74 N :   -0.043713
  75 H :    0.052455
  76 H :    0.053798
  77 H :    0.052112
  78 H :    0.047773
  79 H :    0.037724
  80 H :    0.036997
  81 H :    0.026820
  82 H :    0.037472
  83 H :    0.024123
  84 H :    0.034840
  85 H :    0.029776
  86 H :    0.037051
  87 H :    0.030370
  88 H :    0.029409
  89 H :    0.032725
  90 H :    0.023489
  91 H :    0.032099
  92 H :    0.035851
  93 H :    0.032712
  94 H :    0.032656
  95 H :    0.032215
  96 H :    0.032888
  97 H :    0.027605
  98 H :    0.035399
  99 H :    0.033515
 100 H :    0.045315
 101 H :    0.051828
 102 H :    0.053063

  Mayer bond orders larger than 0.100000
B(  0-C ,  1-C ) :   1.3367 B(  0-C ,  5-C ) :   0.1039 B(  0-C ,  7-C ) :   1.3142
B(  0-C , 75-H ) :   0.9906 B(  1-C ,  2-F ) :   1.1493 B(  1-C ,  3-C ) :   1.2873
B(  3-C ,  4-F ) :   1.1349 B(  3-C ,  5-C ) :   1.3174 B(  5-C ,  6-C ) :   1.3191
B(  5-C , 76-H ) :   1.0199 B(  6-C ,  7-C ) :   1.3396 B(  6-C , 15-C ) :   0.9693
B(  7-C ,  8-C ) :   1.0064 B(  8-C ,  9-C ) :   1.6394 B(  8-C , 14-C ) :   1.0745
B(  9-C , 10-C ) :   1.1399 B(  9-C , 12-C ) :   1.1428 B( 10-C , 11-N ) :   2.9773
B( 12-C , 13-N ) :   2.9572 B( 14-C , 15-C ) :   0.9705 B( 14-C , 17-C ) :   1.5283
B( 15-C , 16-O ) :   2.1491 B( 17-C , 18-C ) :   1.2383 B( 17-C , 77-H ) :   0.9371
B( 18-C , 19-S ) :   1.0937 B( 18-C , 22-C ) :   1.3552 B( 19-S , 20-C ) :   1.1533
B( 20-C , 21-C ) :   1.3505 B( 20-C , 25-C ) :   1.1760 B( 21-C , 22-C ) :   1.3544
B( 21-C , 23-C ) :   1.1022 B( 22-C , 78-H ) :   1.0138 B( 23-C , 24-N ) :   2.9738
B( 25-C , 26-C ) :   1.5899 B( 25-C , 79-H ) :   0.9240 B( 26-C , 27-C ) :   1.1808
B( 26-C , 80-H ) :   0.9462 B( 27-C , 28-N ) :   1.1611 B( 27-C , 34-C ) :   1.3273
B( 28-N , 29-C ) :   0.9391 B( 28-N , 31-C ) :   1.0677 B( 29-C , 30-C ) :   1.1210
B( 29-C , 81-H ) :   0.9485 B( 29-C , 82-H ) :   0.9271 B( 30-C , 83-H ) :   0.9675
B( 30-C , 84-H ) :   0.9676 B( 30-C , 85-H ) :   0.9632 B( 31-C , 32-O ) :   2.0271
B( 31-C , 33-C ) :   0.9826 B( 32-O , 92-H ) :   0.1143 B( 33-C , 34-C ) :   1.2720
B( 33-C , 40-C ) :   1.3115 B( 34-C , 35-C ) :   0.9749 B( 35-C , 36-O ) :   2.0355
B( 35-C , 37-N ) :   1.0650 B( 36-O , 79-H ) :   0.1112 B( 37-N , 38-C ) :   0.9399
B( 37-N , 40-C ) :   1.1687 B( 38-C , 39-C ) :   1.1225 B( 38-C , 86-H ) :   0.9283
B( 38-C , 87-H ) :   0.9482 B( 39-C , 88-H ) :   0.9643 B( 39-C , 89-H ) :   0.9677
B( 39-C , 90-H ) :   0.9675 B( 40-C , 41-C ) :   1.1761 B( 41-C , 42-C ) :   1.5965
B( 41-C , 91-H ) :   0.9381 B( 42-C , 43-C ) :   1.1495 B( 42-C , 92-H ) :   0.9328
B( 43-C , 44-S ) :   1.1472 B( 43-C , 45-C ) :   1.4549 B( 44-S , 54-C ) :   1.1223
B( 45-C , 46-C ) :   0.9043 B( 45-C , 53-C ) :   1.2987 B( 46-C , 47-O ) :   2.0808
B( 46-C , 48-N ) :   1.0922 B( 47-O , 91-H ) :   0.1012 B( 48-N , 49-C ) :   0.9137
B( 48-N , 51-C ) :   1.1056 B( 49-C , 50-C ) :   1.1251 B( 49-C , 93-H ) :   0.9421
B( 49-C , 94-H ) :   0.9396 B( 50-C , 95-H ) :   0.9689 B( 50-C , 96-H ) :   0.9696
B( 50-C , 97-H ) :   0.9675 B( 51-C , 52-O ) :   2.0432 B( 51-C , 53-C ) :   0.8980
B( 52-O , 99-H ) :   0.1049 B( 53-C , 54-C ) :   1.4832 B( 54-C , 55-C ) :   1.1262
B( 55-C , 56-C ) :   1.6750 B( 55-C , 98-H ) :   0.9688 B( 56-C , 57-C ) :   1.1195
B( 56-C , 99-H ) :   0.9211 B( 57-C , 58-C ) :   1.6387 B( 57-C ,100-H ) :   0.9663
B( 58-C , 59-C ) :   0.9367 B( 58-C , 69-C ) :   1.0307 B( 59-C , 60-O ) :   2.2856
B( 59-C , 61-C ) :   0.9297 B( 61-C , 62-C ) :   1.3385 B( 61-C , 66-C ) :   1.3222
B( 62-C , 63-C ) :   1.3194 B( 62-C , 69-C ) :   1.0210 B( 63-C , 64-C ) :   1.3383
B( 63-C , 66-C ) :   0.1046 B( 63-C ,101-H ) :   0.9931 B( 64-C , 65-C ) :   1.2883
B( 64-C , 68-F ) :   1.1450 B( 65-C , 66-C ) :   1.3258 B( 65-C , 67-F ) :   1.1313
B( 66-C ,102-H ) :   1.0180 B( 69-C , 70-C ) :   1.6716 B( 70-C , 71-C ) :   1.1587
B( 70-C , 73-C ) :   1.1357 B( 71-C , 72-N ) :   2.9941 B( 73-C , 74-N ) :   2.9890

-----------------------------------------------------------------------------
         ABSORPTION SPECTRUM VIA TRANSITION ELECTRIC DIPOLE MOMENTS
-----------------------------------------------------------------------------
State   Energy  Wavelength   fosc         T2         TX        TY        TZ
        (cm-1)    (nm)                  (au**2)     (au)      (au)      (au)
-----------------------------------------------------------------------------
   0   12200.7    819.6   1.340323061  36.16597   1.88933  -5.69872  -0.34783
   1   17811.7    561.4   0.060116981   1.11114   0.00308   1.05057  -0.08623
   2   20488.3    488.1   0.176911038   2.84266   1.31380  -0.55248  -0.90075
   3   23056.8    433.7   0.135902844   1.94046  -0.09336   1.35640  -0.30321
   4   23578.3    424.1   0.606553496   8.46901   1.14309  -2.64942  -0.37806
   5   24273.2    412.0   0.539107822   7.31180   1.86831  -1.56685  -1.16885
   6   25077.2    398.8   0.013570065   0.17815   0.19359  -0.36561  -0.08369
   7   25859.7    386.7   0.082756650   1.05355  -0.34437   0.58276   0.77159
   8   26304.9    380.2   0.037455098   0.46876   0.49729  -0.22491  -0.41338
   9   26768.8    373.6   0.006219570   0.07649  -0.24920  -0.08477  -0.08489
  10   27284.8    366.5   0.002577765   0.03110  -0.14469   0.09261   0.03988
  11   28132.5    355.5   0.172360060   2.01699  -0.31763   1.20821   0.67553
  12   29093.4    343.7   0.001189905   0.01346  -0.10606   0.02841  -0.03753
  13   29697.5    336.7   0.053580366   0.59397   0.58286   0.20834  -0.45916
  14   29949.6    333.9   0.060829109   0.66865  -0.03381  -0.73778  -0.35097
  15   30393.7    329.0   0.033067161   0.35817  -0.29675  -0.41867   0.30793
  16   30564.7    327.2   0.000660353   0.00711   0.02956  -0.07843  -0.00938
  17   31949.3    313.0   0.131933983   1.35947  -0.58866   0.76857   0.64981
  18   31987.3    312.6   0.095089388   0.97865  -0.06516  -0.97726  -0.13915
  19   32345.3    309.2   0.013748271   0.13993   0.00524   0.15543   0.34021
  20   32720.2    305.6   0.004520984   0.04549  -0.18450  -0.04571   0.09673
  21   32891.6    304.0   0.006959195   0.06965  -0.02720  -0.01650   0.26200
  22   33083.8    302.3   0.013041906   0.12978  -0.04365   0.30640   0.18436
  23   33084.5    302.3   0.011167467   0.11112   0.02571   0.04937   0.32867
  24   33573.0    297.9   0.010897638   0.10686   0.13432   0.17304   0.24264
  25   33802.4    295.8   0.197313309   1.92169  -1.02318  -0.37908   0.85504
  26   34137.0    292.9   0.165178505   1.59296  -0.73006   0.78833   0.66219
  27   34829.3    287.1   0.071971812   0.68029  -0.34110   0.59012   0.46443
  28   35263.4    283.6   0.039925150   0.37273  -0.32097   0.51079   0.09385
  29   35424.1    282.3   0.029545217   0.27458  -0.24750   0.42161   0.18859
  30   35502.2    281.7   0.033431281   0.31001   0.21534  -0.34834  -0.37722
  31   35649.0    280.5   0.092399093   0.85329   0.41504  -0.74140  -0.36243
  32   35779.3    279.5   0.139583782   1.28434   0.52133   0.10968  -1.00026
  33   35884.9    278.7   0.099405814   0.91196  -0.55258   0.55903   0.54231
  34   36401.9    274.7   0.719808525   6.50981  -0.39793  -2.49296  -0.36964
  35   36555.3    273.6   0.410300894   3.69511  -0.53174   0.22077   1.83402
  36   36674.9    272.7   0.324487089   2.91275   0.52296   1.40025  -0.82375
  37   37677.9    265.4   0.015463553   0.13511  -0.11469   0.16322  -0.30874
  38   37847.4    264.2   0.001253046   0.01090   0.03982  -0.09460   0.01908
  39   37938.4    263.6   0.000713479   0.00619  -0.06307   0.04579  -0.01081
  40   38392.3    260.5   0.013794473   0.11829   0.12780  -0.31140   0.07060
  41   38497.8    259.8   0.038033190   0.32524  -0.44789  -0.01972   0.35248
  42   38747.8    258.1   0.070822571   0.60173  -0.12705  -0.62147   0.44649
  43   39060.6    256.0   0.031706716   0.26723   0.28909   0.28083  -0.32372
  44   39486.8    253.2   0.039922034   0.33284   0.10709   0.50386  -0.25980
  45   39672.4    252.1   0.020432608   0.16956  -0.27460  -0.14144   0.27230
  46   39950.7    250.3   0.011580939   0.09543  -0.20733   0.22761   0.02533
  47   39995.4    250.0   0.103089735   0.84856  -0.54520   0.67983   0.29858

FINAL SINGLE POINT ENERGY     -4193.360948426955

DIPOLE MOMENT
-------------
                                X             Y             Z
Electronic contribution:    -24.41237       0.63133       4.93610
Nuclear contribution   :     23.65186      -2.21182      -5.48243
                        -----------------------------------------
Total Dipole Moment    :     -0.76051      -1.58050      -0.54633
                        -----------------------------------------
Magnitude (a.u.)       :      1.83707
Magnitude (Debye)      :      4.66946

Rotational constants in cm-1:     0.002281     0.000185     0.000173
Rotational constants in MHz :    68.379770     5.543384     5.199938

                             ****ORCA TERMINATED NORMALLY****
TOTAL RUN TIME: 0 days 0 hours 9 minutes 29 seconds 731 msec
