                         Program Version 4.2.0 -  RELEASE  -
|  1> # ORCA input file
|  2> # SCF done       -197.039262600448          0.000939169186
|  3> ! CAM-B3LYP def2-SVP def2/J RIJCOSX Grid4 TightSCF
|  4> %maxcore 5000
|  5> %tddft
|  6>     Mode sTDDFT
|  7>     Ethresh 5.0
|  8>     maxcore 5000
|  9> end
| 10>
| 11> %pal
| 12>   nprocs 6
| 13>   end
| 14> * xyz 0 1
| 15>    C       -2.50883         1.61798        -4.09992
| 16>    C       -1.47992         2.48084        -4.36951
| 17>    C       -1.14738         2.92142        -5.66662
| 18>    N       -0.85415         3.32724        -6.69927
| 19>    C       -0.58962         2.95937        -3.38541
| 20>    N        0.17532         3.33879        -2.61811
| 21>    C       -3.27077         0.86935        -5.09067
| 22>    C       -3.84045        -0.27294        -4.45379
| 23>    C       -4.57275        -1.18985        -5.15184
| 24>    C       -4.77970        -0.99728        -6.53644
| 25>    C       -4.22719         0.15180        -7.17409
| 26>    C       -3.46771         1.08202        -6.42853
| 27>    C       -4.44666         0.33415        -8.55468
| 28>    C       -5.17294        -0.57539        -9.27401
| 29>    C       -5.71481        -1.70714        -8.64621
| 30>    C       -5.52237        -1.91364        -7.30704
| 31>    C       -3.51229        -0.25074        -3.01669
| 32>    O       -3.77583        -1.07384        -2.17468
| 33>    C       -2.83622         1.06680        -2.79871
| 34>    C       -2.74107         1.58310        -1.54899
| 35>    C       -2.52870         2.93396        -1.16759
| 36>    S       -2.96409         4.31358        -2.15874
| 37>    C       -2.43786         5.47671        -0.95663
| 38>    C       -1.96307         4.79846         0.15057
| 39>    C       -2.04052         3.39543         0.03340
| 40>    C       -1.49140         2.78148         1.25853
| 41>    O       -1.39100         1.62695         1.57408
| 42>    N       -1.10425         3.87008         2.02713
| 43>    C       -1.33333         5.11360         1.44620
| 44>    O       -1.04538         6.16842         1.94528
| 45>    C       -2.54412         6.85364        -1.27121
| 46>    C       -2.30102         7.86301        -0.39581
| 47>    C       -2.37061         9.25820        -0.64790
| 48>    N       -2.37451         9.93018        -1.85422
| 49>    C       -2.14622         9.41632        -3.18556
| 50>    C       -0.74803         8.82904        -3.35013
| 51>    C       -2.45224        11.32370        -1.66983
| 52>    O       -2.46212        12.11934        -2.58973
| 53>    C       -2.52329        11.50312        -0.23927
| 54>    C       -2.46320        10.22156         0.35462
| 55>    C       -2.55914        10.38670         1.79262
| 56>    O       -2.59119         9.59937         2.70829
| 57>    N       -2.62707        11.78916         1.96841
| 58>    C       -2.77169        12.36746         3.28250
| 59>    C       -4.21808        12.75910         3.57427
| 60>    C       -2.61789        12.46051         0.77307
| 61>    C       -2.67351        13.87299         0.65285
| 62>    C       -2.69694        14.49245        -0.55362
| 63>    C       -2.74172        15.90435        -0.68941
| 64>    S       -2.81536        16.68052        -2.26359
| 65>    C       -2.82240        18.19462        -1.37154
| 66>    N       -2.77426        18.01083        -0.07760
| 67>    N       -2.73171        16.76919         0.29338
| 68>    C       -2.87369        19.45259        -2.03277
| 69>    C       -2.83389        20.62303        -1.35172
| 70>    C       -2.91190        21.93737        -1.88974
| 71>    C       -2.65615        22.41055        -3.14405
| 72>    C       -2.82456        23.80809        -3.52665
| 73>    C       -3.60799        24.73453        -2.89168
| 74>    C       -3.75145        26.07074        -3.32292
| 75>    N       -3.90348        27.16942        -3.61836
| 76>    C       -4.41962        24.48640        -1.76345
| 77>    N       -5.12808        24.36259        -0.86818
| 78>    C       -2.09802        24.02737        -4.76926
| 79>    C       -1.59409        22.77516        -5.22008
| 80>    C       -1.96729        21.71517        -4.26863
| 81>    O       -1.72693        20.53384        -4.39399
| 82>    C       -0.88745        22.65674        -6.38258
| 83>    C       -0.64325        23.81057        -7.15979
| 84>    C       -1.12939        25.07138        -6.70674
| 85>    C       -1.86018        25.16179        -5.50011
| 86>    C       -0.87362        26.21751        -7.48704
| 87>    C       -0.17732        26.12388        -8.66124
| 88>    C        0.29690        24.88147        -9.10848
| 89>    C        0.06973        23.74965        -8.37345
| 90>    H       -4.98903        -2.05316        -4.65432
| 91>    H       -3.06697         1.94852        -6.93147
| 92>    H       -4.02432         1.20506        -9.03403
| 93>    H       -5.33347        -0.42815       -10.33146
| 94>    H       -6.28552        -2.41442        -9.22905
| 95>    H       -5.93704        -2.78330        -6.81876
| 96>    H       -2.90211         0.89211        -0.72636
| 97>    H       -0.67314         3.77186         2.93558
| 98>    H       -2.87154         7.05590        -2.27970
| 99>    H       -2.05472         7.62132         0.63131
|100>    H       -2.25882        10.28184        -3.84664
|101>    H       -2.91822         8.68933        -3.45109
|102>    H       -0.00008         9.58928        -3.13861
|103>    H       -0.61457         8.48700        -4.37268
|104>    H       -0.58641         7.98974        -2.67816
|105>    H       -2.10848        13.23130         3.37722
|106>    H       -2.45155        11.59508         3.98747
|107>    H       -4.57187        13.50283         2.86380
|108>    H       -4.29167        13.17067         4.57691
|109>    H       -4.85959        11.88354         3.51030
|110>    H       -2.69344        14.47579         1.54879
|111>    H       -2.68163        13.91608        -1.46855
|112>    H       -2.94521        19.42556        -3.10824
|113>    H       -2.79999        20.56285        -0.27120
|114>    H       -3.18798        22.68265        -1.15163
|115>    H       -0.52152        21.69343        -6.70568
|116>    H       -2.21028        26.13081        -5.18186
|117>    H       -1.24267        27.17135        -7.13981
|118>    H        0.01136        27.00708        -9.25290
|119>    H        0.84310        24.82590       -10.03823
|120>    H        0.43290        22.79050        -8.71241
|121> *
|122>
|123>                          ****END OF INPUT****

CARTESIAN COORDINATES (ANGSTROEM)
---------------------------------
  C     -2.508830    1.617980   -4.099920
  C     -1.479920    2.480840   -4.369510
  C     -1.147380    2.921420   -5.666620
  N     -0.854150    3.327240   -6.699270
  C     -0.589620    2.959370   -3.385410
  N      0.175320    3.338790   -2.618110
  C     -3.270770    0.869350   -5.090670
  C     -3.840450   -0.272940   -4.453790
  C     -4.572750   -1.189850   -5.151840
  C     -4.779700   -0.997280   -6.536440
  C     -4.227190    0.151800   -7.174090
  C     -3.467710    1.082020   -6.428530
  C     -4.446660    0.334150   -8.554680
  C     -5.172940   -0.575390   -9.274010
  C     -5.714810   -1.707140   -8.646210
  C     -5.522370   -1.913640   -7.307040
  C     -3.512290   -0.250740   -3.016690
  O     -3.775830   -1.073840   -2.174680
  C     -2.836220    1.066800   -2.798710
  C     -2.741070    1.583100   -1.548990
  C     -2.528700    2.933960   -1.167590
  S     -2.964090    4.313580   -2.158740
  C     -2.437860    5.476710   -0.956630
  C     -1.963070    4.798460    0.150570
  C     -2.040520    3.395430    0.033400
  C     -1.491400    2.781480    1.258530
  O     -1.391000    1.626950    1.574080
  N     -1.104250    3.870080    2.027130
  C     -1.333330    5.113600    1.446200
  O     -1.045380    6.168420    1.945280
  C     -2.544120    6.853640   -1.271210
  C     -2.301020    7.863010   -0.395810
  C     -2.370610    9.258200   -0.647900
  N     -2.374510    9.930180   -1.854220
  C     -2.146220    9.416320   -3.185560
  C     -0.748030    8.829040   -3.350130
  C     -2.452240   11.323700   -1.669830
  O     -2.462120   12.119340   -2.589730
  C     -2.523290   11.503120   -0.239270
  C     -2.463200   10.221560    0.354620
  C     -2.559140   10.386700    1.792620
  O     -2.591190    9.599370    2.708290
  N     -2.627070   11.789160    1.968410
  C     -2.771690   12.367460    3.282500
  C     -4.218080   12.759100    3.574270
  C     -2.617890   12.460510    0.773070
  C     -2.673510   13.872990    0.652850
  C     -2.696940   14.492450   -0.553620
  C     -2.741720   15.904350   -0.689410
  S     -2.815360   16.680520   -2.263590
  C     -2.822400   18.194620   -1.371540
  N     -2.774260   18.010830   -0.077600
  N     -2.731710   16.769190    0.293380
  C     -2.873690   19.452590   -2.032770
  C     -2.833890   20.623030   -1.351720
  C     -2.911900   21.937370   -1.889740
  C     -2.656150   22.410550   -3.144050
  C     -2.824560   23.808090   -3.526650
  C     -3.607990   24.734530   -2.891680
  C     -3.751450   26.070740   -3.322920
  N     -3.903480   27.169420   -3.618360
  C     -4.419620   24.486400   -1.763450
  N     -5.128080   24.362590   -0.868180
  C     -2.098020   24.027370   -4.769260
  C     -1.594090   22.775160   -5.220080
  C     -1.967290   21.715170   -4.268630
  O     -1.726930   20.533840   -4.393990
  C     -0.887450   22.656740   -6.382580
  C     -0.643250   23.810570   -7.159790
  C     -1.129390   25.071380   -6.706740
  C     -1.860180   25.161790   -5.500110
  C     -0.873620   26.217510   -7.487040
  C     -0.177320   26.123880   -8.661240
  C      0.296900   24.881470   -9.108480
  C      0.069730   23.749650   -8.373450
  H     -4.989030   -2.053160   -4.654320
  H     -3.066970    1.948520   -6.931470
  H     -4.024320    1.205060   -9.034030
  H     -5.333470   -0.428150  -10.331460
  H     -6.285520   -2.414420   -9.229050
  H     -5.937040   -2.783300   -6.818760
  H     -2.902110    0.892110   -0.726360
  H     -0.673140    3.771860    2.935580
  H     -2.871540    7.055900   -2.279700
  H     -2.054720    7.621320    0.631310
  H     -2.258820   10.281840   -3.846640
  H     -2.918220    8.689330   -3.451090
  H     -0.000080    9.589280   -3.138610
  H     -0.614570    8.487000   -4.372680
  H     -0.586410    7.989740   -2.678160
  H     -2.108480   13.231300    3.377220
  H     -2.451550   11.595080    3.987470
  H     -4.571870   13.502830    2.863800
  H     -4.291670   13.170670    4.576910
  H     -4.859590   11.883540    3.510300
  H     -2.693440   14.475790    1.548790
  H     -2.681630   13.916080   -1.468550
  H     -2.945210   19.425560   -3.108240
  H     -2.799990   20.562850   -0.271200
  H     -3.187980   22.682650   -1.151630
  H     -0.521520   21.693430   -6.705680
  H     -2.210280   26.130810   -5.181860
  H     -1.242670   27.171350   -7.139810
  H      0.011360   27.007080   -9.252900
  H      0.843100   24.825900  -10.038230
  H      0.432900   22.790500   -8.712410

 Total Charge           Charge          ....    0
 Multiplicity           Mult            ....    1
 Number of Electrons    NEL             ....  522
 Basis Dimension        Dim             .... 1213

ORBITAL ENERGIES
----------------

  NO   OCC          E(Eh)            E(eV)
   0   2.0000     -88.986506     -2421.4459
   1   2.0000     -88.982406     -2421.3344
   2   2.0000     -19.223643      -523.1019
   3   2.0000     -19.219522      -522.9898
   4   2.0000     -19.217061      -522.9228
   5   2.0000     -19.216682      -522.9125
   6   2.0000     -19.197436      -522.3888
   7   2.0000     -19.196645      -522.3673
   8   2.0000     -14.459013      -393.4497
   9   2.0000     -14.458848      -393.4452
  10   2.0000     -14.458177      -393.4270
  11   2.0000     -14.449392      -393.1880
  12   2.0000     -14.448945      -393.1758
  13   2.0000     -14.422630      -392.4597
  14   2.0000     -14.420108      -392.3911
  15   2.0000     -14.417077      -392.3086
  16   2.0000     -14.416651      -392.2970
  17   2.0000     -10.403228      -283.0862
  18   2.0000     -10.403113      -283.0831
  19   2.0000     -10.380611      -282.4708
  20   2.0000     -10.379015      -282.4273
  21   2.0000     -10.374690      -282.3097
  22   2.0000     -10.371293      -282.2172
  23   2.0000     -10.351024      -281.6657
  24   2.0000     -10.350854      -281.6610
  25   2.0000     -10.350583      -281.6537
  26   2.0000     -10.349355      -281.6203
  27   2.0000     -10.347962      -281.5824
  28   2.0000     -10.345396      -281.5125
  29   2.0000     -10.344929      -281.4998
  30   2.0000     -10.342715      -281.4396
  31   2.0000     -10.341518      -281.4070
  32   2.0000     -10.338921      -281.3363
  33   2.0000     -10.327270      -281.0193
  34   2.0000     -10.324682      -280.9489
  35   2.0000     -10.322083      -280.8781
  36   2.0000     -10.320828      -280.8440
  37   2.0000     -10.319622      -280.8112
  38   2.0000     -10.319188      -280.7994
  39   2.0000     -10.310736      -280.5694
  40   2.0000     -10.309712      -280.5415
  41   2.0000     -10.309105      -280.5250
  42   2.0000     -10.308923      -280.5200
  43   2.0000     -10.307870      -280.4914
  44   2.0000     -10.307619      -280.4846
  45   2.0000     -10.307217      -280.4736
  46   2.0000     -10.306498      -280.4541
  47   2.0000     -10.305586      -280.4292
  48   2.0000     -10.305478      -280.4263
  49   2.0000     -10.303278      -280.3665
  50   2.0000     -10.302684      -280.3503
  51   2.0000     -10.302241      -280.3382
  52   2.0000     -10.302086      -280.3340
  53   2.0000     -10.302080      -280.3338
  54   2.0000     -10.302006      -280.3318
  55   2.0000     -10.301706      -280.3237
  56   2.0000     -10.300597      -280.2935
  57   2.0000     -10.300355      -280.2869
  58   2.0000     -10.299920      -280.2751
  59   2.0000     -10.299523      -280.2643
  60   2.0000     -10.297376      -280.2059
  61   2.0000     -10.294588      -280.1300
  62   2.0000     -10.291898      -280.0568
  63   2.0000     -10.290580      -280.0209
  64   2.0000     -10.290230      -280.0114
  65   2.0000     -10.289980      -280.0046
  66   2.0000     -10.289622      -279.9948
  67   2.0000     -10.289161      -279.9823
  68   2.0000     -10.288682      -279.9693
  69   2.0000     -10.288355      -279.9604
  70   2.0000     -10.287869      -279.9471
  71   2.0000     -10.272124      -279.5187
  72   2.0000     -10.267989      -279.4062
  73   2.0000     -10.264992      -279.3246
  74   2.0000     -10.263453      -279.2828
  75   2.0000      -8.081370      -219.9053
  76   2.0000      -8.078719      -219.8331
  77   2.0000      -6.050783      -164.6502
  78   2.0000      -6.047209      -164.5529
  79   2.0000      -6.046485      -164.5332
  80   2.0000      -6.043904      -164.4630
  81   2.0000      -6.043384      -164.4488
  82   2.0000      -6.041322      -164.3927
  83   2.0000      -1.162488       -31.6329
  84   2.0000      -1.152808       -31.3695
  85   2.0000      -1.141646       -31.0658
  86   2.0000      -1.139803       -31.0156
  87   2.0000      -1.138860       -30.9899
  88   2.0000      -1.135556       -30.9001
  89   2.0000      -1.133195       -30.8358
  90   2.0000      -1.069675       -29.1073
  91   2.0000      -1.059503       -28.8305
  92   2.0000      -1.051847       -28.6222
  93   2.0000      -1.025917       -27.9166
  94   2.0000      -1.020439       -27.7675
  95   2.0000      -1.008818       -27.4513
  96   2.0000      -1.003654       -27.3108
  97   2.0000      -1.000892       -27.2356
  98   2.0000      -0.998523       -27.1712
  99   2.0000      -0.995189       -27.0805
 100   2.0000      -0.976624       -26.5753
 101   2.0000      -0.974634       -26.5211
 102   2.0000      -0.958187       -26.0736
 103   2.0000      -0.940182       -25.5837
 104   2.0000      -0.934526       -25.4297
 105   2.0000      -0.932451       -25.3733
 106   2.0000      -0.927220       -25.2309
 107   2.0000      -0.924489       -25.1566
 108   2.0000      -0.910111       -24.7654
 109   2.0000      -0.906847       -24.6766
 110   2.0000      -0.896357       -24.3911
 111   2.0000      -0.887138       -24.1403
 112   2.0000      -0.886265       -24.1165
 113   2.0000      -0.884313       -24.0634
 114   2.0000      -0.882756       -24.0210
 115   2.0000      -0.877771       -23.8854
 116   2.0000      -0.871547       -23.7160
 117   2.0000      -0.846497       -23.0343
 118   2.0000      -0.844618       -22.9832
 119   2.0000      -0.833092       -22.6696
 120   2.0000      -0.830959       -22.6115
 121   2.0000      -0.823798       -22.4167
 122   2.0000      -0.814818       -22.1723
 123   2.0000      -0.803906       -21.8754
 124   2.0000      -0.795561       -21.6483
 125   2.0000      -0.786199       -21.3936
 126   2.0000      -0.766453       -20.8562
 127   2.0000      -0.764715       -20.8089
 128   2.0000      -0.763510       -20.7762
 129   2.0000      -0.751636       -20.4531
 130   2.0000      -0.745691       -20.2913
 131   2.0000      -0.744746       -20.2656
 132   2.0000      -0.729412       -19.8483
 133   2.0000      -0.721433       -19.6312
 134   2.0000      -0.714088       -19.4313
 135   2.0000      -0.708780       -19.2869
 136   2.0000      -0.707337       -19.2476
 137   2.0000      -0.706171       -19.2159
 138   2.0000      -0.704703       -19.1760
 139   2.0000      -0.701418       -19.0865
 140   2.0000      -0.699358       -19.0305
 141   2.0000      -0.691065       -18.8048
 142   2.0000      -0.682523       -18.5724
 143   2.0000      -0.680820       -18.5261
 144   2.0000      -0.670838       -18.2544
 145   2.0000      -0.660914       -17.9844
 146   2.0000      -0.654031       -17.7971
 147   2.0000      -0.644836       -17.5469
 148   2.0000      -0.643530       -17.5113
 149   2.0000      -0.636106       -17.3093
 150   2.0000      -0.629189       -17.1211
 151   2.0000      -0.612518       -16.6675
 152   2.0000      -0.611259       -16.6332
 153   2.0000      -0.609889       -16.5959
 154   2.0000      -0.609021       -16.5723
 155   2.0000      -0.605022       -16.4635
 156   2.0000      -0.600414       -16.3381
 157   2.0000      -0.595964       -16.2170
 158   2.0000      -0.592128       -16.1126
 159   2.0000      -0.590732       -16.0746
 160   2.0000      -0.588676       -16.0187
 161   2.0000      -0.581817       -15.8321
 162   2.0000      -0.576012       -15.6741
 163   2.0000      -0.571558       -15.5529
 164   2.0000      -0.569922       -15.5084
 165   2.0000      -0.565714       -15.3939
 166   2.0000      -0.562784       -15.3141
 167   2.0000      -0.559296       -15.2192
 168   2.0000      -0.553982       -15.0746
 169   2.0000      -0.551081       -14.9957
 170   2.0000      -0.550720       -14.9858
 171   2.0000      -0.549534       -14.9536
 172   2.0000      -0.548423       -14.9233
 173   2.0000      -0.544927       -14.8282
 174   2.0000      -0.539761       -14.6877
 175   2.0000      -0.539558       -14.6821
 176   2.0000      -0.537892       -14.6368
 177   2.0000      -0.536002       -14.5854
 178   2.0000      -0.533082       -14.5059
 179   2.0000      -0.530443       -14.4341
 180   2.0000      -0.526631       -14.3304
 181   2.0000      -0.524512       -14.2727
 182   2.0000      -0.523059       -14.2332
 183   2.0000      -0.522223       -14.2104
 184   2.0000      -0.520119       -14.1532
 185   2.0000      -0.517651       -14.0860
 186   2.0000      -0.516408       -14.0522
 187   2.0000      -0.515498       -14.0274
 188   2.0000      -0.514881       -14.0106
 189   2.0000      -0.512199       -13.9376
 190   2.0000      -0.511657       -13.9229
 191   2.0000      -0.510049       -13.8791
 192   2.0000      -0.509523       -13.8648
 193   2.0000      -0.500931       -13.6310
 194   2.0000      -0.499529       -13.5929
 195   2.0000      -0.498421       -13.5627
 196   2.0000      -0.494385       -13.4529
 197   2.0000      -0.489195       -13.3117
 198   2.0000      -0.489003       -13.3065
 199   2.0000      -0.487951       -13.2778
 200   2.0000      -0.484856       -13.1936
 201   2.0000      -0.481430       -13.1004
 202   2.0000      -0.478925       -13.0322
 203   2.0000      -0.473536       -12.8856
 204   2.0000      -0.471811       -12.8386
 205   2.0000      -0.470304       -12.7976
 206   2.0000      -0.469353       -12.7718
 207   2.0000      -0.467171       -12.7124
 208   2.0000      -0.465964       -12.6795
 209   2.0000      -0.461028       -12.5452
 210   2.0000      -0.456872       -12.4321
 211   2.0000      -0.455676       -12.3996
 212   2.0000      -0.452390       -12.3102
 213   2.0000      -0.451233       -12.2787
 214   2.0000      -0.449897       -12.2423
 215   2.0000      -0.449697       -12.2369
 216   2.0000      -0.449296       -12.2260
 217   2.0000      -0.445537       -12.1237
 218   2.0000      -0.444562       -12.0971
 219   2.0000      -0.443805       -12.0766
 220   2.0000      -0.442539       -12.0421
 221   2.0000      -0.438070       -11.9205
 222   2.0000      -0.436039       -11.8652
 223   2.0000      -0.435494       -11.8504
 224   2.0000      -0.435068       -11.8388
 225   2.0000      -0.434821       -11.8321
 226   2.0000      -0.432020       -11.7559
 227   2.0000      -0.428785       -11.6678
 228   2.0000      -0.426856       -11.6154
 229   2.0000      -0.425310       -11.5733
 230   2.0000      -0.421726       -11.4757
 231   2.0000      -0.420784       -11.4501
 232   2.0000      -0.418683       -11.3930
 233   2.0000      -0.410538       -11.1713
 234   2.0000      -0.408864       -11.1257
 235   2.0000      -0.405028       -11.0214
 236   2.0000      -0.400671       -10.9028
 237   2.0000      -0.391073       -10.6416
 238   2.0000      -0.388603       -10.5744
 239   2.0000      -0.381025       -10.3682
 240   2.0000      -0.378237       -10.2923
 241   2.0000      -0.371269       -10.1027
 242   2.0000      -0.368400       -10.0247
 243   2.0000      -0.367972       -10.0130
 244   2.0000      -0.354412        -9.6440
 245   2.0000      -0.353173        -9.6103
 246   2.0000      -0.349278        -9.5043
 247   2.0000      -0.346233        -9.4215
 248   2.0000      -0.345822        -9.4103
 249   2.0000      -0.338956        -9.2235
 250   2.0000      -0.337902        -9.1948
 251   2.0000      -0.336492        -9.1564
 252   2.0000      -0.332070        -9.0361
 253   2.0000      -0.322073        -8.7640
 254   2.0000      -0.321177        -8.7397
 255   2.0000      -0.319992        -8.7074
 256   2.0000      -0.303461        -8.2576
 257   2.0000      -0.300739        -8.1835
 258   2.0000      -0.296027        -8.0553
 259   2.0000      -0.289069        -7.8660
 260   2.0000      -0.243794        -6.6340
 261   0.0000      -0.116196        -3.1619
 262   0.0000      -0.103583        -2.8186
 263   0.0000      -0.086204        -2.3457
 264   0.0000      -0.062844        -1.7101
 265   0.0000      -0.060645        -1.6502

MULLIKEN ATOMIC CHARGES
-----------------------
   0 C :    0.248464
   1 C :   -0.322231
   2 C :   -0.174430
   3 N :    0.158012
   4 C :   -0.203458
   5 N :    0.175883
   6 C :    0.040663
   7 C :    0.009090
   8 C :   -0.079393
   9 C :    0.094509
  10 C :    0.095499
  11 C :   -0.081782
  12 C :   -0.017263
  13 C :    0.035885
  14 C :    0.036019
  15 C :   -0.015204
  16 C :    0.143265
  17 O :   -0.128903
  18 C :   -0.127407
  19 C :    0.049933
  20 C :   -0.201041
  21 S :    0.172197
  22 C :   -0.132803
  23 C :   -0.013192
  24 C :    0.055944
  25 C :    0.175771
  26 O :   -0.135236
  27 N :   -0.155978
  28 C :    0.190525
  29 O :   -0.136510
  30 C :    0.060353
  31 C :   -0.017818
  32 C :    0.092531
  33 N :   -0.266901
  34 C :    0.091884
  35 C :   -0.005953
  36 C :    0.167450
  37 O :   -0.214370
  38 C :   -0.071820
  39 C :   -0.022739
  40 C :    0.153395
  41 O :   -0.163974
  42 N :   -0.265854
  43 C :    0.094844
  44 C :    0.000959
  45 C :    0.153124
  46 C :   -0.025870
  47 C :    0.088623
  48 C :   -0.120676
  49 S :    0.147675
  50 C :   -0.123862
  51 N :   -0.033258
  52 N :   -0.037054
  53 C :    0.114314
  54 C :   -0.000598
  55 C :   -0.004836
  56 C :   -0.071181
  57 C :    0.293760
  58 C :   -0.334329
  59 C :   -0.181428
  60 N :    0.150822
  61 C :   -0.210088
  62 N :    0.165351
  63 C :    0.050370
  64 C :   -0.001219
  65 C :    0.157539
  66 O :   -0.155169
  67 C :   -0.082128
  68 C :    0.099901
  69 C :    0.097762
  70 C :   -0.083445
  71 C :   -0.018727
  72 C :    0.036718
  73 C :    0.038317
  74 C :   -0.016931
  75 H :   -0.008817
  76 H :   -0.005376
  77 H :   -0.010610
  78 H :   -0.002500
  79 H :   -0.002807
  80 H :   -0.015359
  81 H :    0.047981
  82 H :    0.143049
  83 H :   -0.032253
  84 H :    0.036737
  85 H :    0.047747
  86 H :    0.026402
  87 H :    0.026254
  88 H :    0.027149
  89 H :    0.033870
  90 H :    0.029607
  91 H :    0.047151
  92 H :    0.020521
  93 H :    0.026905
  94 H :    0.030272
  95 H :    0.005734
  96 H :    0.014826
  97 H :    0.022287
  98 H :    0.029404
  99 H :    0.033971
 100 H :   -0.013487
 101 H :   -0.007062
 102 H :   -0.008870
 103 H :   -0.003448
 104 H :   -0.003933
 105 H :   -0.017638
Sum of atomic charges:   -0.0000000

LOEWDIN ATOMIC CHARGES
----------------------
   0 C :    0.060520
   1 C :   -0.137565
   2 C :   -0.018875
   3 N :   -0.048002
   4 C :   -0.034878
   5 N :   -0.045525
   6 C :   -0.023713
   7 C :   -0.057568
   8 C :    0.034798
   9 C :   -0.008298
  10 C :   -0.004956
  11 C :    0.016259
  12 C :   -0.006366
  13 C :   -0.011611
  14 C :   -0.011529
  15 C :   -0.008164
  16 C :    0.083990
  17 O :   -0.130671
  18 C :   -0.080554
  19 C :    0.053489
  20 C :   -0.154561
  21 S :    0.480597
  22 C :   -0.109526
  23 C :   -0.096646
  24 C :   -0.055505
  25 C :    0.086654
  26 O :   -0.146489
  27 N :    0.001273
  28 C :    0.091305
  29 O :   -0.140874
  30 C :   -0.047311
  31 C :    0.011415
  32 C :    0.060642
  33 N :   -0.003921
  34 C :    0.034079
  35 C :   -0.062269
  36 C :    0.080741
  37 O :   -0.202350
  38 C :   -0.124999
  39 C :   -0.094752
  40 C :    0.083647
  41 O :   -0.168530
  42 N :   -0.002292
  43 C :    0.036564
  44 C :   -0.060480
  45 C :    0.086142
  46 C :   -0.013051
  47 C :   -0.001043
  48 C :   -0.150973
  49 S :    0.428815
  50 C :   -0.153978
  51 N :   -0.061752
  52 N :   -0.069203
  53 C :    0.010091
  54 C :   -0.012651
  55 C :    0.064808
  56 C :   -0.080110
  57 C :    0.074375
  58 C :   -0.134218
  59 C :   -0.016655
  60 N :   -0.050525
  61 C :   -0.027361
  62 N :   -0.045450
  63 C :   -0.026510
  64 C :   -0.056210
  65 C :    0.086631
  66 O :   -0.139646
  67 C :    0.033272
  68 C :   -0.008158
  69 C :   -0.005510
  70 C :    0.020170
  71 C :   -0.004779
  72 C :   -0.012365
  73 C :   -0.011494
  74 C :   -0.009046
  75 H :    0.040576
  76 H :    0.038664
  77 H :    0.034370
  78 H :    0.033923
  79 H :    0.033588
  80 H :    0.032673
  81 H :    0.060544
  82 H :    0.098460
  83 H :    0.027221
  84 H :    0.050229
  85 H :    0.038107
  86 H :    0.018032
  87 H :    0.031760
  88 H :    0.033167
  89 H :    0.025016
  90 H :    0.025982
  91 H :    0.039084
  92 H :    0.023757
  93 H :    0.032600
  94 H :    0.032081
  95 H :    0.039023
  96 H :    0.038468
  97 H :    0.035562
  98 H :    0.044316
  99 H :    0.050126
 100 H :    0.038743
 101 H :    0.039179
 102 H :    0.034987
 103 H :    0.033742
 104 H :    0.033302
 105 H :    0.031910

  Mayer bond orders larger than 0.100000
B(  0-C ,  1-C ) :   1.6648 B(  0-C ,  6-C ) :   1.0072 B(  0-C , 18-C ) :   1.0228
B(  1-C ,  2-C ) :   1.1331 B(  1-C ,  4-C ) :   1.1536 B(  2-C ,  3-N ) :   2.9912
B(  4-C ,  5-N ) :   3.0214 B(  6-C ,  7-C ) :   1.2124 B(  6-C , 11-C ) :   1.4545
B(  7-C ,  8-C ) :   1.4748 B(  7-C , 16-C ) :   0.9188 B(  8-C ,  9-C ) :   1.1873
B(  8-C , 75-H ) :   1.0158 B(  9-C , 10-C ) :   1.2536 B(  9-C , 15-C ) :   1.2450
B( 10-C , 11-C ) :   1.2064 B( 10-C , 12-C ) :   1.2401 B( 11-C , 76-H ) :   0.9940
B( 12-C , 13-C ) :   1.4907 B( 12-C , 77-H ) :   0.9975 B( 13-C , 14-C ) :   1.2594
B( 13-C , 78-H ) :   0.9888 B( 14-C , 15-C ) :   1.4905 B( 14-C , 79-H ) :   0.9888
B( 15-C , 80-H ) :   0.9977 B( 16-C , 17-O ) :   2.2884 B( 16-C , 18-C ) :   0.9241
B( 18-C , 19-C ) :   1.6804 B( 19-C , 20-C ) :   1.1078 B( 19-C , 81-H ) :   0.9427
B( 20-C , 21-S ) :   1.1142 B( 20-C , 24-C ) :   1.5069 B( 21-S , 22-C ) :   1.1487
B( 22-C , 23-C ) :   1.4679 B( 22-C , 30-C ) :   1.1516 B( 23-C , 24-C ) :   1.2903
B( 23-C , 28-C ) :   0.8872 B( 24-C , 25-C ) :   0.8752 B( 25-C , 26-O ) :   2.2524
B( 25-C , 27-N ) :   1.0883 B( 27-N , 28-C ) :   1.0891 B( 27-N , 82-H ) :   0.9137
B( 28-C , 29-O ) :   2.1863 B( 30-C , 31-C ) :   1.5848 B( 30-C , 83-H ) :   0.9543
B( 31-C , 32-C ) :   1.1876 B( 31-C , 84-H ) :   0.9298 B( 32-C , 33-N ) :   1.1561
B( 32-C , 39-C ) :   1.3610 B( 33-N , 34-C ) :   0.9418 B( 33-N , 36-C ) :   1.0678
B( 34-C , 35-C ) :   1.1159 B( 34-C , 85-H ) :   0.9218 B( 34-C , 86-H ) :   0.9499
B( 35-C , 87-H ) :   0.9624 B( 35-C , 88-H ) :   0.9670 B( 35-C , 89-H ) :   0.9664
B( 36-C , 37-O ) :   2.0089 B( 36-C , 38-C ) :   0.9971 B( 37-O , 96-H ) :   0.1179
B( 38-C , 39-C ) :   1.2549 B( 38-C , 45-C ) :   1.3196 B( 39-C , 40-C ) :   0.9606
B( 40-C , 41-O ) :   2.1622 B( 40-C , 42-N ) :   1.0192 B( 42-N , 43-C ) :   0.9424
B( 42-N , 45-C ) :   1.1800 B( 43-C , 44-C ) :   1.1192 B( 43-C , 90-H ) :   0.9503
B( 43-C , 91-H ) :   0.9291 B( 44-C , 92-H ) :   0.9684 B( 44-C , 93-H ) :   0.9683
B( 44-C , 94-H ) :   0.9645 B( 45-C , 46-C ) :   1.1348 B( 46-C , 47-C ) :   1.6449
B( 46-C , 95-H ) :   0.9763 B( 47-C , 48-C ) :   1.1143 B( 47-C , 96-H ) :   0.9207
B( 48-C , 49-S ) :   1.1186 B( 48-C , 52-N ) :   1.6404 B( 49-S , 50-C ) :   1.1056
B( 50-C , 51-N ) :   1.6445 B( 50-C , 53-C ) :   1.1240 B( 51-N , 52-N ) :   1.2576
B( 53-C , 54-C ) :   1.6984 B( 53-C , 97-H ) :   0.9246 B( 54-C , 55-C ) :   1.1736
B( 54-C , 98-H ) :   0.9591 B( 55-C , 56-C ) :   1.6118 B( 55-C , 99-H ) :   0.9442
B( 56-C , 57-C ) :   1.0556 B( 56-C , 65-C ) :   0.9323 B( 57-C , 58-C ) :   1.6449
B( 57-C , 63-C ) :   0.9915 B( 58-C , 59-C ) :   1.1440 B( 58-C , 61-C ) :   1.1348
B( 59-C , 60-N ) :   2.9696 B( 61-C , 62-N ) :   3.0039 B( 63-C , 64-C ) :   1.2139
B( 63-C , 70-C ) :   1.4464 B( 64-C , 65-C ) :   0.9547 B( 64-C , 67-C ) :   1.4670
B( 65-C , 66-O ) :   2.1848 B( 67-C , 68-C ) :   1.1808 B( 67-C ,100-H ) :   1.0170
B( 68-C , 69-C ) :   1.2556 B( 68-C , 74-C ) :   1.2428 B( 69-C , 70-C ) :   1.2061
B( 69-C , 71-C ) :   1.2390 B( 70-C ,101-H ) :   0.9916 B( 71-C , 72-C ) :   1.4905
B( 71-C ,102-H ) :   0.9978 B( 72-C , 73-C ) :   1.2577 B( 72-C ,103-H ) :   0.9886
B( 73-C , 74-C ) :   1.4907 B( 73-C ,104-H ) :   0.9885 B( 74-C ,105-H ) :   0.9981

-----------------------------------------------------------------------------
         ABSORPTION SPECTRUM VIA TRANSITION ELECTRIC DIPOLE MOMENTS
-----------------------------------------------------------------------------
State   Energy  Wavelength   fosc         T2         TX        TY        TZ
        (cm-1)    (nm)                  (au**2)     (au)      (au)      (au)
-----------------------------------------------------------------------------
   0   13432.2    744.5   1.276295184  31.28102   0.05838  -5.47873  -1.12300
   1   18129.3    551.6   0.146203470   2.65492  -0.07571   0.75124  -1.44389
   2   21313.5    469.2   0.076817704   1.18654  -0.08023  -0.76480   0.77148
   3   23429.4    426.8   0.526453400   7.39732   0.08409  -2.42464   1.22939
   4   24117.3    414.6   0.200230885   2.73324   0.46021  -1.43592  -0.67794
   5   25306.3    395.2   0.111953818   1.45642   0.26972   0.58071   1.02296
   6   25528.4    391.7   0.145139634   1.87171  -0.37439  -1.30091  -0.19795
   7   25752.0    388.3   0.131091896   1.67587   0.25705   0.85672  -0.93586
   8   25996.5    384.7   0.033563612   0.42504  -0.09006  -0.56277   0.31657
   9   26916.7    371.5   0.091659003   1.12106  -0.10043   0.98478  -0.37574
  10   27183.2    367.9   0.177205672   2.14611  -0.25016  -1.36085   0.48126
  11   27342.5    365.7   0.082931460   0.99852  -0.10616  -0.72092   0.68376
  12   27605.8    362.2   0.000532444   0.00635  -0.07071  -0.02269   0.02890
  13   28073.3    356.2   0.086726043   1.01702   0.40943   0.85608   0.34134
  14   28474.4    351.2   0.001582872   0.01830   0.01217  -0.08356   0.10569
  15   28953.6    345.4   0.088175414   1.00258   0.38704   0.14868   0.91142
  16   29053.7    344.2   0.100581281   1.13970  -0.38561  -0.95425   0.28357
  17   29443.2    339.6   0.068487591   0.76578   0.50436  -0.18299  -0.69132
  18   30147.0    331.7   0.162383510   1.77327   0.39299   0.76928  -1.01343
  19   30935.5    323.3   0.000196860   0.00209   0.02145  -0.02697   0.03012
  20   32163.4    310.9   0.005317614   0.05443  -0.06750  -0.02040   0.22239
  21   32566.3    307.1   0.453355826   4.58297   1.37388   0.23508  -1.62485
  22   32725.2    305.6   0.009514347   0.09571  -0.28401  -0.01143  -0.12215
  23   32766.8    305.2   0.047094272   0.47316   0.49303   0.47481   0.06807
  24   32986.9    303.2   0.559021395   5.57909  -1.15259  -1.31981  -1.58389
  25   33159.1    301.6   0.153546763   1.52445   0.97765   0.37679  -0.65320
  26   33405.1    299.4   0.181401907   1.78774   0.09273  -0.29371   1.30111
  27   33898.5    295.0   0.038114726   0.37016  -0.13649  -0.50546   0.30990
  28   33919.7    294.8   0.068636006   0.66616  -0.31707  -0.61556  -0.43210
  29   34153.7    292.8   0.068947049   0.66459   0.09114  -0.48109   0.65180
  30   34227.0    292.2   0.013689417   0.13167  -0.07607   0.32921  -0.13230
  31   34390.5    290.8   0.044913049   0.42994   0.20532   0.43139   0.44910
  32   34806.5    287.3   0.044979222   0.42543   0.02545  -0.60441   0.24385
  33   35248.2    283.7   0.075975625   0.70960   0.42550  -0.25954  -0.67911
  34   35421.7    282.3   0.064928959   0.60345   0.17751   0.73370  -0.18340
  35   35487.8    281.8   0.059244104   0.54959   0.47966  -0.24020   0.51168
  36   35718.9    280.0   0.079728322   0.73484  -0.43931   0.38337  -0.62839
  37   35870.0    278.8   0.053676372   0.49264  -0.34729  -0.53792  -0.28752
  38   36449.6    274.4   0.293921120   2.65469   0.57204   0.35175   1.48450
  39   37521.1    266.5   0.093302680   0.81864   0.37453  -0.80808  -0.15927
  40   37709.5    265.2   0.074472805   0.65016  -0.64180  -0.07716   0.48199
  41   37960.7    263.4   0.012840825   0.11136   0.28041  -0.08229  -0.16112
  42   38097.7    262.5   0.076598717   0.66191   0.44121  -0.00218  -0.68355
  43   38157.3    262.1   0.002691321   0.02322  -0.10033  -0.00326   0.11465
  44   38372.3    260.6   0.021419884   0.18377  -0.08606  -0.30055  -0.29331
  45   38512.7    259.7   0.044618633   0.38141  -0.21570   0.57769  -0.03400
  46   38657.0    258.7   0.009992697   0.08510   0.08537  -0.06770  -0.27061
  47   38729.5    258.2   0.138766334   1.17955   0.61280   0.55117  -0.70728
  48   38928.6    256.9   0.043188295   0.36524  -0.03038  -0.10966  -0.59354
  49   39120.0    255.6   0.085244601   0.71737   0.17244   0.81677  -0.14324
  50   39196.7    255.1   0.107783103   0.90527   0.24835   0.67026   0.62796
  51   39694.3    251.9   0.021198047   0.17581  -0.22039   0.15384   0.32182

FINAL SINGLE POINT ENERGY     -3965.061870550904

DIPOLE MOMENT
-------------
                                X             Y             Z
Electronic contribution:      0.88599     -12.06586       9.61008
Nuclear contribution   :     -1.31863      11.21057     -12.84523
                        -----------------------------------------
Total Dipole Moment    :     -0.43264      -0.85530      -3.23516
                        -----------------------------------------
Magnitude (a.u.)       :      3.37416
Magnitude (Debye)      :      8.57643

Rotational constants in cm-1:     0.001395     0.000192     0.000175
Rotational constants in MHz :    41.826093     5.759829     5.232964

                             ****ORCA TERMINATED NORMALLY****
TOTAL RUN TIME: 0 days 0 hours 10 minutes 3 seconds 916 msec
