                         Program Version 4.2.0 -  RELEASE  -
|  1> # ORCA input file
|  2> # SCF done       -192.863092417661          0.000778551610
|  3> ! CAM-B3LYP def2-SVP def2/J RIJCOSX Grid4 TightSCF
|  4> %maxcore 5000
|  5> %tddft
|  6>     Mode sTDDFT
|  7>     Ethresh 5.0
|  8>     maxcore 5000
|  9> end
| 10>
| 11> %pal
| 12>   nprocs 6
| 13>   end
| 14> * xyz 0 1
| 15>    C        2.03698         0.28582        -0.94560
| 16>    C        3.20696         0.07386        -0.27391
| 17>    C        3.95981        -1.11815        -0.34713
| 18>    N        4.60786        -2.06417        -0.37291
| 19>    C        3.82108         1.04905         0.54160
| 20>    N        4.36752         1.82776         1.18301
| 21>    C        1.38115        -0.62473        -1.87396
| 22>    C        0.23539         0.01869        -2.43508
| 23>    C       -0.56488        -0.60498        -3.35079
| 24>    C       -0.25482        -1.92229        -3.75324
| 25>    C        0.88355        -2.57401        -3.19362
| 26>    C        1.69466        -1.90519        -2.24925
| 27>    C        1.18038        -3.89056        -3.60118
| 28>    C        0.39320        -4.53330        -4.51787
| 29>    C       -0.72612        -3.89076        -5.06847
| 30>    C       -1.04377        -2.61310        -4.69425
| 31>    C        0.10190         1.35862        -1.86042
| 32>    O       -0.73045         2.21321        -2.08168
| 33>    C        1.22450         1.49172        -0.89164
| 34>    C        1.29382         2.57242        -0.09014
| 35>    C        0.28835         3.61673        -0.15924
| 36>    C       -0.76255         3.68922         0.71520
| 37>    N       -0.98806         2.74831         1.73348
| 38>    O       -1.97280         2.87696         2.43057
| 39>    O       -0.16126         1.85241         1.84878
| 40>    C       -1.63581         4.78957         0.35707
| 41>    C       -1.09238         5.41950        -0.70234
| 42>    C        0.15502         4.76854        -1.06663
| 43>    C        1.04458         5.12153        -2.04530
| 44>    C        2.09432         4.28114        -2.56790
| 45>    C        2.47197         4.75428        -3.77723
| 46>    C        1.75559         5.97831        -4.04188
| 47>    N        1.97849         6.73668        -5.20817
| 48>    O        1.36667         7.78288        -5.35656
| 49>    O        2.77271         6.29100        -6.01546
| 50>    C        0.94006         6.28099        -2.96265
| 51>    C        0.27128         7.51250        -2.75614
| 52>    C        0.02587         8.08142        -1.54681
| 53>    C       -0.59914         9.34949        -1.41828
| 54>    O       -1.00759        10.02511        -2.52415
| 55>    C       -1.57047        11.18152        -2.14382
| 56>    C       -1.53119        11.25517        -0.74300
| 57>    C       -0.90577        10.08226        -0.28645
| 58>    N       -2.02014        12.29591         0.08722
| 59>    O       -2.55234        13.24645        -0.44918
| 60>    O       -1.87199        12.15839         1.28204
| 61>    C       -2.08077        12.09299        -3.10374
| 62>    C       -2.00301        11.86663        -4.43775
| 63>    C       -2.50521        12.74662        -5.43107
| 64>    S       -3.30779        14.24853        -5.04076
| 65>    C       -3.54509        14.62277        -6.71332
| 66>    C       -3.01668        13.61561        -7.52128
| 67>    C       -2.44578        12.56258        -6.79433
| 68>    N       -2.97689        13.59981        -8.95419
| 69>    O       -2.90567        14.65395        -9.54528
| 70>    O       -2.98223        12.50681        -9.47635
| 71>    C       -4.27908        15.78578        -7.08565
| 72>    O       -4.67115        15.97475        -8.35559
| 73>    C       -5.34246        17.13240        -8.44970
| 74>    C       -5.41737        17.71626        -7.19629
| 75>    C       -4.72607        16.85074        -6.30559
| 76>    C       -4.52718        17.05303        -4.93079
| 77>    N       -4.36410        17.22901        -3.81076
| 78>    C       -6.04338        19.00023        -6.77342
| 79>    F       -6.78025        19.56921        -7.73688
| 80>    F       -6.85745        18.83459        -5.71981
| 81>    F       -5.12532        19.91058        -6.40864
| 82>    C       -5.81900        17.55483        -9.74273
| 83>    C       -5.44071        16.94153       -10.86279
| 84>    H       -1.42575        -0.09840        -3.76123
| 85>    H        2.54667        -2.42518        -1.84041
| 86>    H        2.04278        -4.38135        -3.17504
| 87>    H        0.62890        -5.54126        -4.82400
| 88>    H       -1.33565        -4.41323        -5.79015
| 89>    H       -1.90461        -2.11374        -5.11383
| 90>    H        2.04989         2.66575         0.67977
| 91>    H       -2.55747         5.00248         0.86305
| 92>    H       -1.52130         6.24036        -1.23977
| 93>    H        2.45162         3.38929        -2.09529
| 94>    H        3.19049         4.33461        -4.45570
| 95>    H        0.05025         8.08689        -3.64664
| 96>    H        0.33105         7.61026        -0.62436
| 97>    H       -0.71653         9.82243         0.73452
| 98>    H       -2.53694        12.99086        -2.71083
| 99>    H       -1.53099        10.96357        -4.80202
|100>    H       -1.99547        11.70918        -7.26930
|101>    H       -6.48343        18.40452        -9.75260
|102>    H       -4.75165        16.11319       -10.84212
|103>    H       -5.79809        17.26529       -11.82378
|104> *
|105>
|106>                          ****END OF INPUT****

CARTESIAN COORDINATES (ANGSTROEM)
---------------------------------
  C      2.036980    0.285820   -0.945600
  C      3.206960    0.073860   -0.273910
  C      3.959810   -1.118150   -0.347130
  N      4.607860   -2.064170   -0.372910
  C      3.821080    1.049050    0.541600
  N      4.367520    1.827760    1.183010
  C      1.381150   -0.624730   -1.873960
  C      0.235390    0.018690   -2.435080
  C     -0.564880   -0.604980   -3.350790
  C     -0.254820   -1.922290   -3.753240
  C      0.883550   -2.574010   -3.193620
  C      1.694660   -1.905190   -2.249250
  C      1.180380   -3.890560   -3.601180
  C      0.393200   -4.533300   -4.517870
  C     -0.726120   -3.890760   -5.068470
  C     -1.043770   -2.613100   -4.694250
  C      0.101900    1.358620   -1.860420
  O     -0.730450    2.213210   -2.081680
  C      1.224500    1.491720   -0.891640
  C      1.293820    2.572420   -0.090140
  C      0.288350    3.616730   -0.159240
  C     -0.762550    3.689220    0.715200
  N     -0.988060    2.748310    1.733480
  O     -1.972800    2.876960    2.430570
  O     -0.161260    1.852410    1.848780
  C     -1.635810    4.789570    0.357070
  C     -1.092380    5.419500   -0.702340
  C      0.155020    4.768540   -1.066630
  C      1.044580    5.121530   -2.045300
  C      2.094320    4.281140   -2.567900
  C      2.471970    4.754280   -3.777230
  C      1.755590    5.978310   -4.041880
  N      1.978490    6.736680   -5.208170
  O      1.366670    7.782880   -5.356560
  O      2.772710    6.291000   -6.015460
  C      0.940060    6.280990   -2.962650
  C      0.271280    7.512500   -2.756140
  C      0.025870    8.081420   -1.546810
  C     -0.599140    9.349490   -1.418280
  O     -1.007590   10.025110   -2.524150
  C     -1.570470   11.181520   -2.143820
  C     -1.531190   11.255170   -0.743000
  C     -0.905770   10.082260   -0.286450
  N     -2.020140   12.295910    0.087220
  O     -2.552340   13.246450   -0.449180
  O     -1.871990   12.158390    1.282040
  C     -2.080770   12.092990   -3.103740
  C     -2.003010   11.866630   -4.437750
  C     -2.505210   12.746620   -5.431070
  S     -3.307790   14.248530   -5.040760
  C     -3.545090   14.622770   -6.713320
  C     -3.016680   13.615610   -7.521280
  C     -2.445780   12.562580   -6.794330
  N     -2.976890   13.599810   -8.954190
  O     -2.905670   14.653950   -9.545280
  O     -2.982230   12.506810   -9.476350
  C     -4.279080   15.785780   -7.085650
  O     -4.671150   15.974750   -8.355590
  C     -5.342460   17.132400   -8.449700
  C     -5.417370   17.716260   -7.196290
  C     -4.726070   16.850740   -6.305590
  C     -4.527180   17.053030   -4.930790
  N     -4.364100   17.229010   -3.810760
  C     -6.043380   19.000230   -6.773420
  F     -6.780250   19.569210   -7.736880
  F     -6.857450   18.834590   -5.719810
  F     -5.125320   19.910580   -6.408640
  C     -5.819000   17.554830   -9.742730
  C     -5.440710   16.941530  -10.862790
  H     -1.425750   -0.098400   -3.761230
  H      2.546670   -2.425180   -1.840410
  H      2.042780   -4.381350   -3.175040
  H      0.628900   -5.541260   -4.824000
  H     -1.335650   -4.413230   -5.790150
  H     -1.904610   -2.113740   -5.113830
  H      2.049890    2.665750    0.679770
  H     -2.557470    5.002480    0.863050
  H     -1.521300    6.240360   -1.239770
  H      2.451620    3.389290   -2.095290
  H      3.190490    4.334610   -4.455700
  H      0.050250    8.086890   -3.646640
  H      0.331050    7.610260   -0.624360
  H     -0.716530    9.822430    0.734520
  H     -2.536940   12.990860   -2.710830
  H     -1.530990   10.963570   -4.802020
  H     -1.995470   11.709180   -7.269300
  H     -6.483430   18.404520   -9.752600
  H     -4.751650   16.113190  -10.842120
  H     -5.798090   17.265290  -11.823780

 Total Charge           Charge          ....    0
 Multiplicity           Mult            ....    1
 Number of Electrons    NEL             ....  482
 Basis Dimension        Dim             .... 1070

ORBITAL ENERGIES
----------------

  NO   OCC          E(Eh)            E(eV)
   0   2.0000     -89.000943     -2421.8388
   1   2.0000     -24.814399      -675.2341
   2   2.0000     -24.806253      -675.0125
   3   2.0000     -24.804386      -674.9617
   4   2.0000     -19.332657      -526.0683
   5   2.0000     -19.332451      -526.0627
   6   2.0000     -19.256929      -524.0077
   7   2.0000     -19.255920      -523.9802
   8   2.0000     -19.254408      -523.9391
   9   2.0000     -19.251975      -523.8729
  10   2.0000     -19.251777      -523.8675
  11   2.0000     -19.251600      -523.8627
  12   2.0000     -19.245163      -523.6875
  13   2.0000     -19.244074      -523.6579
  14   2.0000     -19.236472      -523.4510
  15   2.0000     -14.665517      -399.0690
  16   2.0000     -14.663253      -399.0074
  17   2.0000     -14.660171      -398.9235
  18   2.0000     -14.654017      -398.7561
  19   2.0000     -14.429710      -392.6524
  20   2.0000     -14.428418      -392.6172
  21   2.0000     -14.427417      -392.5900
  22   2.0000     -10.535059      -286.6735
  23   2.0000     -10.390551      -282.7413
  24   2.0000     -10.386844      -282.6404
  25   2.0000     -10.383032      -282.5367
  26   2.0000     -10.378821      -282.4221
  27   2.0000     -10.369154      -282.1590
  28   2.0000     -10.364036      -282.0198
  29   2.0000     -10.358887      -281.8797
  30   2.0000     -10.355131      -281.7774
  31   2.0000     -10.355112      -281.7769
  32   2.0000     -10.345291      -281.5097
  33   2.0000     -10.344637      -281.4919
  34   2.0000     -10.342339      -281.4294
  35   2.0000     -10.341715      -281.4124
  36   2.0000     -10.341632      -281.4101
  37   2.0000     -10.340996      -281.3928
  38   2.0000     -10.339315      -281.3471
  39   2.0000     -10.337620      -281.3009
  40   2.0000     -10.337494      -281.2975
  41   2.0000     -10.333376      -281.1855
  42   2.0000     -10.331196      -281.1261
  43   2.0000     -10.330069      -281.0955
  44   2.0000     -10.327170      -281.0166
  45   2.0000     -10.324075      -280.9324
  46   2.0000     -10.323479      -280.9161
  47   2.0000     -10.322068      -280.8777
  48   2.0000     -10.317968      -280.7662
  49   2.0000     -10.317334      -280.7489
  50   2.0000     -10.316186      -280.7177
  51   2.0000     -10.315253      -280.6923
  52   2.0000     -10.312456      -280.6162
  53   2.0000     -10.311395      -280.5873
  54   2.0000     -10.310381      -280.5597
  55   2.0000     -10.310075      -280.5514
  56   2.0000     -10.309945      -280.5479
  57   2.0000     -10.308115      -280.4981
  58   2.0000     -10.307517      -280.4818
  59   2.0000     -10.307301      -280.4759
  60   2.0000     -10.303797      -280.3806
  61   2.0000     -10.300813      -280.2994
  62   2.0000     -10.297569      -280.2111
  63   2.0000     -10.297221      -280.2016
  64   2.0000     -10.297117      -280.1988
  65   2.0000     -10.296825      -280.1908
  66   2.0000     -10.296315      -280.1770
  67   2.0000     -10.294704      -280.1331
  68   2.0000     -10.291620      -280.0492
  69   2.0000      -8.095552      -220.2912
  70   2.0000      -6.064957      -165.0359
  71   2.0000      -6.060594      -164.9171
  72   2.0000      -6.057607      -164.8359
  73   2.0000      -1.399699       -38.0877
  74   2.0000      -1.339746       -36.4563
  75   2.0000      -1.334675       -36.3183
  76   2.0000      -1.331797       -36.2400
  77   2.0000      -1.324389       -36.0385
  78   2.0000      -1.303998       -35.4836
  79   2.0000      -1.297574       -35.3088
  80   2.0000      -1.259479       -34.2722
  81   2.0000      -1.254037       -34.1241
  82   2.0000      -1.158007       -31.5110
  83   2.0000      -1.153527       -31.3891
  84   2.0000      -1.151532       -31.3348
  85   2.0000      -1.149972       -31.2923
  86   2.0000      -1.141680       -31.0667
  87   2.0000      -1.036150       -28.1951
  88   2.0000      -1.032418       -28.0935
  89   2.0000      -1.028213       -27.9791
  90   2.0000      -1.013204       -27.5707
  91   2.0000      -1.012003       -27.5380
  92   2.0000      -1.008826       -27.4516
  93   2.0000      -1.007171       -27.4065
  94   2.0000      -0.984041       -26.7771
  95   2.0000      -0.966356       -26.2959
  96   2.0000      -0.960084       -26.1252
  97   2.0000      -0.957456       -26.0537
  98   2.0000      -0.944249       -25.6943
  99   2.0000      -0.938533       -25.5388
 100   2.0000      -0.931463       -25.3464
 101   2.0000      -0.922363       -25.0988
 102   2.0000      -0.920918       -25.0595
 103   2.0000      -0.911249       -24.7964
 104   2.0000      -0.895989       -24.3811
 105   2.0000      -0.893786       -24.3212
 106   2.0000      -0.891254       -24.2523
 107   2.0000      -0.886670       -24.1275
 108   2.0000      -0.870756       -23.6945
 109   2.0000      -0.848130       -23.0788
 110   2.0000      -0.845926       -23.0188
 111   2.0000      -0.841069       -22.8867
 112   2.0000      -0.836416       -22.7600
 113   2.0000      -0.822814       -22.3899
 114   2.0000      -0.818514       -22.2729
 115   2.0000      -0.809817       -22.0362
 116   2.0000      -0.787878       -21.4393
 117   2.0000      -0.784750       -21.3541
 118   2.0000      -0.775544       -21.1036
 119   2.0000      -0.769687       -20.9443
 120   2.0000      -0.755379       -20.5549
 121   2.0000      -0.738214       -20.0878
 122   2.0000      -0.736335       -20.0367
 123   2.0000      -0.727834       -19.8054
 124   2.0000      -0.726896       -19.7798
 125   2.0000      -0.725304       -19.7365
 126   2.0000      -0.716470       -19.4961
 127   2.0000      -0.709713       -19.3123
 128   2.0000      -0.707976       -19.2650
 129   2.0000      -0.690709       -18.7952
 130   2.0000      -0.687024       -18.6949
 131   2.0000      -0.684001       -18.6126
 132   2.0000      -0.682921       -18.5832
 133   2.0000      -0.680712       -18.5231
 134   2.0000      -0.669949       -18.2302
 135   2.0000      -0.663878       -18.0650
 136   2.0000      -0.659661       -17.9503
 137   2.0000      -0.658244       -17.9117
 138   2.0000      -0.651389       -17.7252
 139   2.0000      -0.646583       -17.5944
 140   2.0000      -0.645604       -17.5678
 141   2.0000      -0.645405       -17.5624
 142   2.0000      -0.643434       -17.5087
 143   2.0000      -0.640769       -17.4362
 144   2.0000      -0.635506       -17.2930
 145   2.0000      -0.634709       -17.2713
 146   2.0000      -0.630634       -17.1604
 147   2.0000      -0.627776       -17.0826
 148   2.0000      -0.626276       -17.0418
 149   2.0000      -0.622601       -16.9418
 150   2.0000      -0.619274       -16.8513
 151   2.0000      -0.607032       -16.5182
 152   2.0000      -0.603901       -16.4330
 153   2.0000      -0.599104       -16.3025
 154   2.0000      -0.598463       -16.2850
 155   2.0000      -0.597750       -16.2656
 156   2.0000      -0.594467       -16.1763
 157   2.0000      -0.594128       -16.1670
 158   2.0000      -0.588043       -16.0015
 159   2.0000      -0.585236       -15.9251
 160   2.0000      -0.584415       -15.9027
 161   2.0000      -0.578346       -15.7376
 162   2.0000      -0.570401       -15.5214
 163   2.0000      -0.565447       -15.3866
 164   2.0000      -0.558992       -15.2109
 165   2.0000      -0.558057       -15.1855
 166   2.0000      -0.555808       -15.1243
 167   2.0000      -0.554601       -15.0915
 168   2.0000      -0.554144       -15.0790
 169   2.0000      -0.549716       -14.9585
 170   2.0000      -0.547668       -14.9028
 171   2.0000      -0.541705       -14.7405
 172   2.0000      -0.538494       -14.6532
 173   2.0000      -0.537630       -14.6296
 174   2.0000      -0.536185       -14.5903
 175   2.0000      -0.533035       -14.5046
 176   2.0000      -0.529018       -14.3953
 177   2.0000      -0.524361       -14.2686
 178   2.0000      -0.519849       -14.1458
 179   2.0000      -0.518604       -14.1119
 180   2.0000      -0.517548       -14.0832
 181   2.0000      -0.516264       -14.0483
 182   2.0000      -0.515645       -14.0314
 183   2.0000      -0.515009       -14.0141
 184   2.0000      -0.510860       -13.9012
 185   2.0000      -0.507247       -13.8029
 186   2.0000      -0.503742       -13.7075
 187   2.0000      -0.502661       -13.6781
 188   2.0000      -0.500945       -13.6314
 189   2.0000      -0.498967       -13.5776
 190   2.0000      -0.496424       -13.5084
 191   2.0000      -0.493196       -13.4205
 192   2.0000      -0.490478       -13.3466
 193   2.0000      -0.486231       -13.2310
 194   2.0000      -0.483835       -13.1658
 195   2.0000      -0.478920       -13.0321
 196   2.0000      -0.476491       -12.9660
 197   2.0000      -0.475637       -12.9427
 198   2.0000      -0.464459       -12.6386
 199   2.0000      -0.461393       -12.5551
 200   2.0000      -0.460976       -12.5438
 201   2.0000      -0.458416       -12.4741
 202   2.0000      -0.456492       -12.4218
 203   2.0000      -0.452958       -12.3256
 204   2.0000      -0.451932       -12.2977
 205   2.0000      -0.448346       -12.2001
 206   2.0000      -0.445869       -12.1327
 207   2.0000      -0.445594       -12.1252
 208   2.0000      -0.439890       -11.9700
 209   2.0000      -0.432715       -11.7748
 210   2.0000      -0.426243       -11.5987
 211   2.0000      -0.422279       -11.4908
 212   2.0000      -0.421930       -11.4813
 213   2.0000      -0.416438       -11.3318
 214   2.0000      -0.410888       -11.1808
 215   2.0000      -0.401395       -10.9225
 216   2.0000      -0.399675       -10.8757
 217   2.0000      -0.398850       -10.8533
 218   2.0000      -0.397146       -10.8069
 219   2.0000      -0.393486       -10.7073
 220   2.0000      -0.392071       -10.6688
 221   2.0000      -0.391546       -10.6545
 222   2.0000      -0.390890       -10.6367
 223   2.0000      -0.390227       -10.6186
 224   2.0000      -0.388593       -10.5742
 225   2.0000      -0.385138       -10.4801
 226   2.0000      -0.380932       -10.3657
 227   2.0000      -0.379757       -10.3337
 228   2.0000      -0.378926       -10.3111
 229   2.0000      -0.371425       -10.1070
 230   2.0000      -0.365303        -9.9404
 231   2.0000      -0.363494        -9.8912
 232   2.0000      -0.359135        -9.7726
 233   2.0000      -0.352928        -9.6037
 234   2.0000      -0.342319        -9.3150
 235   2.0000      -0.330794        -9.0014
 236   2.0000      -0.328737        -8.9454
 237   2.0000      -0.317662        -8.6440
 238   2.0000      -0.305375        -8.3097
 239   2.0000      -0.297380        -8.0921
 240   2.0000      -0.268961        -7.3188
 241   0.0000      -0.134136        -3.6500
 242   0.0000      -0.101300        -2.7565
 243   0.0000      -0.098344        -2.6761
 244   0.0000      -0.071654        -1.9498
 245   0.0000      -0.069440        -1.8895

MULLIKEN ATOMIC CHARGES
-----------------------
   0 C :    0.335606
   1 C :   -0.328024
   2 C :   -0.185844
   3 N :    0.162440
   4 C :   -0.202484
   5 N :    0.170547
   6 C :    0.043066
   7 C :   -0.010348
   8 C :   -0.068007
   9 C :    0.096484
  10 C :    0.097124
  11 C :   -0.080796
  12 C :   -0.016709
  13 C :    0.039801
  14 C :    0.036090
  15 C :   -0.014046
  16 C :    0.162859
  17 O :   -0.144265
  18 C :   -0.069471
  19 C :   -0.056300
  20 C :   -0.007730
  21 C :    0.102606
  22 N :    0.270815
  23 O :   -0.230514
  24 O :   -0.245925
  25 C :    0.027616
  26 C :   -0.011694
  27 C :    0.100476
  28 C :    0.017518
  29 C :    0.010148
  30 C :    0.023692
  31 C :    0.086933
  32 N :    0.270497
  33 O :   -0.258437
  34 O :   -0.242334
  35 C :    0.028426
  36 C :   -0.040143
  37 C :   -0.012019
  38 C :    0.182465
  39 O :   -0.192183
  40 C :    0.122436
  41 C :    0.144716
  42 C :   -0.066427
  43 N :    0.264122
  44 O :   -0.238719
  45 O :   -0.233913
  46 C :   -0.075585
  47 C :    0.053083
  48 C :   -0.006700
  49 S :    0.195728
  50 C :   -0.230332
  51 C :    0.217633
  52 C :   -0.038136
  53 N :    0.253740
  54 O :   -0.224245
  55 O :   -0.232686
  56 C :    0.185905
  57 O :   -0.161091
  58 C :    0.114085
  59 C :   -0.098223
  60 C :   -0.081375
  61 C :   -0.264884
  62 N :    0.211815
  63 C :    0.521237
  64 F :   -0.150346
  65 F :   -0.152386
  66 F :   -0.151671
  67 C :   -0.051410
  68 C :    0.025288
  69 H :   -0.010345
  70 H :   -0.004872
  71 H :   -0.005906
  72 H :   -0.000076
  73 H :    0.000360
  74 H :   -0.013971
  75 H :    0.060117
  76 H :    0.000580
  77 H :    0.009417
  78 H :   -0.005002
  79 H :    0.009451
  80 H :    0.035630
  81 H :    0.026454
  82 H :    0.009356
  83 H :    0.042789
  84 H :    0.022590
  85 H :    0.015447
  86 H :    0.019181
  87 H :    0.052584
  88 H :    0.036623
Sum of atomic charges:   -0.0000000

LOEWDIN ATOMIC CHARGES
----------------------
   0 C :    0.074576
   1 C :   -0.123091
   2 C :   -0.017734
   3 N :   -0.040547
   4 C :   -0.017810
   5 N :   -0.041064
   6 C :   -0.024429
   7 C :   -0.059073
   8 C :    0.039204
   9 C :   -0.007482
  10 C :   -0.003779
  11 C :    0.024101
  12 C :   -0.003548
  13 C :   -0.008102
  14 C :   -0.008167
  15 C :   -0.006990
  16 C :    0.088419
  17 O :   -0.130985
  18 C :   -0.075728
  19 C :    0.080593
  20 C :    0.021117
  21 C :   -0.033485
  22 N :    0.286888
  23 O :   -0.194917
  24 O :   -0.206278
  25 C :    0.008838
  26 C :   -0.029952
  27 C :    0.042575
  28 C :    0.042702
  29 C :   -0.040275
  30 C :    0.021716
  31 C :   -0.045304
  32 N :    0.284676
  33 O :   -0.219912
  34 O :   -0.207335
  35 C :    0.018101
  36 C :   -0.018893
  37 C :   -0.007571
  38 C :    0.032454
  39 O :    0.032277
  40 C :    0.074440
  41 C :   -0.074324
  42 C :   -0.021583
  43 N :    0.285375
  44 O :   -0.204327
  45 O :   -0.198804
  46 C :   -0.049379
  47 C :    0.001978
  48 C :   -0.161601
  49 S :    0.515861
  50 C :   -0.163273
  51 C :   -0.058283
  52 C :   -0.021619
  53 N :    0.281008
  54 O :   -0.194015
  55 O :   -0.196690
  56 C :    0.037944
  57 O :    0.057262
  58 C :    0.073048
  59 C :   -0.110057
  60 C :   -0.083864
  61 C :   -0.056411
  62 N :   -0.018277
  63 C :    0.169336
  64 F :   -0.050212
  65 F :   -0.051896
  66 F :   -0.056170
  67 C :   -0.051996
  68 C :    0.013087
  69 H :    0.040891
  70 H :    0.040509
  71 H :    0.036178
  72 H :    0.035268
  73 H :    0.034931
  74 H :    0.033290
  75 H :    0.055309
  76 H :    0.039680
  77 H :    0.033164
  78 H :    0.028238
  79 H :    0.040242
  80 H :    0.038594
  81 H :    0.043753
  82 H :    0.047541
  83 H :    0.039184
  84 H :    0.046124
  85 H :    0.047792
  86 H :    0.039794
  87 H :    0.033381
  88 H :    0.033793

  Mayer bond orders larger than 0.100000
B(  0-C ,  1-C ) :   1.6846 B(  0-C ,  6-C ) :   1.0049 B(  0-C , 18-C ) :   0.9965
B(  1-C ,  2-C ) :   1.1331 B(  1-C ,  4-C ) :   1.1550 B(  2-C ,  3-N ) :   2.9721
B(  4-C ,  5-N ) :   2.9761 B(  6-C ,  7-C ) :   1.2082 B(  6-C , 11-C ) :   1.4445
B(  7-C ,  8-C ) :   1.4657 B(  7-C , 16-C ) :   0.9565 B(  8-C ,  9-C ) :   1.1824
B(  8-C , 69-H ) :   1.0173 B(  9-C , 10-C ) :   1.2537 B(  9-C , 15-C ) :   1.2416
B( 10-C , 11-C ) :   1.2092 B( 10-C , 12-C ) :   1.2370 B( 11-C , 70-H ) :   0.9911
B( 12-C , 13-C ) :   1.4898 B( 12-C , 71-H ) :   0.9982 B( 13-C , 14-C ) :   1.2596
B( 13-C , 72-H ) :   0.9882 B( 14-C , 15-C ) :   1.4878 B( 14-C , 73-H ) :   0.9894
B( 15-C , 74-H ) :   0.9987 B( 16-C , 17-O ) :   2.1911 B( 16-C , 18-C ) :   0.9273
B( 18-C , 19-C ) :   1.7515 B( 19-C , 20-C ) :   0.9917 B( 19-C , 24-O ) :   0.1129
B( 19-C , 75-H ) :   0.9246 B( 20-C , 21-C ) :   1.6535 B( 20-C , 27-C ) :   1.0364
B( 21-C , 22-N ) :   0.9376 B( 21-C , 25-C ) :   1.0968 B( 22-N , 23-O ) :   1.5411
B( 22-N , 24-O ) :   1.4904 B( 23-O , 24-O ) :   0.2639 B( 25-C , 26-C ) :   1.6431
B( 25-C , 76-H ) :   1.0157 B( 26-C , 27-C ) :   1.0785 B( 26-C , 77-H ) :   0.9923
B( 27-C , 28-C ) :   1.5672 B( 28-C , 29-C ) :   1.1095 B( 28-C , 35-C ) :   0.9933
B( 29-C , 30-C ) :   1.5960 B( 29-C , 78-H ) :   0.9984 B( 30-C , 31-C ) :   1.1182
B( 30-C , 79-H ) :   1.0118 B( 31-C , 32-N ) :   0.9486 B( 31-C , 35-C ) :   1.5420
B( 32-N , 33-O ) :   1.4926 B( 32-N , 34-O ) :   1.5399 B( 33-O , 34-O ) :   0.2594
B( 35-C , 36-C ) :   1.1670 B( 36-C , 37-C ) :   1.5788 B( 36-C , 80-H ) :   0.9529
B( 37-C , 38-C ) :   1.1717 B( 37-C , 81-H ) :   0.9608 B( 38-C , 39-O ) :   1.1093
B( 38-C , 42-C ) :   1.3852 B( 39-O , 40-C ) :   1.1922 B( 40-C , 41-C ) :   1.3441
B( 40-C , 46-C ) :   1.2019 B( 41-C , 42-C ) :   1.2382 B( 41-C , 43-N ) :   0.9329
B( 42-C , 82-H ) :   1.0292 B( 43-N , 44-O ) :   1.5194 B( 43-N , 45-O ) :   1.5516
B( 44-O , 45-O ) :   0.2682 B( 46-C , 47-C ) :   1.5827 B( 46-C , 83-H ) :   0.9511
B( 47-C , 48-C ) :   1.1491 B( 47-C , 84-H ) :   0.9855 B( 48-C , 49-S ) :   1.0814
B( 48-C , 50-C ) :   0.1074 B( 48-C , 52-C ) :   1.4454 B( 49-S , 50-C ) :   1.1982
B( 50-C , 51-C ) :   1.4360 B( 50-C , 56-C ) :   1.1534 B( 51-C , 52-C ) :   1.2535
B( 51-C , 53-N ) :   0.9007 B( 52-C , 85-H ) :   1.0136 B( 53-N , 54-O ) :   1.5294
B( 53-N , 55-O ) :   1.5419 B( 54-O , 55-O ) :   0.2739 B( 56-C , 57-O ) :   1.1993
B( 56-C , 60-C ) :   1.4494 B( 57-O , 58-C ) :   1.1572 B( 58-C , 59-C ) :   1.4723
B( 58-C , 67-C ) :   1.1246 B( 59-C , 60-C ) :   1.2836 B( 59-C , 63-C ) :   0.9369
B( 60-C , 61-C ) :   1.1274 B( 61-C , 62-N ) :   3.0152 B( 63-C , 64-F ) :   1.1597
B( 63-C , 65-F ) :   1.1802 B( 63-C , 66-F ) :   1.2010 B( 67-C , 68-C ) :   1.9105
B( 67-C , 86-H ) :   0.9534 B( 68-C , 87-H ) :   0.9531 B( 68-C , 88-H ) :   0.9461

-----------------------------------------------------------------------------
         ABSORPTION SPECTRUM VIA TRANSITION ELECTRIC DIPOLE MOMENTS
-----------------------------------------------------------------------------
State   Energy  Wavelength   fosc         T2         TX        TY        TZ
        (cm-1)    (nm)                  (au**2)     (au)      (au)      (au)
-----------------------------------------------------------------------------
   0   12886.2    776.0   0.333000051   8.50735  -0.97560   2.71341  -0.43926
   1   18959.0    527.5   0.009954517   0.17285   0.28770  -0.14139   0.26475
   2   20712.4    482.8   0.868699552  13.80751  -1.63538   2.73278  -1.91440
   3   22185.8    450.7   0.046402802   0.68857  -0.24619   0.35935  -0.70627
   4   22651.8    441.5   0.003666085   0.05328  -0.21922   0.07150   0.01049
   5   24039.5    416.0   0.013651757   0.18696  -0.13871   0.18617  -0.36477
   6   25167.1    397.3   0.008279741   0.10831   0.06918   0.31929   0.03970
   7   26280.9    380.5   0.004575132   0.05731   0.05471   0.21861  -0.08079
   8   26633.1    375.5   0.024347376   0.30096  -0.27734   0.45272   0.13816
   9   27207.4    367.5   0.015254954   0.18459   0.02637   0.12113  -0.41136
  10   27796.6    359.8   0.162926085   1.92963  -0.28100  -1.00029  -0.92201
  11   27894.2    358.5   0.046490071   0.54868   0.44724  -0.34523  -0.47904
  12   28251.3    354.0   0.137228711   1.59912   0.24690  -0.82051  -0.93002
  13   28289.5    353.5   0.085179110   0.99125  -0.04363   0.11879  -0.98754
  14   28736.4    348.0   0.045629637   0.52275   0.28051   0.60643   0.27622
  15   29026.0    344.5   0.085904908   0.97433  -0.56771   0.78778  -0.17730
  16   29776.7    335.8   0.001497429   0.01656  -0.06811   0.04388  -0.09995
  17   30100.0    332.2   0.006379281   0.06977  -0.24203   0.06086  -0.08653
  18   31139.8    321.1   0.047000108   0.49689   0.38008  -0.01151  -0.59354
  19   31631.6    316.1   0.342791093   3.56766   0.84473   0.89151  -1.43503
  20   31978.0    312.7   0.111979037   1.15282  -0.66910  -0.46020   0.70238
  21   32804.7    304.8   0.123977331   1.24418   0.27968   0.42836  -0.99119
  22   33389.5    299.5   0.082459585   0.81303  -0.16541  -0.35877   0.81053
  23   33443.4    299.0   0.002128950   0.02096   0.05335   0.02942   0.13132
  24   33905.0    294.9   0.522393741   5.07235  -1.89737  -0.42373  -1.13700
  25   34258.2    291.9   0.105389483   1.01276   0.72062   0.03165  -0.70176
  26   34496.4    289.9   0.569711171   5.43697  -0.02175   1.80586   1.47491
  27   34790.5    287.4   0.115458695   1.09255   0.24782   0.83945   0.57136
  28   35018.0    285.6   0.117356083   1.10329  -0.77174   0.61809  -0.35450
  29   35441.7    282.2   0.219599751   2.03983   0.59742   0.95880   0.87385
  30   35503.9    281.7   0.050868146   0.47168   0.08420  -0.49295  -0.47073
  31   36020.9    277.6   0.020937569   0.19136   0.25914  -0.34991  -0.04204
  32   36457.1    274.3   0.031521299   0.28464  -0.08918  -0.47115   0.23390
  33   36683.4    272.6   0.082262843   0.73826   0.39937   0.56574  -0.50863
  34   36744.6    272.1   0.398005813   3.56592   0.38234   0.38342  -1.80907
  35   36881.1    271.1   0.066145705   0.59044  -0.14602   0.00654  -0.75437
  36   37271.6    268.3   0.129479769   1.14367  -0.39585   0.77309  -0.62394
  37   37584.6    266.1   0.103467984   0.90630   0.27212   0.00976  -0.91223
  38   37772.3    264.7   0.019516484   0.17010  -0.27909  -0.14582  -0.26636
  39   38184.6    261.9   0.034153465   0.29446   0.04493  -0.33410  -0.42522
  40   38406.2    260.4   0.096516221   0.82732  -0.41627  -0.45984  -0.66527
  41   38580.3    259.2   0.126387718   1.07849   0.55869  -0.36562  -0.79541
  42   38925.7    256.9   0.000729574   0.00617  -0.02165   0.07517   0.00714
  43   39213.1    255.0   0.251949245   2.11523  -0.56985   1.11030   0.74681
  44   39245.7    254.8   0.022018499   0.18470  -0.42850  -0.01109  -0.03105
  45   39381.1    253.9   0.155517360   1.30007  -0.40338   1.00615   0.35358
  46   39683.7    252.0   0.013140466   0.10901   0.31265  -0.10578   0.00849
  47   39772.1    251.4   0.038853315   0.32161   0.33174  -0.45019   0.09424
  48   39962.2    250.2   0.016912590   0.13933  -0.26120   0.26185   0.05040
  49   40208.9    248.7   0.020734124   0.16976  -0.18967   0.29093  -0.22170

FINAL SINGLE POINT ENERGY     -3706.818701929301

DIPOLE MOMENT
-------------
                                X             Y             Z
Electronic contribution:    -20.23188      72.57408      -1.26433
Nuclear contribution   :     18.93648     -74.94990      -1.29342
                        -----------------------------------------
Total Dipole Moment    :     -1.29541      -2.37581      -2.55775
                        -----------------------------------------
Magnitude (a.u.)       :      3.72353
Magnitude (Debye)      :      9.46446

Rotational constants in cm-1:     0.002079     0.000285     0.000266
Rotational constants in MHz :    62.324221     8.535236     7.978939

                             ****ORCA TERMINATED NORMALLY****
TOTAL RUN TIME: 0 days 0 hours 9 minutes 7 seconds 785 msec
