                         Program Version 4.2.0 -  RELEASE  -
|  1> # ORCA input file
|  2> # SCF done       -212.078631292655          0.000791034830
|  3> ! CAM-B3LYP def2-SVP def2/J RIJCOSX Grid4 TightSCF
|  4> %maxcore 5000
|  5> %tddft
|  6>     Mode sTDDFT
|  7>     Ethresh 5.0
|  8>     maxcore 5000
|  9> end
| 10>
| 11> %pal
| 12>   nprocs 6
| 13>   end
| 14> * xyz 0 1
| 15>    C       -2.79161         5.75564        -1.66949
| 16>    C       -3.77194         4.62496        -1.94614
| 17>    O       -4.84284         4.70254        -2.46544
| 18>    O       -3.25254         3.46587        -1.50132
| 19>    C       -1.92344         3.64175        -1.02511
| 20>    C       -1.84347         5.13353        -0.64640
| 21>    C       -0.43604         5.71607        -0.59546
| 22>    C        0.39458         5.37370        -1.82574
| 23>    C        0.42761         3.88601        -2.15593
| 24>    C       -0.94557         3.19191        -2.13552
| 25>    O       -0.64702         1.80992        -1.97216
| 26>    C        0.58466         1.61115        -1.49010
| 27>    O        1.04214         0.53383        -1.26678
| 28>    C        1.28373         2.96523        -1.26788
| 29>    C        1.25773         3.25286         0.19163
| 30>    C        2.34366         3.53100         0.91908
| 31>    C        2.25228         3.82930         2.31816
| 32>    S        3.65718         3.95334         3.35673
| 33>    C        2.50948         4.32002         4.64175
| 34>    N        1.27668         4.32434         4.21872
| 35>    N        1.13545         4.05728         2.95034
| 36>    C        2.92933         4.57362         5.97540
| 37>    C        2.04939         4.88273         6.95850
| 38>    C        2.45676         5.12878         8.29531
| 39>    N        1.58819         5.43941         9.31373
| 40>    C        0.14962         5.51720         9.22694
| 41>    C       -0.49536         4.13367         9.21800
| 42>    C        2.25554         5.62756        10.53739
| 43>    O        1.69006         5.88662        11.57910
| 44>    C        3.65408         5.43483        10.21363
| 45>    C        3.74231         5.12070         8.83377
| 46>    C        5.13639         4.90109         8.51733
| 47>    O        5.70185         4.61085         7.48120
| 48>    N        5.80316         5.08977         9.73937
| 49>    C        7.23793         4.97509         9.83683
| 50>    C        7.91704         6.34240         9.84823
| 51>    C        4.93565         5.41843        10.75318
| 52>    C        5.34338         5.66662        12.09324
| 53>    C        4.48130         6.11088        13.03155
| 54>    C        4.80985         6.38625        14.40550
| 55>    C        5.59330         5.58090        15.26169
| 56>    C        6.11658         4.24725        14.89141
| 57>    O        6.01457         3.66266        13.85435
| 58>    S        6.97030         3.53166        16.29771
| 59>    C        6.63875         4.94371        17.34852
| 60>    O        6.99196         4.99338        18.48731
| 61>    C        5.85810         5.94191        16.58540
| 62>    C        5.40254         7.14141        17.16444
| 63>    C        4.54928         7.88976        16.34039
| 64>    C        4.26953         7.52203        15.03011
| 65>    C        3.36583         8.54851        14.46202
| 66>    O        2.96322         8.69978        13.35342
| 67>    O        3.05439         9.41610        15.49015
| 68>    C        3.71097         9.07957        16.64284
| 69>    O        3.54476         9.67180        17.66539
| 70>    C        5.77392         7.56997        18.49549
| 71>    C        6.05516         8.84082        18.78909
| 72>    C        6.41467         9.31074        20.15383
| 73>    C        7.65659         8.61022        20.73801
| 74>    O        8.64879         8.31032        20.15057
| 75>    O        7.46639         8.39144        22.04462
| 76>    C        6.23370         8.94706        22.49471
| 77>    C        5.36276         9.00886        21.23065
| 78>    C        4.19029         9.97776        21.28914
| 79>    C        4.59117        11.36242        21.78036
| 80>    C        5.38015        11.35150        23.08577
| 81>    C        6.51846        10.31590        23.15401
| 82>    O        6.75493        10.12748        24.54247
| 83>    C        5.71625        10.53453        25.29228
| 84>    O        5.69701        10.44267        26.48106
| 85>    C        4.60998        11.09358        24.39302
| 86>    C        3.49816        10.08794        24.34380
| 87>    C        2.23002        10.39633        24.54378
| 88>    H       -3.31553         6.63824        -1.31022
| 89>    H       -2.28682         6.01083        -2.60266
| 90>    H       -1.80762         2.97710        -0.16462
| 91>    H       -2.29459         5.24231         0.34581
| 92>    H        0.06590         5.35625         0.30234
| 93>    H       -0.51497         6.80146        -0.51094
| 94>    H        1.41733         5.72398        -1.67865
| 95>    H       -0.00708         5.90078        -2.69400
| 96>    H        0.82316         3.78006        -3.17334
| 97>    H       -1.46568         3.29032        -3.09467
| 98>    H        2.31789         2.91243        -1.61301
| 99>    H        0.30445         3.19404         0.69537
|100>    H        3.33139         3.55106         0.48243
|101>    H        3.98879         4.50496         6.18016
|102>    H        0.99981         4.94427         6.71185
|103>    H       -0.13165         6.08314         8.33493
|104>    H       -0.17596         6.06868        10.11338
|105>    H       -0.16137         3.55222         8.36177
|106>    H       -1.57610         4.23362         9.17236
|107>    H       -0.23407         3.59611        10.12614
|108>    H        7.55699         4.41549         8.95311
|109>    H        7.49678         4.40029        10.73015
|110>    H        7.68509         6.87958         8.93183
|111>    H        8.99423         6.21773         9.91413
|112>    H        7.58038         6.93962        10.69301
|113>    H        6.38459         5.51081        12.33269
|114>    H        3.46618         6.35759        12.74224
|115>    H        5.88392         6.79344        19.23877
|116>    H        6.04883         9.58892        18.01052
|117>    H        6.63945        10.38081        20.12758
|118>    H        5.84121         8.26559        23.25451
|119>    H        4.97131         8.00363        21.04261
|120>    H        3.42509         9.56679        21.94720
|121>    H        3.76068        10.05771        20.28882
|122>    H        3.69307        11.96514        21.92087
|123>    H        5.19666        11.85783        21.01868
|124>    H        5.84660        12.33780        23.19817
|125>    H        7.44890        10.70445        22.72505
|126>    H        4.22253        12.02217        24.81639
|127>    H        3.79204         9.06037        24.17808
|128>    H        1.91430        11.40836        24.73440
|129>    H        1.45537         9.64963        24.52482
|130> *
|131>
|132>                          ****END OF INPUT****

CARTESIAN COORDINATES (ANGSTROEM)
---------------------------------
  C     -2.791610    5.755640   -1.669490
  C     -3.771940    4.624960   -1.946140
  O     -4.842840    4.702540   -2.465440
  O     -3.252540    3.465870   -1.501320
  C     -1.923440    3.641750   -1.025110
  C     -1.843470    5.133530   -0.646400
  C     -0.436040    5.716070   -0.595460
  C      0.394580    5.373700   -1.825740
  C      0.427610    3.886010   -2.155930
  C     -0.945570    3.191910   -2.135520
  O     -0.647020    1.809920   -1.972160
  C      0.584660    1.611150   -1.490100
  O      1.042140    0.533830   -1.266780
  C      1.283730    2.965230   -1.267880
  C      1.257730    3.252860    0.191630
  C      2.343660    3.531000    0.919080
  C      2.252280    3.829300    2.318160
  S      3.657180    3.953340    3.356730
  C      2.509480    4.320020    4.641750
  N      1.276680    4.324340    4.218720
  N      1.135450    4.057280    2.950340
  C      2.929330    4.573620    5.975400
  C      2.049390    4.882730    6.958500
  C      2.456760    5.128780    8.295310
  N      1.588190    5.439410    9.313730
  C      0.149620    5.517200    9.226940
  C     -0.495360    4.133670    9.218000
  C      2.255540    5.627560   10.537390
  O      1.690060    5.886620   11.579100
  C      3.654080    5.434830   10.213630
  C      3.742310    5.120700    8.833770
  C      5.136390    4.901090    8.517330
  O      5.701850    4.610850    7.481200
  N      5.803160    5.089770    9.739370
  C      7.237930    4.975090    9.836830
  C      7.917040    6.342400    9.848230
  C      4.935650    5.418430   10.753180
  C      5.343380    5.666620   12.093240
  C      4.481300    6.110880   13.031550
  C      4.809850    6.386250   14.405500
  C      5.593300    5.580900   15.261690
  C      6.116580    4.247250   14.891410
  O      6.014570    3.662660   13.854350
  S      6.970300    3.531660   16.297710
  C      6.638750    4.943710   17.348520
  O      6.991960    4.993380   18.487310
  C      5.858100    5.941910   16.585400
  C      5.402540    7.141410   17.164440
  C      4.549280    7.889760   16.340390
  C      4.269530    7.522030   15.030110
  C      3.365830    8.548510   14.462020
  O      2.963220    8.699780   13.353420
  O      3.054390    9.416100   15.490150
  C      3.710970    9.079570   16.642840
  O      3.544760    9.671800   17.665390
  C      5.773920    7.569970   18.495490
  C      6.055160    8.840820   18.789090
  C      6.414670    9.310740   20.153830
  C      7.656590    8.610220   20.738010
  O      8.648790    8.310320   20.150570
  O      7.466390    8.391440   22.044620
  C      6.233700    8.947060   22.494710
  C      5.362760    9.008860   21.230650
  C      4.190290    9.977760   21.289140
  C      4.591170   11.362420   21.780360
  C      5.380150   11.351500   23.085770
  C      6.518460   10.315900   23.154010
  O      6.754930   10.127480   24.542470
  C      5.716250   10.534530   25.292280
  O      5.697010   10.442670   26.481060
  C      4.609980   11.093580   24.393020
  C      3.498160   10.087940   24.343800
  C      2.230020   10.396330   24.543780
  H     -3.315530    6.638240   -1.310220
  H     -2.286820    6.010830   -2.602660
  H     -1.807620    2.977100   -0.164620
  H     -2.294590    5.242310    0.345810
  H      0.065900    5.356250    0.302340
  H     -0.514970    6.801460   -0.510940
  H      1.417330    5.723980   -1.678650
  H     -0.007080    5.900780   -2.694000
  H      0.823160    3.780060   -3.173340
  H     -1.465680    3.290320   -3.094670
  H      2.317890    2.912430   -1.613010
  H      0.304450    3.194040    0.695370
  H      3.331390    3.551060    0.482430
  H      3.988790    4.504960    6.180160
  H      0.999810    4.944270    6.711850
  H     -0.131650    6.083140    8.334930
  H     -0.175960    6.068680   10.113380
  H     -0.161370    3.552220    8.361770
  H     -1.576100    4.233620    9.172360
  H     -0.234070    3.596110   10.126140
  H      7.556990    4.415490    8.953110
  H      7.496780    4.400290   10.730150
  H      7.685090    6.879580    8.931830
  H      8.994230    6.217730    9.914130
  H      7.580380    6.939620   10.693010
  H      6.384590    5.510810   12.332690
  H      3.466180    6.357590   12.742240
  H      5.883920    6.793440   19.238770
  H      6.048830    9.588920   18.010520
  H      6.639450   10.380810   20.127580
  H      5.841210    8.265590   23.254510
  H      4.971310    8.003630   21.042610
  H      3.425090    9.566790   21.947200
  H      3.760680   10.057710   20.288820
  H      3.693070   11.965140   21.920870
  H      5.196660   11.857830   21.018680
  H      5.846600   12.337800   23.198170
  H      7.448900   10.704450   22.725050
  H      4.222530   12.022170   24.816390
  H      3.792040    9.060370   24.178080
  H      1.914300   11.408360   24.734400
  H      1.455370    9.649630   24.524820

 Total Charge           Charge          ....    0
 Multiplicity           Mult            ....    1
 Number of Electrons    NEL             ....  534
 Basis Dimension        Dim             .... 1240

ORBITAL ENERGIES
----------------

  NO   OCC          E(Eh)            E(eV)
   0   2.0000     -88.980956     -2421.2949
   1   2.0000     -88.960623     -2420.7416
   2   2.0000     -19.302522      -525.2483
   3   2.0000     -19.267293      -524.2897
   4   2.0000     -19.265666      -524.2454
   5   2.0000     -19.262442      -524.1577
   6   2.0000     -19.258943      -524.0625
   7   2.0000     -19.253052      -523.9022
   8   2.0000     -19.252459      -523.8860
   9   2.0000     -19.250778      -523.8403
  10   2.0000     -19.249379      -523.8022
  11   2.0000     -19.204098      -522.5701
  12   2.0000     -19.203599      -522.5565
  13   2.0000     -19.199077      -522.4335
  14   2.0000     -19.198703      -522.4233
  15   2.0000     -19.197828      -522.3994
  16   2.0000     -19.196519      -522.3638
  17   2.0000     -14.459730      -393.4693
  18   2.0000     -14.459725      -393.4691
  19   2.0000     -14.445833      -393.0911
  20   2.0000     -14.445470      -393.0812
  21   2.0000     -10.446459      -284.2626
  22   2.0000     -10.441765      -284.1349
  23   2.0000     -10.417094      -283.4635
  24   2.0000     -10.415228      -283.4128
  25   2.0000     -10.402280      -283.0604
  26   2.0000     -10.401849      -283.0487
  27   2.0000     -10.396318      -282.8982
  28   2.0000     -10.395254      -282.8693
  29   2.0000     -10.380972      -282.4806
  30   2.0000     -10.380313      -282.4627
  31   2.0000     -10.350241      -281.6444
  32   2.0000     -10.347582      -281.5720
  33   2.0000     -10.347550      -281.5711
  34   2.0000     -10.347156      -281.5604
  35   2.0000     -10.346777      -281.5501
  36   2.0000     -10.345922      -281.5268
  37   2.0000     -10.345708      -281.5210
  38   2.0000     -10.345304      -281.5100
  39   2.0000     -10.344400      -281.4854
  40   2.0000     -10.343948      -281.4731
  41   2.0000     -10.340971      -281.3921
  42   2.0000     -10.338591      -281.3274
  43   2.0000     -10.338085      -281.3136
  44   2.0000     -10.336819      -281.2792
  45   2.0000     -10.313495      -280.6445
  46   2.0000     -10.311576      -280.5922
  47   2.0000     -10.306083      -280.4428
  48   2.0000     -10.305283      -280.4210
  49   2.0000     -10.305093      -280.4158
  50   2.0000     -10.304230      -280.3924
  51   2.0000     -10.304079      -280.3882
  52   2.0000     -10.303856      -280.3822
  53   2.0000     -10.302906      -280.3563
  54   2.0000     -10.301276      -280.3120
  55   2.0000     -10.300420      -280.2887
  56   2.0000     -10.299440      -280.2620
  57   2.0000     -10.299054      -280.2515
  58   2.0000     -10.298438      -280.2348
  59   2.0000     -10.296561      -280.1837
  60   2.0000     -10.295991      -280.1682
  61   2.0000     -10.293918      -280.1118
  62   2.0000     -10.289764      -279.9987
  63   2.0000     -10.288743      -279.9709
  64   2.0000     -10.288457      -279.9631
  65   2.0000     -10.283656      -279.8325
  66   2.0000     -10.281485      -279.7734
  67   2.0000     -10.276525      -279.6385
  68   2.0000     -10.275967      -279.6233
  69   2.0000     -10.269881      -279.4577
  70   2.0000     -10.269281      -279.4413
  71   2.0000     -10.268025      -279.4072
  72   2.0000     -10.265556      -279.3400
  73   2.0000      -8.077366      -219.7963
  74   2.0000      -8.059929      -219.3218
  75   2.0000      -6.045972      -164.5193
  76   2.0000      -6.042602      -164.4275
  77   2.0000      -6.039820      -164.3519
  78   2.0000      -6.028782      -164.0515
  79   2.0000      -6.025504      -163.9623
  80   2.0000      -6.020984      -163.8393
  81   2.0000      -1.252245       -34.0753
  82   2.0000      -1.205570       -32.8052
  83   2.0000      -1.205100       -32.7924
  84   2.0000      -1.195848       -32.5407
  85   2.0000      -1.193843       -32.4861
  86   2.0000      -1.179157       -32.0865
  87   2.0000      -1.178101       -32.0578
  88   2.0000      -1.175064       -31.9751
  89   2.0000      -1.149177       -31.2707
  90   2.0000      -1.140740       -31.0411
  91   2.0000      -1.139935       -31.0192
  92   2.0000      -1.134117       -30.8609
  93   2.0000      -1.114151       -30.3176
  94   2.0000      -1.113977       -30.3128
  95   2.0000      -1.106727       -30.1156
  96   2.0000      -1.104824       -30.0638
  97   2.0000      -1.071019       -29.1439
  98   2.0000      -1.062613       -28.9152
  99   2.0000      -1.027555       -27.9612
 100   2.0000      -0.964060       -26.2334
 101   2.0000      -0.963491       -26.2179
 102   2.0000      -0.959749       -26.1161
 103   2.0000      -0.952023       -25.9059
 104   2.0000      -0.948301       -25.8046
 105   2.0000      -0.936368       -25.4799
 106   2.0000      -0.932760       -25.3817
 107   2.0000      -0.927988       -25.2518
 108   2.0000      -0.914908       -24.8959
 109   2.0000      -0.908929       -24.7332
 110   2.0000      -0.895629       -24.3713
 111   2.0000      -0.889936       -24.2164
 112   2.0000      -0.885162       -24.0865
 113   2.0000      -0.877223       -23.8704
 114   2.0000      -0.872877       -23.7522
 115   2.0000      -0.858460       -23.3599
 116   2.0000      -0.854725       -23.2583
 117   2.0000      -0.852998       -23.2113
 118   2.0000      -0.841095       -22.8874
 119   2.0000      -0.833237       -22.6735
 120   2.0000      -0.825548       -22.4643
 121   2.0000      -0.812983       -22.1224
 122   2.0000      -0.810243       -22.0478
 123   2.0000      -0.806728       -21.9522
 124   2.0000      -0.800989       -21.7960
 125   2.0000      -0.794404       -21.6168
 126   2.0000      -0.776275       -21.1235
 127   2.0000      -0.768624       -20.9153
 128   2.0000      -0.765837       -20.8395
 129   2.0000      -0.748049       -20.3555
 130   2.0000      -0.745276       -20.2800
 131   2.0000      -0.737463       -20.0674
 132   2.0000      -0.735875       -20.0242
 133   2.0000      -0.729794       -19.8587
 134   2.0000      -0.716512       -19.4973
 135   2.0000      -0.711580       -19.3631
 136   2.0000      -0.708482       -19.2788
 137   2.0000      -0.704342       -19.1661
 138   2.0000      -0.698710       -19.0129
 139   2.0000      -0.686797       -18.6887
 140   2.0000      -0.680391       -18.5144
 141   2.0000      -0.671392       -18.2695
 142   2.0000      -0.671027       -18.2596
 143   2.0000      -0.666420       -18.1342
 144   2.0000      -0.660313       -17.9680
 145   2.0000      -0.656188       -17.8558
 146   2.0000      -0.649420       -17.6716
 147   2.0000      -0.647014       -17.6061
 148   2.0000      -0.641695       -17.4614
 149   2.0000      -0.638887       -17.3850
 150   2.0000      -0.634719       -17.2716
 151   2.0000      -0.631269       -17.1777
 152   2.0000      -0.627929       -17.0868
 153   2.0000      -0.625556       -17.0222
 154   2.0000      -0.621445       -16.9104
 155   2.0000      -0.618463       -16.8292
 156   2.0000      -0.613637       -16.6979
 157   2.0000      -0.612867       -16.6770
 158   2.0000      -0.607368       -16.5273
 159   2.0000      -0.602559       -16.3965
 160   2.0000      -0.595339       -16.2000
 161   2.0000      -0.593260       -16.1434
 162   2.0000      -0.589150       -16.0316
 163   2.0000      -0.582976       -15.8636
 164   2.0000      -0.578406       -15.7392
 165   2.0000      -0.575355       -15.6562
 166   2.0000      -0.574658       -15.6372
 167   2.0000      -0.571632       -15.5549
 168   2.0000      -0.569492       -15.4967
 169   2.0000      -0.568969       -15.4824
 170   2.0000      -0.565479       -15.3875
 171   2.0000      -0.563835       -15.3427
 172   2.0000      -0.558897       -15.2084
 173   2.0000      -0.557579       -15.1725
 174   2.0000      -0.550639       -14.9836
 175   2.0000      -0.549738       -14.9591
 176   2.0000      -0.547897       -14.9090
 177   2.0000      -0.547854       -14.9079
 178   2.0000      -0.547543       -14.8994
 179   2.0000      -0.544907       -14.8277
 180   2.0000      -0.540322       -14.7029
 181   2.0000      -0.539423       -14.6785
 182   2.0000      -0.539146       -14.6709
 183   2.0000      -0.536998       -14.6125
 184   2.0000      -0.535059       -14.5597
 185   2.0000      -0.534100       -14.5336
 186   2.0000      -0.533190       -14.5088
 187   2.0000      -0.531656       -14.4671
 188   2.0000      -0.528927       -14.3928
 189   2.0000      -0.526683       -14.3318
 190   2.0000      -0.524953       -14.2847
 191   2.0000      -0.520681       -14.1685
 192   2.0000      -0.520554       -14.1650
 193   2.0000      -0.517672       -14.0866
 194   2.0000      -0.517118       -14.0715
 195   2.0000      -0.514231       -13.9929
 196   2.0000      -0.510543       -13.8926
 197   2.0000      -0.508839       -13.8462
 198   2.0000      -0.506230       -13.7752
 199   2.0000      -0.505704       -13.7609
 200   2.0000      -0.505551       -13.7567
 201   2.0000      -0.498562       -13.5666
 202   2.0000      -0.497817       -13.5463
 203   2.0000      -0.493845       -13.4382
 204   2.0000      -0.492929       -13.4133
 205   2.0000      -0.491840       -13.3836
 206   2.0000      -0.489461       -13.3189
 207   2.0000      -0.486748       -13.2451
 208   2.0000      -0.482582       -13.1317
 209   2.0000      -0.477969       -13.0062
 210   2.0000      -0.474868       -12.9218
 211   2.0000      -0.472211       -12.8495
 212   2.0000      -0.470358       -12.7991
 213   2.0000      -0.468473       -12.7478
 214   2.0000      -0.468200       -12.7404
 215   2.0000      -0.463630       -12.6160
 216   2.0000      -0.461524       -12.5587
 217   2.0000      -0.460854       -12.5405
 218   2.0000      -0.458512       -12.4767
 219   2.0000      -0.456725       -12.4281
 220   2.0000      -0.454638       -12.3713
 221   2.0000      -0.453487       -12.3400
 222   2.0000      -0.452245       -12.3062
 223   2.0000      -0.449724       -12.2376
 224   2.0000      -0.448220       -12.1967
 225   2.0000      -0.444486       -12.0951
 226   2.0000      -0.443489       -12.0679
 227   2.0000      -0.442573       -12.0430
 228   2.0000      -0.441116       -12.0034
 229   2.0000      -0.435998       -11.8641
 230   2.0000      -0.434754       -11.8303
 231   2.0000      -0.430458       -11.7134
 232   2.0000      -0.428468       -11.6592
 233   2.0000      -0.426281       -11.5997
 234   2.0000      -0.422455       -11.4956
 235   2.0000      -0.416032       -11.3208
 236   2.0000      -0.413561       -11.2536
 237   2.0000      -0.406284       -11.0555
 238   2.0000      -0.404619       -11.0102
 239   2.0000      -0.403955       -10.9922
 240   2.0000      -0.403782       -10.9875
 241   2.0000      -0.401057       -10.9133
 242   2.0000      -0.398277       -10.8377
 243   2.0000      -0.391466       -10.6523
 244   2.0000      -0.390609       -10.6290
 245   2.0000      -0.388907       -10.5827
 246   2.0000      -0.386514       -10.5176
 247   2.0000      -0.385180       -10.4813
 248   2.0000      -0.378065       -10.2877
 249   2.0000      -0.370551       -10.0832
 250   2.0000      -0.365040        -9.9332
 251   2.0000      -0.364315        -9.9135
 252   2.0000      -0.359470        -9.7817
 253   2.0000      -0.358869        -9.7653
 254   2.0000      -0.357026        -9.7152
 255   2.0000      -0.355576        -9.6757
 256   2.0000      -0.350465        -9.5367
 257   2.0000      -0.343851        -9.3567
 258   2.0000      -0.340557        -9.2670
 259   2.0000      -0.339074        -9.2267
 260   2.0000      -0.337090        -9.1727
 261   2.0000      -0.333465        -9.0740
 262   2.0000      -0.329351        -8.9621
 263   2.0000      -0.321758        -8.7555
 264   2.0000      -0.318151        -8.6573
 265   2.0000      -0.305717        -8.3190
 266   2.0000      -0.246824        -6.7164
 267   0.0000      -0.105973        -2.8837
 268   0.0000      -0.100296        -2.7292
 269   0.0000      -0.068119        -1.8536
 270   0.0000      -0.043508        -1.1839
 271   0.0000      -0.027820        -0.7570

MULLIKEN ATOMIC CHARGES
-----------------------
   0 C :    0.026842
   1 C :    0.136772
   2 O :   -0.156650
   3 O :   -0.262932
   4 C :    0.146977
   5 C :   -0.133852
   6 C :    0.086233
   7 C :    0.100642
   8 C :   -0.087077
   9 C :    0.163900
  10 O :   -0.250210
  11 C :    0.175221
  12 O :   -0.148189
  13 C :   -0.046428
  14 C :    0.016061
  15 C :    0.062506
  16 C :   -0.095956
  17 S :    0.130700
  18 C :   -0.122616
  19 N :   -0.041117
  20 N :   -0.067226
  21 C :    0.082923
  22 C :   -0.027717
  23 C :    0.144867
  24 N :   -0.259326
  25 C :    0.099642
  26 C :    0.001294
  27 C :    0.172763
  28 O :   -0.197636
  29 C :   -0.055814
  30 C :   -0.068698
  31 C :    0.168802
  32 O :   -0.212118
  33 N :   -0.257386
  34 C :    0.097487
  35 C :    0.002357
  36 C :    0.096927
  37 C :    0.061137
  38 C :   -0.065272
  39 C :    0.039941
  40 C :    0.027134
  41 C :    0.029613
  42 O :   -0.120782
  43 S :    0.028705
  44 C :    0.038297
  45 O :   -0.114916
  46 C :    0.042738
  47 C :    0.017094
  48 C :   -0.095649
  49 C :   -0.058842
  50 C :    0.236028
  51 O :   -0.083735
  52 O :   -0.229233
  53 C :    0.233272
  54 O :   -0.103794
  55 C :   -0.037587
  56 C :    0.078964
  57 C :   -0.100003
  58 C :    0.193822
  59 O :   -0.144815
  60 O :   -0.252113
  61 C :    0.162324
  62 C :   -0.081293
  63 C :    0.105006
  64 C :    0.094936
  65 C :   -0.087019
  66 C :    0.162141
  67 O :   -0.257796
  68 C :    0.172596
  69 O :   -0.151830
  70 C :   -0.054233
  71 C :   -0.008313
  72 C :   -0.002698
  73 H :    0.043962
  74 H :    0.039033
  75 H :    0.029495
  76 H :    0.026327
  77 H :    0.029769
  78 H :    0.009312
  79 H :    0.007121
  80 H :    0.007064
  81 H :    0.021024
  82 H :    0.019905
  83 H :    0.023675
  84 H :    0.030134
  85 H :   -0.005408
  86 H :    0.013202
  87 H :    0.002877
  88 H :    0.027312
  89 H :    0.044692
  90 H :    0.021196
  91 H :    0.027507
  92 H :    0.028268
  93 H :    0.043385
  94 H :    0.032840
  95 H :    0.029223
  96 H :    0.026722
  97 H :    0.013161
  98 H :   -0.020162
  99 H :    0.057912
 100 H :    0.035247
 101 H :    0.003813
 102 H :    0.031080
 103 H :    0.023537
 104 H :    0.016257
 105 H :    0.011255
 106 H :    0.023286
 107 H :    0.010151
 108 H :    0.006039
 109 H :    0.017359
 110 H :    0.017682
 111 H :    0.023946
 112 H :    0.005289
 113 H :    0.020999
 114 H :    0.028720
Sum of atomic charges:   -0.0000000

LOEWDIN ATOMIC CHARGES
----------------------
   0 C :   -0.058301
   1 C :    0.074243
   2 O :   -0.146755
   3 O :   -0.075272
   4 C :    0.064368
   5 C :   -0.038244
   6 C :   -0.029592
   7 C :   -0.027063
   8 C :   -0.033177
   9 C :    0.068886
  10 O :   -0.064429
  11 C :    0.078488
  12 O :   -0.139138
  13 C :   -0.055110
  14 C :    0.026716
  15 C :   -0.061575
  16 C :   -0.146602
  17 S :    0.410465
  18 C :   -0.153185
  19 N :   -0.073389
  20 N :   -0.085230
  21 C :   -0.005265
  22 C :   -0.015191
  23 C :    0.079450
  24 N :    0.002177
  25 C :    0.037389
  26 C :   -0.060286
  27 C :    0.084173
  28 O :   -0.187268
  29 C :   -0.110244
  30 C :   -0.120143
  31 C :    0.080335
  32 O :   -0.202696
  33 N :    0.003233
  34 C :    0.037126
  35 C :   -0.061119
  36 C :    0.071817
  37 C :   -0.001416
  38 C :    0.004673
  39 C :    0.026081
  40 C :   -0.052769
  41 C :   -0.045434
  42 O :   -0.109127
  43 S :    0.314233
  44 C :   -0.043771
  45 O :   -0.100440
  46 C :   -0.050265
  47 C :    0.033984
  48 C :   -0.048759
  49 C :   -0.039346
  50 C :    0.108940
  51 O :   -0.079033
  52 O :   -0.055334
  53 C :    0.108577
  54 O :   -0.105590
  55 C :   -0.034673
  56 C :    0.040757
  57 C :   -0.066633
  58 C :    0.078184
  59 O :   -0.140486
  60 O :   -0.064979
  61 C :    0.066986
  62 C :   -0.024948
  63 C :   -0.029636
  64 C :   -0.025802
  65 C :   -0.034985
  66 C :    0.066929
  67 O :   -0.071072
  68 C :    0.079825
  69 O :   -0.141334
  70 C :   -0.055700
  71 C :   -0.017118
  72 C :   -0.037532
  73 H :    0.046041
  74 H :    0.039689
  75 H :    0.029738
  76 H :    0.038343
  77 H :    0.031418
  78 H :    0.032515
  79 H :    0.032417
  80 H :    0.024913
  81 H :    0.038086
  82 H :    0.031326
  83 H :    0.044044
  84 H :    0.030735
  85 H :    0.032906
  86 H :    0.037710
  87 H :    0.037527
  88 H :    0.025494
  89 H :    0.038384
  90 H :    0.024361
  91 H :    0.032449
  92 H :    0.031734
  93 H :    0.038158
  94 H :    0.026464
  95 H :    0.032266
  96 H :    0.031719
  97 H :    0.021097
  98 H :    0.028207
  99 H :    0.044321
 100 H :    0.034680
 101 H :    0.026655
 102 H :    0.042634
 103 H :    0.029216
 104 H :    0.033116
 105 H :    0.027217
 106 H :    0.036479
 107 H :    0.034502
 108 H :    0.023606
 109 H :    0.036862
 110 H :    0.029425
 111 H :    0.045323
 112 H :    0.022408
 113 H :    0.024739
 114 H :    0.028499

  Mayer bond orders larger than 0.100000
B(  0-C ,  1-C ) :   0.9624 B(  0-C ,  5-C ) :   1.0222 B(  0-C , 73-H ) :   0.9295
B(  0-C , 74-H ) :   0.9274 B(  1-C ,  2-O ) :   2.2377 B(  1-C ,  3-O ) :   1.1190
B(  3-O ,  4-C ) :   0.9587 B(  4-C ,  5-C ) :   1.0228 B(  4-C ,  9-C ) :   0.9700
B(  4-C , 75-H ) :   0.9134 B(  5-C ,  6-C ) :   1.0666 B(  5-C , 76-H ) :   0.9157
B(  6-C ,  7-C ) :   1.0614 B(  6-C , 77-H ) :   0.9305 B(  6-C , 78-H ) :   0.9241
B(  7-C ,  8-C ) :   1.0636 B(  7-C , 79-H ) :   0.9246 B(  7-C , 80-H ) :   0.9363
B(  8-C ,  9-C ) :   1.0065 B(  8-C , 13-C ) :   0.9906 B(  8-C , 81-H ) :   0.9093
B(  9-C , 10-O ) :   0.9621 B(  9-C , 82-H ) :   0.9195 B( 10-O , 11-C ) :   1.1367
B( 11-C , 12-O ) :   2.2514 B( 11-C , 13-C ) :   0.8854 B( 13-C , 14-C ) :   0.9965
B( 13-C , 83-H ) :   0.9135 B( 14-C , 15-C ) :   1.8514 B( 14-C , 84-H ) :   0.9443
B( 15-C , 16-C ) :   1.0655 B( 15-C , 85-H ) :   0.9580 B( 16-C , 17-S ) :   1.1103
B( 16-C , 20-N ) :   1.6576 B( 17-S , 18-C ) :   1.0975 B( 18-C , 19-N ) :   1.6778
B( 18-C , 21-C ) :   1.1032 B( 19-N , 20-N ) :   1.2262 B( 21-C , 22-C ) :   1.6614
B( 21-C , 86-H ) :   0.9230 B( 22-C , 23-C ) :   1.1294 B( 22-C , 87-H ) :   0.9732
B( 23-C , 24-N ) :   1.1652 B( 23-C , 30-C ) :   1.3413 B( 24-N , 25-C ) :   0.9431
B( 24-N , 27-C ) :   1.0556 B( 25-C , 26-C ) :   1.1191 B( 25-C , 88-H ) :   0.9500
B( 25-C , 89-H ) :   0.9292 B( 26-C , 90-H ) :   0.9690 B( 26-C , 91-H ) :   0.9679
B( 26-C , 92-H ) :   0.9642 B( 27-C , 28-O ) :   2.0498 B( 27-C , 29-C ) :   0.9736
B( 29-C , 30-C ) :   1.2549 B( 29-C , 36-C ) :   1.3631 B( 30-C , 31-C ) :   0.9865
B( 31-C , 32-O ) :   2.0225 B( 31-C , 33-N ) :   1.0650 B( 32-O , 86-H ) :   0.1143
B( 33-N , 34-C ) :   0.9452 B( 33-N , 36-C ) :   1.1563 B( 34-C , 35-C ) :   1.1173
B( 34-C , 93-H ) :   0.9287 B( 34-C , 94-H ) :   0.9504 B( 35-C , 95-H ) :   0.9642
B( 35-C , 96-H ) :   0.9681 B( 35-C , 97-H ) :   0.9690 B( 36-C , 37-C ) :   1.1726
B( 37-C , 38-C ) :   1.6772 B( 37-C , 98-H ) :   0.9469 B( 38-C , 39-C ) :   1.0827
B( 38-C , 99-H ) :   0.9161 B( 39-C , 40-C ) :   1.3525 B( 39-C , 49-C ) :   1.3371
B( 40-C , 41-C ) :   0.8403 B( 40-C , 46-C ) :   1.3155 B( 41-C , 42-O ) :   2.1820
B( 41-C , 43-S ) :   1.0337 B( 42-O , 43-S ) :   0.1065 B( 43-S , 44-C ) :   1.0330
B( 43-S , 45-O ) :   0.1054 B( 44-C , 45-O ) :   2.1696 B( 44-C , 46-C ) :   0.8442
B( 46-C , 47-C ) :   1.3713 B( 47-C , 48-C ) :   1.3303 B( 47-C , 55-C ) :   1.1066
B( 48-C , 49-C ) :   1.3605 B( 48-C , 53-C ) :   0.9025 B( 49-C , 50-C ) :   0.9066
B( 50-C , 51-O ) :   2.2559 B( 50-C , 52-O ) :   1.0360 B( 52-O , 53-C ) :   1.0719
B( 53-C , 54-O ) :   2.2174 B( 55-C , 56-C ) :   1.8104 B( 55-C ,100-H ) :   0.9316
B( 56-C , 57-C ) :   1.0328 B( 56-C ,101-H ) :   0.9719 B( 57-C , 58-C ) :   0.8814
B( 57-C , 62-C ) :   0.9729 B( 57-C ,102-H ) :   0.8972 B( 58-C , 59-O ) :   2.2619
B( 58-C , 60-O ) :   1.1435 B( 60-O , 61-C ) :   0.9512 B( 61-C , 62-C ) :   1.0097
B( 61-C , 66-C ) :   0.9702 B( 61-C ,103-H ) :   0.9135 B( 62-C , 63-C ) :   1.0703
B( 62-C ,104-H ) :   0.9106 B( 63-C , 64-C ) :   1.0656 B( 63-C ,105-H ) :   0.9253
B( 63-C ,106-H ) :   0.9178 B( 64-C , 65-C ) :   1.0629 B( 64-C ,107-H ) :   0.9227
B( 64-C ,108-H ) :   0.9365 B( 65-C , 66-C ) :   1.0141 B( 65-C , 70-C ) :   0.9953
B( 65-C ,109-H ) :   0.9078 B( 66-C , 67-O ) :   0.9687 B( 66-C ,110-H ) :   0.9176
B( 67-O , 68-C ) :   1.1221 B( 68-C , 69-O ) :   2.2516 B( 68-C , 70-C ) :   0.8934
B( 70-C , 71-C ) :   1.0176 B( 70-C ,111-H ) :   0.9100 B( 71-C , 72-C ) :   2.0143
B( 71-C ,112-H ) :   0.9472 B( 72-C ,113-H ) :   0.9591 B( 72-C ,114-H ) :   0.9520

-----------------------------------------------------------------------------
         ABSORPTION SPECTRUM VIA TRANSITION ELECTRIC DIPOLE MOMENTS
-----------------------------------------------------------------------------
State   Energy  Wavelength   fosc         T2         TX        TY        TZ
        (cm-1)    (nm)                  (au**2)     (au)      (au)      (au)
-----------------------------------------------------------------------------
   0   14949.2    668.9   0.200438722   4.41407   1.06582  -0.00704   1.81054
   1   15849.2    630.9   0.560739052  11.64740  -1.48394  -0.78757  -2.97070
   2   23205.4    430.9   0.019136941   0.27149  -0.47077   0.06669  -0.21312
   3   26023.7    384.3   0.051078549   0.64617   0.42302  -0.62423   0.27850
   4   26488.3    377.5   0.001783092   0.02216  -0.07578  -0.04604   0.11958
   5   26575.2    376.3   0.015671088   0.19413   0.21372  -0.22360   0.31378
   6   28332.9    352.9   0.003119409   0.03625  -0.09201  -0.06326  -0.15420
   7   29170.5    342.8   0.326930296   3.68966   0.29519   0.46400   1.84044
   8   29377.8    340.4   0.065251976   0.73122   0.18543   0.08631   0.83030
   9   29853.3    335.0   0.302555109   3.33647   0.02977  -0.54132  -1.74429
  10   31135.8    321.2   0.214764412   2.27079  -0.17575   0.65116   1.34755
  11   31837.3    314.1   0.186647625   1.93002   0.54655  -0.33117  -1.23355
  12   32191.5    310.6   0.093575024   0.95696  -0.29674   0.21109   0.90793
  13   32372.2    308.9   0.047605918   0.48413   0.26990  -0.08439  -0.63574
  14   32426.5    308.4   0.104156142   1.05745   0.04109  -0.52244  -0.88477
  15   32845.5    304.5   0.094826136   0.95045   0.32621   0.17188   0.90249
  16   33741.8    296.4   0.000270002   0.00263   0.01549   0.04646  -0.01537
  17   34220.5    292.2   0.006705458   0.06451  -0.03106  -0.04545  -0.24795
  18   34709.8    288.1   0.021550802   0.20440   0.02560  -0.45137  -0.00385
  19   34779.8    287.5   0.001930634   0.01827  -0.01183  -0.13374  -0.01577
  20   35701.9    280.1   0.000947613   0.00874   0.02388  -0.08597   0.02787
  21   36328.2    275.3   0.006122520   0.05548  -0.04488  -0.07777  -0.21776
  22   37895.6    263.9   0.019892550   0.17281   0.17826   0.36492  -0.08873
  23   38192.7    261.8   0.003090283   0.02664   0.08966   0.00239  -0.13635
  24   38364.8    260.7   0.025206296   0.21630   0.37954  -0.02328  -0.26778
  25   38698.7    258.4   0.007930961   0.06747   0.04482   0.17144   0.18992
  26   38978.3    256.6   0.018228581   0.15396   0.16979  -0.19495   0.29517
  27   39346.8    254.2   0.124191856   1.03911   0.63751  -0.12698   0.78522
  28   39599.8    252.5   0.006456029   0.05367  -0.07671  -0.11737   0.18443
  29   40080.4    249.5   0.078627238   0.64583  -0.19571   0.61951   0.47300
  30   40152.1    249.1   0.004738939   0.03886   0.05280   0.06794  -0.17735
  31   40202.1    248.7   0.041561767   0.34035  -0.11142   0.44518   0.36020

FINAL SINGLE POINT ENERGY     -4146.329276575366

DIPOLE MOMENT
-------------
                                X             Y             Z
Electronic contribution:     24.64063     -23.30362      19.53862
Nuclear contribution   :    -23.97035      26.02001     -20.78638
                        -----------------------------------------
Total Dipole Moment    :      0.67028       2.71639      -1.24776
                        -----------------------------------------
Magnitude (a.u.)       :      3.06348
Magnitude (Debye)      :      7.78675

Rotational constants in cm-1:     0.002701     0.000185     0.000178
Rotational constants in MHz :    80.963895     5.556876     5.336536

                             ****ORCA TERMINATED NORMALLY****
TOTAL RUN TIME: 0 days 0 hours 9 minutes 27 seconds 814 msec
