                         Program Version 4.2.0 -  RELEASE  -
|  1> # ORCA input file
|  2> # SCF done       -202.074761361480          0.000999105350
|  3> ! CAM-B3LYP def2-SVP def2/J RIJCOSX Grid4 TightSCF
|  4> %maxcore 5000
|  5> %tddft
|  6>     Mode sTDDFT
|  7>     Ethresh 5.0
|  8>     maxcore 5000
|  9> end
| 10>
| 11> %pal
| 12>   nprocs 6
| 13>   end
| 14> * xyz 0 1
| 15>    C       -7.08538        -8.29391       -10.70454
| 16>    C       -6.41873        -8.19195       -11.91418
| 17>    C       -5.86094        -6.96008       -12.26545
| 18>    C       -5.16898        -6.83577       -13.49554
| 19>    N       -4.61187        -6.73923       -14.49094
| 20>    C       -5.97071        -5.83909       -11.42119
| 21>    C       -5.40865        -4.59825       -11.80416
| 22>    N       -4.96679        -3.57975       -12.08597
| 23>    C       -6.63748        -5.94878       -10.20004
| 24>    C       -7.17604        -7.17182        -9.86401
| 25>    C       -7.90350        -7.52946        -8.62706
| 26>    O       -8.15598        -6.73960        -7.73524
| 27>    C       -8.21792        -8.96379        -8.74440
| 28>    C       -7.77554        -9.41060       -10.05576
| 29>    C       -7.99220       -10.62759       -10.65027
| 30>    C       -7.53176       -10.96729       -11.94132
| 31>    N       -7.18908       -11.30919       -12.98184
| 32>    C       -8.72201       -11.71245       -10.11692
| 33>    N       -9.30629       -12.64323        -9.78259
| 34>    C       -8.76771        -9.83174        -7.82285
| 35>    C       -9.26132        -9.66844        -6.51619
| 36>    C       -9.35914        -8.48888        -5.79632
| 37>    C       -9.85201        -8.39048        -4.51190
| 38>    C      -10.33370        -9.54963        -3.75679
| 39>    C      -10.33868       -10.81076        -4.25259
| 40>    S       -9.78850       -11.21309        -5.81971
| 41>    C      -10.74415        -9.03426        -2.50029
| 42>    C      -10.52590        -7.64539        -2.45396
| 43>    C      -10.98112        -7.08306        -1.23751
| 44>    C      -11.49356        -8.02958        -0.41184
| 45>    S      -11.45881        -9.63687        -1.06449
| 46>    C       -9.95425        -7.23023        -3.69785
| 47>    C       -9.55961        -5.93395        -4.09063
| 48>    C       -9.37441        -4.89642        -3.23248
| 49>    C       -9.08488        -3.57584        -3.63299
| 50>    S       -9.05006        -3.04642        -5.28658
| 51>    C       -8.85940        -1.37747        -4.82214
| 52>    C       -8.73506        -1.26493        -3.44810
| 53>    C       -8.88449        -2.49788        -2.77234
| 54>    C       -8.96776        -2.61558        -1.37500
| 55>    N       -9.10372        -2.69905        -0.23910
| 56>    C       -8.41469        -0.02301        -2.68238
| 57>    F       -7.80859         0.91839        -3.42131
| 58>    F       -9.51910         0.56158        -2.15577
| 59>    F       -7.60054        -0.26360        -1.64982
| 60>    C       -9.09612        -0.33886        -5.78450
| 61>    C       -9.81186         0.77727        -5.42332
| 62>    C      -10.32385         1.71306        -6.31123
| 63>    C       -9.90494         1.73646        -7.71025
| 64>    C       -9.17494         0.74536        -8.27721
| 65>    S       -8.65326        -0.65843        -7.44102
| 66>    C      -10.47138         2.92755        -8.24715
| 67>    C      -11.23357         3.57420        -7.26891
| 68>    C      -11.85062         4.74294        -7.76087
| 69>    C      -11.54332         4.95436        -9.06874
| 70>    S      -10.51144         3.74826        -9.75491
| 71>    C      -11.19952         2.79654        -6.05604
| 72>    C      -11.95824         3.01245        -4.89135
| 73>    C      -12.22745         2.01231        -3.98776
| 74>    C      -12.84648         2.17451        -2.75065
| 75>    C      -12.96093         1.23990        -1.74110
| 76>    C      -13.48448         1.73230        -0.44259
| 77>    O      -13.99090         2.81040        -0.22821
| 78>    C      -13.23658         0.64817         0.53333
| 79>    C      -13.45555         0.64254         1.89328
| 80>    C      -13.07356        -0.48983         2.61690
| 81>    C      -12.45675        -1.56863         1.95801
| 82>    C      -12.23643        -1.54579         0.57873
| 83>    C      -12.65387        -0.43977        -0.14067
| 84>    C      -12.57550        -0.13715        -1.57947
| 85>    C      -12.27854        -1.12202        -2.49722
| 86>    C      -12.16627        -1.06669        -3.89711
| 87>    N      -11.99846        -1.19701        -5.02942
| 88>    C      -12.05978        -2.47757        -2.16804
| 89>    N      -11.86258        -3.60364        -2.04258
| 90>    C      -12.06637        -2.71373         2.69483
| 91>    N      -11.76655        -3.65662         3.27108
| 92>    C      -13.29723        -0.54725         4.01289
| 93>    N      -13.49105        -0.57745         5.14135
| 94>    H       -6.31056        -9.02486       -12.58974
| 95>    H       -6.72864        -5.10278        -9.53577
| 96>    H       -8.81958       -10.86248        -8.15470
| 97>    H       -9.01865        -7.59082        -6.29064
| 98>    H      -10.69225       -11.65626        -3.68330
| 99>    H      -10.96806        -6.03830        -0.98907
|100>    H      -11.90559        -7.88835         0.56818
|101>    H       -9.37776        -5.76983        -5.14594
|102>    H       -9.45778        -5.04805        -2.16674
|103>    H      -10.02693         0.91611        -4.37914
|104>    H       -8.89985         0.74924        -9.32022
|105>    H      -12.48153         5.39584        -7.18608
|106>    H      -11.86567         5.76370        -9.69423
|107>    H      -12.37034         4.00085        -4.73120
|108>    H      -11.94342         1.01352        -4.25657
|109>    H      -13.21279         3.16097        -2.48370
|110>    H      -13.90789         1.49010         2.38533
|111>    H      -11.72690        -2.38033         0.12624
|112> *
|113>
|114>                          ****END OF INPUT****

CARTESIAN COORDINATES (ANGSTROEM)
---------------------------------
  C     -7.085380   -8.293910  -10.704540
  C     -6.418730   -8.191950  -11.914180
  C     -5.860940   -6.960080  -12.265450
  C     -5.168980   -6.835770  -13.495540
  N     -4.611870   -6.739230  -14.490940
  C     -5.970710   -5.839090  -11.421190
  C     -5.408650   -4.598250  -11.804160
  N     -4.966790   -3.579750  -12.085970
  C     -6.637480   -5.948780  -10.200040
  C     -7.176040   -7.171820   -9.864010
  C     -7.903500   -7.529460   -8.627060
  O     -8.155980   -6.739600   -7.735240
  C     -8.217920   -8.963790   -8.744400
  C     -7.775540   -9.410600  -10.055760
  C     -7.992200  -10.627590  -10.650270
  C     -7.531760  -10.967290  -11.941320
  N     -7.189080  -11.309190  -12.981840
  C     -8.722010  -11.712450  -10.116920
  N     -9.306290  -12.643230   -9.782590
  C     -8.767710   -9.831740   -7.822850
  C     -9.261320   -9.668440   -6.516190
  C     -9.359140   -8.488880   -5.796320
  C     -9.852010   -8.390480   -4.511900
  C    -10.333700   -9.549630   -3.756790
  C    -10.338680  -10.810760   -4.252590
  S     -9.788500  -11.213090   -5.819710
  C    -10.744150   -9.034260   -2.500290
  C    -10.525900   -7.645390   -2.453960
  C    -10.981120   -7.083060   -1.237510
  C    -11.493560   -8.029580   -0.411840
  S    -11.458810   -9.636870   -1.064490
  C     -9.954250   -7.230230   -3.697850
  C     -9.559610   -5.933950   -4.090630
  C     -9.374410   -4.896420   -3.232480
  C     -9.084880   -3.575840   -3.632990
  S     -9.050060   -3.046420   -5.286580
  C     -8.859400   -1.377470   -4.822140
  C     -8.735060   -1.264930   -3.448100
  C     -8.884490   -2.497880   -2.772340
  C     -8.967760   -2.615580   -1.375000
  N     -9.103720   -2.699050   -0.239100
  C     -8.414690   -0.023010   -2.682380
  F     -7.808590    0.918390   -3.421310
  F     -9.519100    0.561580   -2.155770
  F     -7.600540   -0.263600   -1.649820
  C     -9.096120   -0.338860   -5.784500
  C     -9.811860    0.777270   -5.423320
  C    -10.323850    1.713060   -6.311230
  C     -9.904940    1.736460   -7.710250
  C     -9.174940    0.745360   -8.277210
  S     -8.653260   -0.658430   -7.441020
  C    -10.471380    2.927550   -8.247150
  C    -11.233570    3.574200   -7.268910
  C    -11.850620    4.742940   -7.760870
  C    -11.543320    4.954360   -9.068740
  S    -10.511440    3.748260   -9.754910
  C    -11.199520    2.796540   -6.056040
  C    -11.958240    3.012450   -4.891350
  C    -12.227450    2.012310   -3.987760
  C    -12.846480    2.174510   -2.750650
  C    -12.960930    1.239900   -1.741100
  C    -13.484480    1.732300   -0.442590
  O    -13.990900    2.810400   -0.228210
  C    -13.236580    0.648170    0.533330
  C    -13.455550    0.642540    1.893280
  C    -13.073560   -0.489830    2.616900
  C    -12.456750   -1.568630    1.958010
  C    -12.236430   -1.545790    0.578730
  C    -12.653870   -0.439770   -0.140670
  C    -12.575500   -0.137150   -1.579470
  C    -12.278540   -1.122020   -2.497220
  C    -12.166270   -1.066690   -3.897110
  N    -11.998460   -1.197010   -5.029420
  C    -12.059780   -2.477570   -2.168040
  N    -11.862580   -3.603640   -2.042580
  C    -12.066370   -2.713730    2.694830
  N    -11.766550   -3.656620    3.271080
  C    -13.297230   -0.547250    4.012890
  N    -13.491050   -0.577450    5.141350
  H     -6.310560   -9.024860  -12.589740
  H     -6.728640   -5.102780   -9.535770
  H     -8.819580  -10.862480   -8.154700
  H     -9.018650   -7.590820   -6.290640
  H    -10.692250  -11.656260   -3.683300
  H    -10.968060   -6.038300   -0.989070
  H    -11.905590   -7.888350    0.568180
  H     -9.377760   -5.769830   -5.145940
  H     -9.457780   -5.048050   -2.166740
  H    -10.026930    0.916110   -4.379140
  H     -8.899850    0.749240   -9.320220
  H    -12.481530    5.395840   -7.186080
  H    -11.865670    5.763700   -9.694230
  H    -12.370340    4.000850   -4.731200
  H    -11.943420    1.013520   -4.256570
  H    -13.212790    3.160970   -2.483700
  H    -13.907890    1.490100    2.385330
  H    -11.726900   -2.380330    0.126240

 Total Charge           Charge          ....    0
 Multiplicity           Mult            ....    1
 Number of Electrons    NEL             ....  564
 Basis Dimension        Dim             .... 1216

ORBITAL ENERGIES
----------------

  NO   OCC          E(Eh)            E(eV)
   0   2.0000     -89.009698     -2422.0770
   1   2.0000     -88.999848     -2421.8090
   2   2.0000     -88.992519     -2421.6095
   3   2.0000     -88.976316     -2421.1687
   4   2.0000     -88.973331     -2421.0874
   5   2.0000     -24.822767      -675.4618
   6   2.0000     -24.822397      -675.4518
   7   2.0000     -24.819925      -675.3845
   8   2.0000     -19.246064      -523.7120
   9   2.0000     -19.225285      -523.1466
  10   2.0000     -14.434895      -392.7935
  11   2.0000     -14.434113      -392.7722
  12   2.0000     -14.431925      -392.7126
  13   2.0000     -14.431328      -392.6964
  14   2.0000     -14.430613      -392.6769
  15   2.0000     -14.430524      -392.6745
  16   2.0000     -14.424652      -392.5147
  17   2.0000     -14.420718      -392.4077
  18   2.0000     -14.418712      -392.3531
  19   2.0000     -10.545505      -286.9578
  20   2.0000     -10.396950      -282.9154
  21   2.0000     -10.374680      -282.3094
  22   2.0000     -10.364154      -282.0230
  23   2.0000     -10.363259      -281.9986
  24   2.0000     -10.362894      -281.9887
  25   2.0000     -10.362722      -281.9840
  26   2.0000     -10.359935      -281.9081
  27   2.0000     -10.358712      -281.8749
  28   2.0000     -10.355557      -281.7890
  29   2.0000     -10.355156      -281.7781
  30   2.0000     -10.354436      -281.7585
  31   2.0000     -10.350582      -281.6536
  32   2.0000     -10.350429      -281.6495
  33   2.0000     -10.349328      -281.6195
  34   2.0000     -10.348903      -281.6080
  35   2.0000     -10.343267      -281.4546
  36   2.0000     -10.342433      -281.4319
  37   2.0000     -10.342315      -281.4287
  38   2.0000     -10.340103      -281.3685
  39   2.0000     -10.337895      -281.3084
  40   2.0000     -10.336669      -281.2751
  41   2.0000     -10.336454      -281.2692
  42   2.0000     -10.336350      -281.2664
  43   2.0000     -10.336137      -281.2606
  44   2.0000     -10.335567      -281.2451
  45   2.0000     -10.333543      -281.1900
  46   2.0000     -10.331072      -281.1228
  47   2.0000     -10.329109      -281.0693
  48   2.0000     -10.327753      -281.0324
  49   2.0000     -10.327159      -281.0163
  50   2.0000     -10.326929      -281.0100
  51   2.0000     -10.326023      -280.9854
  52   2.0000     -10.323806      -280.9251
  53   2.0000     -10.322291      -280.8838
  54   2.0000     -10.321495      -280.8622
  55   2.0000     -10.321487      -280.8619
  56   2.0000     -10.320468      -280.8342
  57   2.0000     -10.320389      -280.8321
  58   2.0000     -10.319430      -280.8060
  59   2.0000     -10.318932      -280.7924
  60   2.0000     -10.317704      -280.7590
  61   2.0000     -10.317154      -280.7440
  62   2.0000     -10.315968      -280.7118
  63   2.0000     -10.315774      -280.7065
  64   2.0000     -10.314021      -280.6588
  65   2.0000     -10.313567      -280.6464
  66   2.0000     -10.310284      -280.5571
  67   2.0000     -10.310024      -280.5500
  68   2.0000     -10.309577      -280.5378
  69   2.0000     -10.308014      -280.4953
  70   2.0000     -10.307493      -280.4811
  71   2.0000     -10.306852      -280.4637
  72   2.0000     -10.302651      -280.3494
  73   2.0000     -10.301041      -280.3056
  74   2.0000     -10.297796      -280.2173
  75   2.0000     -10.296302      -280.1766
  76   2.0000     -10.293949      -280.1126
  77   2.0000     -10.291209      -280.0380
  78   2.0000     -10.286570      -279.9118
  79   2.0000      -8.104920      -220.5461
  80   2.0000      -8.095174      -220.2809
  81   2.0000      -8.087776      -220.0796
  82   2.0000      -8.071801      -219.6449
  83   2.0000      -8.068998      -219.5686
  84   2.0000      -6.074234      -165.2883
  85   2.0000      -6.069741      -165.1661
  86   2.0000      -6.067253      -165.0983
  87   2.0000      -6.064418      -165.0212
  88   2.0000      -6.060345      -164.9104
  89   2.0000      -6.057190      -164.8245
  90   2.0000      -6.057163      -164.8238
  91   2.0000      -6.052814      -164.7055
  92   2.0000      -6.049761      -164.6224
  93   2.0000      -6.041231      -164.3902
  94   2.0000      -6.038452      -164.3146
  95   2.0000      -6.036943      -164.2736
  96   2.0000      -6.034095      -164.1961
  97   2.0000      -6.033835      -164.1890
  98   2.0000      -6.031002      -164.1119
  99   2.0000      -1.411861       -38.4187
 100   2.0000      -1.314234       -35.7621
 101   2.0000      -1.311706       -35.6933
 102   2.0000      -1.159980       -31.5647
 103   2.0000      -1.140294       -31.0290
 104   2.0000      -1.046301       -28.4713
 105   2.0000      -1.045489       -28.4492
 106   2.0000      -1.036203       -28.1965
 107   2.0000      -1.031654       -28.0727
 108   2.0000      -1.030651       -28.0454
 109   2.0000      -1.027454       -27.9584
 110   2.0000      -1.025141       -27.8955
 111   2.0000      -1.015691       -27.6384
 112   2.0000      -1.011427       -27.5223
 113   2.0000      -1.011351       -27.5202
 114   2.0000      -1.011053       -27.5122
 115   2.0000      -1.006249       -27.3814
 116   2.0000      -1.003650       -27.3107
 117   2.0000      -0.999036       -27.1852
 118   2.0000      -0.994995       -27.0752
 119   2.0000      -0.993922       -27.0460
 120   2.0000      -0.981108       -26.6973
 121   2.0000      -0.969981       -26.3945
 122   2.0000      -0.957572       -26.0569
 123   2.0000      -0.952613       -25.9219
 124   2.0000      -0.938958       -25.5503
 125   2.0000      -0.929882       -25.3034
 126   2.0000      -0.928971       -25.2786
 127   2.0000      -0.923450       -25.1283
 128   2.0000      -0.918913       -25.0049
 129   2.0000      -0.913753       -24.8645
 130   2.0000      -0.907924       -24.7059
 131   2.0000      -0.898935       -24.4613
 132   2.0000      -0.894281       -24.3346
 133   2.0000      -0.888960       -24.1898
 134   2.0000      -0.884578       -24.0706
 135   2.0000      -0.875389       -23.8205
 136   2.0000      -0.862006       -23.4564
 137   2.0000      -0.855086       -23.2681
 138   2.0000      -0.845712       -23.0130
 139   2.0000      -0.831697       -22.6316
 140   2.0000      -0.828501       -22.5447
 141   2.0000      -0.817182       -22.2367
 142   2.0000      -0.813512       -22.1368
 143   2.0000      -0.807262       -21.9667
 144   2.0000      -0.803549       -21.8657
 145   2.0000      -0.798381       -21.7251
 146   2.0000      -0.779781       -21.2189
 147   2.0000      -0.762166       -20.7396
 148   2.0000      -0.756068       -20.5737
 149   2.0000      -0.755520       -20.5588
 150   2.0000      -0.752017       -20.4634
 151   2.0000      -0.748460       -20.3666
 152   2.0000      -0.748194       -20.3594
 153   2.0000      -0.726412       -19.7667
 154   2.0000      -0.720928       -19.6175
 155   2.0000      -0.713232       -19.4080
 156   2.0000      -0.707923       -19.2636
 157   2.0000      -0.701248       -19.0819
 158   2.0000      -0.699366       -19.0307
 159   2.0000      -0.695141       -18.9157
 160   2.0000      -0.693687       -18.8762
 161   2.0000      -0.692201       -18.8357
 162   2.0000      -0.686066       -18.6688
 163   2.0000      -0.684608       -18.6291
 164   2.0000      -0.672532       -18.3005
 165   2.0000      -0.671895       -18.2832
 166   2.0000      -0.662239       -18.0204
 167   2.0000      -0.659799       -17.9540
 168   2.0000      -0.654213       -17.8020
 169   2.0000      -0.649531       -17.6746
 170   2.0000      -0.647711       -17.6251
 171   2.0000      -0.636100       -17.3092
 172   2.0000      -0.634319       -17.2607
 173   2.0000      -0.624160       -16.9842
 174   2.0000      -0.622020       -16.9260
 175   2.0000      -0.611274       -16.6336
 176   2.0000      -0.609176       -16.5765
 177   2.0000      -0.604390       -16.4463
 178   2.0000      -0.601823       -16.3764
 179   2.0000      -0.595922       -16.2159
 180   2.0000      -0.591855       -16.1052
 181   2.0000      -0.589983       -16.0543
 182   2.0000      -0.585156       -15.9229
 183   2.0000      -0.584308       -15.8998
 184   2.0000      -0.578991       -15.7551
 185   2.0000      -0.576624       -15.6907
 186   2.0000      -0.574857       -15.6427
 187   2.0000      -0.571978       -15.5643
 188   2.0000      -0.567673       -15.4472
 189   2.0000      -0.565695       -15.3933
 190   2.0000      -0.563738       -15.3401
 191   2.0000      -0.560147       -15.2424
 192   2.0000      -0.558893       -15.2083
 193   2.0000      -0.553704       -15.0671
 194   2.0000      -0.549749       -14.9594
 195   2.0000      -0.542575       -14.7642
 196   2.0000      -0.541229       -14.7276
 197   2.0000      -0.539750       -14.6874
 198   2.0000      -0.538851       -14.6629
 199   2.0000      -0.535318       -14.5668
 200   2.0000      -0.533045       -14.5049
 201   2.0000      -0.531959       -14.4753
 202   2.0000      -0.531083       -14.4515
 203   2.0000      -0.527599       -14.3567
 204   2.0000      -0.526549       -14.3281
 205   2.0000      -0.525638       -14.3033
 206   2.0000      -0.524485       -14.2719
 207   2.0000      -0.521990       -14.2041
 208   2.0000      -0.519534       -14.1372
 209   2.0000      -0.517941       -14.0939
 210   2.0000      -0.515429       -14.0255
 211   2.0000      -0.515135       -14.0175
 212   2.0000      -0.508686       -13.8421
 213   2.0000      -0.507799       -13.8179
 214   2.0000      -0.504051       -13.7159
 215   2.0000      -0.501915       -13.6578
 216   2.0000      -0.499770       -13.5994
 217   2.0000      -0.494230       -13.4487
 218   2.0000      -0.491041       -13.3619
 219   2.0000      -0.486331       -13.2337
 220   2.0000      -0.485758       -13.2181
 221   2.0000      -0.481238       -13.0952
 222   2.0000      -0.479815       -13.0564
 223   2.0000      -0.476016       -12.9531
 224   2.0000      -0.472571       -12.8593
 225   2.0000      -0.467943       -12.7334
 226   2.0000      -0.466013       -12.6809
 227   2.0000      -0.465762       -12.6740
 228   2.0000      -0.464867       -12.6497
 229   2.0000      -0.463444       -12.6109
 230   2.0000      -0.461401       -12.5554
 231   2.0000      -0.460166       -12.5218
 232   2.0000      -0.459224       -12.4961
 233   2.0000      -0.458474       -12.4757
 234   2.0000      -0.456914       -12.4333
 235   2.0000      -0.456123       -12.4117
 236   2.0000      -0.455088       -12.3836
 237   2.0000      -0.454426       -12.3656
 238   2.0000      -0.453560       -12.3420
 239   2.0000      -0.451154       -12.2765
 240   2.0000      -0.448948       -12.2165
 241   2.0000      -0.447824       -12.1859
 242   2.0000      -0.446538       -12.1509
 243   2.0000      -0.445208       -12.1147
 244   2.0000      -0.444731       -12.1018
 245   2.0000      -0.443945       -12.0804
 246   2.0000      -0.443528       -12.0690
 247   2.0000      -0.442170       -12.0321
 248   2.0000      -0.441652       -12.0180
 249   2.0000      -0.438101       -11.9213
 250   2.0000      -0.437318       -11.9000
 251   2.0000      -0.436369       -11.8742
 252   2.0000      -0.434354       -11.8194
 253   2.0000      -0.433888       -11.8067
 254   2.0000      -0.432071       -11.7572
 255   2.0000      -0.429571       -11.6892
 256   2.0000      -0.426283       -11.5998
 257   2.0000      -0.424810       -11.5597
 258   2.0000      -0.422808       -11.5052
 259   2.0000      -0.421991       -11.4830
 260   2.0000      -0.419819       -11.4239
 261   2.0000      -0.415234       -11.2991
 262   2.0000      -0.412101       -11.2138
 263   2.0000      -0.409269       -11.1368
 264   2.0000      -0.396067       -10.7775
 265   2.0000      -0.389469       -10.5980
 266   2.0000      -0.374312       -10.1856
 267   2.0000      -0.365821        -9.9545
 268   2.0000      -0.363944        -9.9034
 269   2.0000      -0.361541        -9.8380
 270   2.0000      -0.358188        -9.7468
 271   2.0000      -0.355301        -9.6682
 272   2.0000      -0.351983        -9.5779
 273   2.0000      -0.349703        -9.5159
 274   2.0000      -0.337544        -9.1850
 275   2.0000      -0.333955        -9.0874
 276   2.0000      -0.325175        -8.8485
 277   2.0000      -0.318896        -8.6776
 278   2.0000      -0.300834        -8.1861
 279   2.0000      -0.294135        -8.0038
 280   2.0000      -0.264757        -7.2044
 281   2.0000      -0.248156        -6.7527
 282   0.0000      -0.125784        -3.4228
 283   0.0000      -0.112281        -3.0553
 284   0.0000      -0.102957        -2.8016
 285   0.0000      -0.091294        -2.4842
 286   0.0000      -0.071624        -1.9490

MULLIKEN ATOMIC CHARGES
-----------------------
   0 C :    0.047013
   1 C :   -0.043598
   2 C :   -0.060647
   3 C :   -0.174414
   4 N :    0.201514
   5 C :   -0.067763
   6 C :   -0.173226
   7 N :    0.194887
   8 C :   -0.043954
   9 C :    0.016776
  10 C :    0.165713
  11 O :   -0.169616
  12 C :   -0.085371
  13 C :    0.312182
  14 C :   -0.352060
  15 C :   -0.187244
  16 N :    0.167410
  17 C :   -0.193508
  18 N :    0.165904
  19 C :    0.048135
  20 C :   -0.122486
  21 C :   -0.010166
  22 C :    0.043153
  23 C :    0.055511
  24 C :   -0.107104
  25 S :    0.157807
  26 C :   -0.095823
  27 C :    0.041983
  28 C :    0.014999
  29 C :   -0.058275
  30 S :    0.145074
  31 C :    0.101316
  32 C :   -0.046064
  33 C :    0.023998
  34 C :   -0.041691
  35 S :    0.185887
  36 C :   -0.102835
  37 C :   -0.035559
  38 C :   -0.069996
  39 C :   -0.227707
  40 N :    0.152800
  41 C :    0.543841
  42 F :   -0.151737
  43 F :   -0.168216
  44 F :   -0.139386
  45 C :   -0.071323
  46 C :   -0.006962
  47 C :    0.040103
  48 C :    0.075978
  49 C :   -0.123997
  50 S :    0.185336
  51 C :   -0.113851
  52 C :    0.069196
  53 C :    0.009847
  54 C :   -0.064937
  55 S :    0.147758
  56 C :    0.064036
  57 C :    0.021351
  58 C :   -0.005591
  59 C :    0.045411
  60 C :   -0.139212
  61 C :    0.132910
  62 O :   -0.137064
  63 C :    0.016797
  64 C :   -0.041520
  65 C :   -0.067953
  66 C :   -0.062048
  67 C :   -0.028214
  68 C :    0.016743
  69 C :    0.368691
  70 C :   -0.373374
  71 C :   -0.177594
  72 N :    0.133437
  73 C :   -0.188934
  74 N :    0.152285
  75 C :   -0.170226
  76 N :    0.189041
  77 C :   -0.177353
  78 N :    0.190729
  79 H :    0.022415
  80 H :    0.008933
  81 H :    0.012518
  82 H :   -0.003014
  83 H :    0.046563
  84 H :    0.009891
  85 H :    0.042671
  86 H :    0.005679
  87 H :    0.018049
  88 H :   -0.009079
  89 H :    0.050973
  90 H :   -0.011092
  91 H :    0.035906
  92 H :   -0.003836
  93 H :   -0.031763
  94 H :    0.009990
  95 H :    0.012135
  96 H :    0.016108
Sum of atomic charges:   -0.0000000

LOEWDIN ATOMIC CHARGES
----------------------
   0 C :    0.004445
   1 C :    0.033830
   2 C :   -0.024433
   3 C :   -0.031769
   4 N :   -0.011499
   5 C :   -0.031320
   6 C :   -0.031091
   7 N :   -0.019454
   8 C :    0.044383
   9 C :   -0.027530
  10 C :    0.088735
  11 O :   -0.148258
  12 C :   -0.112011
  13 C :    0.068959
  14 C :   -0.130299
  15 C :   -0.021624
  16 N :   -0.039133
  17 C :   -0.026770
  18 N :   -0.036876
  19 C :    0.048848
  20 C :   -0.190002
  21 C :    0.035138
  22 C :   -0.026813
  23 C :   -0.060837
  24 C :   -0.124806
  25 S :    0.471761
  26 C :   -0.177951
  27 C :   -0.037285
  28 C :   -0.051113
  29 C :   -0.147052
  30 S :    0.436587
  31 C :   -0.007751
  32 C :   -0.000693
  33 C :   -0.024874
  34 C :   -0.119742
  35 S :    0.488733
  36 C :   -0.162772
  37 C :   -0.101705
  38 C :   -0.098806
  39 C :   -0.035560
  40 N :   -0.048562
  41 C :    0.172748
  42 F :   -0.047816
  43 F :   -0.068471
  44 F :   -0.034484
  45 C :   -0.174201
  46 C :    0.001897
  47 C :    0.017455
  48 C :   -0.039553
  49 C :   -0.134085
  50 S :    0.493514
  51 C :   -0.204663
  52 C :   -0.034087
  53 C :   -0.061470
  54 C :   -0.155981
  55 S :    0.438055
  56 C :   -0.056430
  57 C :    0.056434
  58 C :   -0.058461
  59 C :    0.073104
  60 C :   -0.114322
  61 C :    0.080887
  62 O :   -0.138022
  63 C :   -0.029960
  64 C :    0.044465
  65 C :   -0.032162
  66 C :   -0.024441
  67 C :    0.035286
  68 C :    0.006081
  69 C :    0.071037
  70 C :   -0.152363
  71 C :   -0.018248
  72 N :   -0.065185
  73 C :   -0.005754
  74 N :   -0.064605
  75 C :   -0.025978
  76 N :   -0.021812
  77 C :   -0.030928
  78 N :   -0.020853
  79 H :    0.052658
  80 H :    0.050606
  81 H :    0.041519
  82 H :    0.035725
  83 H :    0.041837
  84 H :    0.038341
  85 H :    0.031502
  86 H :    0.030353
  87 H :    0.044316
  88 H :    0.032962
  89 H :    0.042738
  90 H :    0.033302
  91 H :    0.027572
  92 H :    0.037229
  93 H :    0.026305
  94 H :    0.043285
  95 H :    0.052489
  96 H :    0.047604

  Mayer bond orders larger than 0.100000
B(  0-C ,  1-C ) :   1.3607 B(  0-C ,  9-C ) :   1.3383 B(  0-C , 13-C ) :   0.9451
B(  1-C ,  2-C ) :   1.3868 B(  1-C , 79-H ) :   0.9852 B(  2-C ,  3-C ) :   1.0885
B(  2-C ,  5-C ) :   1.4071 B(  3-C ,  4-N ) :   3.0418 B(  5-C ,  6-C ) :   1.0823
B(  5-C ,  8-C ) :   1.3587 B(  6-C ,  7-N ) :   3.0477 B(  8-C ,  9-C ) :   1.3655
B(  8-C , 80-H ) :   1.0150 B(  9-C , 10-C ) :   0.9461 B( 10-C , 11-O ) :   2.1119
B( 10-C , 12-C ) :   0.9652 B( 11-O , 82-H ) :   0.1219 B( 12-C , 13-C ) :   1.1126
B( 12-C , 19-C ) :   1.5069 B( 13-C , 14-C ) :   1.6181 B( 14-C , 15-C ) :   1.1579
B( 14-C , 17-C ) :   1.1395 B( 15-C , 16-N ) :   2.9580 B( 17-C , 18-N ) :   2.9706
B( 19-C , 20-C ) :   1.2911 B( 19-C , 81-H ) :   0.9063 B( 20-C , 21-C ) :   1.4037
B( 20-C , 25-S ) :   1.0384 B( 21-C , 22-C ) :   1.3445 B( 21-C , 82-H ) :   0.9307
B( 22-C , 23-C ) :   1.0298 B( 22-C , 31-C ) :   1.2895 B( 23-C , 24-C ) :   1.5718
B( 23-C , 26-C ) :   1.2079 B( 24-C , 25-S ) :   1.1779 B( 24-C , 83-H ) :   0.9409
B( 26-C , 27-C ) :   1.3873 B( 26-C , 30-S ) :   1.1001 B( 27-C , 28-C ) :   1.2064
B( 27-C , 31-C ) :   1.1450 B( 28-C , 29-C ) :   1.6080 B( 28-C , 84-H ) :   0.9916
B( 29-C , 30-S ) :   1.1334 B( 29-C , 85-H ) :   0.9638 B( 31-C , 32-C ) :   1.1863
B( 32-C , 33-C ) :   1.5810 B( 32-C , 86-H ) :   0.9628 B( 33-C , 34-C ) :   1.2120
B( 33-C , 87-H ) :   0.9611 B( 34-C , 35-S ) :   1.1219 B( 34-C , 38-C ) :   1.4568
B( 35-S , 36-C ) :   1.1440 B( 36-C , 37-C ) :   1.5345 B( 36-C , 45-C ) :   1.0721
B( 37-C , 38-C ) :   1.2904 B( 37-C , 41-C ) :   0.9469 B( 38-C , 39-C ) :   1.1386
B( 39-C , 40-N ) :   2.9589 B( 41-C , 42-F ) :   1.1651 B( 41-C , 43-F ) :   1.0928
B( 41-C , 44-F ) :   1.1760 B( 45-C , 46-C ) :   1.4919 B( 45-C , 50-S ) :   1.1019
B( 46-C , 47-C ) :   1.3155 B( 46-C , 88-H ) :   0.9380 B( 47-C , 48-C ) :   1.0916
B( 47-C , 56-C ) :   1.3074 B( 48-C , 49-C ) :   1.5770 B( 48-C , 51-C ) :   1.1695
B( 49-C , 50-S ) :   1.1630 B( 49-C , 89-H ) :   0.9394 B( 51-C , 52-C ) :   1.4435
B( 51-C , 55-S ) :   1.0832 B( 52-C , 53-C ) :   1.2337 B( 52-C , 56-C ) :   1.0799
B( 53-C , 54-C ) :   1.5767 B( 53-C , 90-H ) :   1.0000 B( 54-C , 55-S ) :   1.1643
B( 54-C , 91-H ) :   0.9666 B( 56-C , 57-C ) :   1.2261 B( 57-C , 58-C ) :   1.4857
B( 57-C , 92-H ) :   0.9777 B( 58-C , 59-C ) :   1.2490 B( 58-C , 93-H ) :   0.9519
B( 59-C , 60-C ) :   1.4753 B( 59-C , 94-H ) :   0.9553 B( 60-C , 61-C ) :   0.9638
B( 60-C , 69-C ) :   1.0998 B( 61-C , 62-O ) :   2.2561 B( 61-C , 63-C ) :   0.9007
B( 63-C , 64-C ) :   1.3745 B( 63-C , 68-C ) :   1.3338 B( 64-C , 65-C ) :   1.3526
B( 64-C , 95-H ) :   1.0151 B( 65-C , 66-C ) :   1.4082 B( 65-C , 77-C ) :   1.0857
B( 66-C , 67-C ) :   1.3959 B( 66-C , 75-C ) :   1.0918 B( 67-C , 68-C ) :   1.3615
B( 67-C , 96-H ) :   0.9759 B( 68-C , 69-C ) :   0.9628 B( 69-C , 70-C ) :   1.5400
B( 70-C , 71-C ) :   1.1770 B( 70-C , 73-C ) :   1.1547 B( 71-C , 72-N ) :   2.8821
B( 73-C , 74-N ) :   2.9173 B( 75-C , 76-N ) :   3.0401 B( 77-C , 78-N ) :   3.0441

-----------------------------------------------------------------------------
         ABSORPTION SPECTRUM VIA TRANSITION ELECTRIC DIPOLE MOMENTS
-----------------------------------------------------------------------------
State   Energy  Wavelength   fosc         T2         TX        TY        TZ
        (cm-1)    (nm)                  (au**2)     (au)      (au)      (au)
-----------------------------------------------------------------------------
   0   12216.0    818.6   0.838717812  22.60290   1.59020  -3.12567  -3.21003
   1   14258.4    701.3   0.066965755   1.54617  -0.83644  -0.90638  -0.15817
   2   17332.3    577.0   0.007728346   0.14679   0.02564   0.30783  -0.22666
   3   17749.6    563.4   0.010225812   0.18966  -0.39017   0.19117   0.02975
   4   19566.4    511.1   0.518691535   8.72717  -0.53242  -2.02631   2.08273
   5   19893.4    502.7   0.143697211   2.37801   0.82326  -0.42954  -1.23116
   6   21197.9    471.7   0.297495639   4.62023  -0.82399  -0.63297   1.88165
   7   22499.0    444.5   0.166539776   2.43686   0.46372   1.46113  -0.29483
   8   23828.0    419.7   0.034398281   0.47525   0.13146   0.36731  -0.56838
   9   24029.2    416.2   0.112090108   1.53569  -0.21094  -0.65582   1.03010
  10   24171.3    413.7   0.071150265   0.96907   0.41096  -0.35133  -0.82265
  11   24569.4    407.0   0.321891275   4.31311   0.61538   1.02747  -1.69668
  12   25398.3    393.7   0.264971260   3.43455  -0.17271  -1.17587   1.42198
  13   26583.6    376.2   0.205470374   2.54455   0.22234   1.31422  -0.87632
  14   27313.0    366.1   0.265256494   3.19722  -0.39622  -1.73358  -0.18688
  15   27537.8    363.1   0.062293124   0.74471   0.15045  -0.74175  -0.41458
  16   28030.8    356.7   0.003897922   0.04578  -0.18097  -0.07811   0.08324
  17   28554.5    350.2   0.022322380   0.25736   0.39939  -0.27916   0.14115
  18   28715.7    348.2   0.012144352   0.13923   0.32750   0.06686   0.16584
  19   29229.6    342.1   0.142258163   1.60225  -0.04687  -1.23853  -0.25710
  20   29450.8    339.5   0.014269493   0.15951   0.22318   0.20641   0.25902
  21   29551.7    338.4   0.067356211   0.75036   0.13570   0.69343   0.50110
  22   29654.0    337.2   0.005248834   0.05827   0.19690   0.04705  -0.13149
  23   30755.3    325.1   0.024800959   0.26548   0.30085  -0.32747  -0.26024
  24   30770.2    325.0   0.017724194   0.18963   0.05445  -0.41392   0.12384
  25   30901.4    323.6   0.140004898   1.49156   0.31475   0.30126  -1.14093
  26   30942.3    323.2   0.074063264   0.78800   0.28695  -0.65021  -0.53187
  27   31282.9    319.7   0.020233804   0.21293   0.00121   0.46132  -0.01060
  28   31584.5    316.6   0.048391585   0.50440   0.36743  -0.43328   0.42622
  29   31619.0    316.3   0.010712842   0.11154  -0.05675  -0.29360   0.14872
  30   31788.5    314.6   0.019289686   0.19977   0.24214  -0.32245  -0.19279
  31   32283.5    309.8   0.343139739   3.49918   0.52329  -0.10919  -1.79260
  32   32707.3    305.7   0.115894691   1.16652  -0.46708   0.03129   0.97334
  33   32830.0    304.6   0.080882153   0.81107   0.16610   0.46142   0.75536
  34   33065.0    302.4   0.138812425   1.38209  -0.12156  -1.11184  -0.36210
  35   33532.3    298.2   0.266969523   2.62104  -0.31568  -0.23635   1.57020
  36   33731.9    296.5   0.229418994   2.23905  -0.69823  -1.02263   0.84010
  37   34072.2    293.5   0.083658732   0.80833  -0.31527  -0.83179  -0.13059
  38   34604.1    289.0   0.022900896   0.21787   0.32815   0.08037  -0.32207
  39   35030.4    285.5   0.166577377   1.56548   0.33696   1.19146  -0.17990
  40   35209.1    284.0   0.140361251   1.31240   0.08749  -0.06412  -1.14045
  41   35476.6    281.9   0.047155687   0.43759   0.42838   0.28117  -0.41836
  42   35754.7    279.7   0.195205507   1.79736   0.32554  -0.83126  -1.00019
  43   36163.9    276.5   0.099280644   0.90378  -0.26134   0.91380  -0.02154
  44   36311.8    275.4   0.062212655   0.56404  -0.24991   0.06250  -0.70546
  45   36463.5    274.2   0.071486890   0.64542   0.15887   0.73817  -0.27437
  46   36629.2    273.0   0.309566820   2.78229  -0.50183  -1.24154   0.99450
  47   36766.5    272.0   0.027906842   0.24988   0.39986  -0.19517   0.22782
  48   36941.9    270.7   0.082276975   0.73322  -0.70664  -0.42975   0.22181
  49   37047.2    269.9   0.083224509   0.73956   0.13327  -0.79385  -0.30265
  50   37265.3    268.3   0.055670680   0.49181   0.43748  -0.30844   0.45309
  51   37544.3    266.4   0.061283742   0.53737   0.17336   0.57334  -0.42262
  52   37735.8    265.0   0.046606167   0.40660  -0.29595   0.56478   0.00542
  53   37916.5    263.7   0.181184759   1.57314   0.04991  -0.86109  -0.91059
  54   38142.6    262.2   0.124147089   1.07152  -0.25908   0.98878   0.16342
  55   38353.8    260.7   0.520436060   4.46719   0.11967  -0.29972  -2.08879
  56   38407.2    260.4   0.015443447   0.13238   0.09858  -0.34327  -0.06944
  57   38874.4    257.2   0.025207260   0.21347  -0.09754   0.28236  -0.35246
  58   38925.7    256.9   0.160534089   1.35771   0.47877  -0.65669  -0.83501
  59   39046.0    256.1   0.027186619   0.22922  -0.03823   0.36153   0.31154
  60   39158.4    255.4   0.021664539   0.18214   0.23539  -0.15632  -0.31983
  61   39455.4    253.5   0.213653910   1.78271   0.93025  -0.91065  -0.29675
  62   39644.0    252.2   0.134814143   1.11953   0.46515  -0.94981  -0.03189
  63   39959.4    250.3   0.077752817   0.64058  -0.20230  -0.11638   0.76558
  64   39989.5    250.1   0.039784324   0.32752   0.34984  -0.44684  -0.07397
  65   40140.1    249.1   0.015897632   0.13039  -0.21953  -0.00508  -0.28665
  66   40257.0    248.4   0.102182281   0.83562   0.05249  -0.88430   0.22555

FINAL SINGLE POINT ENERGY     -5226.043199275574

DIPOLE MOMENT
-------------
                                X             Y             Z
Electronic contribution:     14.58194      -0.89580       3.15585
Nuclear contribution   :    -15.55874       2.45277      -4.32658
                        -----------------------------------------
Total Dipole Moment    :     -0.97680       1.55697      -1.17073
                        -----------------------------------------
Magnitude (a.u.)       :      2.17920
Magnitude (Debye)      :      5.53909

Rotational constants in cm-1:     0.000879     0.000476     0.000330
Rotational constants in MHz :    26.339692    14.279400     9.903861

                             ****ORCA TERMINATED NORMALLY****
TOTAL RUN TIME: 0 days 0 hours 18 minutes 21 seconds 260 msec
