                         Program Version 4.2.0 -  RELEASE  -
|  1> # ORCA input file
|  2> # SCF done       -190.260041092927          0.000390745903
|  3> ! CAM-B3LYP def2-SVP def2/J RIJCOSX Grid4 TightSCF
|  4> %maxcore 5000
|  5> %tddft
|  6>     Mode sTDDFT
|  7>     Ethresh 5.0
|  8>     maxcore 5000
|  9> end
| 10>
| 11> %pal
| 12>   nprocs 6
| 13>   end
| 14> * xyz 0 1
| 15>    C       -2.04295        -1.62907         3.09579
| 16>    C       -1.43621        -0.99055         4.16504
| 17>    C       -1.52724         0.40035         4.24877
| 18>    C       -0.91666         1.07317         5.33642
| 19>    N       -0.42295         1.61237         6.21731
| 20>    C       -2.21490         1.14893         3.27425
| 21>    C       -2.28839         2.55832         3.38437
| 22>    N       -2.36137         3.69903         3.45339
| 23>    C       -2.82707         0.50124         2.20050
| 24>    C       -2.73324        -0.87253         2.13171
| 25>    C       -3.30111        -1.77252         1.10250
| 26>    O       -3.90862        -1.41264         0.11680
| 27>    C       -2.96685        -3.14316         1.54561
| 28>    C       -2.12587        -3.04354         2.72605
| 29>    C       -1.46521        -4.05763         3.36529
| 30>    C       -0.64598        -3.87101         4.50121
| 31>    N        0.02834        -3.78278         5.42523
| 32>    C       -1.45184        -5.41936         2.98523
| 33>    N       -1.34679        -6.53828         2.75449
| 34>    C       -3.44455        -4.32369         1.02856
| 35>    C       -4.27509        -4.56914        -0.06664
| 36>    C       -4.76294        -3.84836        -1.11842
| 37>    C       -5.61566        -4.53204        -2.01828
| 38>    C       -5.86202        -5.84587        -1.74492
| 39>    S       -4.91437        -6.25572        -0.25353
| 40>    O       -3.86652        -7.18214        -0.57464
| 41>    O       -5.79881        -6.60048         0.82475
| 42>    C       -6.64272        -6.83508        -2.34935
| 43>    C       -7.38785        -6.66248        -3.48444
| 44>    C       -8.18200        -7.65104        -4.09080
| 45>    S       -9.03120        -7.25662        -5.57959
| 46>    C       -9.68805        -8.83379        -5.63584
| 47>    C       -9.27617        -9.63063        -4.55358
| 48>    C       -8.43030        -8.96652        -3.69003
| 49>    C       -9.88772       -11.00964        -4.64463
| 50>    C       -8.81077       -12.09170        -4.76620
| 51>    C      -10.80390       -11.28917        -3.44903
| 52>    C      -10.68201       -10.87626        -5.92334
| 53>    C      -10.53654        -9.58863        -6.46495
| 54>    S      -11.41533        -9.38372        -7.91844
| 55>    C      -11.99228       -11.04004        -7.81669
| 56>    C      -11.50012       -11.68868        -6.68282
| 57>    C      -12.83659       -11.52229        -8.83564
| 58>    C      -13.35811       -12.78351        -8.89787
| 59>    C      -14.18559       -13.26104        -9.92224
| 60>    C      -14.66792       -12.71967       -11.07563
| 61>    C      -15.50138       -13.55212       -11.86857
| 62>    C      -15.71424       -14.81055       -11.40049
| 63>    S      -14.79075       -14.96667        -9.85681
| 64>    O      -13.69634       -15.88930        -9.99200
| 65>    O      -15.69099       -15.18412        -8.75806
| 66>    C      -16.54230       -15.87597       -11.77310
| 67>    C      -17.39613       -15.92718       -12.83498
| 68>    C      -18.26753       -17.01331       -13.08157
| 69>    C      -18.76548       -17.92779       -12.19844
| 70>    C      -19.32003       -19.20312       -12.72848
| 71>    O      -19.58383       -19.45948       -13.87878
| 72>    C      -19.42268       -20.09835       -11.55352
| 73>    C      -19.75505       -21.43612       -11.51758
| 74>    C      -19.74444       -22.08320       -10.28088
| 75>    C      -19.39099       -21.37611        -9.11510
| 76>    C      -19.06544       -20.01920        -9.16167
| 77>    C      -19.09233       -19.37838       -10.38844
| 78>    C      -18.83137       -17.98247       -10.75061
| 79>    C      -18.91477       -16.92998        -9.87852
| 80>    C      -18.89049       -15.57453       -10.26726
| 81>    N      -18.93080       -14.46148       -10.54202
| 82>    C      -19.14489       -17.07713        -8.49309
| 83>    N      -19.35278       -17.15920        -7.36839
| 84>    C      -19.36275       -22.05786        -7.87287
| 85>    N      -19.33644       -22.60598        -6.86827
| 86>    C      -20.08119       -23.45604       -10.19944
| 87>    N      -20.35646       -24.56658       -10.15424
| 88>    H       -0.90318        -1.52669         4.93356
| 89>    H       -3.36082         1.05794         1.44524
| 90>    H       -3.19125        -5.23347         1.56239
| 91>    H       -4.52463        -2.80765        -1.27303
| 92>    H       -6.03164        -4.00858        -2.86480
| 93>    H       -6.62634        -7.79406        -1.85125
| 94>    H       -7.37377        -5.69713        -3.97222
| 95>    H       -8.00082        -9.38943        -2.80103
| 96>    H       -8.20559       -12.11726        -3.86398
| 97>    H       -8.16248       -11.89013        -5.61587
| 98>    H       -9.27480       -13.06459        -4.90440
| 99>    H      -10.22307       -11.30448        -2.53071
|100>    H      -11.29190       -12.25240        -3.57133
|101>    H      -11.56754       -10.51917        -3.36636
|102>    H      -11.74391       -12.70822        -6.44907
|103>    H      -13.07519       -10.82178        -9.62437
|104>    H      -13.14132       -13.49994        -8.11836
|105>    H      -14.45497       -11.71152       -11.39436
|106>    H      -15.93317       -13.17568       -12.78247
|107>    H      -16.47099       -16.73269       -11.11329
|108>    H      -17.37983       -15.13271       -13.56729
|109>    H      -18.55143       -17.18857       -14.11521
|110>    H      -20.01391       -21.96763       -12.42070
|111>    H      -18.79053       -19.50960        -8.25176
|112> *
|113>
|114>                          ****END OF INPUT****

CARTESIAN COORDINATES (ANGSTROEM)
---------------------------------
  C     -2.042950   -1.629070    3.095790
  C     -1.436210   -0.990550    4.165040
  C     -1.527240    0.400350    4.248770
  C     -0.916660    1.073170    5.336420
  N     -0.422950    1.612370    6.217310
  C     -2.214900    1.148930    3.274250
  C     -2.288390    2.558320    3.384370
  N     -2.361370    3.699030    3.453390
  C     -2.827070    0.501240    2.200500
  C     -2.733240   -0.872530    2.131710
  C     -3.301110   -1.772520    1.102500
  O     -3.908620   -1.412640    0.116800
  C     -2.966850   -3.143160    1.545610
  C     -2.125870   -3.043540    2.726050
  C     -1.465210   -4.057630    3.365290
  C     -0.645980   -3.871010    4.501210
  N      0.028340   -3.782780    5.425230
  C     -1.451840   -5.419360    2.985230
  N     -1.346790   -6.538280    2.754490
  C     -3.444550   -4.323690    1.028560
  C     -4.275090   -4.569140   -0.066640
  C     -4.762940   -3.848360   -1.118420
  C     -5.615660   -4.532040   -2.018280
  C     -5.862020   -5.845870   -1.744920
  S     -4.914370   -6.255720   -0.253530
  O     -3.866520   -7.182140   -0.574640
  O     -5.798810   -6.600480    0.824750
  C     -6.642720   -6.835080   -2.349350
  C     -7.387850   -6.662480   -3.484440
  C     -8.182000   -7.651040   -4.090800
  S     -9.031200   -7.256620   -5.579590
  C     -9.688050   -8.833790   -5.635840
  C     -9.276170   -9.630630   -4.553580
  C     -8.430300   -8.966520   -3.690030
  C     -9.887720  -11.009640   -4.644630
  C     -8.810770  -12.091700   -4.766200
  C    -10.803900  -11.289170   -3.449030
  C    -10.682010  -10.876260   -5.923340
  C    -10.536540   -9.588630   -6.464950
  S    -11.415330   -9.383720   -7.918440
  C    -11.992280  -11.040040   -7.816690
  C    -11.500120  -11.688680   -6.682820
  C    -12.836590  -11.522290   -8.835640
  C    -13.358110  -12.783510   -8.897870
  C    -14.185590  -13.261040   -9.922240
  C    -14.667920  -12.719670  -11.075630
  C    -15.501380  -13.552120  -11.868570
  C    -15.714240  -14.810550  -11.400490
  S    -14.790750  -14.966670   -9.856810
  O    -13.696340  -15.889300   -9.992000
  O    -15.690990  -15.184120   -8.758060
  C    -16.542300  -15.875970  -11.773100
  C    -17.396130  -15.927180  -12.834980
  C    -18.267530  -17.013310  -13.081570
  C    -18.765480  -17.927790  -12.198440
  C    -19.320030  -19.203120  -12.728480
  O    -19.583830  -19.459480  -13.878780
  C    -19.422680  -20.098350  -11.553520
  C    -19.755050  -21.436120  -11.517580
  C    -19.744440  -22.083200  -10.280880
  C    -19.390990  -21.376110   -9.115100
  C    -19.065440  -20.019200   -9.161670
  C    -19.092330  -19.378380  -10.388440
  C    -18.831370  -17.982470  -10.750610
  C    -18.914770  -16.929980   -9.878520
  C    -18.890490  -15.574530  -10.267260
  N    -18.930800  -14.461480  -10.542020
  C    -19.144890  -17.077130   -8.493090
  N    -19.352780  -17.159200   -7.368390
  C    -19.362750  -22.057860   -7.872870
  N    -19.336440  -22.605980   -6.868270
  C    -20.081190  -23.456040  -10.199440
  N    -20.356460  -24.566580  -10.154240
  H     -0.903180   -1.526690    4.933560
  H     -3.360820    1.057940    1.445240
  H     -3.191250   -5.233470    1.562390
  H     -4.524630   -2.807650   -1.273030
  H     -6.031640   -4.008580   -2.864800
  H     -6.626340   -7.794060   -1.851250
  H     -7.373770   -5.697130   -3.972220
  H     -8.000820   -9.389430   -2.801030
  H     -8.205590  -12.117260   -3.863980
  H     -8.162480  -11.890130   -5.615870
  H     -9.274800  -13.064590   -4.904400
  H    -10.223070  -11.304480   -2.530710
  H    -11.291900  -12.252400   -3.571330
  H    -11.567540  -10.519170   -3.366360
  H    -11.743910  -12.708220   -6.449070
  H    -13.075190  -10.821780   -9.624370
  H    -13.141320  -13.499940   -8.118360
  H    -14.454970  -11.711520  -11.394360
  H    -15.933170  -13.175680  -12.782470
  H    -16.470990  -16.732690  -11.113290
  H    -17.379830  -15.132710  -13.567290
  H    -18.551430  -17.188570  -14.115210
  H    -20.013910  -21.967630  -12.420700
  H    -18.790530  -19.509600   -8.251760

 Total Charge           Charge          ....    0
 Multiplicity           Mult            ....    1
 Number of Electrons    NEL             ....  522
 Basis Dimension        Dim             .... 1158

ORBITAL ENERGIES
----------------

  NO   OCC          E(Eh)            E(eV)
   0   2.0000     -89.156383     -2426.0685
   1   2.0000     -89.152694     -2425.9681
   2   2.0000     -88.999836     -2421.8087
   3   2.0000     -88.998433     -2421.7705
   4   2.0000     -19.243259      -523.6357
   5   2.0000     -19.238373      -523.5027
   6   2.0000     -19.217513      -522.9351
   7   2.0000     -19.214738      -522.8596
   8   2.0000     -19.212116      -522.7882
   9   2.0000     -19.211694      -522.7768
  10   2.0000     -14.433721      -392.7615
  11   2.0000     -14.430328      -392.6692
  12   2.0000     -14.430027      -392.6610
  13   2.0000     -14.429202      -392.6386
  14   2.0000     -14.429078      -392.6352
  15   2.0000     -14.428954      -392.6318
  16   2.0000     -14.428280      -392.6134
  17   2.0000     -14.427166      -392.5831
  18   2.0000     -10.393394      -282.8186
  19   2.0000     -10.389372      -282.7092
  20   2.0000     -10.366082      -282.0754
  21   2.0000     -10.363781      -282.0128
  22   2.0000     -10.363218      -281.9975
  23   2.0000     -10.361337      -281.9463
  24   2.0000     -10.360269      -281.9173
  25   2.0000     -10.359983      -281.9095
  26   2.0000     -10.359685      -281.9013
  27   2.0000     -10.359464      -281.8954
  28   2.0000     -10.344585      -281.4905
  29   2.0000     -10.342257      -281.4271
  30   2.0000     -10.341840      -281.4158
  31   2.0000     -10.340925      -281.3909
  32   2.0000     -10.340900      -281.3902
  33   2.0000     -10.340498      -281.3793
  34   2.0000     -10.339904      -281.3631
  35   2.0000     -10.339448      -281.3507
  36   2.0000     -10.336375      -281.2671
  37   2.0000     -10.336037      -281.2579
  38   2.0000     -10.335501      -281.2433
  39   2.0000     -10.334909      -281.2272
  40   2.0000     -10.334883      -281.2265
  41   2.0000     -10.334475      -281.2154
  42   2.0000     -10.333926      -281.2004
  43   2.0000     -10.333762      -281.1960
  44   2.0000     -10.333366      -281.1852
  45   2.0000     -10.331983      -281.1476
  46   2.0000     -10.331612      -281.1374
  47   2.0000     -10.331588      -281.1368
  48   2.0000     -10.331137      -281.1245
  49   2.0000     -10.330780      -281.1148
  50   2.0000     -10.329602      -281.0828
  51   2.0000     -10.326602      -281.0011
  52   2.0000     -10.325885      -280.9816
  53   2.0000     -10.325642      -280.9750
  54   2.0000     -10.325619      -280.9744
  55   2.0000     -10.325168      -280.9621
  56   2.0000     -10.324992      -280.9573
  57   2.0000     -10.324528      -280.9447
  58   2.0000     -10.323471      -280.9159
  59   2.0000     -10.323324      -280.9119
  60   2.0000     -10.323144      -280.9070
  61   2.0000     -10.319615      -280.8110
  62   2.0000     -10.318332      -280.7761
  63   2.0000     -10.318319      -280.7757
  64   2.0000     -10.318025      -280.7677
  65   2.0000     -10.317372      -280.7500
  66   2.0000     -10.316809      -280.7347
  67   2.0000     -10.315419      -280.6968
  68   2.0000     -10.314740      -280.6783
  69   2.0000     -10.312356      -280.6135
  70   2.0000     -10.312162      -280.6082
  71   2.0000     -10.289953      -280.0038
  72   2.0000     -10.289720      -279.9975
  73   2.0000      -8.223091      -223.7617
  74   2.0000      -8.219296      -223.6584
  75   2.0000      -8.095014      -220.2765
  76   2.0000      -8.093589      -220.2377
  77   2.0000      -6.191842      -168.4886
  78   2.0000      -6.191782      -168.4870
  79   2.0000      -6.191090      -168.4681
  80   2.0000      -6.188097      -168.3867
  81   2.0000      -6.187969      -168.3832
  82   2.0000      -6.187253      -168.3637
  83   2.0000      -6.064235      -165.0162
  84   2.0000      -6.062818      -164.9777
  85   2.0000      -6.060249      -164.9078
  86   2.0000      -6.058832      -164.8692
  87   2.0000      -6.057148      -164.8234
  88   2.0000      -6.055719      -164.7845
  89   2.0000      -1.220254       -33.2048
  90   2.0000      -1.216588       -33.1050
  91   2.0000      -1.158014       -31.5112
  92   2.0000      -1.153959       -31.4008
  93   2.0000      -1.097335       -29.8600
  94   2.0000      -1.094435       -29.7811
  95   2.0000      -1.048720       -28.5371
  96   2.0000      -1.044346       -28.4181
  97   2.0000      -1.042879       -28.3782
  98   2.0000      -1.028922       -27.9984
  99   2.0000      -1.027447       -27.9583
 100   2.0000      -1.012781       -27.5592
 101   2.0000      -1.012410       -27.5491
 102   2.0000      -1.011415       -27.5220
 103   2.0000      -1.009727       -27.4761
 104   2.0000      -1.007894       -27.4262
 105   2.0000      -1.007560       -27.4171
 106   2.0000      -1.007124       -27.4052
 107   2.0000      -0.999254       -27.1911
 108   2.0000      -0.996490       -27.1159
 109   2.0000      -0.981316       -26.7030
 110   2.0000      -0.979078       -26.6421
 111   2.0000      -0.965855       -26.2823
 112   2.0000      -0.950375       -25.8610
 113   2.0000      -0.940056       -25.5802
 114   2.0000      -0.929694       -25.2983
 115   2.0000      -0.927560       -25.2402
 116   2.0000      -0.926029       -25.1985
 117   2.0000      -0.915910       -24.9232
 118   2.0000      -0.905655       -24.6441
 119   2.0000      -0.904199       -24.6045
 120   2.0000      -0.900730       -24.5101
 121   2.0000      -0.886784       -24.1306
 122   2.0000      -0.869234       -23.6531
 123   2.0000      -0.866085       -23.5674
 124   2.0000      -0.856973       -23.3194
 125   2.0000      -0.855406       -23.2768
 126   2.0000      -0.841141       -22.8886
 127   2.0000      -0.828715       -22.5505
 128   2.0000      -0.812273       -22.1031
 129   2.0000      -0.810207       -22.0468
 130   2.0000      -0.805443       -21.9172
 131   2.0000      -0.804165       -21.8824
 132   2.0000      -0.801878       -21.8202
 133   2.0000      -0.788888       -21.4667
 134   2.0000      -0.768678       -20.9168
 135   2.0000      -0.759451       -20.6657
 136   2.0000      -0.753474       -20.5031
 137   2.0000      -0.751546       -20.4506
 138   2.0000      -0.741810       -20.1857
 139   2.0000      -0.733260       -19.9530
 140   2.0000      -0.732796       -19.9404
 141   2.0000      -0.714042       -19.4301
 142   2.0000      -0.713377       -19.4120
 143   2.0000      -0.708424       -19.2772
 144   2.0000      -0.692466       -18.8429
 145   2.0000      -0.687027       -18.6950
 146   2.0000      -0.681798       -18.5527
 147   2.0000      -0.671771       -18.2798
 148   2.0000      -0.669367       -18.2144
 149   2.0000      -0.666604       -18.1392
 150   2.0000      -0.660087       -17.9619
 151   2.0000      -0.658857       -17.9284
 152   2.0000      -0.658407       -17.9162
 153   2.0000      -0.657078       -17.8800
 154   2.0000      -0.652082       -17.7441
 155   2.0000      -0.639947       -17.4138
 156   2.0000      -0.632434       -17.2094
 157   2.0000      -0.622493       -16.9389
 158   2.0000      -0.620152       -16.8752
 159   2.0000      -0.618256       -16.8236
 160   2.0000      -0.608850       -16.5677
 161   2.0000      -0.607832       -16.5400
 162   2.0000      -0.602174       -16.3860
 163   2.0000      -0.599386       -16.3101
 164   2.0000      -0.593454       -16.1487
 165   2.0000      -0.587986       -15.9999
 166   2.0000      -0.580922       -15.8077
 167   2.0000      -0.571371       -15.5478
 168   2.0000      -0.569701       -15.5024
 169   2.0000      -0.568974       -15.4826
 170   2.0000      -0.565938       -15.4000
 171   2.0000      -0.564324       -15.3560
 172   2.0000      -0.563543       -15.3348
 173   2.0000      -0.561066       -15.2674
 174   2.0000      -0.560965       -15.2646
 175   2.0000      -0.560447       -15.2505
 176   2.0000      -0.559227       -15.2173
 177   2.0000      -0.552094       -15.0232
 178   2.0000      -0.548840       -14.9347
 179   2.0000      -0.545893       -14.8545
 180   2.0000      -0.544503       -14.8167
 181   2.0000      -0.541680       -14.7399
 182   2.0000      -0.538540       -14.6544
 183   2.0000      -0.538448       -14.6519
 184   2.0000      -0.534429       -14.5425
 185   2.0000      -0.533657       -14.5216
 186   2.0000      -0.528446       -14.3798
 187   2.0000      -0.526513       -14.3271
 188   2.0000      -0.524475       -14.2717
 189   2.0000      -0.524039       -14.2598
 190   2.0000      -0.523536       -14.2461
 191   2.0000      -0.515072       -14.0158
 192   2.0000      -0.513032       -13.9603
 193   2.0000      -0.510984       -13.9046
 194   2.0000      -0.509871       -13.8743
 195   2.0000      -0.508037       -13.8244
 196   2.0000      -0.505538       -13.7564
 197   2.0000      -0.502571       -13.6756
 198   2.0000      -0.493405       -13.4262
 199   2.0000      -0.491897       -13.3852
 200   2.0000      -0.491755       -13.3813
 201   2.0000      -0.489564       -13.3217
 202   2.0000      -0.489188       -13.3115
 203   2.0000      -0.486124       -13.2281
 204   2.0000      -0.484480       -13.1834
 205   2.0000      -0.483066       -13.1449
 206   2.0000      -0.480380       -13.0718
 207   2.0000      -0.470483       -12.8025
 208   2.0000      -0.467294       -12.7157
 209   2.0000      -0.465171       -12.6579
 210   2.0000      -0.462580       -12.5875
 211   2.0000      -0.461275       -12.5519
 212   2.0000      -0.461024       -12.5451
 213   2.0000      -0.460308       -12.5256
 214   2.0000      -0.458188       -12.4679
 215   2.0000      -0.456272       -12.4158
 216   2.0000      -0.455077       -12.3833
 217   2.0000      -0.454560       -12.3692
 218   2.0000      -0.454201       -12.3594
 219   2.0000      -0.453425       -12.3383
 220   2.0000      -0.452617       -12.3163
 221   2.0000      -0.452241       -12.3061
 222   2.0000      -0.451511       -12.2862
 223   2.0000      -0.450982       -12.2718
 224   2.0000      -0.445778       -12.1302
 225   2.0000      -0.442453       -12.0398
 226   2.0000      -0.439074       -11.9478
 227   2.0000      -0.438603       -11.9350
 228   2.0000      -0.436494       -11.8776
 229   2.0000      -0.435525       -11.8512
 230   2.0000      -0.435067       -11.8388
 231   2.0000      -0.434405       -11.8208
 232   2.0000      -0.432871       -11.7790
 233   2.0000      -0.428440       -11.6584
 234   2.0000      -0.427910       -11.6440
 235   2.0000      -0.425212       -11.5706
 236   2.0000      -0.421963       -11.4822
 237   2.0000      -0.421216       -11.4619
 238   2.0000      -0.416238       -11.3264
 239   2.0000      -0.415988       -11.3196
 240   2.0000      -0.410987       -11.1835
 241   2.0000      -0.404327       -11.0023
 242   2.0000      -0.397544       -10.8177
 243   2.0000      -0.385379       -10.4867
 244   2.0000      -0.383547       -10.4368
 245   2.0000      -0.381224       -10.3736
 246   2.0000      -0.378140       -10.2897
 247   2.0000      -0.373964       -10.1761
 248   2.0000      -0.372383       -10.1331
 249   2.0000      -0.369689       -10.0597
 250   2.0000      -0.366965        -9.9856
 251   2.0000      -0.363959        -9.9038
 252   2.0000      -0.361921        -9.8484
 253   2.0000      -0.360185        -9.8011
 254   2.0000      -0.355993        -9.6870
 255   2.0000      -0.349453        -9.5091
 256   2.0000      -0.339679        -9.2431
 257   2.0000      -0.332966        -9.0605
 258   2.0000      -0.313269        -8.5245
 259   2.0000      -0.287157        -7.8139
 260   2.0000      -0.255146        -6.9429
 261   0.0000      -0.139541        -3.7971
 262   0.0000      -0.123866        -3.3706
 263   0.0000      -0.102542        -2.7903
 264   0.0000      -0.099588        -2.7099
 265   0.0000      -0.085702        -2.3321

MULLIKEN ATOMIC CHARGES
-----------------------
   0 C :    0.045824
   1 C :   -0.038334
   2 C :   -0.063772
   3 C :   -0.175881
   4 N :    0.204935
   5 C :   -0.060578
   6 C :   -0.176537
   7 N :    0.194325
   8 C :   -0.035029
   9 C :   -0.004194
  10 C :    0.161486
  11 O :   -0.149755
  12 C :   -0.093764
  13 C :    0.311329
  14 C :   -0.327579
  15 C :   -0.191127
  16 N :    0.167733
  17 C :   -0.202242
  18 N :    0.189456
  19 C :    0.080334
  20 C :   -0.092224
  21 C :    0.048929
  22 C :   -0.023454
  23 C :   -0.004948
  24 S :    0.754066
  25 O :   -0.440459
  26 O :   -0.448632
  27 C :    0.055378
  28 C :    0.071301
  29 C :   -0.092231
  30 S :    0.176897
  31 C :   -0.077787
  32 C :    0.011376
  33 C :   -0.015314
  34 C :   -0.116996
  35 C :    0.101048
  36 C :    0.102295
  37 C :    0.015100
  38 C :   -0.085866
  39 S :    0.173947
  40 C :   -0.085583
  41 C :   -0.020988
  42 C :    0.060807
  43 C :    0.066569
  44 C :   -0.024776
  45 C :   -0.010544
  46 C :    0.049329
  47 C :   -0.063650
  48 S :    0.747543
  49 O :   -0.450954
  50 O :   -0.444350
  51 C :    0.097301
  52 C :    0.008443
  53 C :    0.052296
  54 C :   -0.123279
  55 C :    0.137298
  56 O :   -0.125615
  57 C :    0.014804
  58 C :   -0.033324
  59 C :   -0.069948
  60 C :   -0.062993
  61 C :   -0.029834
  62 C :    0.024273
  63 C :    0.253366
  64 C :   -0.313389
  65 C :   -0.180578
  66 N :    0.172677
  67 C :   -0.168647
  68 N :    0.171794
  69 C :   -0.173420
  70 N :    0.202157
  71 C :   -0.172044
  72 N :    0.196024
  73 H :    0.021981
  74 H :    0.013723
  75 H :    0.026988
  76 H :    0.033078
  77 H :   -0.001776
  78 H :    0.004995
  79 H :   -0.001159
  80 H :   -0.001520
  81 H :    0.021530
  82 H :    0.026180
  83 H :    0.020732
  84 H :    0.021314
  85 H :    0.021214
  86 H :    0.026689
  87 H :   -0.004291
  88 H :   -0.005933
  89 H :    0.003931
  90 H :    0.000025
  91 H :    0.006860
  92 H :    0.027290
  93 H :    0.010860
  94 H :    0.033711
  95 H :    0.017378
  96 H :    0.026379
Sum of atomic charges:   -0.0000000

LOEWDIN ATOMIC CHARGES
----------------------
   0 C :    0.004047
   1 C :    0.034128
   2 C :   -0.023668
   3 C :   -0.031674
   4 N :   -0.010848
   5 C :   -0.029531
   6 C :   -0.031779
   7 N :   -0.015132
   8 C :    0.047227
   9 C :   -0.030010
  10 C :    0.087122
  11 O :   -0.136260
  12 C :   -0.095541
  13 C :    0.065100
  14 C :   -0.117637
  15 C :   -0.020269
  16 N :   -0.035037
  17 C :   -0.029863
  18 N :   -0.019661
  19 C :    0.061626
  20 C :   -0.194336
  21 C :    0.051287
  22 C :   -0.058786
  23 C :   -0.110142
  24 S :    1.168023
  25 O :   -0.482682
  26 O :   -0.489801
  27 C :   -0.053952
  28 C :    0.018149
  29 C :   -0.171849
  30 S :    0.459364
  31 C :   -0.179603
  32 C :   -0.027039
  33 C :   -0.020519
  34 C :   -0.035962
  35 C :   -0.022005
  36 C :   -0.021462
  37 C :   -0.021596
  38 C :   -0.191751
  39 S :    0.457462
  40 C :   -0.162562
  41 C :   -0.030687
  42 C :    0.001037
  43 C :   -0.043089
  44 C :   -0.131571
  45 C :   -0.038722
  46 C :    0.019629
  47 C :   -0.173293
  48 S :    1.172093
  49 O :   -0.492709
  50 O :   -0.490315
  51 C :    0.018944
  52 C :   -0.024475
  53 C :    0.070895
  54 C :   -0.091752
  55 C :    0.082516
  56 O :   -0.127220
  57 C :   -0.032060
  58 C :    0.049439
  59 C :   -0.029507
  60 C :   -0.022200
  61 C :    0.033880
  62 C :    0.005864
  63 C :    0.054522
  64 C :   -0.116306
  65 C :   -0.011659
  66 N :   -0.032355
  67 C :   -0.020042
  68 N :   -0.030839
  69 C :   -0.031172
  70 N :   -0.010391
  71 C :   -0.032010
  72 N :   -0.013948
  73 H :    0.052670
  74 H :    0.052849
  75 H :    0.049232
  76 H :    0.042513
  77 H :    0.034874
  78 H :    0.035782
  79 H :    0.034890
  80 H :    0.038369
  81 H :    0.028413
  82 H :    0.031749
  83 H :    0.028166
  84 H :    0.028277
  85 H :    0.028366
  86 H :    0.031916
  87 H :    0.037037
  88 H :    0.032691
  89 H :    0.035724
  90 H :    0.035651
  91 H :    0.041535
  92 H :    0.038354
  93 H :    0.037538
  94 H :    0.050294
  95 H :    0.054539
  96 H :    0.053497

  Mayer bond orders larger than 0.100000
B(  0-C ,  1-C ) :   1.3590 B(  0-C ,  9-C ) :   1.3359 B(  0-C , 13-C ) :   0.9538
B(  1-C ,  2-C ) :   1.3916 B(  1-C , 73-H ) :   0.9856 B(  2-C ,  3-C ) :   1.0882
B(  2-C ,  5-C ) :   1.4027 B(  3-C ,  4-N ) :   3.0440 B(  5-C ,  6-C ) :   1.0855
B(  5-C ,  8-C ) :   1.3616 B(  6-C ,  7-N ) :   3.0444 B(  8-C ,  9-C ) :   1.3638
B(  8-C , 74-H ) :   1.0149 B(  9-C , 10-C ) :   0.9340 B( 10-C , 11-O ) :   2.1787
B( 10-C , 12-C ) :   0.9598 B( 12-C , 13-C ) :   1.0885 B( 12-C , 19-C ) :   1.5507
B( 13-C , 14-C ) :   1.6490 B( 14-C , 15-C ) :   1.1498 B( 14-C , 17-C ) :   1.1359
B( 15-C , 16-N ) :   2.9608 B( 17-C , 18-N ) :   2.9864 B( 19-C , 20-C ) :   1.2701
B( 19-C , 75-H ) :   0.9102 B( 20-C , 21-C ) :   1.5278 B( 20-C , 24-S ) :   0.8129
B( 21-C , 22-C ) :   1.1749 B( 21-C , 76-H ) :   0.9751 B( 22-C , 23-C ) :   1.5326
B( 22-C , 77-H ) :   0.9948 B( 23-C , 24-S ) :   0.7910 B( 23-C , 27-C ) :   1.2256
B( 24-S , 25-O ) :   1.7226 B( 24-S , 26-O ) :   1.7195 B( 27-C , 28-C ) :   1.5881
B( 27-C , 78-H ) :   0.9507 B( 28-C , 29-C ) :   1.2038 B( 28-C , 79-H ) :   0.9593
B( 29-C , 30-S ) :   1.0899 B( 29-C , 33-C ) :   1.3834 B( 30-S , 31-C ) :   1.1127
B( 31-C , 32-C ) :   1.4641 B( 31-C , 38-C ) :   1.2094 B( 32-C , 33-C ) :   1.3781
B( 32-C , 34-C ) :   0.9359 B( 33-C , 80-H ) :   0.9997 B( 34-C , 35-C ) :   1.0347
B( 34-C , 36-C ) :   1.0319 B( 34-C , 37-C ) :   0.9393 B( 35-C , 81-H ) :   0.9649
B( 35-C , 82-H ) :   0.9647 B( 35-C , 83-H ) :   0.9648 B( 36-C , 84-H ) :   0.9651
B( 36-C , 85-H ) :   0.9652 B( 36-C , 86-H ) :   0.9644 B( 37-C , 38-C ) :   1.4729
B( 37-C , 41-C ) :   1.3652 B( 38-C , 39-S ) :   1.1001 B( 39-S , 40-C ) :   1.1023
B( 40-C , 41-C ) :   1.4043 B( 40-C , 42-C ) :   1.1786 B( 41-C , 87-H ) :   0.9987
B( 42-C , 43-C ) :   1.6293 B( 42-C , 88-H ) :   0.9585 B( 43-C , 44-C ) :   1.1962
B( 43-C , 89-H ) :   0.9509 B( 44-C , 45-C ) :   1.5881 B( 44-C , 48-S ) :   0.7971
B( 45-C , 46-C ) :   1.1580 B( 45-C , 90-H ) :   0.9902 B( 46-C , 47-C ) :   1.5974
B( 46-C , 91-H ) :   0.9916 B( 47-C , 48-S ) :   0.8076 B( 47-C , 51-C ) :   1.2033
B( 48-S , 49-O ) :   1.7183 B( 48-S , 50-O ) :   1.7216 B( 51-C , 52-C ) :   1.6269
B( 51-C , 92-H ) :   0.9380 B( 52-C , 53-C ) :   1.1785 B( 52-C , 93-H ) :   0.9612
B( 53-C , 54-C ) :   1.6429 B( 53-C , 94-H ) :   0.9329 B( 54-C , 55-C ) :   0.9535
B( 54-C , 63-C ) :   1.0344 B( 55-C , 56-O ) :   2.2800 B( 55-C , 57-C ) :   0.8985
B( 57-C , 58-C ) :   1.3664 B( 57-C , 62-C ) :   1.3366 B( 58-C , 59-C ) :   1.3683
B( 58-C , 95-H ) :   1.0142 B( 59-C , 60-C ) :   1.4018 B( 59-C , 71-C ) :   1.0860
B( 60-C , 61-C ) :   1.3895 B( 60-C , 69-C ) :   1.0864 B( 61-C , 62-C ) :   1.3660
B( 61-C , 96-H ) :   0.9892 B( 62-C , 63-C ) :   0.9719 B( 63-C , 64-C ) :   1.6757
B( 64-C , 65-C ) :   1.1679 B( 64-C , 67-C ) :   1.1292 B( 65-C , 66-N ) :   2.9831
B( 67-C , 68-N ) :   2.9859 B( 69-C , 70-N ) :   3.0437 B( 71-C , 72-N ) :   3.0445

-----------------------------------------------------------------------------
         ABSORPTION SPECTRUM VIA TRANSITION ELECTRIC DIPOLE MOMENTS
-----------------------------------------------------------------------------
State   Energy  Wavelength   fosc         T2         TX        TY        TZ
        (cm-1)    (nm)                  (au**2)     (au)      (au)      (au)
-----------------------------------------------------------------------------
   0   11621.5    860.5   2.796574304  79.22077   5.55644   5.07446   4.75359
   1   15701.3    636.9   0.126776856   2.65815   0.15734  -0.08280   1.62066
   2   20522.8    487.3   0.057769568   0.92670  -0.00733  -0.06744   0.96026
   3   21078.7    474.4   0.104615917   1.63391   0.35190   0.89418   0.84293
   4   22315.7    448.1   0.031557741   0.46556  -0.20823   0.58542  -0.28193
   5   23653.4    422.8   0.051575011   0.71783  -0.70102  -0.45173   0.14950
   6   25031.7    399.5   0.031706988   0.41700   0.31532  -0.28272   0.48749
   7   26668.9    375.0   0.028578420   0.35278  -0.17662  -0.43249  -0.36680
   8   27163.1    368.1   0.009403888   0.11397   0.06070   0.16605   0.28760
   9   27896.0    358.5   0.017953184   0.21187   0.21859   0.15924  -0.37247
  10   28308.3    353.3   0.018702124   0.21750  -0.02420  -0.42963  -0.17979
  11   28665.9    348.8   0.078974113   0.90697   0.12072   0.12031   0.93698
  12   29037.9    344.4   0.037815115   0.42872  -0.15955  -0.63046  -0.07608
  13   29698.3    336.7   0.003021818   0.03350   0.14804  -0.07862   0.07348
  14   29959.1    333.8   0.008830280   0.09703  -0.01318  -0.20895   0.23065
  15   30364.7    329.3   0.234156030   2.53870   0.08387  -1.58513  -0.13797
  16   31026.8    322.3   0.024787445   0.26301   0.22332  -0.13609  -0.44115
  17   31200.3    320.5   0.021096574   0.22260   0.14280   0.41053  -0.18352
  18   31614.7    316.3   0.048789904   0.50806  -0.17854  -0.61433  -0.31430
  19   32067.9    311.8   0.004421334   0.04539  -0.21262  -0.01113  -0.00767
  20   32273.1    309.9   0.003962974   0.04043  -0.14036   0.06341  -0.12924
  21   32477.8    307.9   0.004049418   0.04105  -0.10997  -0.05511  -0.16099
  22   33160.2    301.6   0.128543350   1.27617   0.07095   0.88924  -0.69309
  23   33465.2    298.8   0.007504220   0.07382  -0.26937   0.03527  -0.00428
  24   33767.2    296.1   0.046658976   0.45490  -0.00377  -0.54451   0.39800
  25   34164.6    292.7   0.016639502   0.16034  -0.24524   0.30716  -0.07647
  26   34386.9    290.8   0.028223446   0.27020  -0.39346   0.33938   0.01488
  27   34623.5    288.8   0.038451474   0.36561  -0.06860   0.43299  -0.41644
  28   34763.7    287.7   0.001257979   0.01191   0.03491  -0.08005   0.06547
  29   35123.7    284.7   0.219055719   2.05319   0.34262  -1.31994   0.43995
  30   35499.0    281.7   0.271579612   2.51858  -0.17221  -1.56567  -0.19393
  31   35856.5    278.9   0.385101480   3.53576   0.22046  -1.86739   0.00284
  32   36018.1    277.6   0.079982714   0.73106   0.43506   0.65681   0.33224
  33   36674.6    272.7   0.273764960   2.45747   0.35079   1.52510   0.09210
  34   37265.6    268.3   0.114627647   1.01264  -0.16364  -0.86892  -0.48047
  35   37307.9    268.0   0.154034381   1.35923  -0.08058   1.08734   0.41282
  36   37461.9    266.9   0.018921061   0.16628  -0.13406  -0.33338   0.19276
  37   37654.8    265.6   0.012555870   0.10977  -0.20036  -0.08579  -0.24954
  38   37980.0    263.3   0.099041750   0.85850   0.34469  -0.28581   0.81117
  39   38286.5    261.2   0.013861109   0.11919  -0.19898  -0.08280  -0.26970
  40   38859.4    257.3   0.038524239   0.32637   0.23735  -0.26999   0.44401
  41   39178.6    255.2   0.103040837   0.86584  -0.60812   0.06618  -0.70118
  42   39536.1    252.9   0.016789157   0.13980  -0.02069   0.32612   0.18171
  43   39635.8    252.3   0.033322172   0.27677  -0.26481   0.27401  -0.36272
  44   39911.6    250.6   0.052411702   0.43232   0.02964  -0.36341   0.54715
  45   40121.8    249.2   0.059118401   0.48508   0.00364   0.48293   0.50185
  46   40298.9    248.1   0.008972273   0.07330   0.25894  -0.00078  -0.07904

FINAL SINGLE POINT ENERGY     -4587.720854445236

DIPOLE MOMENT
-------------
                                X             Y             Z
Electronic contribution:      4.70937      12.24792      14.25972
Nuclear contribution   :     -6.14577     -10.45560     -20.64454
                        -----------------------------------------
Total Dipole Moment    :     -1.43640       1.79233      -6.38481
                        -----------------------------------------
Magnitude (a.u.)       :      6.78539
Magnitude (Debye)      :     17.24709

Rotational constants in cm-1:     0.002800     0.000133     0.000129
Rotational constants in MHz :    83.949639     3.981768     3.877223

                             ****ORCA TERMINATED NORMALLY****
TOTAL RUN TIME: 0 days 0 hours 9 minutes 48 seconds 365 msec
