                         Program Version 4.2.0 -  RELEASE  -
|  1> # ORCA input file
|  2> # SCF done       -197.512365097508          0.000515520848
|  3> ! CAM-B3LYP def2-SVP def2/J RIJCOSX Grid4 TightSCF
|  4> %maxcore 5000
|  5> %tddft
|  6>     Mode sTDDFT
|  7>     Ethresh 5.0
|  8>     maxcore 5000
|  9> end
| 10>
| 11> %pal
| 12>   nprocs 6
| 13>   end
| 14> * xyz 0 1
| 15>    C       18.20587       -14.27605         9.99695
| 16>    C       17.69767       -15.29664         9.24080
| 17>    F       18.24114       -16.52327         9.33277
| 18>    C       16.61594       -15.12985         8.35381
| 19>    F       16.21610       -16.22047         7.66970
| 20>    C       15.96463       -13.91994         8.16068
| 21>    C       16.48113       -12.85304         8.94041
| 22>    C       17.57923       -13.03507         9.83801
| 23>    N       17.82309       -11.85017        10.41785
| 24>    N       16.93686       -11.04842         9.89707
| 25>    N       16.11632       -11.56513         9.02333
| 26>    C       16.86804        -9.66869        10.26935
| 27>    C       14.86688       -13.73435         7.25689
| 28>    S       14.21594       -15.03340         6.29703
| 29>    C       13.04545       -13.97253         5.57974
| 30>    C       13.17074       -12.68969         6.07228
| 31>    C       14.19004       -12.55751         7.01204
| 32>    C       12.11864       -14.44906         4.61501
| 33>    C       11.96313       -15.73156         4.13727
| 34>    C       10.95053       -15.85195         3.18535
| 35>    C       10.31020       -14.66282         2.91139
| 36>    S       10.97986       -13.36502         3.86224
| 37>    C        9.25043       -14.41796         2.00070
| 38>    S        8.54225       -15.70289         1.06533
| 39>    C        7.43527       -14.59879         0.28991
| 40>    C        7.63243       -13.31360         0.75749
| 41>    C        8.64221       -13.21395         1.71081
| 42>    C        6.51455       -15.09058        -0.67284
| 43>    C        5.64589       -14.31332        -1.36467
| 44>    C        4.71883       -14.77376        -2.33297
| 45>    S        3.72729       -13.58095        -3.15879
| 46>    C        2.97194       -14.81991        -4.06994
| 47>    C        3.45615       -16.08835        -3.74942
| 48>    C        4.44117       -16.06043        -2.77194
| 49>    C        2.75962       -17.14701        -4.57490
| 50>    C        3.75166       -17.89986        -5.46548
| 51>    C        1.98134       -18.12185        -3.68726
| 52>    C        1.82671       -16.28776        -5.39868
| 53>    C        1.98533       -14.94065        -5.07280
| 54>    S        0.95798       -13.91998        -5.98847
| 55>    C        0.29607       -15.31520        -6.82674
| 56>    C        0.87333       -16.49726        -6.38534
| 57>    C       -0.69689       -15.09025        -7.81273
| 58>    C       -1.33519       -16.05210        -8.52318
| 59>    C       -2.32111       -15.79352        -9.51182
| 60>    S       -3.12048       -17.12544       -10.30328
| 61>    C       -4.08237       -16.04776       -11.27043
| 62>    C       -3.77720       -14.73224       -10.97816
| 63>    C       -2.79844       -14.59133        -9.99879
| 64>    C       -5.03417       -16.53004       -12.20795
| 65>    C       -5.83029       -15.79132       -13.06027
| 66>    C       -6.66788       -16.57247       -13.85418
| 67>    C       -6.53563       -17.92592       -13.62869
| 68>    S       -5.33772       -18.23326       -12.40202
| 69>    C       -7.23783       -18.98987       -14.25206
| 70>    S       -8.41800       -18.68095       -15.48930
| 71>    C       -8.76001       -20.38189       -15.65930
| 72>    C       -7.98023       -21.11988       -14.79121
| 73>    C       -7.12961       -20.34390       -14.00711
| 74>    C       -9.73868       -20.79903       -16.60530
| 75>    C      -10.13081       -22.08018       -16.77514
| 76>    C      -11.11441       -22.56921       -17.70143
| 77>    C      -11.80594       -21.84939       -18.66562
| 78>    F      -11.58812       -20.52923       -18.82894
| 79>    C      -12.75796       -22.43424       -19.52612
| 80>    F      -13.35914       -21.62728       -20.42014
| 81>    C      -13.09257       -23.76134       -19.49325
| 82>    C      -12.42078       -24.53049       -18.53679
| 83>    C      -11.45309       -23.94532       -17.66490
| 84>    N      -10.99100       -24.92305       -16.87188
| 85>    N      -11.64186       -25.98643       -17.25745
| 86>    N      -12.49856       -25.83454       -18.23013
| 87>    C      -11.42609       -27.25737       -16.63694
| 88>    H       19.03307       -14.42056        10.66898
| 89>    H       17.66229        -9.47653        10.98637
| 90>    H       15.89725        -9.45268        10.71680
| 91>    H       16.99508        -9.04039         9.38738
| 92>    H       12.53481       -11.88331         5.75117
| 93>    H       14.44434       -11.64088         7.51060
| 94>    H       12.57311       -16.54971         4.47748
| 95>    H       10.68317       -16.77403         2.70017
| 96>    H        7.05784       -12.47111         0.41830
| 97>    H        8.93673       -12.29472         2.18645
| 98>    H        6.53715       -16.15678        -0.84797
| 99>    H        5.64108       -13.24622        -1.19104
|100>    H        4.94286       -16.92766        -2.38353
|101>    H        4.46151       -18.45011        -4.85266
|102>    H        4.30065       -17.20144        -6.09311
|103>    H        3.22191       -18.60131        -6.10538
|104>    H        2.66630       -18.67524        -3.04945
|105>    H        1.42692       -18.82645        -4.30239
|106>    H        1.27877       -17.58053        -3.05760
|107>    H        0.60188       -17.45906        -6.78010
|108>    H       -0.94748       -14.05331        -7.98794
|109>    H       -1.10506       -17.09285        -8.34499
|110>    H       -4.25650       -13.90120       -11.46287
|111>    H       -2.44358       -13.63671        -9.65557
|112>    H       -5.80172       -14.71797       -13.10444
|113>    H       -7.35855       -16.17449       -14.57675
|114>    H       -8.02482       -22.19202       -14.73123
|115>    H       -6.44877       -20.74154       -13.27483
|116>    H      -10.17404       -20.00590       -17.19438
|117>    H       -9.69886       -22.85878       -16.16253
|118>    H      -13.82446       -24.17959       -20.16152
|119>    H      -10.66358       -27.13240       -15.87211
|120>    H      -11.09861       -27.98206       -17.38266
|121>    H      -12.35444       -27.61276       -16.18876
|122> *
|123>
|124>                          ****END OF INPUT****

CARTESIAN COORDINATES (ANGSTROEM)
---------------------------------
  C     18.205870  -14.276050    9.996950
  C     17.697670  -15.296640    9.240800
  F     18.241140  -16.523270    9.332770
  C     16.615940  -15.129850    8.353810
  F     16.216100  -16.220470    7.669700
  C     15.964630  -13.919940    8.160680
  C     16.481130  -12.853040    8.940410
  C     17.579230  -13.035070    9.838010
  N     17.823090  -11.850170   10.417850
  N     16.936860  -11.048420    9.897070
  N     16.116320  -11.565130    9.023330
  C     16.868040   -9.668690   10.269350
  C     14.866880  -13.734350    7.256890
  S     14.215940  -15.033400    6.297030
  C     13.045450  -13.972530    5.579740
  C     13.170740  -12.689690    6.072280
  C     14.190040  -12.557510    7.012040
  C     12.118640  -14.449060    4.615010
  C     11.963130  -15.731560    4.137270
  C     10.950530  -15.851950    3.185350
  C     10.310200  -14.662820    2.911390
  S     10.979860  -13.365020    3.862240
  C      9.250430  -14.417960    2.000700
  S      8.542250  -15.702890    1.065330
  C      7.435270  -14.598790    0.289910
  C      7.632430  -13.313600    0.757490
  C      8.642210  -13.213950    1.710810
  C      6.514550  -15.090580   -0.672840
  C      5.645890  -14.313320   -1.364670
  C      4.718830  -14.773760   -2.332970
  S      3.727290  -13.580950   -3.158790
  C      2.971940  -14.819910   -4.069940
  C      3.456150  -16.088350   -3.749420
  C      4.441170  -16.060430   -2.771940
  C      2.759620  -17.147010   -4.574900
  C      3.751660  -17.899860   -5.465480
  C      1.981340  -18.121850   -3.687260
  C      1.826710  -16.287760   -5.398680
  C      1.985330  -14.940650   -5.072800
  S      0.957980  -13.919980   -5.988470
  C      0.296070  -15.315200   -6.826740
  C      0.873330  -16.497260   -6.385340
  C     -0.696890  -15.090250   -7.812730
  C     -1.335190  -16.052100   -8.523180
  C     -2.321110  -15.793520   -9.511820
  S     -3.120480  -17.125440  -10.303280
  C     -4.082370  -16.047760  -11.270430
  C     -3.777200  -14.732240  -10.978160
  C     -2.798440  -14.591330   -9.998790
  C     -5.034170  -16.530040  -12.207950
  C     -5.830290  -15.791320  -13.060270
  C     -6.667880  -16.572470  -13.854180
  C     -6.535630  -17.925920  -13.628690
  S     -5.337720  -18.233260  -12.402020
  C     -7.237830  -18.989870  -14.252060
  S     -8.418000  -18.680950  -15.489300
  C     -8.760010  -20.381890  -15.659300
  C     -7.980230  -21.119880  -14.791210
  C     -7.129610  -20.343900  -14.007110
  C     -9.738680  -20.799030  -16.605300
  C    -10.130810  -22.080180  -16.775140
  C    -11.114410  -22.569210  -17.701430
  C    -11.805940  -21.849390  -18.665620
  F    -11.588120  -20.529230  -18.828940
  C    -12.757960  -22.434240  -19.526120
  F    -13.359140  -21.627280  -20.420140
  C    -13.092570  -23.761340  -19.493250
  C    -12.420780  -24.530490  -18.536790
  C    -11.453090  -23.945320  -17.664900
  N    -10.991000  -24.923050  -16.871880
  N    -11.641860  -25.986430  -17.257450
  N    -12.498560  -25.834540  -18.230130
  C    -11.426090  -27.257370  -16.636940
  H     19.033070  -14.420560   10.668980
  H     17.662290   -9.476530   10.986370
  H     15.897250   -9.452680   10.716800
  H     16.995080   -9.040390    9.387380
  H     12.534810  -11.883310    5.751170
  H     14.444340  -11.640880    7.510600
  H     12.573110  -16.549710    4.477480
  H     10.683170  -16.774030    2.700170
  H      7.057840  -12.471110    0.418300
  H      8.936730  -12.294720    2.186450
  H      6.537150  -16.156780   -0.847970
  H      5.641080  -13.246220   -1.191040
  H      4.942860  -16.927660   -2.383530
  H      4.461510  -18.450110   -4.852660
  H      4.300650  -17.201440   -6.093110
  H      3.221910  -18.601310   -6.105380
  H      2.666300  -18.675240   -3.049450
  H      1.426920  -18.826450   -4.302390
  H      1.278770  -17.580530   -3.057600
  H      0.601880  -17.459060   -6.780100
  H     -0.947480  -14.053310   -7.987940
  H     -1.105060  -17.092850   -8.344990
  H     -4.256500  -13.901200  -11.462870
  H     -2.443580  -13.636710   -9.655570
  H     -5.801720  -14.717970  -13.104440
  H     -7.358550  -16.174490  -14.576750
  H     -8.024820  -22.192020  -14.731230
  H     -6.448770  -20.741540  -13.274830
  H    -10.174040  -20.005900  -17.194380
  H     -9.698860  -22.858780  -16.162530
  H    -13.824460  -24.179590  -20.161520
  H    -10.663580  -27.132400  -15.872110
  H    -11.098610  -27.982060  -17.382660
  H    -12.354440  -27.612760  -16.188760

 Total Charge           Charge          ....    0
 Multiplicity           Mult            ....    1
 Number of Electrons    NEL             ....  570
 Basis Dimension        Dim             .... 1224

ORBITAL ENERGIES
----------------

  NO   OCC          E(Eh)            E(eV)
   0   2.0000     -88.955048     -2420.5899
   1   2.0000     -88.954934     -2420.5868
   2   2.0000     -88.952450     -2420.5192
   3   2.0000     -88.950564     -2420.4679
   4   2.0000     -88.950222     -2420.4586
   5   2.0000     -88.950102     -2420.4553
   6   2.0000     -88.949252     -2420.4322
   7   2.0000     -88.947661     -2420.3889
   8   2.0000     -24.790310      -674.5786
   9   2.0000     -24.785348      -674.4436
  10   2.0000     -24.780750      -674.3185
  11   2.0000     -24.777639      -674.2338
  12   2.0000     -14.541673      -395.6990
  13   2.0000     -14.537769      -395.5928
  14   2.0000     -14.442537      -393.0014
  15   2.0000     -14.441817      -392.9818
  16   2.0000     -14.439553      -392.9202
  17   2.0000     -14.435624      -392.8133
  18   2.0000     -10.365294      -282.0540
  19   2.0000     -10.364729      -282.0386
  20   2.0000     -10.362161      -281.9687
  21   2.0000     -10.360814      -281.9321
  22   2.0000     -10.323841      -280.9260
  23   2.0000     -10.320765      -280.8423
  24   2.0000     -10.307639      -280.4851
  25   2.0000     -10.305624      -280.4303
  26   2.0000     -10.305271      -280.4207
  27   2.0000     -10.302259      -280.3387
  28   2.0000     -10.302027      -280.3324
  29   2.0000     -10.301786      -280.3259
  30   2.0000     -10.300667      -280.2954
  31   2.0000     -10.300512      -280.2912
  32   2.0000     -10.300418      -280.2886
  33   2.0000     -10.300285      -280.2850
  34   2.0000     -10.299120      -280.2533
  35   2.0000     -10.298997      -280.2500
  36   2.0000     -10.297949      -280.2214
  37   2.0000     -10.297310      -280.2040
  38   2.0000     -10.296270      -280.1757
  39   2.0000     -10.296261      -280.1755
  40   2.0000     -10.295855      -280.1645
  41   2.0000     -10.295713      -280.1606
  42   2.0000     -10.295474      -280.1541
  43   2.0000     -10.294750      -280.1344
  44   2.0000     -10.294517      -280.1280
  45   2.0000     -10.293840      -280.1096
  46   2.0000     -10.289445      -279.9900
  47   2.0000     -10.284540      -279.8566
  48   2.0000     -10.281786      -279.7816
  49   2.0000     -10.279104      -279.7086
  50   2.0000     -10.278653      -279.6964
  51   2.0000     -10.278555      -279.6937
  52   2.0000     -10.277071      -279.6533
  53   2.0000     -10.276829      -279.6467
  54   2.0000     -10.273554      -279.5576
  55   2.0000     -10.270807      -279.4829
  56   2.0000     -10.270741      -279.4811
  57   2.0000     -10.270236      -279.4673
  58   2.0000     -10.269595      -279.4499
  59   2.0000     -10.269492      -279.4471
  60   2.0000     -10.269425      -279.4453
  61   2.0000     -10.268971      -279.4329
  62   2.0000     -10.268894      -279.4308
  63   2.0000     -10.268775      -279.4276
  64   2.0000     -10.268321      -279.4152
  65   2.0000     -10.267343      -279.3886
  66   2.0000     -10.267298      -279.3874
  67   2.0000     -10.266967      -279.3784
  68   2.0000     -10.266448      -279.3643
  69   2.0000     -10.264547      -279.3125
  70   2.0000     -10.263157      -279.2747
  71   2.0000     -10.261302      -279.2242
  72   2.0000     -10.261250      -279.2228
  73   2.0000      -8.050113      -219.0547
  74   2.0000      -8.050025      -219.0523
  75   2.0000      -8.048038      -218.9982
  76   2.0000      -8.046347      -218.9522
  77   2.0000      -8.045878      -218.9395
  78   2.0000      -8.045579      -218.9313
  79   2.0000      -8.044900      -218.9129
  80   2.0000      -8.042821      -218.8563
  81   2.0000      -6.019373      -163.7955
  82   2.0000      -6.019327      -163.7942
  83   2.0000      -6.017418      -163.7423
  84   2.0000      -6.015581      -163.6923
  85   2.0000      -6.015418      -163.6878
  86   2.0000      -6.015318      -163.6851
  87   2.0000      -6.015132      -163.6801
  88   2.0000      -6.014999      -163.6764
  89   2.0000      -6.014190      -163.6544
  90   2.0000      -6.013325      -163.6309
  91   2.0000      -6.012237      -163.6013
  92   2.0000      -6.012235      -163.6012
  93   2.0000      -6.012155      -163.5991
  94   2.0000      -6.011564      -163.5830
  95   2.0000      -6.011100      -163.5703
  96   2.0000      -6.010907      -163.5651
  97   2.0000      -6.010172      -163.5451
  98   2.0000      -6.009956      -163.5392
  99   2.0000      -6.008484      -163.4992
 100   2.0000      -6.007987      -163.4856
 101   2.0000      -6.007923      -163.4839
 102   2.0000      -6.007422      -163.4703
 103   2.0000      -6.006937      -163.4571
 104   2.0000      -6.004835      -163.3999
 105   2.0000      -1.308749       -35.6129
 106   2.0000      -1.304153       -35.4878
 107   2.0000      -1.290069       -35.1046
 108   2.0000      -1.285800       -34.9884
 109   2.0000      -1.219146       -33.1747
 110   2.0000      -1.214494       -33.0481
 111   2.0000      -1.004771       -27.3412
 112   2.0000      -0.995170       -27.0799
 113   2.0000      -0.992947       -27.0195
 114   2.0000      -0.990122       -26.9426
 115   2.0000      -0.987632       -26.8748
 116   2.0000      -0.985224       -26.8093
 117   2.0000      -0.980265       -26.6744
 118   2.0000      -0.978655       -26.6306
 119   2.0000      -0.974771       -26.5249
 120   2.0000      -0.967733       -26.3333
 121   2.0000      -0.962073       -26.1793
 122   2.0000      -0.959112       -26.0988
 123   2.0000      -0.923691       -25.1349
 124   2.0000      -0.923041       -25.1172
 125   2.0000      -0.921105       -25.0645
 126   2.0000      -0.896893       -24.4057
 127   2.0000      -0.891742       -24.2655
 128   2.0000      -0.889771       -24.2119
 129   2.0000      -0.878809       -23.9136
 130   2.0000      -0.866064       -23.5668
 131   2.0000      -0.857011       -23.3204
 132   2.0000      -0.847220       -23.0540
 133   2.0000      -0.839657       -22.8482
 134   2.0000      -0.834268       -22.7016
 135   2.0000      -0.831828       -22.6352
 136   2.0000      -0.825207       -22.4550
 137   2.0000      -0.823834       -22.4177
 138   2.0000      -0.821880       -22.3645
 139   2.0000      -0.821168       -22.3451
 140   2.0000      -0.817024       -22.2324
 141   2.0000      -0.816314       -22.2130
 142   2.0000      -0.812957       -22.1217
 143   2.0000      -0.810587       -22.0572
 144   2.0000      -0.805183       -21.9101
 145   2.0000      -0.797534       -21.7020
 146   2.0000      -0.778882       -21.1944
 147   2.0000      -0.772644       -21.0247
 148   2.0000      -0.768319       -20.9070
 149   2.0000      -0.747948       -20.3527
 150   2.0000      -0.737555       -20.0699
 151   2.0000      -0.734668       -19.9913
 152   2.0000      -0.729987       -19.8640
 153   2.0000      -0.726378       -19.7657
 154   2.0000      -0.723693       -19.6927
 155   2.0000      -0.704114       -19.1599
 156   2.0000      -0.697978       -18.9930
 157   2.0000      -0.693925       -18.8827
 158   2.0000      -0.690912       -18.8007
 159   2.0000      -0.681626       -18.5480
 160   2.0000      -0.679361       -18.4864
 161   2.0000      -0.662541       -18.0287
 162   2.0000      -0.661499       -18.0003
 163   2.0000      -0.658515       -17.9191
 164   2.0000      -0.647399       -17.6166
 165   2.0000      -0.640927       -17.4405
 166   2.0000      -0.640007       -17.4155
 167   2.0000      -0.634439       -17.2640
 168   2.0000      -0.630510       -17.1571
 169   2.0000      -0.626977       -17.0609
 170   2.0000      -0.625125       -17.0105
 171   2.0000      -0.621968       -16.9246
 172   2.0000      -0.618222       -16.8227
 173   2.0000      -0.614560       -16.7230
 174   2.0000      -0.614315       -16.7164
 175   2.0000      -0.611848       -16.6492
 176   2.0000      -0.611464       -16.6388
 177   2.0000      -0.606796       -16.5118
 178   2.0000      -0.605273       -16.4703
 179   2.0000      -0.605156       -16.4671
 180   2.0000      -0.604647       -16.4533
 181   2.0000      -0.601562       -16.3693
 182   2.0000      -0.601204       -16.3596
 183   2.0000      -0.590967       -16.0810
 184   2.0000      -0.590208       -16.0604
 185   2.0000      -0.578746       -15.7485
 186   2.0000      -0.572359       -15.5747
 187   2.0000      -0.572253       -15.5718
 188   2.0000      -0.569896       -15.5077
 189   2.0000      -0.567758       -15.4495
 190   2.0000      -0.561828       -15.2881
 191   2.0000      -0.558271       -15.1913
 192   2.0000      -0.554868       -15.0987
 193   2.0000      -0.552206       -15.0263
 194   2.0000      -0.549167       -14.9436
 195   2.0000      -0.545208       -14.8359
 196   2.0000      -0.538344       -14.6491
 197   2.0000      -0.533726       -14.5234
 198   2.0000      -0.530852       -14.4452
 199   2.0000      -0.529388       -14.4054
 200   2.0000      -0.524161       -14.2631
 201   2.0000      -0.522401       -14.2153
 202   2.0000      -0.521799       -14.1989
 203   2.0000      -0.518223       -14.1016
 204   2.0000      -0.514832       -14.0093
 205   2.0000      -0.512516       -13.9463
 206   2.0000      -0.508010       -13.8237
 207   2.0000      -0.505935       -13.7672
 208   2.0000      -0.503072       -13.6893
 209   2.0000      -0.502543       -13.6749
 210   2.0000      -0.501905       -13.6575
 211   2.0000      -0.499591       -13.5946
 212   2.0000      -0.496157       -13.5011
 213   2.0000      -0.494696       -13.4614
 214   2.0000      -0.493630       -13.4323
 215   2.0000      -0.492575       -13.4037
 216   2.0000      -0.490734       -13.3536
 217   2.0000      -0.488158       -13.2834
 218   2.0000      -0.484696       -13.1893
 219   2.0000      -0.481107       -13.0916
 220   2.0000      -0.480430       -13.0732
 221   2.0000      -0.478543       -13.0218
 222   2.0000      -0.476727       -12.9724
 223   2.0000      -0.476654       -12.9704
 224   2.0000      -0.472654       -12.8616
 225   2.0000      -0.472414       -12.8550
 226   2.0000      -0.468767       -12.7558
 227   2.0000      -0.467694       -12.7266
 228   2.0000      -0.465787       -12.6747
 229   2.0000      -0.464753       -12.6466
 230   2.0000      -0.459691       -12.5088
 231   2.0000      -0.457653       -12.4534
 232   2.0000      -0.455488       -12.3945
 233   2.0000      -0.454155       -12.3582
 234   2.0000      -0.452519       -12.3137
 235   2.0000      -0.452173       -12.3043
 236   2.0000      -0.448592       -12.2068
 237   2.0000      -0.447158       -12.1678
 238   2.0000      -0.445590       -12.1251
 239   2.0000      -0.442846       -12.0504
 240   2.0000      -0.437364       -11.9013
 241   2.0000      -0.433874       -11.8063
 242   2.0000      -0.431144       -11.7320
 243   2.0000      -0.429958       -11.6997
 244   2.0000      -0.425021       -11.5654
 245   2.0000      -0.424817       -11.5599
 246   2.0000      -0.423046       -11.5117
 247   2.0000      -0.421791       -11.4775
 248   2.0000      -0.418927       -11.3996
 249   2.0000      -0.415555       -11.3078
 250   2.0000      -0.410600       -11.1730
 251   2.0000      -0.405796       -11.0423
 252   2.0000      -0.404308       -11.0018
 253   2.0000      -0.402933       -10.9644
 254   2.0000      -0.399479       -10.8704
 255   2.0000      -0.398630       -10.8473
 256   2.0000      -0.398152       -10.8343
 257   2.0000      -0.396588       -10.7917
 258   2.0000      -0.396263       -10.7829
 259   2.0000      -0.391421       -10.6511
 260   2.0000      -0.389395       -10.5960
 261   2.0000      -0.388747       -10.5783
 262   2.0000      -0.375127       -10.2077
 263   2.0000      -0.373019       -10.1504
 264   2.0000      -0.370705       -10.0874
 265   2.0000      -0.359192        -9.7741
 266   2.0000      -0.344303        -9.3690
 267   2.0000      -0.329129        -8.9561
 268   2.0000      -0.326537        -8.8855
 269   2.0000      -0.323229        -8.7955
 270   2.0000      -0.319907        -8.7051
 271   2.0000      -0.319711        -8.6998
 272   2.0000      -0.318453        -8.6655
 273   2.0000      -0.315269        -8.5789
 274   2.0000      -0.314534        -8.5589
 275   2.0000      -0.313964        -8.5434
 276   2.0000      -0.312192        -8.4952
 277   2.0000      -0.311197        -8.4681
 278   2.0000      -0.309728        -8.4281
 279   2.0000      -0.296713        -8.0740
 280   2.0000      -0.279245        -7.5986
 281   2.0000      -0.261412        -7.1134
 282   2.0000      -0.241055        -6.5594
 283   2.0000      -0.224715        -6.1148
 284   2.0000      -0.205598        -5.5946
 285   0.0000      -0.063050        -1.7157
 286   0.0000      -0.052281        -1.4226
 287   0.0000      -0.041921        -1.1407
 288   0.0000      -0.027197        -0.7401
 289   0.0000      -0.009234        -0.2513

MULLIKEN ATOMIC CHARGES
-----------------------
   0 C :   -0.152796
   1 C :    0.262652
   2 F :   -0.185810
   3 C :    0.102569
   4 F :   -0.181867
   5 C :    0.142654
   6 C :   -0.056083
   7 C :    0.030924
   8 N :   -0.049233
   9 N :   -0.075935
  10 N :   -0.076592
  11 C :    0.147575
  12 C :   -0.145561
  13 S :    0.137110
  14 C :   -0.023095
  15 C :   -0.013571
  16 C :    0.017237
  17 C :   -0.042308
  18 C :   -0.006812
  19 C :   -0.012992
  20 C :   -0.025765
  21 S :    0.111356
  22 C :   -0.049093
  23 S :    0.115884
  24 C :   -0.071710
  25 C :    0.008623
  26 C :   -0.009920
  27 C :    0.053072
  28 C :    0.044037
  29 C :   -0.081611
  30 S :    0.137600
  31 C :   -0.088937
  32 C :    0.006997
  33 C :   -0.036684
  34 C :   -0.115788
  35 C :    0.104231
  36 C :    0.104880
  37 C :    0.005288
  38 C :   -0.090465
  39 S :    0.138190
  40 C :   -0.082158
  41 C :   -0.036481
  42 C :    0.045364
  43 C :    0.053741
  44 C :   -0.071787
  45 S :    0.117463
  46 C :   -0.048403
  47 C :   -0.001569
  48 C :    0.007972
  49 C :   -0.028820
  50 C :   -0.006033
  51 C :   -0.011193
  52 C :   -0.030973
  53 S :    0.117811
  54 C :   -0.044382
  55 S :    0.122598
  56 C :   -0.083331
  57 C :    0.014784
  58 C :   -0.015064
  59 C :    0.087082
  60 C :   -0.058137
  61 C :    0.060120
  62 C :    0.130894
  63 F :   -0.183439
  64 C :    0.268595
  65 F :   -0.188479
  66 C :   -0.155122
  67 C :    0.046521
  68 C :   -0.054784
  69 N :   -0.067233
  70 N :   -0.081481
  71 N :   -0.063030
  72 C :    0.149506
  73 H :   -0.013691
  74 H :    0.053162
  75 H :    0.052789
  76 H :    0.053583
  77 H :   -0.017638
  78 H :   -0.011804
  79 H :   -0.010529
  80 H :   -0.014332
  81 H :   -0.020863
  82 H :   -0.014311
  83 H :   -0.023473
  84 H :   -0.022345
  85 H :   -0.028458
  86 H :    0.008977
  87 H :    0.022607
  88 H :    0.009242
  89 H :    0.009285
  90 H :    0.009107
  91 H :    0.022513
  92 H :   -0.028777
  93 H :   -0.022964
  94 H :   -0.024122
  95 H :   -0.023362
  96 H :   -0.021321
  97 H :   -0.020135
  98 H :   -0.011828
  99 H :   -0.013708
 100 H :   -0.013352
 101 H :   -0.004419
 102 H :   -0.008242
 103 H :   -0.015438
 104 H :    0.050812
 105 H :    0.052098
 106 H :    0.052131
Sum of atomic charges:   -0.0000000

LOEWDIN ATOMIC CHARGES
----------------------
   0 C :   -0.053885
   1 C :    0.064528
   2 F :   -0.059468
   3 C :    0.050744
   4 F :   -0.057125
   5 C :   -0.056396
   6 C :   -0.045162
   7 C :   -0.055379
   8 N :   -0.089667
   9 N :    0.153024
  10 N :   -0.093785
  11 C :    0.033358
  12 C :   -0.178780
  13 S :    0.447428
  14 C :   -0.181400
  15 C :   -0.069387
  16 C :   -0.040313
  17 C :   -0.182570
  18 C :   -0.057802
  19 C :   -0.063455
  20 C :   -0.178697
  21 S :    0.430702
  22 C :   -0.187707
  23 S :    0.427745
  24 C :   -0.166056
  25 C :   -0.058261
  26 C :   -0.060289
  27 C :   -0.047083
  28 C :   -0.039731
  29 C :   -0.166296
  30 S :    0.431557
  31 C :   -0.199406
  32 C :   -0.037800
  33 C :   -0.054843
  34 C :   -0.034362
  35 C :   -0.024757
  36 C :   -0.024776
  37 C :   -0.037666
  38 C :   -0.199492
  39 S :    0.431625
  40 C :   -0.166506
  41 C :   -0.054709
  42 C :   -0.039981
  43 C :   -0.047052
  44 C :   -0.167580
  45 S :    0.422415
  46 C :   -0.190234
  47 C :   -0.051807
  48 C :   -0.058111
  49 C :   -0.181473
  50 C :   -0.056076
  51 C :   -0.059743
  52 C :   -0.184988
  53 S :    0.425234
  54 C :   -0.181448
  55 S :    0.436778
  56 C :   -0.173151
  57 C :   -0.047580
  58 C :   -0.063822
  59 C :   -0.023009
  60 C :   -0.024989
  61 C :   -0.047335
  62 C :    0.058308
  63 F :   -0.053936
  64 C :    0.065495
  65 F :   -0.061859
  66 C :   -0.054538
  67 C :   -0.054825
  68 C :   -0.054123
  69 N :   -0.096762
  70 N :    0.151972
  71 N :   -0.099067
  72 C :    0.033082
  73 H :    0.045797
  74 H :    0.042863
  75 H :    0.040620
  76 H :    0.040866
  77 H :    0.024211
  78 H :    0.027837
  79 H :    0.027900
  80 H :    0.026436
  81 H :    0.027498
  82 H :    0.025488
  83 H :    0.025037
  84 H :    0.025866
  85 H :    0.027069
  86 H :    0.022840
  87 H :    0.030592
  88 H :    0.022890
  89 H :    0.022947
  90 H :    0.022877
  91 H :    0.030537
  92 H :    0.026966
  93 H :    0.025639
  94 H :    0.024993
  95 H :    0.028391
  96 H :    0.027575
  97 H :    0.029093
  98 H :    0.027079
  99 H :    0.030651
 100 H :    0.026072
 101 H :    0.026457
 102 H :    0.032156
 103 H :    0.044931
 104 H :    0.041251
 105 H :    0.040566
 106 H :    0.040514

  Mayer bond orders larger than 0.100000
B(  0-C ,  1-C ) :   1.4455 B(  0-C ,  5-C ) :   0.1282 B(  0-C ,  7-C ) :   1.1391
B(  0-C , 73-H ) :   1.0497 B(  1-C ,  2-F ) :   1.0985 B(  1-C ,  3-C ) :   1.1820
B(  3-C ,  4-F ) :   1.1283 B(  3-C ,  5-C ) :   1.3740 B(  5-C ,  6-C ) :   1.1751
B(  5-C , 12-C ) :   1.1150 B(  6-C ,  7-C ) :   1.2304 B(  6-C , 10-N ) :   1.4701
B(  7-C ,  8-N ) :   1.4638 B(  8-N ,  9-N ) :   1.2507 B(  8-N , 10-N ) :   0.1641
B(  9-N , 10-N ) :   1.2061 B(  9-N , 11-C ) :   0.9534 B( 11-C , 74-H ) :   0.9664
B( 11-C , 75-H ) :   0.9706 B( 11-C , 76-H ) :   0.9702 B( 12-C , 13-S ) :   1.1073
B( 12-C , 14-C ) :   0.1026 B( 12-C , 16-C ) :   1.5291 B( 13-S , 14-C ) :   1.1153
B( 14-C , 15-C ) :   1.4876 B( 14-C , 17-C ) :   1.1510 B( 15-C , 16-C ) :   1.2519
B( 15-C , 77-H ) :   0.9930 B( 16-C , 78-H ) :   0.9774 B( 17-C , 18-C ) :   1.5119
B( 17-C , 21-S ) :   1.1143 B( 18-C , 19-C ) :   1.2612 B( 18-C , 79-H ) :   0.9926
B( 19-C , 20-C ) :   1.5069 B( 19-C , 80-H ) :   0.9934 B( 20-C , 21-S ) :   1.1185
B( 20-C , 22-C ) :   1.1550 B( 22-C , 23-S ) :   1.1230 B( 22-C , 26-C ) :   1.4895
B( 23-S , 24-C ) :   1.1105 B( 24-C , 25-C ) :   1.4965 B( 24-C , 27-C ) :   1.1249
B( 25-C , 26-C ) :   1.2820 B( 25-C , 81-H ) :   0.9914 B( 26-C , 82-H ) :   0.9912
B( 27-C , 28-C ) :   1.7045 B( 27-C , 83-H ) :   0.9598 B( 28-C , 29-C ) :   1.1334
B( 28-C , 84-H ) :   0.9561 B( 29-C , 30-S ) :   1.1031 B( 29-C , 33-C ) :   1.4513
B( 30-S , 31-C ) :   1.0837 B( 31-C , 32-C ) :   1.5216 B( 31-C , 38-C ) :   1.1814
B( 32-C , 33-C ) :   1.3249 B( 32-C , 34-C ) :   0.9432 B( 33-C , 85-H ) :   0.9991
B( 34-C , 35-C ) :   1.0341 B( 34-C , 36-C ) :   1.0343 B( 34-C , 37-C ) :   0.9440
B( 35-C , 86-H ) :   0.9645 B( 35-C , 87-H ) :   0.9649 B( 35-C , 88-H ) :   0.9644
B( 36-C , 89-H ) :   0.9646 B( 36-C , 90-H ) :   0.9645 B( 36-C , 91-H ) :   0.9646
B( 37-C , 38-C ) :   1.5229 B( 37-C , 41-C ) :   1.3244 B( 38-C , 39-S ) :   1.0835
B( 39-S , 40-C ) :   1.1034 B( 40-C , 41-C ) :   1.4515 B( 40-C , 42-C ) :   1.1336
B( 41-C , 92-H ) :   0.9994 B( 42-C , 43-C ) :   1.7011 B( 42-C , 93-H ) :   0.9569
B( 43-C , 44-C ) :   1.1258 B( 43-C , 94-H ) :   0.9610 B( 44-C , 45-S ) :   1.1128
B( 44-C , 46-C ) :   0.1038 B( 44-C , 48-C ) :   1.4875 B( 45-S , 46-C ) :   1.1194
B( 46-C , 47-C ) :   1.5056 B( 46-C , 49-C ) :   1.1182 B( 47-C , 48-C ) :   1.2861
B( 47-C , 95-H ) :   0.9951 B( 48-C , 96-H ) :   0.9922 B( 49-C , 50-C ) :   1.5225
B( 49-C , 52-C ) :   0.1054 B( 49-C , 53-S ) :   1.1144 B( 50-C , 51-C ) :   1.2678
B( 50-C , 97-H ) :   0.9949 B( 51-C , 52-C ) :   1.5004 B( 51-C , 98-H ) :   0.9923
B( 52-C , 53-S ) :   1.1174 B( 52-C , 54-C ) :   1.1550 B( 54-C , 55-S ) :   1.1352
B( 54-C , 58-C ) :   1.4854 B( 55-S , 56-C ) :   1.1110 B( 56-C , 57-C ) :   1.5029
B( 56-C , 59-C ) :   1.1022 B( 57-C , 58-C ) :   1.2809 B( 57-C , 99-H ) :   0.9923
B( 58-C ,100-H ) :   0.9926 B( 59-C , 60-C ) :   1.6777 B( 59-C ,101-H ) :   0.9596
B( 60-C , 61-C ) :   1.1375 B( 60-C ,102-H ) :   0.9769 B( 61-C , 62-C ) :   1.3610
B( 61-C , 66-C ) :   0.1296 B( 61-C , 68-C ) :   1.1614 B( 62-C , 63-F ) :   1.1138
B( 62-C , 64-C ) :   1.1844 B( 64-C , 65-F ) :   1.0954 B( 64-C , 66-C ) :   1.4422
B( 66-C , 67-C ) :   1.1400 B( 66-C ,103-H ) :   1.0476 B( 67-C , 68-C ) :   1.2284
B( 67-C , 71-N ) :   1.4610 B( 68-C , 69-N ) :   1.4833 B( 69-N , 70-N ) :   1.2298
B( 69-N , 71-N ) :   0.1658 B( 70-N , 71-N ) :   1.2237 B( 70-N , 72-C ) :   0.9535
B( 72-C ,104-H ) :   0.9674 B( 72-C ,105-H ) :   0.9701 B( 72-C ,106-H ) :   0.9702

-----------------------------------------------------------------------------
         ABSORPTION SPECTRUM VIA TRANSITION ELECTRIC DIPOLE MOMENTS
-----------------------------------------------------------------------------
State   Energy  Wavelength   fosc         T2         TX        TY        TZ
        (cm-1)    (nm)                  (au**2)     (au)      (au)      (au)
-----------------------------------------------------------------------------
   0   17552.1    569.7   4.413308832  82.77737  -6.42659  -1.66171  -6.22214
   1   21335.6    468.7   0.193305504   2.98274  -0.41430   1.63577  -0.36788
   2   24308.9    411.4   0.463237817   6.27355   1.64756   1.37633   1.29027
   3   24869.1    402.1   0.009115874   0.12067   0.03797   0.33934   0.06390
   4   27022.0    370.1   0.124566405   1.51760  -0.66253  -0.87423  -0.56069
   5   27086.7    369.2   0.118765069   1.44347  -0.88814   0.02307  -0.80879
   6   29701.6    336.7   0.037322125   0.41368  -0.21400  -0.58242  -0.16932
   7   30390.5    329.1   0.169838355   1.83982   0.98289  -0.04544   0.93364
   8   30602.8    326.8   0.045773880   0.49242  -0.45719  -0.29125  -0.44561
   9   32257.0    310.0   0.052761365   0.53848   0.52940   0.28053   0.42369
  10   32740.3    305.4   0.084982701   0.85452   0.54257   0.61549   0.42581
  11   33038.4    302.7   0.055603174   0.55406   0.49057  -0.31787   0.46082
  12   34480.9    290.0   0.004219263   0.04028  -0.02515  -0.19001  -0.05957
  13   34928.9    286.3   0.032492002   0.30624   0.38487   0.11144   0.38170
  14   35907.0    278.5   0.008326989   0.07635   0.09437  -0.25167   0.06404
  15   36342.5    275.2   0.070523031   0.63884  -0.45279  -0.51190  -0.41446
  16   36903.3    271.0   0.048756187   0.43495  -0.47824   0.02892  -0.45321
  17   38074.6    262.6   0.002937444   0.02540   0.13115   0.01045   0.08993
  18   38499.8    259.7   0.017066184   0.14593  -0.30052   0.03849  -0.23268
  19   38983.4    256.5   0.009253555   0.07815   0.26087   0.01647   0.09909
  20   39259.9    254.7   0.039691878   0.33283  -0.44904   0.05833  -0.35748
  21   39564.7    252.8   0.027151756   0.22593  -0.33258   0.00425  -0.33955

FINAL SINGLE POINT ENERGY     -6025.144462904882

DIPOLE MOMENT
-------------
                                X             Y             Z
Electronic contribution:     12.61156       1.82228       4.09432
Nuclear contribution   :    -12.30285      -1.62122      -3.02138
                        -----------------------------------------
Total Dipole Moment    :      0.30872       0.20106       1.07294
                        -----------------------------------------
Magnitude (a.u.)       :      1.13443
Magnitude (Debye)      :      2.88349

Rotational constants in cm-1:     0.003114     0.000073     0.000072
Rotational constants in MHz :    93.351457     2.202649     2.154973

                             ****ORCA TERMINATED NORMALLY****
TOTAL RUN TIME: 0 days 0 hours 9 minutes 5 seconds 596 msec
