                         Program Version 4.2.0 -  RELEASE  -
|  1> # ORCA input file
|  2> # SCF done       -199.418628392294          0.000752692220
|  3> ! CAM-B3LYP def2-SVP def2/J RIJCOSX Grid4 TightSCF
|  4> %maxcore 5000
|  5> %tddft
|  6>     Mode sTDDFT
|  7>     Ethresh 5.0
|  8>     maxcore 5000
|  9> end
| 10>
| 11> %pal
| 12>   nprocs 6
| 13>   end
| 14> * xyz 0 1
| 15>    C       -4.91951       -15.62192        -8.95832
| 16>    C       -4.09424       -15.47389       -10.06402
| 17>    C       -2.89384       -14.78595        -9.97387
| 18>    C       -2.47722       -14.23514        -8.77046
| 19>    C       -3.29181       -14.37820        -7.66077
| 20>    C       -4.52204       -15.06683        -7.75319
| 21>    C       -5.18426       -15.02124        -6.45420
| 22>    C       -6.40246       -15.58860        -6.15983
| 23>    C       -7.14779       -16.37703        -7.05880
| 24>    N       -7.80796       -17.03409        -7.73094
| 25>    C       -7.08329       -15.47776        -4.93325
| 26>    N       -7.70385       -15.41477        -3.96679
| 27>    C       -4.35230       -14.21732        -5.58291
| 28>    C       -3.11203       -13.94957        -6.28100
| 29>    C       -1.90843       -13.62991        -5.69972
| 30>    C       -1.70893       -13.55253        -4.30792
| 31>    N       -1.48173       -13.54812        -3.18176
| 32>    C       -0.71121       -13.44627        -6.41642
| 33>    N        0.28852       -13.26123        -6.95093
| 34>    C       -4.73201       -13.77758        -4.33040
| 35>    C       -4.28714       -12.63401        -3.65635
| 36>    N       -4.57129       -12.39023        -2.33324
| 37>    C       -5.11595       -13.36554        -1.41821
| 38>    C       -6.63628       -13.26418        -1.30350
| 39>    C       -4.17624       -11.13163        -2.00532
| 40>    C       -3.62620       -10.54223        -3.16146
| 41>    C       -3.68131       -11.46815        -4.17247
| 42>    C       -4.37028       -10.55637        -0.72053
| 43>    C       -3.93771        -9.32465        -0.36304
| 44>    C       -4.18301        -8.67218         0.89442
| 45>    C       -4.92003        -9.24310         1.90944
| 46>    C       -5.20173        -8.51493         3.08034
| 47>    C       -5.96419        -8.84817         4.19172
| 48>    C       -6.61493       -10.17187         4.42928
| 49>    C       -6.37549       -10.70562         5.85037
| 50>    N       -5.00099       -10.46128         6.25305
| 51>    C       -8.11970       -10.11460         4.10784
| 52>    N       -8.29576        -9.98178         2.67211
| 53>    C       -6.00569        -7.67617         5.03169
| 54>    C       -6.69356        -7.39316         6.15313
| 55>    C       -6.58168        -6.07391         6.83873
| 56>    C       -5.67593        -5.09203         6.16255
| 57>    C       -5.02527        -5.37256         5.01945
| 58>    C       -5.17321        -6.63650         4.40020
| 59>    C       -4.70247        -7.15266         3.21276
| 60>    C       -3.90452        -6.60655         2.17836
| 61>    C       -3.66035        -7.34293         1.06774
| 62>    C       -6.08356        -6.31578         8.23977
| 63>    C       -6.76185        -5.95783         9.33520
| 64>    C       -6.31037        -6.16728        10.67975
| 65>    N       -7.02984        -5.81890        11.78266
| 66>    C       -8.36866        -5.28169        11.76307
| 67>    C       -9.40915        -6.39354        11.63806
| 68>    C       -6.34243        -6.20132        12.91461
| 69>    C       -5.13277        -6.77618        12.49101
| 70>    C       -5.11287        -6.75059        11.11318
| 71>    C       -6.82566        -6.03057        14.22487
| 72>    C       -6.19017        -6.47479        15.35215
| 73>    C       -6.61189        -6.28227        16.67922
| 74>    C       -7.83351        -5.90169        17.19502
| 75>    C       -7.98571        -5.29754        18.51183
| 76>    C       -7.07776        -5.27640        19.53945
| 77>    C       -5.80026        -5.87418        19.54067
| 78>    N       -4.74919        -6.32828        19.63721
| 79>    C       -7.31655        -4.67251        20.79193
| 80>    N       -7.43713        -4.20628        21.83435
| 81>    C       -9.31253        -4.69200        18.55213
| 82>    C      -10.00191        -5.03400        17.36839
| 83>    C      -11.28509        -4.56773        17.13748
| 84>    C      -11.87828        -3.75827        18.09489
| 85>    C      -11.20667        -3.42812        19.26239
| 86>    C       -9.92088        -3.88996        19.50400
| 87>    C       -9.14629        -5.90751        16.57742
| 88>    C       -9.59695        -6.75820        15.59679
| 89>    C      -10.89258        -6.72196        15.04789
| 90>    N      -11.90988        -6.71558        14.51362
| 91>    C       -8.83552        -7.80230        15.03882
| 92>    N       -8.28306        -8.68558        14.55524
| 93>    H       -5.84938       -16.15855        -9.04913
| 94>    H       -4.39702       -15.89948       -11.00863
| 95>    H       -2.27291       -14.67542       -10.84980
| 96>    H       -1.54398       -13.69863        -8.71300
| 97>    H       -5.53982       -14.31638        -3.85767
| 98>    H       -4.65168       -13.21667        -0.44028
| 99>    H       -4.82926       -14.36068        -1.76473
|100>    H       -6.93440       -12.26001        -1.01093
|101>    H       -6.99200       -13.96569        -0.55425
|102>    H       -7.11679       -13.50677        -2.24802
|103>    H       -3.24563        -9.54356        -3.23441
|104>    H       -3.37979       -11.32226        -5.19140
|105>    H       -4.92322       -11.14591        -0.00534
|106>    H       -3.37182        -8.74823        -1.08221
|107>    H       -5.32630       -10.23698         1.80641
|108>    H       -6.17440       -10.88558         3.72577
|109>    H       -6.65467       -11.77385         5.86498
|110>    H       -7.02275       -10.19364         6.56644
|111>    H       -4.36139       -10.89372         5.59466
|112>    H       -4.82464       -10.86325         7.16719
|113>    H       -8.58236        -9.29756         4.68674
|114>    H       -8.58875       -11.05505         4.41264
|115>    H       -7.87468        -9.11542         2.35089
|116>    H       -9.28108        -9.95758         2.43422
|117>    H       -7.35180        -8.10771         6.62428
|118>    H       -7.58886        -5.63570         6.90804
|119>    H       -5.56959        -4.13627         6.65293
|120>    H       -4.38973        -4.63357         4.55285
|121>    H       -3.51041        -5.60601         2.28048
|122>    H       -3.06238        -6.93237         0.26668
|123>    H       -5.12096        -6.79846         8.30286
|124>    H       -7.72566        -5.48209         9.21032
|125>    H       -8.45833        -4.57916        10.93067
|126>    H       -8.53644        -4.71267        12.67944
|127>    H       -9.31436        -6.89958        10.68045
|128>    H      -10.41197        -5.98410        11.72244
|129>    H       -9.26870        -7.13189        12.42402
|130>    H       -4.36476        -7.15764        13.13260
|131>    H       -4.32930        -7.11220        10.47879
|132>    H       -7.74714        -5.47823        14.34630
|133>    H       -5.22889        -6.95375        15.23715
|134>    H       -5.81682        -6.38389        17.40649
|135>    H      -11.81593        -4.81320        16.23192
|136>    H      -12.87551        -3.38163        17.92564
|137>    H      -11.68768        -2.79957        19.99618
|138>    H       -9.41557        -3.61893        20.41590
|139> *
|140>
|141>                          ****END OF INPUT****

CARTESIAN COORDINATES (ANGSTROEM)
---------------------------------
  C     -4.919510  -15.621920   -8.958320
  C     -4.094240  -15.473890  -10.064020
  C     -2.893840  -14.785950   -9.973870
  C     -2.477220  -14.235140   -8.770460
  C     -3.291810  -14.378200   -7.660770
  C     -4.522040  -15.066830   -7.753190
  C     -5.184260  -15.021240   -6.454200
  C     -6.402460  -15.588600   -6.159830
  C     -7.147790  -16.377030   -7.058800
  N     -7.807960  -17.034090   -7.730940
  C     -7.083290  -15.477760   -4.933250
  N     -7.703850  -15.414770   -3.966790
  C     -4.352300  -14.217320   -5.582910
  C     -3.112030  -13.949570   -6.281000
  C     -1.908430  -13.629910   -5.699720
  C     -1.708930  -13.552530   -4.307920
  N     -1.481730  -13.548120   -3.181760
  C     -0.711210  -13.446270   -6.416420
  N      0.288520  -13.261230   -6.950930
  C     -4.732010  -13.777580   -4.330400
  C     -4.287140  -12.634010   -3.656350
  N     -4.571290  -12.390230   -2.333240
  C     -5.115950  -13.365540   -1.418210
  C     -6.636280  -13.264180   -1.303500
  C     -4.176240  -11.131630   -2.005320
  C     -3.626200  -10.542230   -3.161460
  C     -3.681310  -11.468150   -4.172470
  C     -4.370280  -10.556370   -0.720530
  C     -3.937710   -9.324650   -0.363040
  C     -4.183010   -8.672180    0.894420
  C     -4.920030   -9.243100    1.909440
  C     -5.201730   -8.514930    3.080340
  C     -5.964190   -8.848170    4.191720
  C     -6.614930  -10.171870    4.429280
  C     -6.375490  -10.705620    5.850370
  N     -5.000990  -10.461280    6.253050
  C     -8.119700  -10.114600    4.107840
  N     -8.295760   -9.981780    2.672110
  C     -6.005690   -7.676170    5.031690
  C     -6.693560   -7.393160    6.153130
  C     -6.581680   -6.073910    6.838730
  C     -5.675930   -5.092030    6.162550
  C     -5.025270   -5.372560    5.019450
  C     -5.173210   -6.636500    4.400200
  C     -4.702470   -7.152660    3.212760
  C     -3.904520   -6.606550    2.178360
  C     -3.660350   -7.342930    1.067740
  C     -6.083560   -6.315780    8.239770
  C     -6.761850   -5.957830    9.335200
  C     -6.310370   -6.167280   10.679750
  N     -7.029840   -5.818900   11.782660
  C     -8.368660   -5.281690   11.763070
  C     -9.409150   -6.393540   11.638060
  C     -6.342430   -6.201320   12.914610
  C     -5.132770   -6.776180   12.491010
  C     -5.112870   -6.750590   11.113180
  C     -6.825660   -6.030570   14.224870
  C     -6.190170   -6.474790   15.352150
  C     -6.611890   -6.282270   16.679220
  C     -7.833510   -5.901690   17.195020
  C     -7.985710   -5.297540   18.511830
  C     -7.077760   -5.276400   19.539450
  C     -5.800260   -5.874180   19.540670
  N     -4.749190   -6.328280   19.637210
  C     -7.316550   -4.672510   20.791930
  N     -7.437130   -4.206280   21.834350
  C     -9.312530   -4.692000   18.552130
  C    -10.001910   -5.034000   17.368390
  C    -11.285090   -4.567730   17.137480
  C    -11.878280   -3.758270   18.094890
  C    -11.206670   -3.428120   19.262390
  C     -9.920880   -3.889960   19.504000
  C     -9.146290   -5.907510   16.577420
  C     -9.596950   -6.758200   15.596790
  C    -10.892580   -6.721960   15.047890
  N    -11.909880   -6.715580   14.513620
  C     -8.835520   -7.802300   15.038820
  N     -8.283060   -8.685580   14.555240
  H     -5.849380  -16.158550   -9.049130
  H     -4.397020  -15.899480  -11.008630
  H     -2.272910  -14.675420  -10.849800
  H     -1.543980  -13.698630   -8.713000
  H     -5.539820  -14.316380   -3.857670
  H     -4.651680  -13.216670   -0.440280
  H     -4.829260  -14.360680   -1.764730
  H     -6.934400  -12.260010   -1.010930
  H     -6.992000  -13.965690   -0.554250
  H     -7.116790  -13.506770   -2.248020
  H     -3.245630   -9.543560   -3.234410
  H     -3.379790  -11.322260   -5.191400
  H     -4.923220  -11.145910   -0.005340
  H     -3.371820   -8.748230   -1.082210
  H     -5.326300  -10.236980    1.806410
  H     -6.174400  -10.885580    3.725770
  H     -6.654670  -11.773850    5.864980
  H     -7.022750  -10.193640    6.566440
  H     -4.361390  -10.893720    5.594660
  H     -4.824640  -10.863250    7.167190
  H     -8.582360   -9.297560    4.686740
  H     -8.588750  -11.055050    4.412640
  H     -7.874680   -9.115420    2.350890
  H     -9.281080   -9.957580    2.434220
  H     -7.351800   -8.107710    6.624280
  H     -7.588860   -5.635700    6.908040
  H     -5.569590   -4.136270    6.652930
  H     -4.389730   -4.633570    4.552850
  H     -3.510410   -5.606010    2.280480
  H     -3.062380   -6.932370    0.266680
  H     -5.120960   -6.798460    8.302860
  H     -7.725660   -5.482090    9.210320
  H     -8.458330   -4.579160   10.930670
  H     -8.536440   -4.712670   12.679440
  H     -9.314360   -6.899580   10.680450
  H    -10.411970   -5.984100   11.722440
  H     -9.268700   -7.131890   12.424020
  H     -4.364760   -7.157640   13.132600
  H     -4.329300   -7.112200   10.478790
  H     -7.747140   -5.478230   14.346300
  H     -5.228890   -6.953750   15.237150
  H     -5.816820   -6.383890   17.406490
  H    -11.815930   -4.813200   16.231920
  H    -12.875510   -3.381630   17.925640
  H    -11.687680   -2.799570   19.996180
  H     -9.415570   -3.618930   20.415900

 Total Charge           Charge          ....    0
 Multiplicity           Mult            ....    1
 Number of Electrons    NEL             ....  526
 Basis Dimension        Dim             .... 1322

ORBITAL ENERGIES
----------------

  NO   OCC          E(Eh)            E(eV)
   0   2.0000     -14.487675      -394.2297
   1   2.0000     -14.480875      -394.0446
   2   2.0000     -14.421641      -392.4328
   3   2.0000     -14.421485      -392.4286
   4   2.0000     -14.416571      -392.2948
   5   2.0000     -14.416486      -392.2925
   6   2.0000     -14.413540      -392.2124
   7   2.0000     -14.410051      -392.1174
   8   2.0000     -14.409896      -392.1132
   9   2.0000     -14.408254      -392.0685
  10   2.0000     -14.386518      -391.4770
  11   2.0000     -14.384390      -391.4192
  12   2.0000     -10.345617      -281.5186
  13   2.0000     -10.345006      -281.5019
  14   2.0000     -10.342593      -281.4363
  15   2.0000     -10.341919      -281.4179
  16   2.0000     -10.336988      -281.2837
  17   2.0000     -10.336383      -281.2673
  18   2.0000     -10.336090      -281.2593
  19   2.0000     -10.335531      -281.2441
  20   2.0000     -10.334813      -281.2246
  21   2.0000     -10.329336      -281.0755
  22   2.0000     -10.329152      -281.0705
  23   2.0000     -10.325457      -280.9700
  24   2.0000     -10.323331      -280.9121
  25   2.0000     -10.322731      -280.8958
  26   2.0000     -10.320767      -280.8423
  27   2.0000     -10.319318      -280.8029
  28   2.0000     -10.319307      -280.8026
  29   2.0000     -10.318941      -280.7927
  30   2.0000     -10.318632      -280.7843
  31   2.0000     -10.318146      -280.7710
  32   2.0000     -10.316921      -280.7377
  33   2.0000     -10.316716      -280.7321
  34   2.0000     -10.313331      -280.6400
  35   2.0000     -10.312842      -280.6267
  36   2.0000     -10.312261      -280.6109
  37   2.0000     -10.309130      -280.5257
  38   2.0000     -10.308682      -280.5135
  39   2.0000     -10.307912      -280.4925
  40   2.0000     -10.307539      -280.4824
  41   2.0000     -10.305334      -280.4224
  42   2.0000     -10.302761      -280.3524
  43   2.0000     -10.301941      -280.3301
  44   2.0000     -10.301621      -280.3214
  45   2.0000     -10.300451      -280.2895
  46   2.0000     -10.299704      -280.2692
  47   2.0000     -10.298961      -280.2490
  48   2.0000     -10.297470      -280.2084
  49   2.0000     -10.297336      -280.2048
  50   2.0000     -10.296456      -280.1808
  51   2.0000     -10.293795      -280.1084
  52   2.0000     -10.293332      -280.0958
  53   2.0000     -10.291497      -280.0459
  54   2.0000     -10.291289      -280.0402
  55   2.0000     -10.290980      -280.0318
  56   2.0000     -10.290570      -280.0207
  57   2.0000     -10.290197      -280.0105
  58   2.0000     -10.290023      -280.0058
  59   2.0000     -10.289688      -279.9966
  60   2.0000     -10.286534      -279.9108
  61   2.0000     -10.284734      -279.8618
  62   2.0000     -10.284283      -279.8496
  63   2.0000     -10.281530      -279.7747
  64   2.0000     -10.281203      -279.7658
  65   2.0000     -10.279091      -279.7083
  66   2.0000     -10.278718      -279.6981
  67   2.0000     -10.278287      -279.6864
  68   2.0000     -10.277468      -279.6641
  69   2.0000     -10.276549      -279.6391
  70   2.0000     -10.275328      -279.6059
  71   2.0000     -10.274846      -279.5928
  72   2.0000     -10.274162      -279.5742
  73   2.0000     -10.272042      -279.5165
  74   2.0000     -10.270504      -279.4746
  75   2.0000     -10.269504      -279.4474
  76   2.0000     -10.269297      -279.4418
  77   2.0000     -10.267296      -279.3873
  78   2.0000      -1.111281       -30.2395
  79   2.0000      -1.106983       -30.1225
  80   2.0000      -1.032009       -28.0824
  81   2.0000      -1.024908       -27.8892
  82   2.0000      -1.016119       -27.6500
  83   2.0000      -1.009208       -27.4619
  84   2.0000      -1.004594       -27.3364
  85   2.0000      -1.000228       -27.2176
  86   2.0000      -0.998150       -27.1610
  87   2.0000      -0.993370       -27.0310
  88   2.0000      -0.993016       -27.0213
  89   2.0000      -0.990226       -26.9454
  90   2.0000      -0.988593       -26.9010
  91   2.0000      -0.972449       -26.4617
  92   2.0000      -0.960701       -26.1420
  93   2.0000      -0.957402       -26.0522
  94   2.0000      -0.956215       -26.0199
  95   2.0000      -0.950090       -25.8533
  96   2.0000      -0.936316       -25.4785
  97   2.0000      -0.934788       -25.4369
  98   2.0000      -0.934493       -25.4289
  99   2.0000      -0.928928       -25.2774
 100   2.0000      -0.926459       -25.2102
 101   2.0000      -0.923702       -25.1352
 102   2.0000      -0.909831       -24.7578
 103   2.0000      -0.898128       -24.4393
 104   2.0000      -0.890848       -24.2412
 105   2.0000      -0.885460       -24.0946
 106   2.0000      -0.881751       -23.9937
 107   2.0000      -0.875133       -23.8136
 108   2.0000      -0.863564       -23.4988
 109   2.0000      -0.861357       -23.4387
 110   2.0000      -0.856496       -23.3064
 111   2.0000      -0.845529       -23.0080
 112   2.0000      -0.841870       -22.9084
 113   2.0000      -0.839596       -22.8466
 114   2.0000      -0.835504       -22.7352
 115   2.0000      -0.834963       -22.7205
 116   2.0000      -0.819687       -22.3048
 117   2.0000      -0.805251       -21.9120
 118   2.0000      -0.788687       -21.4613
 119   2.0000      -0.782043       -21.2805
 120   2.0000      -0.780957       -21.2509
 121   2.0000      -0.768104       -20.9012
 122   2.0000      -0.766374       -20.8541
 123   2.0000      -0.747807       -20.3489
 124   2.0000      -0.744487       -20.2585
 125   2.0000      -0.738128       -20.0855
 126   2.0000      -0.726874       -19.7792
 127   2.0000      -0.723142       -19.6777
 128   2.0000      -0.714327       -19.4378
 129   2.0000      -0.712697       -19.3935
 130   2.0000      -0.711795       -19.3689
 131   2.0000      -0.708948       -19.2915
 132   2.0000      -0.707560       -19.2537
 133   2.0000      -0.700448       -19.0601
 134   2.0000      -0.698882       -19.0176
 135   2.0000      -0.694141       -18.8885
 136   2.0000      -0.677618       -18.4389
 137   2.0000      -0.675859       -18.3911
 138   2.0000      -0.670119       -18.2349
 139   2.0000      -0.663178       -18.0460
 140   2.0000      -0.661730       -18.0066
 141   2.0000      -0.656852       -17.8739
 142   2.0000      -0.655490       -17.8368
 143   2.0000      -0.649081       -17.6624
 144   2.0000      -0.646165       -17.5830
 145   2.0000      -0.645177       -17.5561
 146   2.0000      -0.642763       -17.4905
 147   2.0000      -0.636531       -17.3209
 148   2.0000      -0.632500       -17.2112
 149   2.0000      -0.621994       -16.9253
 150   2.0000      -0.616687       -16.7809
 151   2.0000      -0.609870       -16.5954
 152   2.0000      -0.602100       -16.3840
 153   2.0000      -0.592669       -16.1274
 154   2.0000      -0.588764       -16.0211
 155   2.0000      -0.582083       -15.8393
 156   2.0000      -0.581290       -15.8177
 157   2.0000      -0.580641       -15.8000
 158   2.0000      -0.575825       -15.6690
 159   2.0000      -0.574781       -15.6406
 160   2.0000      -0.571969       -15.5641
 161   2.0000      -0.567688       -15.4476
 162   2.0000      -0.562752       -15.3133
 163   2.0000      -0.560568       -15.2538
 164   2.0000      -0.557111       -15.1598
 165   2.0000      -0.556294       -15.1375
 166   2.0000      -0.550145       -14.9702
 167   2.0000      -0.549213       -14.9448
 168   2.0000      -0.542716       -14.7681
 169   2.0000      -0.540313       -14.7027
 170   2.0000      -0.538598       -14.6560
 171   2.0000      -0.537902       -14.6371
 172   2.0000      -0.536298       -14.5934
 173   2.0000      -0.535434       -14.5699
 174   2.0000      -0.532186       -14.4815
 175   2.0000      -0.530649       -14.4397
 176   2.0000      -0.529990       -14.4218
 177   2.0000      -0.529392       -14.4055
 178   2.0000      -0.527965       -14.3667
 179   2.0000      -0.525963       -14.3122
 180   2.0000      -0.522637       -14.2217
 181   2.0000      -0.516195       -14.0464
 182   2.0000      -0.515320       -14.0226
 183   2.0000      -0.510162       -13.8822
 184   2.0000      -0.507586       -13.8121
 185   2.0000      -0.506891       -13.7932
 186   2.0000      -0.502848       -13.6832
 187   2.0000      -0.498759       -13.5719
 188   2.0000      -0.496889       -13.5210
 189   2.0000      -0.496280       -13.5045
 190   2.0000      -0.492097       -13.3906
 191   2.0000      -0.489887       -13.3305
 192   2.0000      -0.487979       -13.2786
 193   2.0000      -0.487334       -13.2610
 194   2.0000      -0.483780       -13.1643
 195   2.0000      -0.482038       -13.1169
 196   2.0000      -0.481143       -13.0926
 197   2.0000      -0.479244       -13.0409
 198   2.0000      -0.478119       -13.0103
 199   2.0000      -0.475749       -12.9458
 200   2.0000      -0.472808       -12.8658
 201   2.0000      -0.468682       -12.7535
 202   2.0000      -0.467475       -12.7207
 203   2.0000      -0.463484       -12.6120
 204   2.0000      -0.459301       -12.4982
 205   2.0000      -0.457538       -12.4503
 206   2.0000      -0.456970       -12.4348
 207   2.0000      -0.455768       -12.4021
 208   2.0000      -0.454719       -12.3735
 209   2.0000      -0.453848       -12.3498
 210   2.0000      -0.452615       -12.3163
 211   2.0000      -0.452289       -12.3074
 212   2.0000      -0.450995       -12.2722
 213   2.0000      -0.448655       -12.2085
 214   2.0000      -0.448346       -12.2001
 215   2.0000      -0.447514       -12.1775
 216   2.0000      -0.446732       -12.1562
 217   2.0000      -0.445788       -12.1305
 218   2.0000      -0.443586       -12.0706
 219   2.0000      -0.442156       -12.0317
 220   2.0000      -0.440667       -11.9912
 221   2.0000      -0.439959       -11.9719
 222   2.0000      -0.439192       -11.9510
 223   2.0000      -0.438416       -11.9299
 224   2.0000      -0.436098       -11.8668
 225   2.0000      -0.435838       -11.8598
 226   2.0000      -0.430403       -11.7119
 227   2.0000      -0.429102       -11.6764
 228   2.0000      -0.427174       -11.6240
 229   2.0000      -0.425804       -11.5867
 230   2.0000      -0.424393       -11.5483
 231   2.0000      -0.422477       -11.4962
 232   2.0000      -0.421146       -11.4600
 233   2.0000      -0.420277       -11.4363
 234   2.0000      -0.418954       -11.4003
 235   2.0000      -0.416281       -11.3276
 236   2.0000      -0.413323       -11.2471
 237   2.0000      -0.408752       -11.1227
 238   2.0000      -0.405670       -11.0388
 239   2.0000      -0.405519       -11.0347
 240   2.0000      -0.402532       -10.9534
 241   2.0000      -0.400091       -10.8870
 242   2.0000      -0.394505       -10.7350
 243   2.0000      -0.385127       -10.4798
 244   2.0000      -0.382448       -10.4070
 245   2.0000      -0.380093       -10.3428
 246   2.0000      -0.375617       -10.2211
 247   2.0000      -0.372105       -10.1255
 248   2.0000      -0.354601        -9.6492
 249   2.0000      -0.341064        -9.2808
 250   2.0000      -0.339633        -9.2419
 251   2.0000      -0.335669        -9.1340
 252   2.0000      -0.332985        -9.0610
 253   2.0000      -0.330608        -8.9963
 254   2.0000      -0.324558        -8.8317
 255   2.0000      -0.317961        -8.6522
 256   2.0000      -0.309770        -8.4293
 257   2.0000      -0.308661        -8.3991
 258   2.0000      -0.304925        -8.2974
 259   2.0000      -0.297432        -8.0935
 260   2.0000      -0.256022        -6.9667
 261   2.0000      -0.253274        -6.8919
 262   2.0000      -0.226240        -6.1563
 263   0.0000      -0.100867        -2.7447
 264   0.0000      -0.095846        -2.6081
 265   0.0000      -0.085522        -2.3272
 266   0.0000      -0.079874        -2.1735
 267   0.0000      -0.071775        -1.9531

MULLIKEN ATOMIC CHARGES
-----------------------
   0 C :   -0.036552
   1 C :    0.047175
   2 C :    0.044472
   3 C :   -0.034915
   4 C :   -0.005353
   5 C :    0.009025
   6 C :    0.311860
   7 C :   -0.366909
   8 C :   -0.189109
   9 N :    0.149430
  10 C :   -0.178670
  11 N :    0.137486
  12 C :   -0.084064
  13 C :    0.248262
  14 C :   -0.348957
  15 C :   -0.203330
  16 N :    0.164053
  17 C :   -0.183020
  18 N :    0.151791
  19 C :    0.008416
  20 C :    0.069794
  21 N :   -0.159044
  22 C :    0.070854
  23 C :    0.017303
  24 C :    0.155020
  25 C :   -0.044323
  26 C :    0.027592
  27 C :    0.014282
  28 C :   -0.012111
  29 C :    0.117132
  30 C :   -0.084897
  31 C :    0.035793
  32 C :   -0.035715
  33 C :   -0.077103
  34 C :    0.142900
  35 N :   -0.211598
  36 C :    0.162559
  37 N :   -0.229237
  38 C :    0.146817
  39 C :   -0.142699
  40 C :    0.126567
  41 C :   -0.041268
  42 C :    0.022804
  43 C :    0.005971
  44 C :    0.034776
  45 C :    0.004169
  46 C :   -0.015393
  47 C :   -0.046652
  48 C :    0.016052
  49 C :    0.131560
  50 N :   -0.160577
  51 C :    0.060870
  52 C :    0.016828
  53 C :    0.097665
  54 C :   -0.002010
  55 C :   -0.037276
  56 C :    0.051012
  57 C :   -0.018096
  58 C :    0.038926
  59 C :   -0.071135
  60 C :    0.306880
  61 C :   -0.361284
  62 C :   -0.180905
  63 N :    0.153686
  64 C :   -0.188150
  65 N :    0.151228
  66 C :    0.014393
  67 C :   -0.001218
  68 C :   -0.037361
  69 C :    0.047016
  70 C :    0.044975
  71 C :   -0.035312
  72 C :    0.240011
  73 C :   -0.372638
  74 C :   -0.176231
  75 N :    0.148760
  76 C :   -0.202560
  77 N :    0.173818
  78 H :    0.002783
  79 H :   -0.000834
  80 H :    0.000775
  81 H :    0.002425
  82 H :    0.008813
  83 H :    0.036207
  84 H :    0.042100
  85 H :    0.020105
  86 H :    0.030736
  87 H :    0.037113
  88 H :   -0.016042
  89 H :   -0.000166
  90 H :   -0.012255
  91 H :   -0.018693
  92 H :   -0.040581
  93 H :   -0.013037
  94 H :   -0.007059
  95 H :   -0.014534
  96 H :    0.094426
  97 H :    0.091374
  98 H :   -0.026304
  99 H :   -0.006397
 100 H :    0.099828
 101 H :    0.093393
 102 H :   -0.010561
 103 H :    0.024016
 104 H :   -0.012905
 105 H :   -0.032443
 106 H :   -0.036903
 107 H :   -0.028167
 108 H :    0.019520
 109 H :   -0.024141
 110 H :    0.034179
 111 H :    0.032027
 112 H :    0.018044
 113 H :    0.038950
 114 H :    0.035483
 115 H :   -0.010077
 116 H :   -0.017556
 117 H :    0.004646
 118 H :   -0.006550
 119 H :    0.016474
 120 H :    0.000194
 121 H :    0.000629
 122 H :    0.002643
 123 H :    0.004011
Sum of atomic charges:   -0.0000000

LOEWDIN ATOMIC CHARGES
----------------------
   0 C :    0.002717
   1 C :   -0.002671
   2 C :   -0.000155
   3 C :   -0.001355
   4 C :   -0.010834
   5 C :   -0.013930
   6 C :    0.080158
   7 C :   -0.153251
   8 C :   -0.020452
   9 N :   -0.059632
  10 C :   -0.014506
  11 N :   -0.066016
  12 C :   -0.083910
  13 C :    0.066886
  14 C :   -0.146152
  15 C :   -0.015389
  16 N :   -0.055617
  17 C :   -0.022068
  18 N :   -0.058080
  19 C :    0.046996
  20 C :   -0.026687
  21 N :    0.085112
  22 C :    0.041106
  23 C :   -0.059061
  24 C :    0.039447
  25 C :   -0.049940
  26 C :   -0.002413
  27 C :   -0.041418
  28 C :    0.017696
  29 C :   -0.036806
  30 C :   -0.000090
  31 C :   -0.023361
  32 C :   -0.027059
  33 C :   -0.041088
  34 C :    0.024619
  35 N :   -0.117640
  36 C :    0.030266
  37 N :   -0.121919
  38 C :   -0.006697
  39 C :    0.065801
  40 C :   -0.028487
  41 C :   -0.035152
  42 C :   -0.013299
  43 C :   -0.032215
  44 C :   -0.030611
  45 C :   -0.009045
  46 C :   -0.026736
  47 C :    0.023778
  48 C :   -0.055121
  49 C :    0.017489
  50 N :    0.076694
  51 C :    0.039408
  52 C :   -0.058669
  53 C :   -0.025216
  54 C :   -0.013231
  55 C :   -0.054063
  56 C :    0.045912
  57 C :   -0.057235
  58 C :    0.061356
  59 C :   -0.082785
  60 C :    0.078868
  61 C :   -0.141321
  62 C :   -0.023242
  63 N :   -0.049996
  64 C :   -0.018813
  65 N :   -0.054230
  66 C :   -0.012011
  67 C :   -0.013396
  68 C :   -0.003341
  69 C :    0.000007
  70 C :   -0.000348
  71 C :    0.003935
  72 C :    0.068010
  73 C :   -0.156985
  74 C :   -0.021899
  75 N :   -0.062784
  76 C :   -0.020110
  77 N :   -0.044216
  78 H :    0.040646
  79 H :    0.035658
  80 H :    0.035876
  81 H :    0.039850
  82 H :    0.042671
  83 H :    0.032905
  84 H :    0.036711
  85 H :    0.026495
  86 H :    0.036062
  87 H :    0.030011
  88 H :    0.028463
  89 H :    0.032599
  90 H :    0.029272
  91 H :    0.029797
  92 H :    0.022720
  93 H :    0.026477
  94 H :    0.003468
  95 H :    0.009564
  96 H :    0.055081
  97 H :    0.055183
  98 H :   -0.003212
  99 H :    0.015305
 100 H :    0.053032
 101 H :    0.056161
 102 H :    0.027010
 103 H :    0.052706
 104 H :    0.024670
 105 H :    0.031034
 106 H :    0.027791
 107 H :    0.025375
 108 H :    0.033271
 109 H :    0.027002
 110 H :    0.030245
 111 H :    0.030540
 112 H :    0.027092
 113 H :    0.036291
 114 H :    0.033022
 115 H :    0.031589
 116 H :    0.028515
 117 H :    0.032615
 118 H :    0.035595
 119 H :    0.048519
 120 H :    0.038732
 121 H :    0.036096
 122 H :    0.036863
 123 H :    0.041120

  Mayer bond orders larger than 0.100000
B(  0-C ,  1-C ) :   1.3634 B(  0-C ,  5-C ) :   1.3877 B(  0-C , 78-H ) :   0.9823
B(  1-C ,  2-C ) :   1.3861 B(  1-C , 79-H ) :   0.9854 B(  2-C ,  3-C ) :   1.3559
B(  2-C , 80-H ) :   0.9861 B(  3-C ,  4-C ) :   1.3909 B(  3-C , 81-H ) :   0.9862
B(  4-C ,  5-C ) :   1.3177 B(  4-C , 13-C ) :   0.9980 B(  5-C ,  6-C ) :   0.9851
B(  6-C ,  7-C ) :   1.5853 B(  6-C , 12-C ) :   1.1177 B(  7-C ,  8-C ) :   1.1523
B(  7-C , 10-C ) :   1.1539 B(  8-C ,  9-N ) :   2.9705 B( 10-C , 11-N ) :   2.9509
B( 12-C , 13-C ) :   1.0660 B( 12-C , 19-C ) :   1.4662 B( 13-C , 14-C ) :   1.6108
B( 14-C , 15-C ) :   1.1599 B( 14-C , 17-C ) :   1.1444 B( 15-C , 16-N ) :   3.0016
B( 17-C , 18-N ) :   2.9853 B( 19-C , 20-C ) :   1.2307 B( 19-C , 82-H ) :   0.9162
B( 20-C , 21-N ) :   1.1376 B( 20-C , 26-C ) :   1.2839 B( 21-N , 22-C ) :   0.9442
B( 21-N , 24-C ) :   1.2515 B( 22-C , 23-C ) :   1.1149 B( 22-C , 83-H ) :   0.9440
B( 22-C , 84-H ) :   0.9412 B( 23-C , 85-H ) :   0.9595 B( 23-C , 86-H ) :   0.9644
B( 23-C , 87-H ) :   0.9552 B( 24-C , 25-C ) :   1.2994 B( 24-C , 27-C ) :   1.0992
B( 25-C , 26-C ) :   1.4534 B( 25-C , 88-H ) :   1.0069 B( 26-C , 89-H ) :   1.0029
B( 27-C , 28-C ) :   1.6696 B( 27-C , 90-H ) :   0.9529 B( 28-C , 29-C ) :   1.0806
B( 28-C , 91-H ) :   0.9888 B( 29-C , 30-C ) :   1.5097 B( 29-C , 46-C ) :   1.1084
B( 30-C , 31-C ) :   1.1529 B( 30-C , 92-H ) :   0.9837 B( 31-C , 32-C ) :   1.4855
B( 31-C , 44-C ) :   1.1163 B( 32-C , 33-C ) :   1.0299 B( 32-C , 38-C ) :   1.0899
B( 33-C , 34-C ) :   1.0449 B( 33-C , 36-C ) :   1.0431 B( 33-C , 93-H ) :   0.8839
B( 34-C , 35-N ) :   1.1017 B( 34-C , 94-H ) :   0.9364 B( 34-C , 95-H ) :   0.9305
B( 35-N , 96-H ) :   0.9685 B( 35-N , 97-H ) :   0.9671 B( 36-C , 37-N ) :   1.0961
B( 36-C , 98-H ) :   0.9307 B( 36-C , 99-H ) :   0.9373 B( 37-N ,100-H ) :   0.9646
B( 37-N ,101-H ) :   0.9652 B( 38-C , 39-C ) :   1.6332 B( 38-C , 43-C ) :   1.0551
B( 39-C , 40-C ) :   0.9726 B( 39-C ,102-H ) :   0.9755 B( 40-C , 41-C ) :   0.9845
B( 40-C , 47-C ) :   0.9595 B( 40-C ,103-H ) :   0.8728 B( 41-C , 42-C ) :   1.7073
B( 41-C ,104-H ) :   0.9754 B( 42-C , 43-C ) :   1.1277 B( 42-C ,105-H ) :   0.9898
B( 43-C , 44-C ) :   1.4423 B( 44-C , 45-C ) :   1.1373 B( 45-C , 46-C ) :   1.6121
B( 45-C ,106-H ) :   0.9898 B( 46-C ,107-H ) :   0.9892 B( 47-C , 48-C ) :   1.7910
B( 47-C ,108-H ) :   0.9692 B( 48-C , 49-C ) :   1.0556 B( 48-C ,109-H ) :   0.9609
B( 49-C , 50-N ) :   1.2364 B( 49-C , 55-C ) :   1.3591 B( 50-N , 51-C ) :   0.9601
B( 50-N , 53-C ) :   1.1329 B( 51-C , 52-C ) :   1.1092 B( 51-C ,110-H ) :   0.9419
B( 51-C ,111-H ) :   0.9437 B( 52-C ,112-H ) :   0.9598 B( 52-C ,113-H ) :   0.9633
B( 52-C ,114-H ) :   0.9581 B( 53-C , 54-C ) :   1.3371 B( 53-C , 56-C ) :   1.2325
B( 54-C , 55-C ) :   1.4080 B( 54-C ,115-H ) :   1.0038 B( 55-C ,116-H ) :   1.0040
B( 56-C , 57-C ) :   1.5104 B( 56-C ,117-H ) :   0.9402 B( 57-C , 58-C ) :   1.3004
B( 57-C ,118-H ) :   0.9592 B( 58-C , 59-C ) :   1.4762 B( 58-C ,119-H ) :   0.9238
B( 59-C , 60-C ) :   1.0893 B( 59-C , 72-C ) :   1.0577 B( 60-C , 61-C ) :   1.6097
B( 60-C , 66-C ) :   0.9871 B( 61-C , 62-C ) :   1.1400 B( 61-C , 64-C ) :   1.1523
B( 62-C , 63-N ) :   2.9658 B( 64-C , 65-N ) :   2.9712 B( 66-C , 67-C ) :   1.3161
B( 66-C , 71-C ) :   1.3852 B( 67-C , 68-C ) :   1.3829 B( 67-C , 72-C ) :   1.0097
B( 68-C , 69-C ) :   1.3611 B( 68-C ,120-H ) :   0.9866 B( 69-C , 70-C ) :   1.3820
B( 69-C ,121-H ) :   0.9865 B( 70-C , 71-C ) :   1.3658 B( 70-C ,122-H ) :   0.9863
B( 71-C ,123-H ) :   0.9840 B( 72-C , 73-C ) :   1.5880 B( 73-C , 74-C ) :   1.1451
B( 73-C , 76-C ) :   1.1858 B( 74-C , 75-N ) :   2.9578 B( 76-C , 77-N ) :   2.9450

-----------------------------------------------------------------------------
         ABSORPTION SPECTRUM VIA TRANSITION ELECTRIC DIPOLE MOMENTS
-----------------------------------------------------------------------------
State   Energy  Wavelength   fosc         T2         TX        TY        TZ
        (cm-1)    (nm)                  (au**2)     (au)      (au)      (au)
-----------------------------------------------------------------------------
   0   13151.2    760.4   0.279779759   7.00370  -0.73722   0.58101   2.47440
   1   16002.7    624.9   1.210610474  24.90503   1.67777  -1.28763  -4.52019
   2   16543.3    604.5   0.628547488  12.50811   0.01194  -2.68836  -2.29797
   3   18408.5    543.2   0.036621316   0.65493   0.56223   0.57171  -0.10939
   4   18904.6    529.0   0.270517825   4.71090  -1.40332  -1.33564  -0.97860
   5   20061.8    498.5   0.399082866   6.54892  -0.00131  -0.65945  -2.47266
   6   20132.8    496.7   0.058337263   0.95393  -0.11743   0.30541  -0.92026
   7   23728.8    421.4   0.020291750   0.28153   0.13057   0.05420   0.51141
   8   24448.4    409.0   0.014831160   0.19971   0.02700   0.19992   0.39876
   9   24838.1    402.6   0.072248588   0.95760  -0.49172  -0.47145  -0.70253
  10   25430.0    393.2   0.163137723   2.11195  -0.79260   0.14165   1.20982
  11   26654.5    375.2   0.080773597   0.99764  -0.24499   0.28919   0.92412
  12   27237.0    367.1   0.172681725   2.08719  -0.31157   0.58211   1.28502
  13   27748.3    360.4   0.067727344   0.80353   0.00530  -0.43208  -0.78537
  14   28229.8    354.2   0.003532434   0.04119  -0.01681   0.14708   0.13885
  15   28596.6    349.7   0.054684814   0.62955   0.28707   0.47081   0.57051
  16   29327.5    341.0   0.395290508   4.43728  -0.07623   1.08563   1.80357
  17   30570.0    327.1   0.322872710   3.47706  -1.01212  -0.42546  -1.50720
  18   30620.7    326.6   0.019974602   0.21475  -0.38865   0.04540  -0.24827
  19   30834.3    324.3   0.019061284   0.20351   0.37719  -0.04892  -0.24258
  20   30872.1    323.9   0.364856332   3.89073  -1.64223  -0.89215  -0.63078
  21   31240.9    320.1   0.001015725   0.01070   0.01859   0.10158  -0.00626
  22   32159.1    311.0   0.552600983   5.65696  -0.96245   0.43620   2.13082
  23   32836.1    304.5   0.045234845   0.45352   0.50050   0.44475  -0.07230
  24   32983.1    303.2   0.306493909   3.05919   0.61047   0.88980   1.37651
  25   33085.6    302.2   0.000051450   0.00051  -0.02168  -0.00303   0.00574
  26   33283.1    300.5   0.081680758   0.80793   0.61225   0.20489   0.62538
  27   33556.3    298.0   0.356744371   3.49992  -1.70267  -0.64826  -0.42497
  28   33623.6    297.4   0.032781697   0.32097   0.50312  -0.13765   0.22111
  29   34226.3    292.2   0.046643664   0.44865  -0.56013   0.35310  -0.10110
  30   34478.1    290.0   0.066587405   0.63581  -0.71720   0.34847   0.00062
  31   34661.1    288.5   0.219607519   2.08584   0.61108  -0.54131  -1.19139
  32   35364.5    282.8   0.151247398   1.40798   0.15077   0.18361  -1.16255
  33   35776.2    279.5   0.075424540   0.69406   0.18792   0.08495  -0.80717
  34   35991.2    277.8   0.063255665   0.57860   0.22758  -0.08645   0.72065
  35   36124.4    276.8   0.002922718   0.02664   0.06115  -0.02160   0.14977
  36   36357.2    275.0   0.017138251   0.15519  -0.04520  -0.39046   0.02620
  37   36744.9    272.1   0.034930606   0.31296  -0.37629   0.41345  -0.02050
  38   36940.2    270.7   0.162059134   1.44427  -1.00182   0.49864  -0.43817
  39   37135.9    269.3   0.023095215   0.20474   0.08589  -0.31413  -0.31414
  40   37445.3    267.1   0.155407987   1.36632  -0.19567   0.50607   1.03534
  41   37518.5    266.5   0.012901062   0.11320   0.09542  -0.00835  -0.32253
  42   38074.3    262.6   0.005936789   0.05133  -0.01241   0.14054   0.17728
  43   38220.0    261.6   0.001339823   0.01154  -0.07554  -0.01771  -0.07430
  44   38530.4    259.5   0.043858060   0.37473   0.01639  -0.21378  -0.57338
  45   39749.3    251.6   0.089163993   0.73847  -0.08181   0.25776  -0.81569
  46   39986.4    250.1   0.000543619   0.00448   0.05628   0.00361  -0.03599
  47   40080.4    249.5   0.038085593   0.31283  -0.35853  -0.14094   0.40549

FINAL SINGLE POINT ENERGY     -3195.330431996625

DIPOLE MOMENT
-------------
                                X             Y             Z
Electronic contribution:     14.24964     -11.70291       4.71609
Nuclear contribution   :    -15.63241      15.20078      -5.53687
                        -----------------------------------------
Total Dipole Moment    :     -1.38277       3.49786      -0.82078
                        -----------------------------------------
Magnitude (a.u.)       :      3.84978
Magnitude (Debye)      :      9.78536

Rotational constants in cm-1:     0.002846     0.000154     0.000151
Rotational constants in MHz :    85.335730     4.620230     4.535969

                             ****ORCA TERMINATED NORMALLY****
TOTAL RUN TIME: 0 days 0 hours 16 minutes 57 seconds 798 msec
