                         Program Version 4.2.0 -  RELEASE  -
|  1> # ORCA input file
|  2> # SCF done       -204.841187940689          0.000755620358
|  3> ! CAM-B3LYP def2-SVP def2/J RIJCOSX Grid4 TightSCF
|  4> %maxcore 5000
|  5> %tddft
|  6>     Mode sTDDFT
|  7>     Ethresh 5.0
|  8>     maxcore 5000
|  9> end
| 10>
| 11> %pal
| 12>   nprocs 6
| 13>   end
| 14> * xyz 0 1
| 15>    C        0.39038        -3.67036        -3.94796
| 16>    C       -0.53879        -4.47283        -4.56003
| 17>    C       -1.28843        -4.08962        -5.69023
| 18>    N       -1.94140        -3.81628        -6.59400
| 19>    C       -0.78381        -5.80603        -4.17556
| 20>    N       -0.98825        -6.90500        -3.91477
| 21>    C        0.88972        -2.40436        -4.48543
| 22>    C        2.12820        -2.11506        -3.88469
| 23>    C        2.85700        -0.99598        -4.23040
| 24>    C        2.33186        -0.13747        -5.18904
| 25>    C        1.09417        -0.41168        -5.78093
| 26>    C        0.36747        -1.54743        -5.43851
| 27>   Cl        0.45076         0.66656        -6.95209
| 28>   Cl        3.20796         1.26756        -5.64428
| 29>    C        2.44400        -3.15706        -2.88203
| 30>    O        3.44285        -3.26055        -2.20885
| 31>    C        1.24067        -4.02833        -2.83786
| 32>    C        1.10352        -4.89860        -1.79270
| 33>    C       -0.04521        -5.52715        -1.27778
| 34>    S        0.14732        -6.81510        -0.11535
| 35>    C       -1.56323        -6.96417         0.08788
| 36>    C       -2.23649        -6.03376        -0.69290
| 37>    C       -1.39380        -5.24199        -1.45469
| 38>    C       -2.12333        -7.92154         0.97183
| 39>    C       -3.45817        -8.18677         1.21519
| 40>    C       -3.66028        -9.17293         2.17687
| 41>    C       -2.48668        -9.68711         2.69190
| 42>    S       -1.10437        -8.93417         1.95515
| 43>    C       -2.31734       -10.66175         3.70970
| 44>    S       -3.67106       -11.36249         4.54561
| 45>    C       -2.61790       -12.28543         5.58010
| 46>    C       -1.29585       -12.05707         5.25309
| 47>    C       -1.12721       -11.15198         4.20934
| 48>    C       -3.16305       -13.08571         6.62711
| 49>    C       -2.42468       -13.69471         7.57317
| 50>    C       -2.98650       -14.41520         8.69378
| 51>    N       -2.11178       -14.76392         9.64405
| 52>    C       -2.59648       -15.34470        10.72530
| 53>    C       -3.94779       -15.59330        10.88848
| 54>    C       -4.78570       -15.24601         9.81815
| 55>    N       -4.29393       -14.65648         8.72950
| 56>    C       -6.20317       -15.53183         9.87877
| 57>    C       -7.00468       -15.54891         8.79881
| 58>    C       -8.39722       -15.86207         8.84825
| 59>    S       -9.23869       -16.38228         7.41758
| 60>    C      -10.71833       -16.59443         8.30281
| 61>    C      -10.54920       -16.24542         9.62856
| 62>    C       -9.24980       -15.84584         9.93245
| 63>    C      -11.89883       -17.10949         7.69841
| 64>    C      -13.16345       -17.16857         8.25180
| 65>    C      -14.09759       -17.79398         7.43173
| 66>    C      -13.57097       -18.23337         6.23346
| 67>    S      -11.87846       -17.83680         6.11999
| 68>    C      -14.23415       -18.95657         5.21135
| 69>    S      -15.90554       -19.39012         5.37063
| 70>    C      -15.87803       -20.25184         3.85130
| 71>    C      -14.61911       -20.16960         3.27194
| 72>    C      -13.70649       -19.44821         4.02743
| 73>    C      -17.03858       -20.92044         3.41180
| 74>    C      -17.12457       -21.69401         2.29057
| 75>    C      -18.31564       -22.36309         1.95635
| 76>    C      -18.47462       -23.19958         0.88080
| 77>    C      -19.67247       -23.92968         0.52156
| 78>    C      -20.88937       -23.89687         1.15350
| 79>    C      -22.01606       -24.64076         0.74348
| 80>    N      -22.97198       -25.21519         0.47113
| 81>    C      -21.20700       -23.12547         2.29092
| 82>    N      -21.55108       -22.53180         3.21218
| 83>    C      -19.36280       -24.72743        -0.66455
| 84>    C      -18.03045       -24.48657        -1.04053
| 85>    C      -17.41537       -23.52296        -0.10077
| 86>    O      -16.27688       -23.10547        -0.14518
| 87>    C      -17.45842       -25.10437        -2.13325
| 88>    C      -18.23426       -25.98994        -2.87082
| 89>    C      -19.56011       -26.24001        -2.50166
| 90>    C      -20.13314       -25.61276        -1.40067
| 91>   Cl      -20.50753       -27.34196        -3.41753
| 92>   Cl      -17.55985       -26.77992        -4.23842
| 93>    H        3.80977        -0.79438        -3.76697
| 94>    H       -0.58365        -1.72789        -5.91263
| 95>    H        2.01743        -5.05880        -1.22757
| 96>    H       -3.30698        -5.94306        -0.70000
| 97>    H       -1.74362        -4.44170        -2.08221
| 98>    H       -4.25729        -7.67769         0.70842
| 99>    H       -4.62805        -9.51050         2.50282
|100>    H       -0.47768       -12.53430         5.75989
|101>    H       -0.17163       -10.84520         3.82161
|102>    H       -4.24003       -13.16750         6.67748
|103>    H       -1.34796       -13.62437         7.58766
|104>    H       -1.87141       -15.61145        11.48453
|105>    H       -4.33910       -16.05318        11.78132
|106>    H       -6.58919       -15.78795        10.85553
|107>    H       -6.56946       -15.35683         7.82788
|108>    H      -11.34023       -16.30025        10.35386
|109>    H       -8.94110       -15.53534        10.91403
|110>    H      -13.39789       -16.76481         9.21935
|111>    H      -15.13099       -17.93772         7.69347
|112>    H      -14.38310       -20.62722         2.32862
|113>    H      -12.68152       -19.28173         3.74592
|114>    H      -17.91608       -20.81745         4.03934
|115>    H      -16.26947       -21.82337         1.64634
|116>    H      -19.15737       -22.20760         2.61898
|117>    H      -16.43426       -24.90306        -2.40496
|118>    H      -21.15734       -25.83196        -1.14776
|119> *
|120>
|121>                          ****END OF INPUT****

CARTESIAN COORDINATES (ANGSTROEM)
---------------------------------
  C      0.390380   -3.670360   -3.947960
  C     -0.538790   -4.472830   -4.560030
  C     -1.288430   -4.089620   -5.690230
  N     -1.941400   -3.816280   -6.594000
  C     -0.783810   -5.806030   -4.175560
  N     -0.988250   -6.905000   -3.914770
  C      0.889720   -2.404360   -4.485430
  C      2.128200   -2.115060   -3.884690
  C      2.857000   -0.995980   -4.230400
  C      2.331860   -0.137470   -5.189040
  C      1.094170   -0.411680   -5.780930
  C      0.367470   -1.547430   -5.438510
  Cl     0.450760    0.666560   -6.952090
  Cl     3.207960    1.267560   -5.644280
  C      2.444000   -3.157060   -2.882030
  O      3.442850   -3.260550   -2.208850
  C      1.240670   -4.028330   -2.837860
  C      1.103520   -4.898600   -1.792700
  C     -0.045210   -5.527150   -1.277780
  S      0.147320   -6.815100   -0.115350
  C     -1.563230   -6.964170    0.087880
  C     -2.236490   -6.033760   -0.692900
  C     -1.393800   -5.241990   -1.454690
  C     -2.123330   -7.921540    0.971830
  C     -3.458170   -8.186770    1.215190
  C     -3.660280   -9.172930    2.176870
  C     -2.486680   -9.687110    2.691900
  S     -1.104370   -8.934170    1.955150
  C     -2.317340  -10.661750    3.709700
  S     -3.671060  -11.362490    4.545610
  C     -2.617900  -12.285430    5.580100
  C     -1.295850  -12.057070    5.253090
  C     -1.127210  -11.151980    4.209340
  C     -3.163050  -13.085710    6.627110
  C     -2.424680  -13.694710    7.573170
  C     -2.986500  -14.415200    8.693780
  N     -2.111780  -14.763920    9.644050
  C     -2.596480  -15.344700   10.725300
  C     -3.947790  -15.593300   10.888480
  C     -4.785700  -15.246010    9.818150
  N     -4.293930  -14.656480    8.729500
  C     -6.203170  -15.531830    9.878770
  C     -7.004680  -15.548910    8.798810
  C     -8.397220  -15.862070    8.848250
  S     -9.238690  -16.382280    7.417580
  C    -10.718330  -16.594430    8.302810
  C    -10.549200  -16.245420    9.628560
  C     -9.249800  -15.845840    9.932450
  C    -11.898830  -17.109490    7.698410
  C    -13.163450  -17.168570    8.251800
  C    -14.097590  -17.793980    7.431730
  C    -13.570970  -18.233370    6.233460
  S    -11.878460  -17.836800    6.119990
  C    -14.234150  -18.956570    5.211350
  S    -15.905540  -19.390120    5.370630
  C    -15.878030  -20.251840    3.851300
  C    -14.619110  -20.169600    3.271940
  C    -13.706490  -19.448210    4.027430
  C    -17.038580  -20.920440    3.411800
  C    -17.124570  -21.694010    2.290570
  C    -18.315640  -22.363090    1.956350
  C    -18.474620  -23.199580    0.880800
  C    -19.672470  -23.929680    0.521560
  C    -20.889370  -23.896870    1.153500
  C    -22.016060  -24.640760    0.743480
  N    -22.971980  -25.215190    0.471130
  C    -21.207000  -23.125470    2.290920
  N    -21.551080  -22.531800    3.212180
  C    -19.362800  -24.727430   -0.664550
  C    -18.030450  -24.486570   -1.040530
  C    -17.415370  -23.522960   -0.100770
  O    -16.276880  -23.105470   -0.145180
  C    -17.458420  -25.104370   -2.133250
  C    -18.234260  -25.989940   -2.870820
  C    -19.560110  -26.240010   -2.501660
  C    -20.133140  -25.612760   -1.400670
  Cl   -20.507530  -27.341960   -3.417530
  Cl   -17.559850  -26.779920   -4.238420
  H      3.809770   -0.794380   -3.766970
  H     -0.583650   -1.727890   -5.912630
  H      2.017430   -5.058800   -1.227570
  H     -3.306980   -5.943060   -0.700000
  H     -1.743620   -4.441700   -2.082210
  H     -4.257290   -7.677690    0.708420
  H     -4.628050   -9.510500    2.502820
  H     -0.477680  -12.534300    5.759890
  H     -0.171630  -10.845200    3.821610
  H     -4.240030  -13.167500    6.677480
  H     -1.347960  -13.624370    7.587660
  H     -1.871410  -15.611450   11.484530
  H     -4.339100  -16.053180   11.781320
  H     -6.589190  -15.787950   10.855530
  H     -6.569460  -15.356830    7.827880
  H    -11.340230  -16.300250   10.353860
  H     -8.941100  -15.535340   10.914030
  H    -13.397890  -16.764810    9.219350
  H    -15.130990  -17.937720    7.693470
  H    -14.383100  -20.627220    2.328620
  H    -12.681520  -19.281730    3.745920
  H    -17.916080  -20.817450    4.039340
  H    -16.269470  -21.823370    1.646340
  H    -19.157370  -22.207600    2.618980
  H    -16.434260  -24.903060   -2.404960
  H    -21.157340  -25.831960   -1.147760

 Total Charge           Charge          ....    0
 Multiplicity           Mult            ....    1
 Number of Electrons    NEL             ....  608
 Basis Dimension        Dim             .... 1262

ORBITAL ENERGIES
----------------

  NO   OCC          E(Eh)            E(eV)
   0   2.0000    -101.599196     -2764.6547
   1   2.0000    -101.598520     -2764.6363
   2   2.0000    -101.598440     -2764.6341
   3   2.0000    -101.596627     -2764.5848
   4   2.0000     -88.974720     -2421.1252
   5   2.0000     -88.973960     -2421.1045
   6   2.0000     -88.973434     -2421.0902
   7   2.0000     -88.970432     -2421.0085
   8   2.0000     -88.969693     -2420.9884
   9   2.0000     -88.965150     -2420.8648
  10   2.0000     -19.218855      -522.9716
  11   2.0000     -19.217344      -522.9305
  12   2.0000     -14.417233      -392.3129
  13   2.0000     -14.417128      -392.3100
  14   2.0000     -14.416021      -392.2799
  15   2.0000     -14.413813      -392.2198
  16   2.0000     -14.408070      -392.0635
  17   2.0000     -14.404063      -391.9545
  18   2.0000     -10.369657      -282.1727
  19   2.0000     -10.368850      -282.1508
  20   2.0000     -10.355320      -281.7826
  21   2.0000     -10.354601      -281.7630
  22   2.0000     -10.353952      -281.7454
  23   2.0000     -10.353492      -281.7328
  24   2.0000     -10.345195      -281.5071
  25   2.0000     -10.344532      -281.4890
  26   2.0000     -10.342489      -281.4334
  27   2.0000     -10.341820      -281.4152
  28   2.0000     -10.341075      -281.3949
  29   2.0000     -10.332153      -281.1522
  30   2.0000     -10.331122      -281.1241
  31   2.0000     -10.329468      -281.0791
  32   2.0000     -10.324558      -280.9455
  33   2.0000     -10.323204      -280.9087
  34   2.0000     -10.322314      -280.8844
  35   2.0000     -10.321843      -280.8716
  36   2.0000     -10.320655      -280.8393
  37   2.0000     -10.319998      -280.8214
  38   2.0000     -10.319773      -280.8153
  39   2.0000     -10.319331      -280.8033
  40   2.0000     -10.319150      -280.7983
  41   2.0000     -10.317566      -280.7552
  42   2.0000     -10.316787      -280.7340
  43   2.0000     -10.316754      -280.7332
  44   2.0000     -10.316742      -280.7328
  45   2.0000     -10.315441      -280.6974
  46   2.0000     -10.315398      -280.6962
  47   2.0000     -10.315224      -280.6915
  48   2.0000     -10.314514      -280.6722
  49   2.0000     -10.312907      -280.6285
  50   2.0000     -10.312581      -280.6196
  51   2.0000     -10.308532      -280.5094
  52   2.0000     -10.308457      -280.5074
  53   2.0000     -10.308317      -280.5036
  54   2.0000     -10.307010      -280.4680
  55   2.0000     -10.306328      -280.4494
  56   2.0000     -10.300572      -280.2928
  57   2.0000     -10.300438      -280.2892
  58   2.0000     -10.298620      -280.2397
  59   2.0000     -10.297707      -280.2148
  60   2.0000     -10.296377      -280.1787
  61   2.0000     -10.296213      -280.1742
  62   2.0000     -10.294445      -280.1261
  63   2.0000     -10.293143      -280.0907
  64   2.0000     -10.292953      -280.0855
  65   2.0000     -10.292389      -280.0701
  66   2.0000     -10.290034      -280.0061
  67   2.0000     -10.290021      -280.0057
  68   2.0000     -10.288642      -279.9682
  69   2.0000     -10.288107      -279.9536
  70   2.0000     -10.287112      -279.9265
  71   2.0000     -10.286486      -279.9095
  72   2.0000     -10.285168      -279.8737
  73   2.0000     -10.284290      -279.8497
  74   2.0000     -10.283549      -279.8296
  75   2.0000     -10.282924      -279.8126
  76   2.0000     -10.280893      -279.7573
  77   2.0000     -10.271967      -279.5144
  78   2.0000      -9.554180      -259.9825
  79   2.0000      -9.553563      -259.9657
  80   2.0000      -9.553455      -259.9627
  81   2.0000      -9.551658      -259.9138
  82   2.0000      -8.070503      -219.6096
  83   2.0000      -8.069649      -219.5863
  84   2.0000      -8.069288      -219.5765
  85   2.0000      -8.066092      -219.4895
  86   2.0000      -8.065521      -219.4740
  87   2.0000      -8.060686      -219.3424
  88   2.0000      -7.324576      -199.3119
  89   2.0000      -7.323942      -199.2946
  90   2.0000      -7.323860      -199.2924
  91   2.0000      -7.322024      -199.2424
  92   2.0000      -7.314436      -199.0359
  93   2.0000      -7.313824      -199.0193
  94   2.0000      -7.313718      -199.0164
  95   2.0000      -7.313705      -199.0160
  96   2.0000      -7.313101      -198.9996
  97   2.0000      -7.312986      -198.9965
  98   2.0000      -7.311922      -198.9675
  99   2.0000      -7.311209      -198.9481
 100   2.0000      -6.039733      -164.3495
 101   2.0000      -6.038976      -164.3289
 102   2.0000      -6.038516      -164.3164
 103   2.0000      -6.035706      -164.2399
 104   2.0000      -6.035429      -164.2324
 105   2.0000      -6.034893      -164.2178
 106   2.0000      -6.034703      -164.2126
 107   2.0000      -6.034412      -164.2047
 108   2.0000      -6.032568      -164.1545
 109   2.0000      -6.031590      -164.1279
 110   2.0000      -6.031426      -164.1234
 111   2.0000      -6.031333      -164.1209
 112   2.0000      -6.030659      -164.1026
 113   2.0000      -6.029922      -164.0825
 114   2.0000      -6.028056      -164.0317
 115   2.0000      -6.027735      -164.0230
 116   2.0000      -6.025881      -163.9726
 117   2.0000      -6.022861      -163.8904
 118   2.0000      -1.133164       -30.8349
 119   2.0000      -1.132916       -30.8282
 120   2.0000      -1.080207       -29.3939
 121   2.0000      -1.030540       -28.0424
 122   2.0000      -1.028797       -27.9950
 123   2.0000      -1.017110       -27.6770
 124   2.0000      -1.015345       -27.6289
 125   2.0000      -1.014699       -27.6114
 126   2.0000      -1.012590       -27.5540
 127   2.0000      -1.001731       -27.2585
 128   2.0000      -0.999470       -27.1970
 129   2.0000      -0.994140       -27.0519
 130   2.0000      -0.994044       -27.0493
 131   2.0000      -0.990086       -26.9416
 132   2.0000      -0.988693       -26.9037
 133   2.0000      -0.984577       -26.7917
 134   2.0000      -0.980309       -26.6756
 135   2.0000      -0.978800       -26.6345
 136   2.0000      -0.960905       -26.1475
 137   2.0000      -0.959590       -26.1118
 138   2.0000      -0.937057       -25.4986
 139   2.0000      -0.933880       -25.4122
 140   2.0000      -0.922987       -25.1158
 141   2.0000      -0.919816       -25.0295
 142   2.0000      -0.909537       -24.7498
 143   2.0000      -0.902233       -24.5510
 144   2.0000      -0.894682       -24.3455
 145   2.0000      -0.888745       -24.1840
 146   2.0000      -0.879481       -23.9319
 147   2.0000      -0.872507       -23.7421
 148   2.0000      -0.861873       -23.4528
 149   2.0000      -0.860513       -23.4157
 150   2.0000      -0.859996       -23.4017
 151   2.0000      -0.858449       -23.3596
 152   2.0000      -0.852935       -23.2095
 153   2.0000      -0.850451       -23.1420
 154   2.0000      -0.845904       -23.0182
 155   2.0000      -0.843655       -22.9570
 156   2.0000      -0.836953       -22.7747
 157   2.0000      -0.834182       -22.6992
 158   2.0000      -0.821000       -22.3405
 159   2.0000      -0.818541       -22.2736
 160   2.0000      -0.794641       -21.6233
 161   2.0000      -0.792992       -21.5784
 162   2.0000      -0.773709       -21.0537
 163   2.0000      -0.772335       -21.0163
 164   2.0000      -0.763787       -20.7837
 165   2.0000      -0.762099       -20.7378
 166   2.0000      -0.752881       -20.4869
 167   2.0000      -0.744366       -20.2552
 168   2.0000      -0.727373       -19.7928
 169   2.0000      -0.721280       -19.6270
 170   2.0000      -0.709350       -19.3024
 171   2.0000      -0.706811       -19.2333
 172   2.0000      -0.697414       -18.9776
 173   2.0000      -0.694178       -18.8895
 174   2.0000      -0.693081       -18.8597
 175   2.0000      -0.689647       -18.7662
 176   2.0000      -0.685265       -18.6470
 177   2.0000      -0.683430       -18.5971
 178   2.0000      -0.675402       -18.3786
 179   2.0000      -0.673655       -18.3311
 180   2.0000      -0.668987       -18.2041
 181   2.0000      -0.654140       -17.8001
 182   2.0000      -0.643663       -17.5150
 183   2.0000      -0.639992       -17.4151
 184   2.0000      -0.637861       -17.3571
 185   2.0000      -0.633363       -17.2347
 186   2.0000      -0.632372       -17.2077
 187   2.0000      -0.628583       -17.1046
 188   2.0000      -0.626045       -17.0355
 189   2.0000      -0.621572       -16.9138
 190   2.0000      -0.620078       -16.8732
 191   2.0000      -0.619592       -16.8599
 192   2.0000      -0.614779       -16.7290
 193   2.0000      -0.611183       -16.6311
 194   2.0000      -0.598952       -16.2983
 195   2.0000      -0.597089       -16.2476
 196   2.0000      -0.592565       -16.1245
 197   2.0000      -0.590392       -16.0654
 198   2.0000      -0.586052       -15.9473
 199   2.0000      -0.579406       -15.7664
 200   2.0000      -0.575559       -15.6618
 201   2.0000      -0.572586       -15.5808
 202   2.0000      -0.570025       -15.5112
 203   2.0000      -0.555223       -15.1084
 204   2.0000      -0.554743       -15.0953
 205   2.0000      -0.552766       -15.0415
 206   2.0000      -0.547060       -14.8863
 207   2.0000      -0.546064       -14.8592
 208   2.0000      -0.543395       -14.7865
 209   2.0000      -0.542967       -14.7749
 210   2.0000      -0.542087       -14.7509
 211   2.0000      -0.535252       -14.5649
 212   2.0000      -0.534279       -14.5385
 213   2.0000      -0.527170       -14.3450
 214   2.0000      -0.525069       -14.2879
 215   2.0000      -0.524345       -14.2682
 216   2.0000      -0.522353       -14.2140
 217   2.0000      -0.517902       -14.0928
 218   2.0000      -0.516377       -14.0513
 219   2.0000      -0.515549       -14.0288
 220   2.0000      -0.513744       -13.9797
 221   2.0000      -0.512794       -13.9538
 222   2.0000      -0.512071       -13.9342
 223   2.0000      -0.507474       -13.8091
 224   2.0000      -0.506185       -13.7740
 225   2.0000      -0.505767       -13.7626
 226   2.0000      -0.502873       -13.6839
 227   2.0000      -0.501752       -13.6534
 228   2.0000      -0.500274       -13.6132
 229   2.0000      -0.499109       -13.5814
 230   2.0000      -0.497551       -13.5391
 231   2.0000      -0.495724       -13.4893
 232   2.0000      -0.494589       -13.4585
 233   2.0000      -0.493594       -13.4314
 234   2.0000      -0.491133       -13.3644
 235   2.0000      -0.489066       -13.3082
 236   2.0000      -0.488278       -13.2867
 237   2.0000      -0.481400       -13.0995
 238   2.0000      -0.480154       -13.0656
 239   2.0000      -0.475758       -12.9460
 240   2.0000      -0.473737       -12.8910
 241   2.0000      -0.471433       -12.8284
 242   2.0000      -0.470565       -12.8047
 243   2.0000      -0.466100       -12.6832
 244   2.0000      -0.465757       -12.6739
 245   2.0000      -0.462496       -12.5852
 246   2.0000      -0.461406       -12.5555
 247   2.0000      -0.458550       -12.4778
 248   2.0000      -0.451756       -12.2929
 249   2.0000      -0.451201       -12.2778
 250   2.0000      -0.449906       -12.2426
 251   2.0000      -0.449279       -12.2255
 252   2.0000      -0.447484       -12.1766
 253   2.0000      -0.444788       -12.1033
 254   2.0000      -0.443393       -12.0653
 255   2.0000      -0.442442       -12.0395
 256   2.0000      -0.440840       -11.9959
 257   2.0000      -0.436524       -11.8784
 258   2.0000      -0.435385       -11.8474
 259   2.0000      -0.434666       -11.8279
 260   2.0000      -0.432802       -11.7771
 261   2.0000      -0.430181       -11.7058
 262   2.0000      -0.428119       -11.6497
 263   2.0000      -0.427626       -11.6363
 264   2.0000      -0.427004       -11.6194
 265   2.0000      -0.426639       -11.6095
 266   2.0000      -0.426472       -11.6049
 267   2.0000      -0.425955       -11.5908
 268   2.0000      -0.423531       -11.5249
 269   2.0000      -0.420574       -11.4444
 270   2.0000      -0.418435       -11.3862
 271   2.0000      -0.417146       -11.3511
 272   2.0000      -0.410304       -11.1649
 273   2.0000      -0.409107       -11.1324
 274   2.0000      -0.406665       -11.0659
 275   2.0000      -0.405318       -11.0293
 276   2.0000      -0.399628       -10.8744
 277   2.0000      -0.397066       -10.8047
 278   2.0000      -0.381155       -10.3718
 279   2.0000      -0.380544       -10.3551
 280   2.0000      -0.379562       -10.3284
 281   2.0000      -0.378619       -10.3028
 282   2.0000      -0.376073       -10.2335
 283   2.0000      -0.362241        -9.8571
 284   2.0000      -0.353946        -9.6313
 285   2.0000      -0.347543        -9.4571
 286   2.0000      -0.344777        -9.3819
 287   2.0000      -0.341945        -9.3048
 288   2.0000      -0.341479        -9.2921
 289   2.0000      -0.339949        -9.2505
 290   2.0000      -0.338557        -9.2126
 291   2.0000      -0.338036        -9.1984
 292   2.0000      -0.335432        -9.1276
 293   2.0000      -0.334171        -9.0933
 294   2.0000      -0.331209        -9.0127
 295   2.0000      -0.326036        -8.8719
 296   2.0000      -0.323642        -8.8067
 297   2.0000      -0.319055        -8.6819
 298   2.0000      -0.310087        -8.4379
 299   2.0000      -0.308548        -8.3960
 300   2.0000      -0.286409        -7.7936
 301   2.0000      -0.280643        -7.6367
 302   2.0000      -0.246838        -6.7168
 303   2.0000      -0.244742        -6.6598
 304   0.0000      -0.100837        -2.7439
 305   0.0000      -0.095998        -2.6122
 306   0.0000      -0.069509        -1.8914
 307   0.0000      -0.068032        -1.8513
 308   0.0000      -0.058415        -1.5896

MULLIKEN ATOMIC CHARGES
-----------------------
   0 C :    0.269501
   1 C :   -0.336023
   2 C :   -0.176736
   3 N :    0.154923
   4 C :   -0.209951
   5 N :    0.178697
   6 C :    0.015046
   7 C :    0.002575
   8 C :   -0.031220
   9 C :    0.058024
  10 C :    0.050588
  11 C :   -0.016512
  12 Cl:   -0.038566
  13 Cl:   -0.044752
  14 C :    0.136719
  15 O :   -0.140684
  16 C :   -0.146996
  17 C :    0.097360
  18 C :   -0.116619
  19 S :    0.155774
  20 C :   -0.015790
  21 C :   -0.016923
  22 C :    0.070563
  23 C :   -0.041910
  24 C :    0.014109
  25 C :   -0.012283
  26 C :   -0.021356
  27 S :    0.130886
  28 C :   -0.051553
  29 S :    0.136486
  30 C :   -0.073276
  31 C :    0.022721
  32 C :   -0.007693
  33 C :    0.085776
  34 C :    0.036304
  35 C :   -0.068575
  36 N :   -0.079498
  37 C :    0.080479
  38 C :   -0.051065
  39 C :    0.051215
  40 N :   -0.065028
  41 C :   -0.014385
  42 C :    0.085580
  43 C :   -0.078866
  44 S :    0.142135
  45 C :   -0.055242
  46 C :    0.000737
  47 C :    0.021887
  48 C :   -0.030700
  49 C :    0.002814
  50 C :   -0.002440
  51 C :   -0.040118
  52 S :    0.138041
  53 C :   -0.034298
  54 S :    0.143167
  55 C :   -0.089337
  56 C :    0.041068
  57 C :   -0.012234
  58 C :    0.096845
  59 C :   -0.018239
  60 C :   -0.032008
  61 C :   -0.081472
  62 C :    0.330107
  63 C :   -0.347669
  64 C :   -0.191410
  65 N :    0.155506
  66 C :   -0.191439
  67 N :    0.143688
  68 C :    0.027833
  69 C :   -0.014540
  70 C :    0.148889
  71 O :   -0.153035
  72 C :   -0.030426
  73 C :    0.060497
  74 C :    0.046548
  75 C :   -0.013551
  76 Cl:   -0.037130
  77 Cl:   -0.045425
  78 H :   -0.000740
  79 H :    0.000790
  80 H :    0.023452
  81 H :   -0.009799
  82 H :    0.004267
  83 H :   -0.011358
  84 H :   -0.007402
  85 H :   -0.009776
  86 H :   -0.006213
  87 H :   -0.000847
  88 H :   -0.013370
  89 H :    0.005090
  90 H :   -0.009537
  91 H :   -0.017441
  92 H :    0.006976
  93 H :   -0.015090
  94 H :   -0.012680
  95 H :   -0.014522
  96 H :   -0.004611
  97 H :    0.004896
  98 H :   -0.003674
  99 H :    0.007707
 100 H :    0.024666
 101 H :    0.007072
 102 H :   -0.003493
 103 H :   -0.000475
Sum of atomic charges:   -0.0000000

LOEWDIN ATOMIC CHARGES
----------------------
   0 C :    0.064679
   1 C :   -0.142218
   2 C :   -0.023007
   3 N :   -0.049617
   4 C :   -0.020073
   5 N :   -0.038578
   6 C :   -0.011258
   7 C :   -0.045209
   8 C :    0.000938
   9 C :   -0.136155
  10 C :   -0.130853
  11 C :   -0.015960
  12 Cl:    0.160633
  13 Cl:    0.157010
  14 C :    0.082691
  15 O :   -0.141262
  16 C :   -0.106561
  17 C :    0.052123
  18 C :   -0.190563
  19 S :    0.457068
  20 C :   -0.151392
  21 C :   -0.052433
  22 C :   -0.002234
  23 C :   -0.194218
  24 C :   -0.033365
  25 C :   -0.061551
  26 C :   -0.166906
  27 S :    0.440015
  28 C :   -0.189144
  29 S :    0.443162
  30 C :   -0.167884
  31 C :   -0.043648
  32 C :   -0.054026
  33 C :   -0.009179
  34 C :   -0.032891
  35 C :    0.029801
  36 N :   -0.097704
  37 C :    0.048865
  38 C :   -0.071461
  39 C :    0.035233
  40 N :   -0.094194
  41 C :   -0.039388
  42 C :   -0.000777
  43 C :   -0.173266
  44 S :    0.438421
  45 C :   -0.187325
  46 C :   -0.049154
  47 C :   -0.045811
  48 C :   -0.175281
  49 C :   -0.051796
  50 C :   -0.047273
  51 C :   -0.191474
  52 S :    0.439014
  53 C :   -0.161890
  54 S :    0.450990
  55 C :   -0.184778
  56 C :   -0.016382
  57 C :   -0.061564
  58 C :    0.021359
  59 C :   -0.038626
  60 C :    0.070142
  61 C :   -0.107158
  62 C :    0.074661
  63 C :   -0.140287
  64 C :   -0.020696
  65 N :   -0.050863
  66 C :   -0.019345
  67 N :   -0.054145
  68 C :   -0.013363
  69 C :   -0.042883
  70 C :    0.084622
  71 O :   -0.147376
  72 C :   -0.000799
  73 C :   -0.134933
  74 C :   -0.131461
  75 C :   -0.012976
  76 Cl:    0.160151
  77 Cl:    0.156866
  78 H :    0.045841
  79 H :    0.043767
  80 H :    0.046238
  81 H :    0.033813
  82 H :    0.036611
  83 H :    0.033313
  84 H :    0.029879
  85 H :    0.032814
  86 H :    0.027918
  87 H :    0.031737
  88 H :    0.031293
  89 H :    0.025873
  90 H :    0.031442
  91 H :    0.026888
  92 H :    0.034861
  93 H :    0.030776
  94 H :    0.031190
  95 H :    0.031838
  96 H :    0.029676
  97 H :    0.039788
  98 H :    0.030639
  99 H :    0.037107
 100 H :    0.032266
 101 H :    0.041568
 102 H :    0.044818
 103 H :    0.044218

  Mayer bond orders larger than 0.100000
B(  0-C ,  1-C ) :   1.6408 B(  0-C ,  6-C ) :   0.9990 B(  0-C , 16-C ) :   1.0588
B(  1-C ,  2-C ) :   1.1241 B(  1-C ,  4-C ) :   1.1672 B(  2-C ,  3-N ) :   2.9893
B(  4-C ,  5-N ) :   3.0062 B(  6-C ,  7-C ) :   1.3335 B(  6-C , 11-C ) :   1.3499
B(  7-C ,  8-C ) :   1.3522 B(  7-C , 14-C ) :   0.9164 B(  8-C ,  9-C ) :   1.3415
B(  8-C , 78-H ) :   1.0165 B(  9-C , 10-C ) :   1.4130 B(  9-C , 13-Cl) :   1.0458
B( 10-C , 11-C ) :   1.3544 B( 10-C , 12-Cl) :   1.0675 B( 11-C , 79-H ) :   0.9903
B( 14-C , 15-O ) :   2.2649 B( 14-C , 16-C ) :   0.9556 B( 16-C , 17-C ) :   1.6255
B( 17-C , 18-C ) :   1.1734 B( 17-C , 80-H ) :   0.9261 B( 18-C , 19-S ) :   1.0946
B( 18-C , 22-C ) :   1.4049 B( 19-S , 20-C ) :   1.1645 B( 20-C , 21-C ) :   1.4537
B( 20-C , 23-C ) :   1.1290 B( 21-C , 22-C ) :   1.3472 B( 21-C , 81-H ) :   0.9961
B( 22-C , 82-H ) :   0.9873 B( 23-C , 24-C ) :   1.5050 B( 23-C , 26-C ) :   0.1053
B( 23-C , 27-S ) :   1.1069 B( 24-C , 25-C ) :   1.2820 B( 24-C , 83-H ) :   0.9955
B( 25-C , 26-C ) :   1.4842 B( 25-C , 84-H ) :   0.9947 B( 26-C , 27-S ) :   1.1396
B( 26-C , 28-C ) :   1.1572 B( 28-C , 29-S ) :   1.1332 B( 28-C , 32-C ) :   1.4773
B( 29-S , 30-C ) :   1.1184 B( 30-C , 31-C ) :   1.5022 B( 30-C , 33-C ) :   1.0833
B( 31-C , 32-C ) :   1.2896 B( 31-C , 85-H ) :   0.9931 B( 32-C , 86-H ) :   0.9919
B( 33-C , 34-C ) :   1.7175 B( 33-C , 87-H ) :   0.9641 B( 34-C , 35-C ) :   1.0462
B( 34-C , 88-H ) :   0.9656 B( 35-C , 36-N ) :   1.5250 B( 35-C , 40-N ) :   1.5325
B( 36-N , 37-C ) :   1.5455 B( 37-C , 38-C ) :   1.3777 B( 37-C , 89-H ) :   0.9797
B( 38-C , 39-C ) :   1.3221 B( 38-C , 90-H ) :   0.9758 B( 39-C , 40-N ) :   1.5230
B( 39-C , 41-C ) :   1.0737 B( 41-C , 42-C ) :   1.7441 B( 41-C , 91-H ) :   0.9715
B( 42-C , 43-C ) :   1.0730 B( 42-C , 92-H ) :   0.9653 B( 43-C , 44-S ) :   1.1155
B( 43-C , 45-C ) :   0.1055 B( 43-C , 47-C ) :   1.5054 B( 44-S , 45-C ) :   1.1331
B( 45-C , 46-C ) :   1.5047 B( 45-C , 48-C ) :   1.1068 B( 46-C , 47-C ) :   1.2813
B( 46-C , 93-H ) :   0.9968 B( 47-C , 94-H ) :   0.9929 B( 48-C , 49-C ) :   1.5138
B( 48-C , 51-C ) :   0.1060 B( 48-C , 52-S ) :   1.1283 B( 49-C , 50-C ) :   1.2810
B( 49-C , 95-H ) :   0.9965 B( 50-C , 51-C ) :   1.4847 B( 50-C , 96-H ) :   0.9922
B( 51-C , 52-S ) :   1.1176 B( 51-C , 53-C ) :   1.1650 B( 53-C , 54-S ) :   1.1588
B( 53-C , 57-C ) :   1.4469 B( 54-S , 55-C ) :   1.0952 B( 55-C , 56-C ) :   1.4493
B( 55-C , 58-C ) :   1.1448 B( 56-C , 57-C ) :   1.3176 B( 56-C , 97-H ) :   0.9936
B( 57-C , 98-H ) :   0.9935 B( 58-C , 59-C ) :   1.5563 B( 58-C , 99-H ) :   0.9698
B( 59-C , 60-C ) :   1.2059 B( 59-C ,100-H ) :   0.9761 B( 60-C , 61-C ) :   1.4969
B( 60-C ,101-H ) :   0.9604 B( 61-C , 62-C ) :   1.0812 B( 61-C , 70-C ) :   0.9588
B( 62-C , 63-C ) :   1.6230 B( 62-C , 68-C ) :   0.9867 B( 63-C , 64-C ) :   1.1417
B( 63-C , 66-C ) :   1.1488 B( 64-C , 65-N ) :   2.9697 B( 66-C , 67-N ) :   2.9596
B( 68-C , 69-C ) :   1.3306 B( 68-C , 75-C ) :   1.3451 B( 69-C , 70-C ) :   0.9411
B( 69-C , 72-C ) :   1.3474 B( 70-C , 71-O ) :   2.1963 B( 72-C , 73-C ) :   1.3398
B( 72-C ,102-H ) :   1.0164 B( 73-C , 74-C ) :   1.4100 B( 73-C , 77-Cl) :   1.0443
B( 74-C , 75-C ) :   1.3580 B( 74-C , 76-Cl) :   1.0746 B( 75-C ,103-H ) :   0.9847

-----------------------------------------------------------------------------
         ABSORPTION SPECTRUM VIA TRANSITION ELECTRIC DIPOLE MOMENTS
-----------------------------------------------------------------------------
State   Energy  Wavelength   fosc         T2         TX        TY        TZ
        (cm-1)    (nm)                  (au**2)     (au)      (au)      (au)
-----------------------------------------------------------------------------
   0   17363.7    575.9   2.040486006  38.68712  -4.10009  -4.65818   0.42161
   1   17840.9    560.5   1.544344947  28.49720   1.95759   0.08610   4.96564
   2   24038.4    416.0   0.483233255   6.61799   1.20803   1.85650  -1.30845
   3   24702.4    404.8   0.128418660   1.71145  -0.51525  -0.02043  -1.20231
   4   25084.7    398.6   0.009729079   0.12768   0.00651  -0.23222  -0.27151
   5   26512.6    377.2   0.002909114   0.03612   0.18929  -0.00802   0.01513
   6   26617.2    375.7   0.194068069   2.40031  -1.47449  -0.27328   0.38922
   7   27042.2    369.8   0.210767321   2.56588  -1.24592  -0.91991  -0.40905
   8   27619.3    362.1   0.066985832   0.79845   0.30163   0.24676  -0.80410
   9   28050.3    356.5   0.480037305   5.63395  -0.91675   1.18257  -1.84257
  10   28920.2    345.8   0.000511702   0.00582   0.01744  -0.06250  -0.04018
  11   29292.8    341.4   0.005075248   0.05704  -0.18826   0.14660  -0.01028
  12   29670.7    337.0   0.167552442   1.85908   0.73040   1.10106   0.33655
  13   29781.3    335.8   0.238779280   2.63954  -0.77961   0.72207   1.22897
  14   31259.5    319.9   0.070383667   0.74125  -0.42458  -0.74686   0.05643
  15   31422.6    318.2   0.004362959   0.04571  -0.14227  -0.11058  -0.11507
  16   31611.6    316.3   0.000084234   0.00088  -0.02107   0.01977   0.00652
  17   32270.8    309.9   0.056654463   0.57796   0.56673   0.40343   0.30664
  18   32922.9    303.7   0.015718060   0.15717   0.19242  -0.17823  -0.29729
  19   33276.4    300.5   0.041725280   0.41280  -0.61608  -0.15453   0.09680
  20   33639.8    297.3   0.164718191   1.61200  -0.97050   0.29701   0.76283
  21   33733.0    296.4   0.003792210   0.03701   0.04983   0.06101   0.17551
  22   33834.7    295.6   0.081394195   0.79197  -0.79555   0.38433  -0.10653
  23   34253.5    291.9   0.022305201   0.21438  -0.34157   0.13886   0.28004
  24   34435.6    290.4   0.006287022   0.06011  -0.14182   0.01037   0.19972
  25   34599.5    289.0   0.164527288   1.56547  -1.19151  -0.36597   0.10884
  26   34800.8    287.3   0.087014044   0.82314   0.23697  -0.50607  -0.71476
  27   34945.2    286.2   0.035491497   0.33436  -0.29136  -0.48721   0.10994
  28   35019.4    285.6   0.259413357   2.43871  -1.01156  -1.18965   0.01369
  29   35396.8    282.5   0.382406934   3.55662   0.26020  -0.95274  -1.60661
  30   35865.9    278.8   0.173915169   1.59636   1.24297   0.16864  -0.15150
  31   35953.6    278.1   0.193007761   1.76729  -1.19140  -0.53890  -0.23965
  32   36522.4    273.8   0.113448795   1.02263   0.70349   0.54530  -0.47997
  33   36625.2    273.0   0.047548158   0.42740  -0.60998   0.19199  -0.13589
  34   36910.7    270.9   0.068303858   0.60921   0.59538   0.48513   0.13923
  35   37337.8    267.8   0.137636126   1.21355   0.21721   0.67742  -0.84112
  36   37534.0    266.4   0.137275007   1.20404   0.13394   0.63489  -0.88489
  37   37856.6    264.2   0.010607029   0.09224   0.26251  -0.10954   0.10646
  38   38110.1    262.4   0.064684744   0.55878  -0.70407  -0.10660  -0.22738
  39   38352.5    260.7   0.048646343   0.41757   0.63067  -0.13336  -0.04518
  40   38847.6    257.4   0.025277724   0.21422  -0.41752   0.12150  -0.15852
  41   39098.1    255.8   0.076356990   0.64294  -0.69011  -0.30848  -0.26744
  42   39458.2    253.4   0.005131993   0.04282   0.15628  -0.01312   0.13499
  43   39998.2    250.0   0.009828115   0.08089  -0.08219   0.07569  -0.26155

FINAL SINGLE POINT ENERGY     -7006.017575038136

DIPOLE MOMENT
-------------
                                X             Y             Z
Electronic contribution:     -6.52353      16.17446     -91.49186
Nuclear contribution   :      8.09031     -15.34042      95.39178
                        -----------------------------------------
Total Dipole Moment    :      1.56678       0.83404       3.89992
                        -----------------------------------------
Magnitude (a.u.)       :      4.28484
Magnitude (Debye)      :     10.89119

Rotational constants in cm-1:     0.000512     0.000100     0.000087
Rotational constants in MHz :    15.351414     3.003376     2.594877

                             ****ORCA TERMINATED NORMALLY****
TOTAL RUN TIME: 0 days 0 hours 11 minutes 14 seconds 396 msec
