                         Program Version 4.2.0 -  RELEASE  -
|  1> # ORCA input file
|  2> # SCF done       -158.190828782707          0.000964354631
|  3> ! CAM-B3LYP def2-SVP def2/J RIJCOSX Grid4 TightSCF
|  4> %maxcore 5000
|  5> %tddft
|  6>     Mode sTDDFT
|  7>     Ethresh 5.0
|  8>     maxcore 5000
|  9> end
| 10>
| 11> %pal
| 12>   nprocs 6
| 13>   end
| 14> * xyz 0 1
| 15>    C       -4.43745        -1.37008        -3.16754
| 16>    C       -3.19919        -1.82336        -2.80400
| 17>    C       -2.65490        -3.05961        -3.21372
| 18>    N       -2.15570        -4.04458        -3.52549
| 19>    C       -2.30828        -1.12718        -1.95897
| 20>    N       -1.54072        -0.62765        -1.26725
| 21>    C       -5.41000        -2.07542        -3.98631
| 22>    C       -6.59441        -1.29814        -4.06801
| 23>    C       -7.66551        -1.66727        -4.84564
| 24>    C       -7.58206        -2.87485        -5.54739
| 25>    C       -6.42044        -3.67625        -5.40913
| 26>    C       -5.32562        -3.28820        -4.64757
| 27>    S       -6.54921        -5.14853        -6.31218
| 28>    C       -8.12463        -4.67769        -6.86711
| 29>    C       -8.54157        -3.47338        -6.40538
| 30>   Br       -9.07724        -5.80269        -8.01352
| 31>    C       -6.45197        -0.08796        -3.24238
| 32>    O       -7.28969         0.76467        -3.04534
| 33>    C       -5.04037        -0.10772        -2.75919
| 34>    C       -4.43407         0.95971        -2.20034
| 35>    C       -5.16917         2.11336        -1.72012
| 36>    N       -4.85595         3.32770        -2.11954
| 37>    N       -5.46710         4.39667        -1.69415
| 38>    C       -6.47652         4.36853        -0.84274
| 39>    C       -6.89924         3.10932        -0.32545
| 40>    C       -6.20700         1.94081        -0.76622
| 41>    N       -6.62967         0.83732        -0.15361
| 42>    S       -7.81023         1.24291         0.85607
| 43>    N       -7.83191         2.82623         0.58220
| 44>    C       -7.14770         5.56781        -0.41300
| 45>    C       -6.90411         6.82000        -0.83288
| 46>    C       -5.84691         7.16264        -1.82403
| 47>    C       -7.71265         7.99338        -0.31907
| 48>    N       -8.84580         7.63548         0.49640
| 49>    C       -8.69506         7.33535         1.81454
| 50>    C       -9.40385         6.37204         2.45218
| 51>    C       -9.22742         6.00259         3.80230
| 52>    C       -9.56763         4.76067         4.26531
| 53>    C       -9.31617         4.18957         5.53807
| 54>    C       -9.53249         2.84686         5.60262
| 55>    C       -9.96792         2.27908         4.38123
| 56>    S      -10.21187         3.52440         3.18338
| 57>    C      -10.05441         0.95086         4.01896
| 58>    C       -9.67072        -0.20436         4.73402
| 59>    C       -9.60387        -1.32886         3.96890
| 60>    C       -9.93266        -1.12724         2.60226
| 61>    S      -10.47222         0.52595         2.36386
| 62>    C       -9.77516        -2.02126         1.57822
| 63>    C      -10.00565        -1.77624         0.21154
| 64>    S      -10.69712        -0.29733        -0.44362
| 65>    C      -10.64820        -0.83981        -2.07325
| 66>    C      -10.11193        -2.10324        -2.14165
| 67>    C       -9.74396        -2.61435        -0.85840
| 68>    O       -9.18302        -3.83990        -0.96865
| 69>    C       -9.19385        -4.11616        -2.30084
| 70>    N       -8.60657        -5.31520        -2.74044
| 71>    O       -8.54377        -5.46820        -3.95351
| 72>    O       -8.18734        -6.09946        -1.91714
| 73>    C       -9.75554        -3.12240        -3.06136
| 74>    H       -8.53856        -1.03670        -4.91137
| 75>    H       -4.45278        -3.91742        -4.59327
| 76>    H       -9.48747        -3.03082        -6.66186
| 77>    H       -3.35961         0.99878        -2.08259
| 78>    H       -7.91609         5.36782         0.31990
| 79>    H       -5.93154         6.52247        -2.70045
| 80>    H       -4.86399         6.95810        -1.40194
| 81>    H       -5.90142         8.20806        -2.11825
| 82>    H       -8.07434         8.56927        -1.17865
| 83>    H       -7.05550         8.64776         0.26399
| 84>    H       -9.52378         7.05825         0.01300
| 85>    H       -7.95001         7.91986         2.33737
| 86>    H      -10.07637         5.75534         1.86803
| 87>    H       -8.71578         6.68001         4.47208
| 88>    H       -8.94855         4.78589         6.35491
| 89>    H       -9.36343         2.24470         6.47740
| 90>    H       -9.41541        -0.16653         5.77805
| 91>    H       -9.28988        -2.29267         4.32819
| 92>    H       -9.40445        -3.00883         1.81705
| 93>    H      -10.99392        -0.20230        -2.85913
| 94>    H       -9.90043        -3.15348        -4.11967
| 95> *
| 96>
| 97>                          ****END OF INPUT****

CARTESIAN COORDINATES (ANGSTROEM)
---------------------------------
  C     -4.437450   -1.370080   -3.167540
  C     -3.199190   -1.823360   -2.804000
  C     -2.654900   -3.059610   -3.213720
  N     -2.155700   -4.044580   -3.525490
  C     -2.308280   -1.127180   -1.958970
  N     -1.540720   -0.627650   -1.267250
  C     -5.410000   -2.075420   -3.986310
  C     -6.594410   -1.298140   -4.068010
  C     -7.665510   -1.667270   -4.845640
  C     -7.582060   -2.874850   -5.547390
  C     -6.420440   -3.676250   -5.409130
  C     -5.325620   -3.288200   -4.647570
  S     -6.549210   -5.148530   -6.312180
  C     -8.124630   -4.677690   -6.867110
  C     -8.541570   -3.473380   -6.405380
  Br    -9.077240   -5.802690   -8.013520
  C     -6.451970   -0.087960   -3.242380
  O     -7.289690    0.764670   -3.045340
  C     -5.040370   -0.107720   -2.759190
  C     -4.434070    0.959710   -2.200340
  C     -5.169170    2.113360   -1.720120
  N     -4.855950    3.327700   -2.119540
  N     -5.467100    4.396670   -1.694150
  C     -6.476520    4.368530   -0.842740
  C     -6.899240    3.109320   -0.325450
  C     -6.207000    1.940810   -0.766220
  N     -6.629670    0.837320   -0.153610
  S     -7.810230    1.242910    0.856070
  N     -7.831910    2.826230    0.582200
  C     -7.147700    5.567810   -0.413000
  C     -6.904110    6.820000   -0.832880
  C     -5.846910    7.162640   -1.824030
  C     -7.712650    7.993380   -0.319070
  N     -8.845800    7.635480    0.496400
  C     -8.695060    7.335350    1.814540
  C     -9.403850    6.372040    2.452180
  C     -9.227420    6.002590    3.802300
  C     -9.567630    4.760670    4.265310
  C     -9.316170    4.189570    5.538070
  C     -9.532490    2.846860    5.602620
  C     -9.967920    2.279080    4.381230
  S    -10.211870    3.524400    3.183380
  C    -10.054410    0.950860    4.018960
  C     -9.670720   -0.204360    4.734020
  C     -9.603870   -1.328860    3.968900
  C     -9.932660   -1.127240    2.602260
  S    -10.472220    0.525950    2.363860
  C     -9.775160   -2.021260    1.578220
  C    -10.005650   -1.776240    0.211540
  S    -10.697120   -0.297330   -0.443620
  C    -10.648200   -0.839810   -2.073250
  C    -10.111930   -2.103240   -2.141650
  C     -9.743960   -2.614350   -0.858400
  O     -9.183020   -3.839900   -0.968650
  C     -9.193850   -4.116160   -2.300840
  N     -8.606570   -5.315200   -2.740440
  O     -8.543770   -5.468200   -3.953510
  O     -8.187340   -6.099460   -1.917140
  C     -9.755540   -3.122400   -3.061360
  H     -8.538560   -1.036700   -4.911370
  H     -4.452780   -3.917420   -4.593270
  H     -9.487470   -3.030820   -6.661860
  H     -3.359610    0.998780   -2.082590
  H     -7.916090    5.367820    0.319900
  H     -5.931540    6.522470   -2.700450
  H     -4.863990    6.958100   -1.401940
  H     -5.901420    8.208060   -2.118250
  H     -8.074340    8.569270   -1.178650
  H     -7.055500    8.647760    0.263990
  H     -9.523780    7.058250    0.013000
  H     -7.950010    7.919860    2.337370
  H    -10.076370    5.755340    1.868030
  H     -8.715780    6.680010    4.472080
  H     -8.948550    4.785890    6.354910
  H     -9.363430    2.244700    6.477400
  H     -9.415410   -0.166530    5.778050
  H     -9.289880   -2.292670    4.328190
  H     -9.404450   -3.008830    1.817050
  H    -10.993920   -0.202300   -2.859130
  H     -9.900430   -3.153480   -4.119670

 Total Charge           Charge          ....    0
 Multiplicity           Mult            ....    1
 Number of Electrons    NEL             ....  470
 Basis Dimension        Dim             ....  969

ORBITAL ENERGIES
----------------

  NO   OCC          E(Eh)            E(eV)
   0   2.0000    -482.882664    -13139.9053
   1   2.0000     -89.027970     -2422.5742
   2   2.0000     -88.972776     -2421.0723
   3   2.0000     -88.971882     -2421.0480
   4   2.0000     -88.945588     -2420.3325
   5   2.0000     -88.938882     -2420.1500
   6   2.0000     -62.560412     -1702.3553
   7   2.0000     -56.394360     -1534.5685
   8   2.0000     -56.391648     -1534.4948
   9   2.0000     -56.391610     -1534.4937
  10   2.0000     -19.305535      -525.3303
  11   2.0000     -19.245631      -523.7002
  12   2.0000     -19.241696      -523.5932
  13   2.0000     -19.221207      -523.0356
  14   2.0000     -14.655502      -398.7965
  15   2.0000     -14.442441      -392.9988
  16   2.0000     -14.440196      -392.9377
  17   2.0000     -14.438492      -392.8913
  18   2.0000     -14.437560      -392.8660
  19   2.0000     -14.429797      -392.6547
  20   2.0000     -14.417284      -392.3142
  21   2.0000     -14.416200      -392.2848
  22   2.0000     -10.384633      -282.5802
  23   2.0000     -10.371377      -282.2195
  24   2.0000     -10.356495      -281.8145
  25   2.0000     -10.346541      -281.5437
  26   2.0000     -10.343040      -281.4484
  27   2.0000     -10.340762      -281.3864
  28   2.0000     -10.327404      -281.0230
  29   2.0000     -10.327178      -281.0168
  30   2.0000     -10.325098      -280.9602
  31   2.0000     -10.324703      -280.9495
  32   2.0000     -10.324090      -280.9328
  33   2.0000     -10.323988      -280.9300
  34   2.0000     -10.323462      -280.9157
  35   2.0000     -10.319154      -280.7984
  36   2.0000     -10.318148      -280.7711
  37   2.0000     -10.315894      -280.7097
  38   2.0000     -10.314487      -280.6715
  39   2.0000     -10.312011      -280.6041
  40   2.0000     -10.311210      -280.5823
  41   2.0000     -10.309742      -280.5423
  42   2.0000     -10.308001      -280.4950
  43   2.0000     -10.307867      -280.4913
  44   2.0000     -10.306391      -280.4512
  45   2.0000     -10.305687      -280.4320
  46   2.0000     -10.305605      -280.4298
  47   2.0000     -10.303570      -280.3744
  48   2.0000     -10.300485      -280.2905
  49   2.0000     -10.296945      -280.1941
  50   2.0000     -10.296542      -280.1832
  51   2.0000     -10.294635      -280.1313
  52   2.0000     -10.294175      -280.1187
  53   2.0000     -10.293623      -280.1037
  54   2.0000     -10.287855      -279.9468
  55   2.0000     -10.287083      -279.9258
  56   2.0000     -10.285341      -279.8784
  57   2.0000     -10.283415      -279.8259
  58   2.0000     -10.281904      -279.7848
  59   2.0000     -10.277993      -279.6784
  60   2.0000     -10.269635      -279.4510
  61   2.0000     -10.265835      -279.3476
  62   2.0000     -10.258882      -279.1584
  63   2.0000      -8.789896      -239.1852
  64   2.0000      -8.118472      -220.9148
  65   2.0000      -8.067853      -219.5374
  66   2.0000      -8.066898      -219.5115
  67   2.0000      -8.041090      -218.8092
  68   2.0000      -8.035319      -218.6521
  69   2.0000      -6.626133      -180.3062
  70   2.0000      -6.611681      -179.9130
  71   2.0000      -6.611452      -179.9068
  72   2.0000      -6.089417      -165.7015
  73   2.0000      -6.081711      -165.4918
  74   2.0000      -6.081341      -165.4817
  75   2.0000      -6.037522      -164.2893
  76   2.0000      -6.036256      -164.2549
  77   2.0000      -6.033239      -164.1728
  78   2.0000      -6.031828      -164.1344
  79   2.0000      -6.029353      -164.0670
  80   2.0000      -6.029093      -164.0600
  81   2.0000      -6.010886      -163.5645
  82   2.0000      -6.006799      -163.4533
  83   2.0000      -6.005061      -163.4060
  84   2.0000      -6.002040      -163.3238
  85   2.0000      -6.001084      -163.2978
  86   2.0000      -5.996100      -163.1622
  87   2.0000      -2.742073       -74.6156
  88   2.0000      -2.737953       -74.5035
  89   2.0000      -2.737794       -74.4991
  90   2.0000      -2.726289       -74.1861
  91   2.0000      -2.726275       -74.1857
  92   2.0000      -1.325697       -36.0741
  93   2.0000      -1.224628       -33.3238
  94   2.0000      -1.141508       -31.0620
  95   2.0000      -1.136795       -30.9338
  96   2.0000      -1.130773       -30.7699
  97   2.0000      -1.108279       -30.1578
  98   2.0000      -1.045510       -28.4498
  99   2.0000      -1.023617       -27.8540
 100   2.0000      -1.013590       -27.5812
 101   2.0000      -0.996678       -27.1210
 102   2.0000      -0.995059       -27.0769
 103   2.0000      -0.991722       -26.9861
 104   2.0000      -0.988871       -26.9085
 105   2.0000      -0.984884       -26.8001
 106   2.0000      -0.968860       -26.3640
 107   2.0000      -0.946973       -25.7684
 108   2.0000      -0.938487       -25.5375
 109   2.0000      -0.934799       -25.4372
 110   2.0000      -0.919472       -25.0201
 111   2.0000      -0.909182       -24.7401
 112   2.0000      -0.906063       -24.6552
 113   2.0000      -0.897754       -24.4291
 114   2.0000      -0.889567       -24.2064
 115   2.0000      -0.886561       -24.1246
 116   2.0000      -0.885207       -24.0877
 117   2.0000      -0.872892       -23.7526
 118   2.0000      -0.852462       -23.1967
 119   2.0000      -0.848063       -23.0770
 120   2.0000      -0.836173       -22.7534
 121   2.0000      -0.829427       -22.5699
 122   2.0000      -0.825876       -22.4732
 123   2.0000      -0.813021       -22.1234
 124   2.0000      -0.804817       -21.9002
 125   2.0000      -0.787743       -21.4356
 126   2.0000      -0.778316       -21.1791
 127   2.0000      -0.776895       -21.1404
 128   2.0000      -0.761969       -20.7342
 129   2.0000      -0.757077       -20.6011
 130   2.0000      -0.753870       -20.5139
 131   2.0000      -0.730653       -19.8821
 132   2.0000      -0.726121       -19.7588
 133   2.0000      -0.711779       -19.3685
 134   2.0000      -0.704813       -19.1789
 135   2.0000      -0.699832       -19.0434
 136   2.0000      -0.692984       -18.8571
 137   2.0000      -0.689574       -18.7643
 138   2.0000      -0.675531       -18.3821
 139   2.0000      -0.671531       -18.2733
 140   2.0000      -0.668530       -18.1916
 141   2.0000      -0.657877       -17.9017
 142   2.0000      -0.649086       -17.6625
 143   2.0000      -0.644556       -17.5393
 144   2.0000      -0.640573       -17.4309
 145   2.0000      -0.636904       -17.3310
 146   2.0000      -0.627691       -17.0803
 147   2.0000      -0.626687       -17.0530
 148   2.0000      -0.623704       -16.9719
 149   2.0000      -0.619415       -16.8551
 150   2.0000      -0.613881       -16.7045
 151   2.0000      -0.604457       -16.4481
 152   2.0000      -0.600307       -16.3352
 153   2.0000      -0.596960       -16.2441
 154   2.0000      -0.593999       -16.1635
 155   2.0000      -0.587266       -15.9803
 156   2.0000      -0.584625       -15.9085
 157   2.0000      -0.579919       -15.7804
 158   2.0000      -0.575163       -15.6510
 159   2.0000      -0.569889       -15.5075
 160   2.0000      -0.562876       -15.3166
 161   2.0000      -0.560271       -15.2458
 162   2.0000      -0.558010       -15.1842
 163   2.0000      -0.550270       -14.9736
 164   2.0000      -0.548429       -14.9235
 165   2.0000      -0.541114       -14.7245
 166   2.0000      -0.540202       -14.6996
 167   2.0000      -0.537032       -14.6134
 168   2.0000      -0.527490       -14.3537
 169   2.0000      -0.526870       -14.3369
 170   2.0000      -0.524254       -14.2657
 171   2.0000      -0.517110       -14.0713
 172   2.0000      -0.515314       -14.0224
 173   2.0000      -0.511952       -13.9309
 174   2.0000      -0.508236       -13.8298
 175   2.0000      -0.505275       -13.7492
 176   2.0000      -0.501597       -13.6491
 177   2.0000      -0.501323       -13.6417
 178   2.0000      -0.497625       -13.5411
 179   2.0000      -0.494375       -13.4526
 180   2.0000      -0.492675       -13.4064
 181   2.0000      -0.491007       -13.3610
 182   2.0000      -0.489414       -13.3176
 183   2.0000      -0.483433       -13.1549
 184   2.0000      -0.478945       -13.0327
 185   2.0000      -0.475245       -12.9321
 186   2.0000      -0.473474       -12.8839
 187   2.0000      -0.468807       -12.7569
 188   2.0000      -0.465314       -12.6618
 189   2.0000      -0.462208       -12.5773
 190   2.0000      -0.460911       -12.5420
 191   2.0000      -0.458542       -12.4776
 192   2.0000      -0.453020       -12.3273
 193   2.0000      -0.450023       -12.2457
 194   2.0000      -0.449260       -12.2250
 195   2.0000      -0.447816       -12.1857
 196   2.0000      -0.446896       -12.1607
 197   2.0000      -0.444310       -12.0903
 198   2.0000      -0.439270       -11.9531
 199   2.0000      -0.438109       -11.9215
 200   2.0000      -0.431216       -11.7340
 201   2.0000      -0.428653       -11.6642
 202   2.0000      -0.426746       -11.6123
 203   2.0000      -0.424732       -11.5575
 204   2.0000      -0.423312       -11.5189
 205   2.0000      -0.421179       -11.4609
 206   2.0000      -0.415339       -11.3020
 207   2.0000      -0.412190       -11.2163
 208   2.0000      -0.410088       -11.1591
 209   2.0000      -0.405093       -11.0231
 210   2.0000      -0.395200       -10.7539
 211   2.0000      -0.390736       -10.6325
 212   2.0000      -0.386883       -10.5276
 213   2.0000      -0.383221       -10.4280
 214   2.0000      -0.378689       -10.3047
 215   2.0000      -0.377229       -10.2649
 216   2.0000      -0.373139       -10.1536
 217   2.0000      -0.372124       -10.1260
 218   2.0000      -0.372080       -10.1248
 219   2.0000      -0.368173       -10.0185
 220   2.0000      -0.366498        -9.9729
 221   2.0000      -0.356871        -9.7109
 222   2.0000      -0.348604        -9.4860
 223   2.0000      -0.339910        -9.2494
 224   2.0000      -0.334077        -9.0907
 225   2.0000      -0.330945        -9.0055
 226   2.0000      -0.321997        -8.7620
 227   2.0000      -0.313510        -8.5310
 228   2.0000      -0.311964        -8.4890
 229   2.0000      -0.301237        -8.1971
 230   2.0000      -0.294292        -8.0081
 231   2.0000      -0.293246        -7.9796
 232   2.0000      -0.290150        -7.8954
 233   2.0000      -0.263202        -7.1621
 234   2.0000      -0.206062        -5.6072
 235   0.0000      -0.092971        -2.5299
 236   0.0000      -0.073887        -2.0106
 237   0.0000      -0.069123        -1.8809
 238   0.0000      -0.057899        -1.5755
 239   0.0000      -0.048777        -1.3273

MULLIKEN ATOMIC CHARGES
-----------------------
   0 C :    0.298104
   1 C :   -0.330437
   2 C :   -0.186904
   3 N :    0.161872
   4 C :   -0.200819
   5 N :    0.169501
   6 C :    0.022632
   7 C :   -0.025894
   8 C :   -0.055741
   9 C :    0.093890
  10 C :   -0.080104
  11 C :   -0.031504
  12 S :    0.212935
  13 C :   -0.106004
  14 C :    0.039063
  15 Br:    0.027087
  16 C :    0.164118
  17 O :   -0.150329
  18 C :   -0.061604
  19 C :   -0.019324
  20 C :   -0.097632
  21 N :   -0.020754
  22 N :   -0.104414
  23 C :   -0.012439
  24 C :    0.022674
  25 C :    0.090016
  26 N :   -0.244586
  27 S :    0.537507
  28 N :   -0.248992
  29 C :   -0.018872
  30 C :   -0.235613
  31 C :    0.157457
  32 C :    0.193683
  33 N :   -0.152102
  34 C :    0.052992
  35 C :   -0.010408
  36 C :    0.002963
  37 C :   -0.050045
  38 C :    0.050579
  39 C :    0.017051
  40 C :   -0.032871
  41 S :    0.062767
  42 C :   -0.060460
  43 C :    0.040104
  44 C :    0.030822
  45 C :   -0.034429
  46 S :    0.014172
  47 C :   -0.004730
  48 C :   -0.207937
  49 S :    0.124304
  50 C :   -0.125193
  51 C :    0.118026
  52 C :    0.205053
  53 O :   -0.186853
  54 C :    0.217483
  55 N :    0.285156
  56 O :   -0.264956
  57 O :   -0.225672
  58 C :   -0.036134
  59 H :   -0.018938
  60 H :   -0.002798
  61 H :   -0.003926
  62 H :    0.054548
  63 H :   -0.026642
  64 H :    0.043421
  65 H :    0.036998
  66 H :   -0.006590
  67 H :    0.031888
  68 H :    0.035409
  69 H :    0.120095
  70 H :    0.004987
  71 H :    0.002346
  72 H :   -0.012800
  73 H :   -0.012174
  74 H :   -0.015432
  75 H :   -0.013329
  76 H :   -0.013199
  77 H :   -0.000461
  78 H :    0.026731
  79 H :   -0.018391
Sum of atomic charges:    0.0000000

LOEWDIN ATOMIC CHARGES
----------------------
   0 C :    0.074559
   1 C :   -0.126240
   2 C :   -0.017906
   3 N :   -0.043873
   4 C :   -0.021474
   5 N :   -0.041653
   6 C :   -0.022968
   7 C :   -0.051596
   8 C :    0.018897
   9 C :   -0.031490
  10 C :   -0.141013
  11 C :   -0.006992
  12 S :    0.459084
  13 C :   -0.259997
  14 C :   -0.082323
  15 Br:    0.144613
  16 C :    0.091025
  17 O :   -0.136373
  18 C :   -0.059661
  19 C :    0.079004
  20 C :   -0.024679
  21 N :   -0.039959
  22 N :   -0.059088
  23 C :    0.007103
  24 C :   -0.062907
  25 C :   -0.055145
  26 N :   -0.280079
  27 S :    0.691989
  28 N :   -0.275350
  29 C :   -0.076052
  30 C :    0.009018
  31 C :   -0.050080
  32 C :    0.038294
  33 N :   -0.008479
  34 C :    0.052991
  35 C :   -0.119016
  36 C :   -0.021526
  37 C :   -0.172343
  38 C :   -0.017061
  39 C :   -0.052456
  40 C :   -0.160591
  41 S :    0.368921
  42 C :   -0.206879
  43 C :   -0.026663
  44 C :   -0.049361
  45 C :   -0.148469
  46 S :    0.346586
  47 C :   -0.090186
  48 C :   -0.201355
  49 S :    0.466231
  50 C :   -0.196931
  51 C :   -0.085051
  52 C :    0.015624
  53 O :   -0.001373
  54 C :    0.020067
  55 N :    0.276378
  56 O :   -0.224190
  57 O :   -0.187304
  58 C :   -0.006611
  59 H :    0.036092
  60 H :    0.042219
  61 H :    0.034247
  62 H :    0.053951
  63 H :    0.030454
  64 H :    0.046808
  65 H :    0.048304
  66 H :    0.018858
  67 H :    0.035261
  68 H :    0.039781
  69 H :    0.077915
  70 H :    0.027963
  71 H :    0.018633
  72 H :    0.032813
  73 H :    0.033415
  74 H :    0.030311
  75 H :    0.032627
  76 H :    0.032833
  77 H :    0.044333
  78 H :    0.026539
  79 H :    0.039001

  Mayer bond orders larger than 0.100000
B(  0-C ,  1-C ) :   1.6731 B(  0-C ,  6-C ) :   1.0176 B(  0-C , 18-C ) :   1.0263
B(  1-C ,  2-C ) :   1.1353 B(  1-C ,  4-C ) :   1.1422 B(  2-C ,  3-N ) :   2.9770
B(  4-C ,  5-N ) :   2.9928 B(  6-C ,  7-C ) :   1.2700 B(  6-C , 11-C ) :   1.3954
B(  7-C ,  8-C ) :   1.4337 B(  7-C , 16-C ) :   0.9606 B(  8-C ,  9-C ) :   1.2431
B(  8-C , 59-H ) :   1.0104 B(  9-C , 10-C ) :   1.3019 B(  9-C , 14-C ) :   1.1719
B( 10-C , 11-C ) :   1.3337 B( 10-C , 12-S ) :   1.0975 B( 11-C , 60-H ) :   0.9794
B( 12-S , 13-C ) :   1.1051 B( 13-C , 14-C ) :   1.6121 B( 13-C , 15-Br) :   1.0232
B( 14-C , 61-H ) :   0.9883 B( 16-C , 17-O ) :   2.2013 B( 16-C , 18-C ) :   0.9147
B( 18-C , 19-C ) :   1.7772 B( 19-C , 20-C ) :   1.0146 B( 19-C , 62-H ) :   0.9417
B( 20-C , 21-N ) :   1.7034 B( 20-C , 23-C ) :   0.1086 B( 20-C , 25-C ) :   1.1281
B( 21-N , 22-N ) :   1.2041 B( 22-N , 23-C ) :   1.6199 B( 23-C , 24-C ) :   1.1058
B( 23-C , 29-C ) :   1.1624 B( 24-C , 25-C ) :   1.2169 B( 24-C , 28-N ) :   1.5461
B( 25-C , 26-N ) :   1.5230 B( 26-N , 27-S ) :   1.2849 B( 26-N , 28-N ) :   0.1416
B( 27-S , 28-N ) :   1.2927 B( 29-C , 30-C ) :   1.7465 B( 29-C , 63-H ) :   0.9469
B( 30-C , 31-C ) :   1.1182 B( 30-C , 32-C ) :   0.9915 B( 31-C , 64-H ) :   0.9202
B( 31-C , 65-H ) :   0.9278 B( 31-C , 66-H ) :   0.9463 B( 32-C , 33-N ) :   1.0554
B( 32-C , 67-H ) :   0.9324 B( 32-C , 68-H ) :   0.9228 B( 33-N , 34-C ) :   1.2025
B( 33-N , 69-H ) :   0.9407 B( 34-C , 35-C ) :   1.6294 B( 34-C , 70-H ) :   0.9696
B( 35-C , 36-C ) :   1.1620 B( 35-C , 71-H ) :   0.9478 B( 36-C , 37-C ) :   1.6012
B( 36-C , 72-H ) :   0.9827 B( 37-C , 38-C ) :   1.1437 B( 37-C , 41-S ) :   1.0124
B( 38-C , 39-C ) :   1.5991 B( 38-C , 73-H ) :   0.9960 B( 39-C , 40-C ) :   1.1819
B( 39-C , 74-H ) :   0.9941 B( 40-C , 41-S ) :   1.0766 B( 40-C , 42-C ) :   1.5062
B( 42-C , 43-C ) :   1.1905 B( 42-C , 46-S ) :   1.0076 B( 43-C , 44-C ) :   1.5953
B( 43-C , 75-H ) :   0.9907 B( 44-C , 45-C ) :   1.1367 B( 44-C , 76-H ) :   0.9993
B( 45-C , 46-S ) :   1.0282 B( 45-C , 47-C ) :   1.5713 B( 47-C , 48-C ) :   1.1664
B( 47-C , 77-H ) :   0.9741 B( 48-C , 49-S ) :   1.1067 B( 48-C , 50-C ) :   0.1095
B( 48-C , 52-C ) :   1.4408 B( 49-S , 50-C ) :   1.1705 B( 50-C , 51-C ) :   1.4182
B( 50-C , 78-H ) :   0.9768 B( 51-C , 52-C ) :   1.2304 B( 51-C , 58-C ) :   1.0699
B( 52-C , 53-O ) :   1.1143 B( 53-O , 54-C ) :   1.1298 B( 54-C , 55-N ) :   0.9341
B( 54-C , 58-C ) :   1.5696 B( 55-N , 56-O ) :   1.5011 B( 55-N , 57-O ) :   1.5141
B( 56-O , 57-O ) :   0.2700 B( 58-C , 79-H ) :   1.0066

-----------------------------------------------------------------------------
         ABSORPTION SPECTRUM VIA TRANSITION ELECTRIC DIPOLE MOMENTS
-----------------------------------------------------------------------------
State   Energy  Wavelength   fosc         T2         TX        TY        TZ
        (cm-1)    (nm)                  (au**2)     (au)      (au)      (au)
-----------------------------------------------------------------------------
   0   10570.4    946.0   0.021805784   0.67914   0.49339  -0.26087  -0.60634
   1   14622.8    683.9   0.450380661  10.13973   0.30693   2.80173   1.48183
   2   15787.2    633.4   0.011944141   0.24907   0.22558   0.43573   0.09122
   3   18173.7    550.2   0.464000888   8.40524  -0.26382  -2.86929  -0.32065
   4   19425.1    514.8   0.005892778   0.09987   0.03060   0.30522   0.07598
   5   19921.5    502.0   0.032716364   0.54065  -0.02564   0.72718  -0.10587
   6   22764.9    439.3   0.063370361   0.91642   0.05139   0.94384   0.15151
   7   25028.7    399.5   0.050521406   0.66453  -0.07118  -0.14924  -0.79824
   8   25772.7    388.0   0.491890096   6.28325   0.79621  -2.24351  -0.78482
   9   26902.9    371.7   0.319948988   3.91524  -1.20187  -1.13408  -1.08840
  10   27582.8    362.5   0.033815417   0.40360   0.01027   0.52483   0.35784
  11   27779.6    360.0   0.016790796   0.19899   0.27163   0.32875   0.13086
  12   28675.5    348.7   0.160557302   1.84330   0.11360   0.43301  -1.28175
  13   28953.2    345.4   0.057337120   0.65195  -0.06237  -0.66429   0.45474
  14   29459.2    339.5   0.123781490   1.38328   0.16360  -0.73267  -0.90538
  15   29551.7    338.4   0.063855520   0.71136  -0.02080  -0.83766   0.09618
  16   29930.1    334.1   0.115997346   1.27590   0.59048  -0.30304  -0.91400
  17   30044.3    332.8   0.170348601   1.86660  -0.07680  -0.37458   1.31164
  18   30622.3    326.6   0.268630218   2.88797   0.26794  -0.28835  -1.65319
  19   30820.6    324.5   0.013459403   0.14377   0.29889  -0.11978   0.20022
  20   30969.6    322.9   0.195042662   2.07334  -0.63014  -1.24786   0.34513
  21   31728.0    315.2   0.008547339   0.08869   0.27567   0.09199  -0.06504
  22   32221.2    310.4   0.044243947   0.45205  -0.38007  -0.29866  -0.46734
  23   32305.4    309.5   0.032105044   0.32717   0.48720  -0.03561   0.29755
  24   32527.0    307.4   0.074370475   0.75272   0.76328   0.00123   0.41245
  25   32605.5    306.7   0.452108278   4.56486   1.60936   0.33154   1.36562
  26   32771.4    305.1   0.043773166   0.43973   0.43947  -0.21667   0.44683
  27   32814.9    304.7   0.060535328   0.60731   0.29020  -0.60615   0.39456
  28   33343.4    299.9   0.011353313   0.11210  -0.21900   0.23220  -0.10108
  29   33581.1    297.8   0.097109526   0.95201  -0.18702   0.95741  -0.02009
  30   34126.5    293.0   0.026709613   0.25766  -0.45032  -0.22153  -0.07615
  31   34253.1    291.9   0.041216544   0.39614  -0.34829  -0.49767   0.16479
  32   34512.2    289.8   0.017086928   0.16299   0.03775  -0.23515  -0.32599
  33   34701.2    288.2   0.054747049   0.51939  -0.09814   0.31130  -0.64253
  34   35243.3    283.7   0.006028742   0.05632  -0.04744  -0.20308   0.11324
  35   35603.4    280.9   0.166061530   1.53551   0.06691   1.10586   0.55507
  36   35877.3    278.7   0.058527931   0.53706   0.55778  -0.44686  -0.16203
  37   35917.0    278.4   0.022369274   0.20503   0.29842  -0.29268  -0.17412
  38   36199.2    276.2   0.018864216   0.17156   0.09931   0.34378  -0.20860
  39   36626.9    273.0   0.002256937   0.02029  -0.11897  -0.03980  -0.06744
  40   37071.3    269.8   0.000775165   0.00688  -0.02091   0.01724   0.07842
  41   37253.3    268.4   0.019197925   0.16965  -0.37354  -0.03164  -0.17064
  42   37303.6    268.1   0.093919639   0.82886  -0.30744   0.43392   0.73895
  43   37802.5    264.5   0.306096118   2.66571   0.85225  -1.03816  -0.92823
  44   37939.8    263.6   0.041731938   0.36212  -0.16829   0.52356   0.24430
  45   38014.9    263.1   0.025042782   0.21687  -0.30329   0.33880  -0.10054
  46   38272.9    261.3   0.100651524   0.86578  -0.41698   0.70661  -0.43886
  47   38508.8    259.7   0.069143688   0.59111   0.19055  -0.21926  -0.71184
  48   38632.6    258.8   0.000440161   0.00375   0.04933   0.02117   0.02948
  49   39026.3    256.2   0.009878148   0.08333  -0.12145   0.26018  -0.02971
  50   39079.7    255.9   0.006726286   0.05666  -0.07322   0.21820  -0.06076
  51   39259.9    254.7   0.011466920   0.09616  -0.29460   0.06033  -0.07568
  52   39308.3    254.4   0.046477733   0.38926   0.28981  -0.35166   0.42615
  53   39555.9    252.8   0.005006734   0.04167  -0.10790  -0.17031   0.03198
  54   39754.3    251.5   0.003531780   0.02925   0.08699  -0.13672   0.05466
  55   39797.0    251.3   0.089960983   0.74418   0.10364  -0.84282   0.15196

FINAL SINGLE POINT ENERGY     -6875.034611008612

DIPOLE MOMENT
-------------
                                X             Y             Z
Electronic contribution:     -9.81384    -111.96579     -90.11149
Nuclear contribution   :      7.26659     115.11738      90.68300
                        -----------------------------------------
Total Dipole Moment    :     -2.54725       3.15159       0.57151
                        -----------------------------------------
Magnitude (a.u.)       :      4.09238
Magnitude (Debye)      :     10.40202

Rotational constants in cm-1:     0.001872     0.000669     0.000587
Rotational constants in MHz :    56.108729    20.049603    17.609776

                             ****ORCA TERMINATED NORMALLY****
TOTAL RUN TIME: 0 days 0 hours 7 minutes 56 seconds 909 msec
