                         Program Version 4.2.0 -  RELEASE  -
|  1> # ORCA input file
|  2> # SCF done       -200.271120271481          0.001610465207
|  3> ! CAM-B3LYP def2-SVP def2/J RIJCOSX Grid4 TightSCF
|  4> %maxcore 5000
|  5> %tddft
|  6>     Mode sTDDFT
|  7>     Ethresh 5.0
|  8>     maxcore 5000
|  9> end
| 10>
| 11> %pal
| 12>   nprocs 6
| 13>   end
| 14> * xyz 0 1
| 15>    C       -9.65080        -2.43185         8.03790
| 16>    C       -8.67681        -3.16523         7.39787
| 17>    C       -7.65541        -3.87187         8.06136
| 18>    N       -6.79651        -4.47154         8.53404
| 19>    C       -8.54552        -3.32502         6.00455
| 20>    N       -8.36149        -3.51159         4.88509
| 21>    C       -9.76657        -2.28058         9.48803
| 22>    C      -10.88110        -1.45432         9.76913
| 23>    C      -11.25848        -1.12665        11.04723
| 24>    C      -10.49964        -1.64232        12.10406
| 25>    C       -9.38881        -2.46686        11.81447
| 26>    C       -9.00567        -2.79614        10.51918
| 27>    S       -8.59361        -3.00033        13.26560
| 28>    C       -9.75117        -2.11986        14.22684
| 29>    C      -10.68435        -1.45935        13.50234
| 30>   Br       -9.61923        -2.15755        16.09839
| 31>    C      -11.51983        -1.05072         8.49776
| 32>    O      -12.50180        -0.34148         8.38398
| 33>    C      -10.72456        -1.68871         7.43335
| 34>    C      -11.00328        -1.59231         6.08336
| 35>    C      -12.06603        -0.88318         5.53620
| 36>    C      -12.33387        -0.86253         4.18012
| 37>    C      -13.41262        -0.20677         3.54192
| 38>    C      -13.46668        -0.39736         2.19215
| 39>    C      -12.42069        -1.20802         1.70159
| 40>    S      -11.36141        -1.71013         3.00162
| 41>    C      -12.20458        -1.62326         0.40022
| 42>    C      -13.02566        -1.40389        -0.73111
| 43>    C      -12.56433        -2.00855        -1.85857
| 44>    C      -11.33647        -2.70720        -1.69125
| 45>    S      -10.80740        -2.58125        -0.02500
| 46>    C      -10.66084        -3.36614        -2.68565
| 47>    C       -9.38733        -3.95922        -2.61302
| 48>    S       -8.41884        -3.87230        -1.16422
| 49>    C       -7.12157        -4.67896        -1.91554
| 50>    C       -7.39024        -5.02870        -3.20871
| 51>    N       -6.49421        -5.78620        -4.00485
| 52>    O       -6.00019        -4.93913        -5.07356
| 53>    O       -5.38971        -6.21725        -3.25851
| 54>    C       -8.69109        -4.63147        -3.62848
| 55>    N       -9.28756        -4.97103        -4.83950
| 56>    O       -8.53656        -5.63556        -5.75554
| 57>    O       -9.91933        -3.81126        -5.46186
| 58>    C      -10.61225        -4.05081        -6.57763
| 59>    C      -11.72890        -3.33107        -6.85453
| 60>    C      -12.53917        -3.36579        -8.02201
| 61>    C      -13.63254        -2.56134        -7.95326
| 62>    C      -13.74624        -1.84345        -6.73696
| 63>    S      -12.38876        -2.18114        -5.69503
| 64>    C      -14.76265        -1.00599        -6.31708
| 65>    C      -15.92682        -0.59802        -6.99781
| 66>    C      -16.73833         0.21534        -6.25848
| 67>    C      -16.26301         0.47740        -4.95554
| 68>    S      -14.72813        -0.31372        -4.70736
| 69>    C      -16.87407         1.23341        -3.96911
| 70>    C      -16.33688         1.34652        -2.69665
| 71>    C      -16.78752         2.04405        -1.59219
| 72>    C      -17.76441         3.08129        -1.41421
| 73>    C      -18.23620         3.96099        -2.36124
| 74>    C      -19.18521         4.96764        -2.09765
| 75>    N      -19.97209         5.79204        -1.95131
| 76>    C      -17.76489         4.05113        -3.68465
| 77>    N      -17.39512         4.21447        -4.76007
| 78>    C      -18.03180         3.18643         0.02243
| 79>    C      -17.11655         2.35502         0.71548
| 80>    C      -16.28681         1.64115        -0.27116
| 81>    O      -15.39693         0.83838        -0.04194
| 82>    C      -17.08435         2.26926         2.08534
| 83>    C      -18.00790         3.03235         2.80893
| 84>    C      -18.92764         3.84587         2.10831
| 85>    C      -18.95399         3.93920         0.72045
| 86>    S      -19.98743         4.69302         3.19332
| 87>    C      -19.18685         3.95643         4.55653
| 88>    C      -18.17954         3.11744         4.21815
| 89>   Br      -19.75951         4.36296         6.29631
| 90>    H      -12.11369        -0.49443        11.22799
| 91>    H       -8.15051        -3.42937        10.35277
| 92>    H      -11.47170        -0.86788        13.93278
| 93>    H      -10.35997        -2.11760         5.38807
| 94>    H      -12.72736        -0.33813         6.19404
| 95>    H      -14.11541         0.37829         4.10849
| 96>    H      -14.20922         0.02254         1.53686
| 97>    H      -13.92280        -0.81470        -0.66751
| 98>    H      -13.04853        -1.96210        -2.81795
| 99>    H      -11.15461        -3.40272        -3.64438
|100>    H       -6.21421        -4.87523        -1.38105
|101>    H       -5.34195        -5.46425        -5.55107
|102>    H       -5.30118        -7.16593        -3.43112
|103>    H       -7.64079        -5.23304        -5.83667
|104>    H      -10.24278        -4.81858        -7.24815
|105>    H      -12.29013        -3.99548        -8.85695
|106>    H      -14.37069        -2.47438        -8.72992
|107>    H      -16.13882        -0.90989        -8.00491
|108>    H      -17.66563         0.63184        -6.60902
|109>    H      -17.81246         1.70246        -4.22054
|110>    H      -15.47070         0.72245        -2.48727
|111>    H      -16.37083         1.63471         2.58766
|112>    H      -19.67691         4.57263         0.23418
|113>    H      -17.58199         2.58041         4.93221
|114> *
|115>
|116>                          ****END OF INPUT****

CARTESIAN COORDINATES (ANGSTROEM)
---------------------------------
  C     -9.650800   -2.431850    8.037900
  C     -8.676810   -3.165230    7.397870
  C     -7.655410   -3.871870    8.061360
  N     -6.796510   -4.471540    8.534040
  C     -8.545520   -3.325020    6.004550
  N     -8.361490   -3.511590    4.885090
  C     -9.766570   -2.280580    9.488030
  C    -10.881100   -1.454320    9.769130
  C    -11.258480   -1.126650   11.047230
  C    -10.499640   -1.642320   12.104060
  C     -9.388810   -2.466860   11.814470
  C     -9.005670   -2.796140   10.519180
  S     -8.593610   -3.000330   13.265600
  C     -9.751170   -2.119860   14.226840
  C    -10.684350   -1.459350   13.502340
  Br    -9.619230   -2.157550   16.098390
  C    -11.519830   -1.050720    8.497760
  O    -12.501800   -0.341480    8.383980
  C    -10.724560   -1.688710    7.433350
  C    -11.003280   -1.592310    6.083360
  C    -12.066030   -0.883180    5.536200
  C    -12.333870   -0.862530    4.180120
  C    -13.412620   -0.206770    3.541920
  C    -13.466680   -0.397360    2.192150
  C    -12.420690   -1.208020    1.701590
  S    -11.361410   -1.710130    3.001620
  C    -12.204580   -1.623260    0.400220
  C    -13.025660   -1.403890   -0.731110
  C    -12.564330   -2.008550   -1.858570
  C    -11.336470   -2.707200   -1.691250
  S    -10.807400   -2.581250   -0.025000
  C    -10.660840   -3.366140   -2.685650
  C     -9.387330   -3.959220   -2.613020
  S     -8.418840   -3.872300   -1.164220
  C     -7.121570   -4.678960   -1.915540
  C     -7.390240   -5.028700   -3.208710
  N     -6.494210   -5.786200   -4.004850
  O     -6.000190   -4.939130   -5.073560
  O     -5.389710   -6.217250   -3.258510
  C     -8.691090   -4.631470   -3.628480
  N     -9.287560   -4.971030   -4.839500
  O     -8.536560   -5.635560   -5.755540
  O     -9.919330   -3.811260   -5.461860
  C    -10.612250   -4.050810   -6.577630
  C    -11.728900   -3.331070   -6.854530
  C    -12.539170   -3.365790   -8.022010
  C    -13.632540   -2.561340   -7.953260
  C    -13.746240   -1.843450   -6.736960
  S    -12.388760   -2.181140   -5.695030
  C    -14.762650   -1.005990   -6.317080
  C    -15.926820   -0.598020   -6.997810
  C    -16.738330    0.215340   -6.258480
  C    -16.263010    0.477400   -4.955540
  S    -14.728130   -0.313720   -4.707360
  C    -16.874070    1.233410   -3.969110
  C    -16.336880    1.346520   -2.696650
  C    -16.787520    2.044050   -1.592190
  C    -17.764410    3.081290   -1.414210
  C    -18.236200    3.960990   -2.361240
  C    -19.185210    4.967640   -2.097650
  N    -19.972090    5.792040   -1.951310
  C    -17.764890    4.051130   -3.684650
  N    -17.395120    4.214470   -4.760070
  C    -18.031800    3.186430    0.022430
  C    -17.116550    2.355020    0.715480
  C    -16.286810    1.641150   -0.271160
  O    -15.396930    0.838380   -0.041940
  C    -17.084350    2.269260    2.085340
  C    -18.007900    3.032350    2.808930
  C    -18.927640    3.845870    2.108310
  C    -18.953990    3.939200    0.720450
  S    -19.987430    4.693020    3.193320
  C    -19.186850    3.956430    4.556530
  C    -18.179540    3.117440    4.218150
  Br   -19.759510    4.362960    6.296310
  H    -12.113690   -0.494430   11.227990
  H     -8.150510   -3.429370   10.352770
  H    -11.471700   -0.867880   13.932780
  H    -10.359970   -2.117600    5.388070
  H    -12.727360   -0.338130    6.194040
  H    -14.115410    0.378290    4.108490
  H    -14.209220    0.022540    1.536860
  H    -13.922800   -0.814700   -0.667510
  H    -13.048530   -1.962100   -2.817950
  H    -11.154610   -3.402720   -3.644380
  H     -6.214210   -4.875230   -1.381050
  H     -5.341950   -5.464250   -5.551070
  H     -5.301180   -7.165930   -3.431120
  H     -7.640790   -5.233040   -5.836670
  H    -10.242780   -4.818580   -7.248150
  H    -12.290130   -3.995480   -8.856950
  H    -14.370690   -2.474380   -8.729920
  H    -16.138820   -0.909890   -8.004910
  H    -17.665630    0.631840   -6.609020
  H    -17.812460    1.702460   -4.220540
  H    -15.470700    0.722450   -2.487270
  H    -16.370830    1.634710    2.587660
  H    -19.676910    4.572630    0.234180
  H    -17.581990    2.580410    4.932210

 Total Charge           Charge          ....    0
 Multiplicity           Mult            ....    1
 Number of Electrons    NEL             ....  620
 Basis Dimension        Dim             .... 1234

ORBITAL ENERGIES
----------------

  NO   OCC          E(Eh)            E(eV)
   0   2.0000    -482.879823    -13139.8280
   1   2.0000    -482.873847    -13139.6654
   2   2.0000     -88.977456     -2421.1997
   3   2.0000     -88.975558     -2421.1480
   4   2.0000     -88.969748     -2420.9899
   5   2.0000     -88.969460     -2420.9821
   6   2.0000     -88.961001     -2420.7519
   7   2.0000     -88.956225     -2420.6219
   8   2.0000     -88.949665     -2420.4434
   9   2.0000     -62.557515     -1702.2765
  10   2.0000     -62.551570     -1702.1147
  11   2.0000     -56.391463     -1534.4897
  12   2.0000     -56.388751     -1534.4159
  13   2.0000     -56.388718     -1534.4150
  14   2.0000     -56.385501     -1534.3275
  15   2.0000     -56.382819     -1534.2545
  16   2.0000     -56.382779     -1534.2534
  17   2.0000     -19.312942      -525.5319
  18   2.0000     -19.291946      -524.9605
  19   2.0000     -19.288928      -524.8784
  20   2.0000     -19.284331      -524.7533
  21   2.0000     -19.213662      -522.8303
  22   2.0000     -19.194077      -522.2974
  23   2.0000     -14.552093      -395.9826
  24   2.0000     -14.546607      -395.8333
  25   2.0000     -14.404384      -391.9632
  26   2.0000     -14.402773      -391.9194
  27   2.0000     -14.395411      -391.7190
  28   2.0000     -14.393284      -391.6612
  29   2.0000     -10.377082      -282.3747
  30   2.0000     -10.361600      -281.9535
  31   2.0000     -10.352482      -281.7054
  32   2.0000     -10.349637      -281.6280
  33   2.0000     -10.344584      -281.4904
  34   2.0000     -10.344307      -281.4829
  35   2.0000     -10.341839      -281.4157
  36   2.0000     -10.336948      -281.2826
  37   2.0000     -10.335426      -281.2412
  38   2.0000     -10.332128      -281.1515
  39   2.0000     -10.330757      -281.1142
  40   2.0000     -10.329192      -281.0716
  41   2.0000     -10.327515      -281.0260
  42   2.0000     -10.325116      -280.9607
  43   2.0000     -10.323792      -280.9247
  44   2.0000     -10.322354      -280.8855
  45   2.0000     -10.319017      -280.7947
  46   2.0000     -10.318988      -280.7939
  47   2.0000     -10.318272      -280.7744
  48   2.0000     -10.316890      -280.7369
  49   2.0000     -10.315763      -280.7062
  50   2.0000     -10.314465      -280.6709
  51   2.0000     -10.313703      -280.6501
  52   2.0000     -10.312427      -280.6154
  53   2.0000     -10.311750      -280.5970
  54   2.0000     -10.308670      -280.5132
  55   2.0000     -10.308122      -280.4983
  56   2.0000     -10.306527      -280.4549
  57   2.0000     -10.306299      -280.4486
  58   2.0000     -10.300886      -280.3014
  59   2.0000     -10.300667      -280.2954
  60   2.0000     -10.299626      -280.2671
  61   2.0000     -10.299124      -280.2534
  62   2.0000     -10.297978      -280.2222
  63   2.0000     -10.297973      -280.2221
  64   2.0000     -10.297714      -280.2150
  65   2.0000     -10.296843      -280.1913
  66   2.0000     -10.292456      -280.0720
  67   2.0000     -10.291130      -280.0359
  68   2.0000     -10.291007      -280.0325
  69   2.0000     -10.290634      -280.0224
  70   2.0000     -10.288890      -279.9749
  71   2.0000     -10.287940      -279.9491
  72   2.0000     -10.287067      -279.9253
  73   2.0000     -10.286312      -279.9048
  74   2.0000     -10.285524      -279.8833
  75   2.0000     -10.284377      -279.8521
  76   2.0000     -10.283107      -279.8176
  77   2.0000     -10.282965      -279.8137
  78   2.0000     -10.281716      -279.7797
  79   2.0000     -10.281069      -279.7621
  80   2.0000     -10.272576      -279.5310
  81   2.0000     -10.269062      -279.4354
  82   2.0000     -10.265264      -279.3320
  83   2.0000      -8.786937      -239.1047
  84   2.0000      -8.781001      -238.9432
  85   2.0000      -8.073013      -219.6778
  86   2.0000      -8.070893      -219.6202
  87   2.0000      -8.065647      -219.4774
  88   2.0000      -8.065411      -219.4710
  89   2.0000      -8.056937      -219.2404
  90   2.0000      -8.052526      -219.1204
  91   2.0000      -8.045750      -218.9360
  92   2.0000      -6.623208      -180.2267
  93   2.0000      -6.617224      -180.0638
  94   2.0000      -6.608676      -179.8312
  95   2.0000      -6.608494      -179.8263
  96   2.0000      -6.602762      -179.6703
  97   2.0000      -6.602608      -179.6661
  98   2.0000      -6.042815      -164.4334
  99   2.0000      -6.040196      -164.3621
 100   2.0000      -6.038688      -164.3211
 101   2.0000      -6.035895      -164.2451
 102   2.0000      -6.035329      -164.2297
 103   2.0000      -6.035000      -164.2207
 104   2.0000      -6.033944      -164.1920
 105   2.0000      -6.033068      -164.1681
 106   2.0000      -6.031056      -164.1134
 107   2.0000      -6.031017      -164.1123
 108   2.0000      -6.026914      -164.0007
 109   2.0000      -6.026657      -163.9937
 110   2.0000      -6.026610      -163.9924
 111   2.0000      -6.022353      -163.8766
 112   2.0000      -6.022224      -163.8731
 113   2.0000      -6.018170      -163.7627
 114   2.0000      -6.018033      -163.7590
 115   2.0000      -6.015290      -163.6844
 116   2.0000      -6.013550      -163.6370
 117   2.0000      -6.011328      -163.5766
 118   2.0000      -6.006953      -163.4575
 119   2.0000      -2.739109       -74.5350
 120   2.0000      -2.734978       -74.4225
 121   2.0000      -2.734869       -74.4196
 122   2.0000      -2.733097       -74.3713
 123   2.0000      -2.729039       -74.2609
 124   2.0000      -2.728937       -74.2581
 125   2.0000      -2.723298       -74.1047
 126   2.0000      -2.723291       -74.1045
 127   2.0000      -2.717435       -73.9452
 128   2.0000      -2.717408       -73.9444
 129   2.0000      -1.259592       -34.2752
 130   2.0000      -1.236693       -33.6521
 131   2.0000      -1.160880       -31.5891
 132   2.0000      -1.126568       -30.6555
 133   2.0000      -1.126012       -30.6403
 134   2.0000      -1.107327       -30.1319
 135   2.0000      -1.024664       -27.8825
 136   2.0000      -1.021058       -27.7844
 137   2.0000      -1.015210       -27.6253
 138   2.0000      -1.005002       -27.3475
 139   2.0000      -1.003594       -27.3092
 140   2.0000      -1.001751       -27.2590
 141   2.0000      -0.998542       -27.1717
 142   2.0000      -0.994106       -27.0510
 143   2.0000      -0.982460       -26.7341
 144   2.0000      -0.980851       -26.6903
 145   2.0000      -0.979381       -26.6503
 146   2.0000      -0.973626       -26.4937
 147   2.0000      -0.969382       -26.3782
 148   2.0000      -0.954097       -25.9623
 149   2.0000      -0.937706       -25.5163
 150   2.0000      -0.936028       -25.4706
 151   2.0000      -0.925691       -25.1893
 152   2.0000      -0.916522       -24.9398
 153   2.0000      -0.903218       -24.5778
 154   2.0000      -0.900393       -24.5010
 155   2.0000      -0.892534       -24.2871
 156   2.0000      -0.890860       -24.2415
 157   2.0000      -0.886010       -24.1096
 158   2.0000      -0.878968       -23.9179
 159   2.0000      -0.872983       -23.7551
 160   2.0000      -0.871858       -23.7245
 161   2.0000      -0.868714       -23.6389
 162   2.0000      -0.862829       -23.4788
 163   2.0000      -0.853254       -23.2182
 164   2.0000      -0.846519       -23.0350
 165   2.0000      -0.839609       -22.8469
 166   2.0000      -0.833379       -22.6774
 167   2.0000      -0.828094       -22.5336
 168   2.0000      -0.822830       -22.3903
 169   2.0000      -0.815021       -22.1779
 170   2.0000      -0.812486       -22.1089
 171   2.0000      -0.806053       -21.9338
 172   2.0000      -0.795123       -21.6364
 173   2.0000      -0.779971       -21.2241
 174   2.0000      -0.766186       -20.8490
 175   2.0000      -0.754631       -20.5346
 176   2.0000      -0.752253       -20.4698
 177   2.0000      -0.739040       -20.1103
 178   2.0000      -0.734238       -19.9796
 179   2.0000      -0.724904       -19.7256
 180   2.0000      -0.713850       -19.4249
 181   2.0000      -0.710934       -19.3455
 182   2.0000      -0.701327       -19.0841
 183   2.0000      -0.694560       -18.8999
 184   2.0000      -0.692097       -18.8329
 185   2.0000      -0.681924       -18.5561
 186   2.0000      -0.677793       -18.4437
 187   2.0000      -0.676044       -18.3961
 188   2.0000      -0.671522       -18.2730
 189   2.0000      -0.668479       -18.1902
 190   2.0000      -0.660503       -17.9732
 191   2.0000      -0.656960       -17.8768
 192   2.0000      -0.654909       -17.8210
 193   2.0000      -0.649562       -17.6755
 194   2.0000      -0.645899       -17.5758
 195   2.0000      -0.642721       -17.4893
 196   2.0000      -0.639725       -17.4078
 197   2.0000      -0.635356       -17.2889
 198   2.0000      -0.627979       -17.0882
 199   2.0000      -0.625398       -17.0179
 200   2.0000      -0.621988       -16.9251
 201   2.0000      -0.616893       -16.7865
 202   2.0000      -0.611018       -16.6266
 203   2.0000      -0.609178       -16.5766
 204   2.0000      -0.604596       -16.4519
 205   2.0000      -0.596516       -16.2320
 206   2.0000      -0.595078       -16.1929
 207   2.0000      -0.588946       -16.0260
 208   2.0000      -0.587776       -15.9942
 209   2.0000      -0.579581       -15.7712
 210   2.0000      -0.578699       -15.7472
 211   2.0000      -0.576326       -15.6826
 212   2.0000      -0.567863       -15.4523
 213   2.0000      -0.562063       -15.2945
 214   2.0000      -0.558494       -15.1974
 215   2.0000      -0.549784       -14.9604
 216   2.0000      -0.543083       -14.7780
 217   2.0000      -0.541386       -14.7319
 218   2.0000      -0.540478       -14.7071
 219   2.0000      -0.536472       -14.5981
 220   2.0000      -0.534906       -14.5555
 221   2.0000      -0.532858       -14.4998
 222   2.0000      -0.528160       -14.3720
 223   2.0000      -0.527523       -14.3546
 224   2.0000      -0.523506       -14.2453
 225   2.0000      -0.520039       -14.1510
 226   2.0000      -0.519402       -14.1337
 227   2.0000      -0.518446       -14.1076
 228   2.0000      -0.516461       -14.0536
 229   2.0000      -0.514852       -14.0098
 230   2.0000      -0.510783       -13.8991
 231   2.0000      -0.509346       -13.8600
 232   2.0000      -0.506509       -13.7828
 233   2.0000      -0.505323       -13.7505
 234   2.0000      -0.501229       -13.6391
 235   2.0000      -0.500267       -13.6130
 236   2.0000      -0.498155       -13.5555
 237   2.0000      -0.494946       -13.4682
 238   2.0000      -0.492173       -13.3927
 239   2.0000      -0.491833       -13.3835
 240   2.0000      -0.490834       -13.3563
 241   2.0000      -0.490580       -13.3494
 242   2.0000      -0.487729       -13.2718
 243   2.0000      -0.486201       -13.2302
 244   2.0000      -0.483535       -13.1577
 245   2.0000      -0.483207       -13.1487
 246   2.0000      -0.478310       -13.0155
 247   2.0000      -0.475380       -12.9358
 248   2.0000      -0.473439       -12.8829
 249   2.0000      -0.472874       -12.8675
 250   2.0000      -0.469059       -12.7638
 251   2.0000      -0.467897       -12.7321
 252   2.0000      -0.464720       -12.6457
 253   2.0000      -0.463001       -12.5989
 254   2.0000      -0.457838       -12.4584
 255   2.0000      -0.453865       -12.3503
 256   2.0000      -0.452524       -12.3138
 257   2.0000      -0.449297       -12.2260
 258   2.0000      -0.442601       -12.0438
 259   2.0000      -0.441243       -12.0068
 260   2.0000      -0.440977       -11.9996
 261   2.0000      -0.438980       -11.9452
 262   2.0000      -0.434388       -11.8203
 263   2.0000      -0.433572       -11.7981
 264   2.0000      -0.432092       -11.7578
 265   2.0000      -0.431186       -11.7332
 266   2.0000      -0.430869       -11.7245
 267   2.0000      -0.429389       -11.6843
 268   2.0000      -0.425071       -11.5668
 269   2.0000      -0.424683       -11.5562
 270   2.0000      -0.422607       -11.4997
 271   2.0000      -0.421437       -11.4679
 272   2.0000      -0.421183       -11.4610
 273   2.0000      -0.418140       -11.3782
 274   2.0000      -0.414351       -11.2751
 275   2.0000      -0.413689       -11.2571
 276   2.0000      -0.411680       -11.2024
 277   2.0000      -0.407090       -11.0775
 278   2.0000      -0.403969       -10.9926
 279   2.0000      -0.402021       -10.9395
 280   2.0000      -0.399045       -10.8586
 281   2.0000      -0.398311       -10.8386
 282   2.0000      -0.395773       -10.7695
 283   2.0000      -0.388777       -10.5792
 284   2.0000      -0.387641       -10.5483
 285   2.0000      -0.381946       -10.3933
 286   2.0000      -0.379603       -10.3295
 287   2.0000      -0.371192       -10.1007
 288   2.0000      -0.370479       -10.0812
 289   2.0000      -0.369215       -10.0469
 290   2.0000      -0.364160        -9.9093
 291   2.0000      -0.363551        -9.8927
 292   2.0000      -0.360370        -9.8062
 293   2.0000      -0.351543        -9.5660
 294   2.0000      -0.345162        -9.3923
 295   2.0000      -0.343416        -9.3448
 296   2.0000      -0.341571        -9.2946
 297   2.0000      -0.336715        -9.1625
 298   2.0000      -0.327579        -8.9139
 299   2.0000      -0.317574        -8.6416
 300   2.0000      -0.314419        -8.5558
 301   2.0000      -0.310318        -8.4442
 302   2.0000      -0.310076        -8.4376
 303   2.0000      -0.299170        -8.1408
 304   2.0000      -0.298206        -8.1146
 305   2.0000      -0.286800        -7.8042
 306   2.0000      -0.280735        -7.6392
 307   2.0000      -0.273588        -7.4447
 308   2.0000      -0.238924        -6.5015
 309   2.0000      -0.219731        -5.9792
 310   0.0000      -0.110617        -3.0100
 311   0.0000      -0.100553        -2.7362
 312   0.0000      -0.062485        -1.7003
 313   0.0000      -0.053144        -1.4461
 314   0.0000      -0.042082        -1.1451

MULLIKEN ATOMIC CHARGES
-----------------------
   0 C :    0.331320
   1 C :   -0.369896
   2 C :   -0.189153
   3 N :    0.133292
   4 C :   -0.191640
   5 N :    0.128227
   6 C :    0.013289
   7 C :   -0.008581
   8 C :   -0.078631
   9 C :    0.118686
  10 C :   -0.092227
  11 C :   -0.026602
  12 S :    0.176848
  13 C :   -0.123692
  14 C :    0.035395
  15 Br:    0.011673
  16 C :    0.135521
  17 O :   -0.169678
  18 C :   -0.091943
  19 C :   -0.036638
  20 C :   -0.030324
  21 C :    0.011936
  22 C :    0.017667
  23 C :    0.061012
  24 C :   -0.057076
  25 S :    0.103596
  26 C :   -0.021097
  27 C :    0.037003
  28 C :    0.054055
  29 C :   -0.040982
  30 S :    0.086084
  31 C :    0.016965
  32 C :   -0.179056
  33 S :    0.156400
  34 C :   -0.089142
  35 C :    0.125827
  36 N :   -0.025115
  37 O :   -0.229778
  38 O :   -0.207978
  39 C :    0.203784
  40 N :    0.061731
  41 O :   -0.200046
  42 O :   -0.242552
  43 C :    0.138825
  44 C :   -0.039543
  45 C :    0.071850
  46 C :    0.017039
  47 C :   -0.026110
  48 S :    0.103868
  49 C :   -0.059361
  50 C :    0.048427
  51 C :    0.029287
  52 C :   -0.011788
  53 S :    0.081045
  54 C :    0.007195
  55 C :    0.005284
  56 C :   -0.115429
  57 C :    0.303114
  58 C :   -0.351401
  59 C :   -0.180647
  60 N :    0.135883
  61 C :   -0.218618
  62 N :    0.158467
  63 C :    0.000959
  64 C :    0.003505
  65 C :    0.163759
  66 O :   -0.179062
  67 C :   -0.072933
  68 C :    0.113845
  69 C :   -0.096195
  70 C :   -0.020793
  71 S :    0.183897
  72 C :   -0.126914
  73 C :    0.041638
  74 Br:    0.020868
  75 H :   -0.016535
  76 H :   -0.010743
  77 H :   -0.006850
  78 H :    0.012761
  79 H :    0.012229
  80 H :   -0.009269
  81 H :   -0.013332
  82 H :   -0.002919
  83 H :   -0.025038
  84 H :   -0.018043
  85 H :    0.032555
  86 H :    0.187508
  87 H :    0.204752
  88 H :    0.180604
  89 H :    0.034881
  90 H :    0.004672
  91 H :   -0.000729
  92 H :   -0.002514
  93 H :    0.003916
  94 H :    0.006576
  95 H :    0.014922
  96 H :   -0.028317
  97 H :   -0.005577
  98 H :   -0.003953
Sum of atomic charges:   -0.0000000

LOEWDIN ATOMIC CHARGES
----------------------
   0 C :    0.073644
   1 C :   -0.160511
   2 C :   -0.019044
   3 N :   -0.073445
   4 C :   -0.020514
   5 N :   -0.071476
   6 C :   -0.017490
   7 C :   -0.048025
   8 C :    0.015966
   9 C :   -0.036709
  10 C :   -0.146319
  11 C :   -0.014607
  12 S :    0.425286
  13 C :   -0.275784
  14 C :   -0.071182
  15 Br:    0.127369
  16 C :    0.081577
  17 O :   -0.161535
  18 C :   -0.113749
  19 C :    0.051188
  20 C :   -0.078129
  21 C :   -0.099232
  22 C :   -0.050898
  23 C :    0.004518
  24 C :   -0.187569
  25 S :    0.407370
  26 C :   -0.142439
  27 C :   -0.029990
  28 C :   -0.015947
  29 C :   -0.154065
  30 S :    0.383846
  31 C :   -0.055000
  32 C :   -0.182530
  33 S :    0.482847
  34 C :   -0.180186
  35 C :   -0.078118
  36 N :    0.070957
  37 O :   -0.092306
  38 O :   -0.076112
  39 C :   -0.052384
  40 N :    0.110166
  41 O :   -0.060786
  42 O :   -0.065393
  43 C :    0.058495
  44 C :   -0.198847
  45 C :    0.003286
  46 C :   -0.044469
  47 C :   -0.135691
  48 S :    0.410704
  49 C :   -0.205067
  50 C :    0.000586
  51 C :   -0.044957
  52 C :   -0.091670
  53 S :    0.403822
  54 C :   -0.077563
  55 C :    0.052042
  56 C :   -0.119497
  57 C :    0.069773
  58 C :   -0.152983
  59 C :   -0.019746
  60 N :   -0.064149
  61 C :   -0.023373
  62 N :   -0.061837
  63 C :   -0.013853
  64 C :   -0.052699
  65 C :    0.095511
  66 O :   -0.174865
  67 C :    0.016644
  68 C :   -0.036713
  69 C :   -0.144013
  70 C :   -0.014052
  71 S :    0.431445
  72 C :   -0.273609
  73 C :   -0.070706
  74 Br:    0.134274
  75 H :    0.038215
  76 H :    0.039626
  77 H :    0.037201
  78 H :    0.031008
  79 H :    0.036937
  80 H :    0.032799
  81 H :    0.031168
  82 H :    0.034791
  83 H :    0.019551
  84 H :    0.024711
  85 H :    0.033946
  86 H :    0.079102
  87 H :    0.091017
  88 H :    0.043588
  89 H :    0.028295
  90 H :    0.040533
  91 H :    0.036719
  92 H :    0.036919
  93 H :    0.040867
  94 H :    0.038018
  95 H :    0.029630
  96 H :    0.036868
  97 H :    0.040738
  98 H :    0.038266

  Mayer bond orders larger than 0.100000
B(  0-C ,  1-C ) :   1.5744 B(  0-C ,  6-C ) :   0.9881 B(  0-C , 18-C ) :   1.1214
B(  1-C ,  2-C ) :   1.1510 B(  1-C ,  4-C ) :   1.1570 B(  2-C ,  3-N ) :   2.9604
B(  4-C ,  5-N ) :   2.9563 B(  6-C ,  7-C ) :   1.2800 B(  6-C , 11-C ) :   1.4207
B(  7-C ,  8-C ) :   1.4323 B(  7-C , 16-C ) :   0.9347 B(  8-C ,  9-C ) :   1.2374
B(  8-C , 75-H ) :   1.0163 B(  9-C , 10-C ) :   1.3187 B(  9-C , 14-C ) :   1.1592
B( 10-C , 11-C ) :   1.3197 B( 10-C , 12-S ) :   1.0818 B( 11-C , 76-H ) :   0.9792
B( 12-S , 13-C ) :   1.0850 B( 13-C , 14-C ) :   1.6218 B( 13-C , 15-Br) :   1.0113
B( 14-C , 77-H ) :   1.0001 B( 16-C , 17-O ) :   2.1809 B( 16-C , 18-C ) :   0.9705
B( 18-C , 19-C ) :   1.4613 B( 19-C , 20-C ) :   1.2741 B( 19-C , 78-H ) :   0.9444
B( 20-C , 21-C ) :   1.4018 B( 20-C , 79-H ) :   0.9785 B( 21-C , 22-C ) :   1.1790
B( 21-C , 25-S ) :   1.0925 B( 22-C , 23-C ) :   1.5292 B( 22-C , 80-H ) :   1.0018
B( 23-C , 24-C ) :   1.2162 B( 23-C , 81-H ) :   0.9679 B( 24-C , 25-S ) :   1.0367
B( 24-C , 26-C ) :   1.4827 B( 26-C , 27-C ) :   1.1907 B( 26-C , 30-S ) :   1.0669
B( 27-C , 28-C ) :   1.5816 B( 27-C , 82-H ) :   0.9783 B( 28-C , 29-C ) :   1.1351
B( 28-C , 83-H ) :   0.9966 B( 29-C , 30-S ) :   1.0266 B( 29-C , 31-C ) :   1.5753
B( 31-C , 32-C ) :   1.1994 B( 31-C , 84-H ) :   0.9565 B( 32-C , 33-S ) :   1.1212
B( 32-C , 39-C ) :   1.4273 B( 33-S , 34-C ) :   1.1664 B( 34-C , 35-C ) :   1.5315
B( 34-C , 85-H ) :   0.9660 B( 35-C , 36-N ) :   0.9851 B( 35-C , 39-C ) :   1.3129
B( 36-N , 37-O ) :   0.9029 B( 36-N , 38-O ) :   1.0069 B( 37-O , 86-H ) :   0.9548
B( 37-O , 88-H ) :   0.1295 B( 38-O , 87-H ) :   0.9647 B( 39-C , 40-N ) :   1.0447
B( 40-N , 41-O ) :   1.0491 B( 40-N , 42-O ) :   0.8189 B( 41-O , 88-H ) :   0.8989
B( 42-O , 43-C ) :   1.1337 B( 43-C , 44-C ) :   1.6190 B( 43-C , 89-H ) :   0.9669
B( 44-C , 45-C ) :   1.1388 B( 44-C , 48-S ) :   1.0045 B( 45-C , 46-C ) :   1.6147
B( 45-C , 90-H ) :   0.9934 B( 46-C , 47-C ) :   1.1866 B( 46-C , 91-H ) :   0.9936
B( 47-C , 48-S ) :   1.0947 B( 47-C , 49-C ) :   1.4666 B( 49-C , 50-C ) :   1.2280
B( 49-C , 53-S ) :   1.0330 B( 50-C , 51-C ) :   1.5307 B( 50-C , 92-H ) :   0.9938
B( 51-C , 52-C ) :   1.1957 B( 51-C , 93-H ) :   1.0010 B( 52-C , 53-S ) :   1.1019
B( 52-C , 54-C ) :   1.4559 B( 54-C , 55-C ) :   1.2656 B( 54-C , 94-H ) :   0.9661
B( 55-C , 56-C ) :   1.4776 B( 55-C , 95-H ) :   0.9375 B( 56-C , 57-C ) :   1.0904
B( 56-C , 65-C ) :   1.0239 B( 57-C , 58-C ) :   1.5983 B( 57-C , 63-C ) :   0.9994
B( 58-C , 59-C ) :   1.1323 B( 58-C , 61-C ) :   1.1733 B( 59-C , 60-N ) :   2.9722
B( 61-C , 62-N ) :   3.0015 B( 63-C , 64-C ) :   1.2734 B( 63-C , 70-C ) :   1.4301
B( 64-C , 65-C ) :   0.9292 B( 64-C , 67-C ) :   1.4312 B( 65-C , 66-O ) :   2.0679
B( 66-O , 81-H ) :   0.1110 B( 67-C , 68-C ) :   1.2508 B( 67-C , 96-H ) :   1.0178
B( 68-C , 69-C ) :   1.3171 B( 68-C , 73-C ) :   1.1620 B( 69-C , 70-C ) :   1.3144
B( 69-C , 71-S ) :   1.0860 B( 70-C , 97-H ) :   0.9804 B( 71-S , 72-C ) :   1.0867
B( 72-C , 73-C ) :   1.6205 B( 72-C , 74-Br) :   1.0176 B( 73-C , 98-H ) :   0.9992

-----------------------------------------------------------------------------
         ABSORPTION SPECTRUM VIA TRANSITION ELECTRIC DIPOLE MOMENTS
-----------------------------------------------------------------------------
State   Energy  Wavelength   fosc         T2         TX        TY        TZ
        (cm-1)    (nm)                  (au**2)     (au)      (au)      (au)
-----------------------------------------------------------------------------
   0   10907.8    916.8   0.353177817  10.65942   1.64138  -1.09568   2.60092
   1   12257.5    815.8   0.428246484  11.50182  -0.36684  -0.07002  -3.37081
   2   13913.1    718.7   1.626740295  38.49187   2.60749  -3.05517  -4.72851
   3   17260.5    579.4   0.028047577   0.53495  -0.44610   0.52206   0.25181
   4   21497.2    465.2   0.173239906   2.65302   1.07483  -1.01957  -0.67694
   5   21989.1    454.8   0.008575159   0.12838  -0.02988   0.31242  -0.17288
   6   22996.4    434.9   0.125852630   1.80168  -0.67290   0.69480   0.93067
   7   23091.7    433.1   0.119490426   1.70354   0.95445  -0.82766  -0.32794
   8   23824.8    419.7   0.048334466   0.66789  -0.74888   0.31006  -0.10454
   9   24957.2    400.7   0.147418795   1.94461   0.96669  -1.00344  -0.05682
  10   25126.7    398.0   0.347063317   4.54725  -1.27805   0.73234   1.54193
  11   25937.3    385.5   0.050982664   0.64710  -0.38298   0.20935   0.67572
  12   26221.8    381.4   0.142445771   1.78839  -1.04267   0.81069  -0.20979
  13   26748.4    373.9   0.067993482   0.83685  -0.55180   0.31888  -0.65626
  14   27279.8    366.6   0.000062865   0.00076   0.00281  -0.01828  -0.02041
  15   27634.5    361.9   0.584671238   6.96523  -1.84825   0.82860  -1.69193
  16   28685.0    348.6   0.005467410   0.06275  -0.19818   0.14570  -0.04739
  17   28944.6    345.5   0.013001148   0.14787   0.02535  -0.00751   0.38363
  18   29063.6    344.1   0.008621140   0.09765  -0.21113   0.15992  -0.16584
  19   29466.8    339.4   0.003077996   0.03439   0.15860  -0.02532   0.09270
  20   29813.0    335.4   0.027522633   0.30392   0.47990  -0.12719   0.23966
  21   29962.8    333.7   0.042190559   0.46356  -0.45961   0.21136  -0.45568
  22   30085.6    332.4   0.010931710   0.11962  -0.11998   0.06645  -0.31751
  23   30240.2    330.7   0.012538503   0.13650  -0.26578   0.22507  -0.12331
  24   30488.7    328.0   0.037804503   0.40821   0.57978  -0.13495   0.23206
  25   31206.7    320.4   0.144066964   1.51982  -0.59515   0.37746  -1.01151
  26   31674.7    315.7   0.000121810   0.00127   0.01373   0.01616  -0.02857
  27   31791.6    314.5   0.379915507   3.93414  -0.02216  -0.36496   1.94948
  28   32077.2    311.7   0.013266844   0.13616   0.19382  -0.13344  -0.28422
  29   32306.9    309.5   0.753731690   7.68063  -0.01553  -0.23297  -2.76154
  30   32646.2    306.3   0.116469856   1.17451  -0.22042   0.10051   1.05632
  31   32870.4    304.2   0.103533063   1.03693   0.18697  -0.21253  -0.97816
  32   33365.0    299.7   0.014943308   0.14745   0.04229   0.05943  -0.37699
  33   33541.9    298.1   0.024050472   0.23605  -0.09156  -0.00186   0.47714
  34   33640.2    297.3   0.014200937   0.13897  -0.02857   0.12908   0.34856
  35   34103.9    293.2   0.003793900   0.03662   0.06901  -0.14125  -0.10913
  36   34193.3    292.5   0.011201539   0.10785   0.02776  -0.03195   0.32566
  37   34250.6    292.0   0.007474048   0.07184  -0.13238   0.09577   0.21246
  38   34578.3    289.2   0.015872012   0.15111   0.08049  -0.00969  -0.38019
  39   34664.3    288.5   0.019599310   0.18614   0.13244  -0.15719   0.37933
  40   34816.1    287.2   0.005369013   0.05077   0.19652  -0.05382   0.09619
  41   35029.7    285.5   0.004589156   0.04313   0.12706  -0.07331  -0.14700
  42   35164.3    284.4   0.059009556   0.55245  -0.66628   0.30955   0.11269
  43   35200.0    284.1   0.029431731   0.27526   0.37893  -0.19540  -0.30577
  44   35512.3    281.6   0.022754852   0.21095  -0.00478  -0.00357   0.45925
  45   36019.5    277.6   0.202060409   1.84680   0.79902  -1.03771   0.36266
  46   36059.1    277.3   0.008857919   0.08087  -0.19856   0.19038  -0.07210
  47   36128.2    276.8   0.045627920   0.41578   0.57519  -0.18809  -0.22261
  48   36554.3    273.6   0.000069648   0.00063   0.00800   0.00150  -0.02369
  49   36919.7    270.9   0.100938296   0.90006   0.23950  -0.09938  -0.91259
  50   37167.9    269.0   0.012512201   0.11083   0.20768  -0.23146  -0.11884
  51   37266.3    268.3   0.060077237   0.53072  -0.23493   0.35497   0.59121
  52   37356.4    267.7   0.067060858   0.59099   0.26430   0.05911   0.71947
  53   37892.6    263.9   0.131910784   1.14604  -0.57343   0.53272   0.73036
  54   38231.0    261.6   0.207658383   1.78817  -0.97467   0.44367  -0.80084
  55   38309.5    261.0   0.040765127   0.35031   0.47342  -0.35367   0.03323
  56   38435.6    260.2   0.009210387   0.07889  -0.12564   0.03691   0.24848
  57   38857.1    257.4   0.108065752   0.91557   0.53942  -0.48786  -0.62176
  58   38974.5    256.6   0.067919412   0.57371   0.59096  -0.45507   0.13186
  59   39210.9    255.0   0.037478913   0.31467  -0.30095   0.32657  -0.34271
  60   39622.0    252.4   0.084270903   0.70019   0.52790  -0.54711   0.34955
  61   39966.9    250.2   0.006060850   0.04992  -0.00865  -0.02650  -0.22169
  62   40119.0    249.3   0.005381336   0.04416  -0.08752   0.12489  -0.14458
  63   40282.0    248.2   0.007511851   0.06139   0.10016   0.08928  -0.20830

FINAL SINGLE POINT ENERGY    -10782.537132413052

DIPOLE MOMENT
-------------
                                X             Y             Z
Electronic contribution:    -38.21132      48.03065     220.17352
Nuclear contribution   :     39.08713     -51.34358    -225.53865
                        -----------------------------------------
Total Dipole Moment    :      0.87581      -3.31293      -5.36513
                        -----------------------------------------
Magnitude (a.u.)       :      6.36609
Magnitude (Debye)      :     16.18132

Rotational constants in cm-1:     0.000524     0.000289     0.000188
Rotational constants in MHz :    15.723991     8.661206     5.622167

                             ****ORCA TERMINATED NORMALLY****
TOTAL RUN TIME: 0 days 0 hours 10 minutes 36 seconds 559 msec
