                         Program Version 4.2.0 -  RELEASE  -
|  1> # ORCA input file
|  2> # SCF done       -198.353339044341          0.000624050733
|  3> ! CAM-B3LYP def2-SVP def2/J RIJCOSX Grid4 TightSCF
|  4> %maxcore 5000
|  5> %tddft
|  6>     Mode sTDDFT
|  7>     Ethresh 5.0
|  8>     maxcore 5000
|  9> end
| 10>
| 11> %pal
| 12>   nprocs 6
| 13>   end
| 14> * xyz 0 1
| 15>    C       -1.05902         3.42568         5.25555
| 16>    C       -1.04053         2.05985         5.07510
| 17>    C       -0.07629         1.20132         5.63618
| 18>    N        0.67628         0.44330         6.06071
| 19>    C       -1.96686         1.31261         4.32265
| 20>    N       -2.66648         0.61876         3.72976
| 21>    C       -0.08804         4.17664         6.05141
| 22>    C       -0.44379         5.54646         6.02326
| 23>    C        0.27802         6.51369         6.67631
| 24>    C        1.41147         6.11080         7.39224
| 25>    C        1.76019         4.74156         7.41302
| 26>    C        1.02698         3.76173         6.75291
| 27>    S        3.19703         4.46180         8.35150
| 28>    C        3.30607         6.16733         8.69725
| 29>    C        2.31994         6.90906         8.14117
| 30>   Br        4.71385         6.80798         9.76033
| 31>    C       -1.66020         5.71490         5.19708
| 32>    O       -2.23096         6.76552         4.97042
| 33>    C       -2.00798         4.36488         4.72296
| 34>    C       -3.06802         4.07692         3.88145
| 35>    C       -3.96147         5.00735         3.36994
| 36>    C       -4.98247         4.66457         2.49928
| 37>    C       -5.92096         5.53701         1.90831
| 38>    C       -6.80065         4.92170         1.06232
| 39>    C       -6.59763         3.53293         0.95012
| 40>    S       -5.26031         3.02623         1.95789
| 41>    C       -7.28784         2.62032         0.16679
| 42>    C       -8.34846         2.86126        -0.73225
| 43>    C       -8.78298         1.74262        -1.37967
| 44>    C       -8.09446         0.55696        -1.02627
| 45>    S       -6.87405         0.92573         0.17872
| 46>    C       -8.31593        -0.68845        -1.56215
| 47>    C       -7.65681        -1.88466        -1.24631
| 48>    O       -7.98372        -2.99345        -2.00157
| 49>    C       -7.22843        -3.99367        -1.53644
| 50>    C       -6.93305        -5.34268        -1.73855
| 51>    C       -5.96687        -5.63939        -0.78179
| 52>    O       -5.66271        -4.55306        -0.00773
| 53>    C       -6.42380        -3.54817        -0.47272
| 54>    C       -6.68839        -2.19844        -0.28183
| 55>    C       -5.28585        -6.86759        -0.55868
| 56>    S       -5.58284        -8.20828        -1.63231
| 57>    C       -4.45999        -9.20248        -0.75639
| 58>    C       -3.88205        -8.51757         0.27729
| 59>    C       -4.35799        -7.19094         0.41180
| 60>    C       -3.96028        -6.28897         1.53528
| 61>    C       -2.80404        -6.85820         2.35784
| 62>    C       -2.95337        -8.36192         2.55691
| 63>    C       -2.82203        -9.06631         1.20068
| 64>    O       -2.79130       -10.46332         1.30011
| 65>    C       -4.18871       -10.58477        -1.15950
| 66>    C       -3.02795       -10.86346        -1.88366
| 67>    C       -2.67961       -12.15198        -2.23575
| 68>    C       -3.47029       -13.22662        -1.84647
| 69>    C       -4.61723       -12.96906        -1.13248
| 70>    C       -4.99932       -11.65930        -0.80972
| 71>    N       -6.19520       -11.68555        -0.10456
| 72>    C       -6.92779       -10.56517         0.41970
| 73>    C       -6.62555       -12.96644         0.10281
| 74>    O       -7.64555       -13.27694         0.67022
| 75>    C       -5.58033       -13.91083        -0.48092
| 76>    C       -4.90370       -14.65314         0.69529
| 77>    C       -4.04042       -13.65448         1.47143
| 78>    O       -4.41997       -12.63874         2.01877
| 79>    N       -2.75108       -14.08001         1.41156
| 80>    C       -1.63003       -13.36618         1.96082
| 81>    C       -2.64082       -15.26786         0.69900
| 82>    C       -1.51010       -16.00465         0.41965
| 83>    C       -1.63951       -17.17761        -0.33427
| 84>    C       -2.90564       -17.57375        -0.76945
| 85>    C       -4.03904       -16.82918        -0.47953
| 86>    C       -3.90446       -15.67180         0.25537
| 87>    C       -0.43072       -17.93810        -0.63104
| 88>    C       -0.33669       -19.02570        -1.38654
| 89>    H       -0.01934         7.54993         6.63579
| 90>    H        1.33684         2.73122         6.79956
| 91>    H        2.23448         7.97471         8.25217
| 92>    H       -3.21462         3.04624         3.58178
| 93>    H       -3.85740         6.04632         3.64680
| 94>    H       -5.91548         6.59123         2.12082
| 95>    H       -7.57930         5.43152         0.52376
| 96>    H       -8.75403         3.84503        -0.88419
| 97>    H       -9.57636         1.73164        -2.10598
| 98>    H       -9.07028        -0.76823        -2.33340
| 99>    H       -7.33446        -6.02472        -2.45823
|100>    H       -6.26222        -1.53445         0.43929
|101>    H       -4.83593        -6.14756         2.17752
|102>    H       -3.69560        -5.30357         1.14821
|103>    H       -2.76900        -6.35204         3.32322
|104>    H       -1.85895        -6.66348         1.84632
|105>    H       -3.92723        -8.59420         2.99600
|106>    H       -2.17911        -8.73826         3.22693
|107>    H       -1.84057        -8.81312         0.77141
|108>    H       -3.61120       -10.81519         1.68420
|109>    H       -2.39036       -10.03826        -2.16300
|110>    H       -1.77755       -12.32683        -2.80132
|111>    H       -3.18725       -14.23939        -2.09054
|112>    H       -6.29307        -9.95273         1.06015
|113>    H       -7.74652       -10.97624         1.01071
|114>    H       -7.33627        -9.95138        -0.38539
|115>    H       -6.03372       -14.63889        -1.15630
|116>    H       -5.68938       -15.06647         1.33534
|117>    H       -1.96578       -12.37118         2.24428
|118>    H       -0.85030       -13.26980         1.20507
|119>    H       -1.23053       -13.88765         2.83346
|120>    H       -0.53808       -15.69039         0.76779
|121>    H       -3.01121       -18.48080        -1.34205
|122>    H       -5.00890       -17.15427        -0.82520
|123>    H        0.46876       -17.54152        -0.17586
|124>    H       -1.18344       -19.47366        -1.87690
|125>    H        0.60957       -19.51330        -1.54563
|126> *
|127>
|128>                          ****END OF INPUT****

CARTESIAN COORDINATES (ANGSTROEM)
---------------------------------
  C     -1.059020    3.425680    5.255550
  C     -1.040530    2.059850    5.075100
  C     -0.076290    1.201320    5.636180
  N      0.676280    0.443300    6.060710
  C     -1.966860    1.312610    4.322650
  N     -2.666480    0.618760    3.729760
  C     -0.088040    4.176640    6.051410
  C     -0.443790    5.546460    6.023260
  C      0.278020    6.513690    6.676310
  C      1.411470    6.110800    7.392240
  C      1.760190    4.741560    7.413020
  C      1.026980    3.761730    6.752910
  S      3.197030    4.461800    8.351500
  C      3.306070    6.167330    8.697250
  C      2.319940    6.909060    8.141170
  Br     4.713850    6.807980    9.760330
  C     -1.660200    5.714900    5.197080
  O     -2.230960    6.765520    4.970420
  C     -2.007980    4.364880    4.722960
  C     -3.068020    4.076920    3.881450
  C     -3.961470    5.007350    3.369940
  C     -4.982470    4.664570    2.499280
  C     -5.920960    5.537010    1.908310
  C     -6.800650    4.921700    1.062320
  C     -6.597630    3.532930    0.950120
  S     -5.260310    3.026230    1.957890
  C     -7.287840    2.620320    0.166790
  C     -8.348460    2.861260   -0.732250
  C     -8.782980    1.742620   -1.379670
  C     -8.094460    0.556960   -1.026270
  S     -6.874050    0.925730    0.178720
  C     -8.315930   -0.688450   -1.562150
  C     -7.656810   -1.884660   -1.246310
  O     -7.983720   -2.993450   -2.001570
  C     -7.228430   -3.993670   -1.536440
  C     -6.933050   -5.342680   -1.738550
  C     -5.966870   -5.639390   -0.781790
  O     -5.662710   -4.553060   -0.007730
  C     -6.423800   -3.548170   -0.472720
  C     -6.688390   -2.198440   -0.281830
  C     -5.285850   -6.867590   -0.558680
  S     -5.582840   -8.208280   -1.632310
  C     -4.459990   -9.202480   -0.756390
  C     -3.882050   -8.517570    0.277290
  C     -4.357990   -7.190940    0.411800
  C     -3.960280   -6.288970    1.535280
  C     -2.804040   -6.858200    2.357840
  C     -2.953370   -8.361920    2.556910
  C     -2.822030   -9.066310    1.200680
  O     -2.791300  -10.463320    1.300110
  C     -4.188710  -10.584770   -1.159500
  C     -3.027950  -10.863460   -1.883660
  C     -2.679610  -12.151980   -2.235750
  C     -3.470290  -13.226620   -1.846470
  C     -4.617230  -12.969060   -1.132480
  C     -4.999320  -11.659300   -0.809720
  N     -6.195200  -11.685550   -0.104560
  C     -6.927790  -10.565170    0.419700
  C     -6.625550  -12.966440    0.102810
  O     -7.645550  -13.276940    0.670220
  C     -5.580330  -13.910830   -0.480920
  C     -4.903700  -14.653140    0.695290
  C     -4.040420  -13.654480    1.471430
  O     -4.419970  -12.638740    2.018770
  N     -2.751080  -14.080010    1.411560
  C     -1.630030  -13.366180    1.960820
  C     -2.640820  -15.267860    0.699000
  C     -1.510100  -16.004650    0.419650
  C     -1.639510  -17.177610   -0.334270
  C     -2.905640  -17.573750   -0.769450
  C     -4.039040  -16.829180   -0.479530
  C     -3.904460  -15.671800    0.255370
  C     -0.430720  -17.938100   -0.631040
  C     -0.336690  -19.025700   -1.386540
  H     -0.019340    7.549930    6.635790
  H      1.336840    2.731220    6.799560
  H      2.234480    7.974710    8.252170
  H     -3.214620    3.046240    3.581780
  H     -3.857400    6.046320    3.646800
  H     -5.915480    6.591230    2.120820
  H     -7.579300    5.431520    0.523760
  H     -8.754030    3.845030   -0.884190
  H     -9.576360    1.731640   -2.105980
  H     -9.070280   -0.768230   -2.333400
  H     -7.334460   -6.024720   -2.458230
  H     -6.262220   -1.534450    0.439290
  H     -4.835930   -6.147560    2.177520
  H     -3.695600   -5.303570    1.148210
  H     -2.769000   -6.352040    3.323220
  H     -1.858950   -6.663480    1.846320
  H     -3.927230   -8.594200    2.996000
  H     -2.179110   -8.738260    3.226930
  H     -1.840570   -8.813120    0.771410
  H     -3.611200  -10.815190    1.684200
  H     -2.390360  -10.038260   -2.163000
  H     -1.777550  -12.326830   -2.801320
  H     -3.187250  -14.239390   -2.090540
  H     -6.293070   -9.952730    1.060150
  H     -7.746520  -10.976240    1.010710
  H     -7.336270   -9.951380   -0.385390
  H     -6.033720  -14.638890   -1.156300
  H     -5.689380  -15.066470    1.335340
  H     -1.965780  -12.371180    2.244280
  H     -0.850300  -13.269800    1.205070
  H     -1.230530  -13.887650    2.833460
  H     -0.538080  -15.690390    0.767790
  H     -3.011210  -18.480800   -1.342050
  H     -5.008900  -17.154270   -0.825200
  H      0.468760  -17.541520   -0.175860
  H     -1.183440  -19.473660   -1.876900
  H      0.609570  -19.513300   -1.545630

 Total Charge           Charge          ....    0
 Multiplicity           Mult            ....    1
 Number of Electrons    NEL             ....  566
 Basis Dimension        Dim             .... 1255

ORBITAL ENERGIES
----------------

  NO   OCC          E(Eh)            E(eV)
   0   2.0000    -482.873753    -13139.6628
   1   2.0000     -88.963289     -2420.8142
   2   2.0000     -88.960765     -2420.7455
   3   2.0000     -88.959183     -2420.7024
   4   2.0000     -88.954044     -2420.5626
   5   2.0000     -62.551485     -1702.1124
   6   2.0000     -56.385418     -1534.3252
   7   2.0000     -56.382732     -1534.2521
   8   2.0000     -56.382693     -1534.2511
   9   2.0000     -19.307344      -525.3795
  10   2.0000     -19.305143      -525.3196
  11   2.0000     -19.200893      -522.4829
  12   2.0000     -19.195883      -522.3465
  13   2.0000     -19.193518      -522.2822
  14   2.0000     -19.181453      -521.9539
  15   2.0000     -14.454060      -393.3150
  16   2.0000     -14.443100      -393.0167
  17   2.0000     -14.395648      -391.7255
  18   2.0000     -14.392925      -391.6514
  19   2.0000     -10.378130      -282.4033
  20   2.0000     -10.364022      -282.0194
  21   2.0000     -10.358377      -281.8658
  22   2.0000     -10.348046      -281.5846
  23   2.0000     -10.344457      -281.4870
  24   2.0000     -10.343766      -281.4682
  25   2.0000     -10.342063      -281.4218
  26   2.0000     -10.335906      -281.2543
  27   2.0000     -10.332852      -281.1712
  28   2.0000     -10.320995      -280.8485
  29   2.0000     -10.320283      -280.8292
  30   2.0000     -10.317837      -280.7626
  31   2.0000     -10.316408      -280.7237
  32   2.0000     -10.315698      -280.7044
  33   2.0000     -10.315053      -280.6869
  34   2.0000     -10.314267      -280.6655
  35   2.0000     -10.311550      -280.5916
  36   2.0000     -10.309352      -280.5317
  37   2.0000     -10.308406      -280.5060
  38   2.0000     -10.305013      -280.4137
  39   2.0000     -10.304080      -280.3883
  40   2.0000     -10.303381      -280.3693
  41   2.0000     -10.300586      -280.2932
  42   2.0000     -10.300518      -280.2913
  43   2.0000     -10.300089      -280.2797
  44   2.0000     -10.297813      -280.2177
  45   2.0000     -10.297207      -280.2012
  46   2.0000     -10.296831      -280.1910
  47   2.0000     -10.294713      -280.1334
  48   2.0000     -10.291990      -280.0593
  49   2.0000     -10.291333      -280.0414
  50   2.0000     -10.290876      -280.0290
  51   2.0000     -10.290390      -280.0158
  52   2.0000     -10.290112      -280.0082
  53   2.0000     -10.288562      -279.9660
  54   2.0000     -10.286772      -279.9173
  55   2.0000     -10.286261      -279.9034
  56   2.0000     -10.284604      -279.8583
  57   2.0000     -10.283049      -279.8160
  58   2.0000     -10.282889      -279.8116
  59   2.0000     -10.282804      -279.8093
  60   2.0000     -10.281486      -279.7735
  61   2.0000     -10.279634      -279.7231
  62   2.0000     -10.277053      -279.6528
  63   2.0000     -10.275754      -279.6175
  64   2.0000     -10.274410      -279.5809
  65   2.0000     -10.273192      -279.5478
  66   2.0000     -10.272285      -279.5231
  67   2.0000     -10.271555      -279.5032
  68   2.0000     -10.270939      -279.4865
  69   2.0000     -10.269411      -279.4449
  70   2.0000     -10.268805      -279.4284
  71   2.0000     -10.268581      -279.4223
  72   2.0000     -10.266940      -279.3776
  73   2.0000     -10.266308      -279.3604
  74   2.0000     -10.265510      -279.3387
  75   2.0000     -10.261887      -279.2402
  76   2.0000     -10.261568      -279.2315
  77   2.0000     -10.257999      -279.1343
  78   2.0000      -8.780921      -238.9410
  79   2.0000      -8.059250      -219.3033
  80   2.0000      -8.056723      -219.2346
  81   2.0000      -8.054215      -219.1663
  82   2.0000      -8.050030      -219.0524
  83   2.0000      -6.617165      -180.0622
  84   2.0000      -6.602666      -179.6677
  85   2.0000      -6.602513      -179.6635
  86   2.0000      -6.028917      -164.0552
  87   2.0000      -6.026425      -163.9874
  88   2.0000      -6.024799      -163.9431
  89   2.0000      -6.023599      -163.9105
  90   2.0000      -6.022163      -163.8714
  91   2.0000      -6.020381      -163.8229
  92   2.0000      -6.019612      -163.8020
  93   2.0000      -6.019493      -163.7987
  94   2.0000      -6.017933      -163.7563
  95   2.0000      -6.016186      -163.7087
  96   2.0000      -6.015559      -163.6917
  97   2.0000      -6.011271      -163.5750
  98   2.0000      -2.733005       -74.3688
  99   2.0000      -2.728969       -74.2590
 100   2.0000      -2.728893       -74.2570
 101   2.0000      -2.717341       -73.9426
 102   2.0000      -2.717328       -73.9422
 103   2.0000      -1.230066       -33.4718
 104   2.0000      -1.211699       -32.9720
 105   2.0000      -1.138602       -30.9829
 106   2.0000      -1.124055       -30.5871
 107   2.0000      -1.106572       -30.1114
 108   2.0000      -1.092980       -29.7415
 109   2.0000      -1.060121       -28.8474
 110   2.0000      -1.049461       -28.5573
 111   2.0000      -1.008720       -27.4487
 112   2.0000      -1.004705       -27.3394
 113   2.0000      -0.994056       -27.0496
 114   2.0000      -0.991307       -26.9748
 115   2.0000      -0.985152       -26.8074
 116   2.0000      -0.973595       -26.4929
 117   2.0000      -0.969165       -26.3723
 118   2.0000      -0.955974       -26.0134
 119   2.0000      -0.946011       -25.7423
 120   2.0000      -0.927428       -25.2366
 121   2.0000      -0.925124       -25.1739
 122   2.0000      -0.923491       -25.1295
 123   2.0000      -0.916361       -24.9354
 124   2.0000      -0.908930       -24.7332
 125   2.0000      -0.903005       -24.5720
 126   2.0000      -0.895444       -24.3663
 127   2.0000      -0.889975       -24.2174
 128   2.0000      -0.883979       -24.0543
 129   2.0000      -0.872517       -23.7424
 130   2.0000      -0.868263       -23.6266
 131   2.0000      -0.862312       -23.4647
 132   2.0000      -0.858280       -23.3550
 133   2.0000      -0.853830       -23.2339
 134   2.0000      -0.842127       -22.9154
 135   2.0000      -0.841753       -22.9053
 136   2.0000      -0.833183       -22.6721
 137   2.0000      -0.832420       -22.6513
 138   2.0000      -0.824920       -22.4472
 139   2.0000      -0.816757       -22.2251
 140   2.0000      -0.811967       -22.0947
 141   2.0000      -0.809254       -22.0209
 142   2.0000      -0.798221       -21.7207
 143   2.0000      -0.793188       -21.5837
 144   2.0000      -0.791125       -21.5276
 145   2.0000      -0.774819       -21.0839
 146   2.0000      -0.759082       -20.6557
 147   2.0000      -0.749004       -20.3814
 148   2.0000      -0.741130       -20.1672
 149   2.0000      -0.736728       -20.0474
 150   2.0000      -0.716802       -19.5052
 151   2.0000      -0.714314       -19.4375
 152   2.0000      -0.710184       -19.3251
 153   2.0000      -0.703062       -19.1313
 154   2.0000      -0.699422       -19.0323
 155   2.0000      -0.697399       -18.9772
 156   2.0000      -0.693168       -18.8621
 157   2.0000      -0.684912       -18.6374
 158   2.0000      -0.684417       -18.6239
 159   2.0000      -0.677760       -18.4428
 160   2.0000      -0.672009       -18.2863
 161   2.0000      -0.671212       -18.2646
 162   2.0000      -0.657730       -17.8977
 163   2.0000      -0.652915       -17.7667
 164   2.0000      -0.646988       -17.6054
 165   2.0000      -0.642538       -17.4843
 166   2.0000      -0.640050       -17.4167
 167   2.0000      -0.638602       -17.3772
 168   2.0000      -0.628294       -17.0968
 169   2.0000      -0.621995       -16.9254
 170   2.0000      -0.620100       -16.8738
 171   2.0000      -0.617279       -16.7970
 172   2.0000      -0.612193       -16.6586
 173   2.0000      -0.605506       -16.4767
 174   2.0000      -0.604235       -16.4421
 175   2.0000      -0.598117       -16.2756
 176   2.0000      -0.597173       -16.2499
 177   2.0000      -0.590917       -16.0797
 178   2.0000      -0.589329       -16.0365
 179   2.0000      -0.582409       -15.8481
 180   2.0000      -0.580887       -15.8067
 181   2.0000      -0.580084       -15.7849
 182   2.0000      -0.576216       -15.6796
 183   2.0000      -0.572040       -15.5660
 184   2.0000      -0.566176       -15.4064
 185   2.0000      -0.564885       -15.3713
 186   2.0000      -0.559887       -15.2353
 187   2.0000      -0.550357       -14.9760
 188   2.0000      -0.547594       -14.9008
 189   2.0000      -0.545231       -14.8365
 190   2.0000      -0.539129       -14.6704
 191   2.0000      -0.538399       -14.6506
 192   2.0000      -0.532872       -14.5002
 193   2.0000      -0.532346       -14.4859
 194   2.0000      -0.527906       -14.3650
 195   2.0000      -0.526749       -14.3336
 196   2.0000      -0.525693       -14.3048
 197   2.0000      -0.523662       -14.2496
 198   2.0000      -0.519752       -14.1432
 199   2.0000      -0.519697       -14.1417
 200   2.0000      -0.517577       -14.0840
 201   2.0000      -0.514485       -13.9999
 202   2.0000      -0.513598       -13.9757
 203   2.0000      -0.511215       -13.9109
 204   2.0000      -0.509487       -13.8638
 205   2.0000      -0.508513       -13.8374
 206   2.0000      -0.508071       -13.8253
 207   2.0000      -0.504944       -13.7402
 208   2.0000      -0.502962       -13.6863
 209   2.0000      -0.501830       -13.6555
 210   2.0000      -0.501120       -13.6362
 211   2.0000      -0.496946       -13.5226
 212   2.0000      -0.494457       -13.4549
 213   2.0000      -0.491961       -13.3869
 214   2.0000      -0.491181       -13.3657
 215   2.0000      -0.489374       -13.3165
 216   2.0000      -0.487739       -13.2721
 217   2.0000      -0.483241       -13.1497
 218   2.0000      -0.479164       -13.0387
 219   2.0000      -0.477243       -12.9864
 220   2.0000      -0.476220       -12.9586
 221   2.0000      -0.476043       -12.9538
 222   2.0000      -0.474812       -12.9203
 223   2.0000      -0.471993       -12.8436
 224   2.0000      -0.468290       -12.7428
 225   2.0000      -0.467561       -12.7230
 226   2.0000      -0.466031       -12.6814
 227   2.0000      -0.464317       -12.6347
 228   2.0000      -0.457469       -12.4484
 229   2.0000      -0.453870       -12.3504
 230   2.0000      -0.450392       -12.2558
 231   2.0000      -0.447770       -12.1844
 232   2.0000      -0.446347       -12.1457
 233   2.0000      -0.444509       -12.0957
 234   2.0000      -0.443663       -12.0727
 235   2.0000      -0.441665       -12.0183
 236   2.0000      -0.440820       -11.9953
 237   2.0000      -0.434506       -11.8235
 238   2.0000      -0.434214       -11.8156
 239   2.0000      -0.433840       -11.8054
 240   2.0000      -0.431282       -11.7358
 241   2.0000      -0.429803       -11.6955
 242   2.0000      -0.425848       -11.5879
 243   2.0000      -0.424650       -11.5553
 244   2.0000      -0.422390       -11.4938
 245   2.0000      -0.420673       -11.4471
 246   2.0000      -0.419422       -11.4131
 247   2.0000      -0.416469       -11.3327
 248   2.0000      -0.414789       -11.2870
 249   2.0000      -0.410023       -11.1573
 250   2.0000      -0.407591       -11.0911
 251   2.0000      -0.407261       -11.0821
 252   2.0000      -0.404648       -11.0110
 253   2.0000      -0.403770       -10.9871
 254   2.0000      -0.400521       -10.8987
 255   2.0000      -0.397270       -10.8103
 256   2.0000      -0.388274       -10.5655
 257   2.0000      -0.387583       -10.5467
 258   2.0000      -0.381651       -10.3852
 259   2.0000      -0.374007       -10.1772
 260   2.0000      -0.369858       -10.0644
 261   2.0000      -0.367237        -9.9930
 262   2.0000      -0.363486        -9.8910
 263   2.0000      -0.359932        -9.7942
 264   2.0000      -0.355191        -9.6652
 265   2.0000      -0.351404        -9.5622
 266   2.0000      -0.347674        -9.4607
 267   2.0000      -0.344927        -9.3859
 268   2.0000      -0.339955        -9.2507
 269   2.0000      -0.332498        -9.0477
 270   2.0000      -0.328069        -8.9272
 271   2.0000      -0.323924        -8.8144
 272   2.0000      -0.314707        -8.5636
 273   2.0000      -0.314168        -8.5489
 274   2.0000      -0.305744        -8.3197
 275   2.0000      -0.305119        -8.3027
 276   2.0000      -0.299132        -8.1398
 277   2.0000      -0.296908        -8.0793
 278   2.0000      -0.277651        -7.5553
 279   2.0000      -0.276517        -7.5244
 280   2.0000      -0.269418        -7.3312
 281   2.0000      -0.256313        -6.9746
 282   2.0000      -0.215213        -5.8562
 283   0.0000      -0.106205        -2.8900
 284   0.0000      -0.055904        -1.5212
 285   0.0000      -0.038967        -1.0603
 286   0.0000      -0.016457        -0.4478
 287   0.0000      -0.009664        -0.2630

MULLIKEN ATOMIC CHARGES
-----------------------
   0 C :    0.333375
   1 C :   -0.371111
   2 C :   -0.188985
   3 N :    0.128844
   4 C :   -0.189235
   5 N :    0.124317
   6 C :    0.012830
   7 C :   -0.006027
   8 C :   -0.081343
   9 C :    0.117700
  10 C :   -0.091629
  11 C :   -0.028138
  12 S :    0.175990
  13 C :   -0.124322
  14 C :    0.036202
  15 Br:    0.011000
  16 C :    0.133369
  17 O :   -0.169714
  18 C :   -0.091763
  19 C :   -0.041037
  20 C :   -0.022754
  21 C :    0.003781
  22 C :    0.021826
  23 C :    0.042804
  24 C :   -0.054584
  25 S :    0.104549
  26 C :   -0.015356
  27 C :    0.019854
  28 C :    0.049617
  29 C :   -0.049142
  30 S :    0.083585
  31 C :    0.011033
  32 C :    0.139688
  33 O :   -0.200700
  34 C :    0.212794
  35 C :   -0.167524
  36 C :    0.173145
  37 O :   -0.204323
  38 C :    0.205377
  39 C :   -0.140261
  40 C :   -0.129109
  41 S :    0.142554
  42 C :   -0.259969
  43 C :   -0.001372
  44 C :   -0.101718
  45 C :    0.137632
  46 C :    0.023292
  47 C :    0.024787
  48 C :    0.224185
  49 O :   -0.300953
  50 C :   -0.047315
  51 C :    0.021454
  52 C :    0.024431
  53 C :   -0.033584
  54 C :   -0.055545
  55 C :    0.190236
  56 N :   -0.217642
  57 C :    0.155822
  58 C :    0.130478
  59 O :   -0.200093
  60 C :    0.022187
  61 C :    0.038749
  62 C :    0.134452
  63 O :   -0.241945
  64 N :   -0.214412
  65 C :    0.130390
  66 C :    0.229434
  67 C :   -0.165589
  68 C :    0.119639
  69 C :   -0.023327
  70 C :   -0.042064
  71 C :   -0.014949
  72 C :   -0.000056
  73 C :   -0.012951
  74 H :   -0.016845
  75 H :   -0.011284
  76 H :   -0.006684
  77 H :    0.011736
  78 H :    0.013296
  79 H :   -0.002159
  80 H :   -0.007457
  81 H :   -0.009110
  82 H :   -0.002687
  83 H :    0.008542
  84 H :    0.002500
  85 H :    0.029375
  86 H :    0.017566
  87 H :    0.024365
  88 H :    0.007575
  89 H :    0.004087
  90 H :   -0.001379
  91 H :    0.006873
  92 H :   -0.000769
  93 H :    0.197729
  94 H :   -0.030591
  95 H :   -0.022810
  96 H :   -0.018070
  97 H :    0.026941
  98 H :    0.051611
  99 H :    0.022857
 100 H :    0.034724
 101 H :    0.055717
 102 H :    0.045212
 103 H :    0.032921
 104 H :    0.026822
 105 H :   -0.042815
 106 H :   -0.032603
 107 H :   -0.027737
 108 H :   -0.016491
 109 H :    0.014525
 110 H :    0.023651
Sum of atomic charges:   -0.0000000

LOEWDIN ATOMIC CHARGES
----------------------
   0 C :    0.073352
   1 C :   -0.162789
   2 C :   -0.018856
   3 N :   -0.075270
   4 C :   -0.020315
   5 N :   -0.075170
   6 C :   -0.017422
   7 C :   -0.047777
   8 C :    0.015452
   9 C :   -0.036956
  10 C :   -0.146489
  11 C :   -0.015089
  12 S :    0.424714
  13 C :   -0.275904
  14 C :   -0.071321
  15 Br:    0.126875
  16 C :    0.081050
  17 O :   -0.162300
  18 C :   -0.114347
  19 C :    0.047654
  20 C :   -0.077775
  21 C :   -0.102971
  22 C :   -0.047752
  23 C :   -0.008212
  24 C :   -0.199466
  25 S :    0.411251
  26 C :   -0.143834
  27 C :   -0.050613
  28 C :   -0.008204
  29 C :   -0.165946
  30 S :    0.407686
  31 C :   -0.031765
  32 C :    0.022643
  33 O :    0.003837
  34 C :    0.021263
  35 C :   -0.093122
  36 C :    0.052991
  37 O :    0.014731
  38 C :   -0.002438
  39 C :   -0.054273
  40 C :   -0.201473
  41 S :    0.445752
  42 C :   -0.158346
  43 C :   -0.075937
  44 C :   -0.035882
  45 C :   -0.029456
  46 C :   -0.027919
  47 C :   -0.040929
  48 C :    0.061540
  49 O :   -0.110391
  50 C :   -0.076234
  51 C :    0.003860
  52 C :   -0.041967
  53 C :   -0.014653
  54 C :   -0.048572
  55 C :    0.042513
  56 N :   -0.004491
  57 C :    0.027241
  58 C :    0.077806
  59 O :   -0.193946
  60 C :   -0.019034
  61 C :   -0.018373
  62 C :    0.095210
  63 O :   -0.208598
  64 N :    0.004282
  65 C :    0.034154
  66 C :    0.035748
  67 C :   -0.052311
  68 C :   -0.015088
  69 C :   -0.029034
  70 C :   -0.014609
  71 C :   -0.043062
  72 C :   -0.020303
  73 C :   -0.038824
  74 H :    0.038129
  75 H :    0.039533
  76 H :    0.037193
  77 H :    0.030192
  78 H :    0.037670
  79 H :    0.037751
  80 H :    0.034475
  81 H :    0.033714
  82 H :    0.037441
  83 H :    0.048804
  84 H :    0.034597
  85 H :    0.032142
  86 H :    0.036484
  87 H :    0.035221
  88 H :    0.029391
  89 H :    0.022888
  90 H :    0.019854
  91 H :    0.026226
  92 H :    0.025913
  93 H :    0.062252
  94 H :    0.029428
  95 H :    0.026578
  96 H :    0.032210
  97 H :    0.024667
  98 H :    0.038062
  99 H :    0.013907
 100 H :    0.046972
 101 H :    0.055626
 102 H :    0.035305
 103 H :    0.029537
 104 H :    0.024554
 105 H :    0.026923
 106 H :    0.025494
 107 H :    0.029926
 108 H :    0.027722
 109 H :    0.020471
 110 H :    0.026949

  Mayer bond orders larger than 0.100000
B(  0-C ,  1-C ) :   1.5675 B(  0-C ,  6-C ) :   0.9868 B(  0-C , 18-C ) :   1.1276
B(  1-C ,  2-C ) :   1.1517 B(  1-C ,  4-C ) :   1.1572 B(  2-C ,  3-N ) :   2.9586
B(  4-C ,  5-N ) :   2.9552 B(  6-C ,  7-C ) :   1.2803 B(  6-C , 11-C ) :   1.4220
B(  7-C ,  8-C ) :   1.4307 B(  7-C , 16-C ) :   0.9327 B(  8-C ,  9-C ) :   1.2367
B(  8-C , 74-H ) :   1.0169 B(  9-C , 10-C ) :   1.3204 B(  9-C , 14-C ) :   1.1594
B( 10-C , 11-C ) :   1.3176 B( 10-C , 12-S ) :   1.0807 B( 11-C , 75-H ) :   0.9798
B( 12-S , 13-C ) :   1.0852 B( 13-C , 14-C ) :   1.6213 B( 13-C , 15-Br) :   1.0110
B( 14-C , 76-H ) :   1.0001 B( 16-C , 17-O ) :   2.1826 B( 16-C , 18-C ) :   0.9722
B( 18-C , 19-C ) :   1.4501 B( 19-C , 20-C ) :   1.2877 B( 19-C , 77-H ) :   0.9428
B( 20-C , 21-C ) :   1.3868 B( 20-C , 78-H ) :   0.9792 B( 21-C , 22-C ) :   1.1974
B( 21-C , 25-S ) :   1.0943 B( 22-C , 23-C ) :   1.5188 B( 22-C , 79-H ) :   1.0015
B( 23-C , 24-C ) :   1.2352 B( 23-C , 80-H ) :   0.9952 B( 24-C , 25-S ) :   1.0448
B( 24-C , 26-C ) :   1.4407 B( 26-C , 27-C ) :   1.2149 B( 26-C , 30-S ) :   1.0841
B( 27-C , 28-C ) :   1.5544 B( 27-C , 81-H ) :   0.9942 B( 28-C , 29-C ) :   1.1744
B( 28-C , 82-H ) :   0.9993 B( 29-C , 30-S ) :   1.0305 B( 29-C , 31-C ) :   1.5224
B( 31-C , 32-C ) :   1.2154 B( 31-C , 83-H ) :   0.9649 B( 32-C , 33-O ) :   1.0646
B( 32-C , 39-C ) :   1.3688 B( 33-O , 34-C ) :   1.1679 B( 34-C , 35-C ) :   1.2300
B( 34-C , 38-C ) :   1.3175 B( 35-C , 36-C ) :   1.4426 B( 35-C , 84-H ) :   1.0220
B( 36-C , 37-O ) :   1.1297 B( 36-C , 40-C ) :   1.1080 B( 37-O , 38-C ) :   1.1158
B( 38-C , 39-C ) :   1.2835 B( 39-C , 85-H ) :   1.0053 B( 40-C , 41-S ) :   1.1134
B( 40-C , 42-C ) :   0.1133 B( 40-C , 44-C ) :   1.5391 B( 41-S , 42-C ) :   1.1435
B( 42-C , 43-C ) :   1.6381 B( 42-C , 50-C ) :   0.9266 B( 43-C , 44-C ) :   1.2455
B( 43-C , 48-C ) :   0.9384 B( 44-C , 45-C ) :   1.0665 B( 45-C , 46-C ) :   1.0816
B( 45-C , 86-H ) :   0.9121 B( 45-C , 87-H ) :   0.9057 B( 46-C , 47-C ) :   1.0617
B( 46-C , 88-H ) :   0.9287 B( 46-C , 89-H ) :   0.9418 B( 47-C , 48-C ) :   1.0604
B( 47-C , 90-H ) :   0.9400 B( 47-C , 91-H ) :   0.9304 B( 48-C , 49-O ) :   1.0776
B( 48-C , 92-H ) :   0.8967 B( 49-O , 93-H ) :   0.9052 B( 50-C , 51-C ) :   1.3681
B( 50-C , 55-C ) :   1.4329 B( 51-C , 52-C ) :   1.3923 B( 51-C , 94-H ) :   0.9960
B( 52-C , 53-C ) :   1.3091 B( 52-C , 95-H ) :   0.9917 B( 53-C , 54-C ) :   1.4601
B( 53-C , 96-H ) :   1.0006 B( 54-C , 55-C ) :   1.3407 B( 54-C , 60-C ) :   0.9498
B( 55-C , 56-N ) :   1.0750 B( 56-N , 57-C ) :   0.9569 B( 56-N , 58-C ) :   1.1245
B( 57-C , 97-H ) :   0.9628 B( 57-C , 98-H ) :   0.9493 B( 57-C , 99-H ) :   0.9672
B( 58-C , 59-O ) :   2.1627 B( 58-C , 60-C ) :   0.9233 B( 60-C , 61-C ) :   1.0324
B( 60-C ,100-H ) :   0.8843 B( 61-C , 62-C ) :   0.9170 B( 61-C , 71-C ) :   0.9779
B( 61-C ,101-H ) :   0.8701 B( 62-C , 63-O ) :   2.0191 B( 62-C , 64-N ) :   1.1811
B( 64-N , 65-C ) :   0.9568 B( 64-N , 66-C ) :   1.0385 B( 65-C ,102-H ) :   0.9455
B( 65-C ,103-H ) :   0.9677 B( 65-C ,104-H ) :   0.9702 B( 66-C , 67-C ) :   1.3422
B( 66-C , 71-C ) :   1.3691 B( 67-C , 68-C ) :   1.2779 B( 67-C ,105-H ) :   1.0167
B( 68-C , 69-C ) :   1.3800 B( 68-C , 72-C ) :   1.0622 B( 69-C , 70-C ) :   1.3582
B( 69-C ,106-H ) :   0.9888 B( 70-C , 71-C ) :   1.4131 B( 70-C ,107-H ) :   1.0055
B( 72-C , 73-C ) :   1.9571 B( 72-C ,108-H ) :   0.9683 B( 73-C ,109-H ) :   0.9498
B( 73-C ,110-H ) :   0.9481

-----------------------------------------------------------------------------
         ABSORPTION SPECTRUM VIA TRANSITION ELECTRIC DIPOLE MOMENTS
-----------------------------------------------------------------------------
State   Energy  Wavelength   fosc         T2         TX        TY        TZ
        (cm-1)    (nm)                  (au**2)     (au)      (au)      (au)
-----------------------------------------------------------------------------
   0   10175.6    982.7   1.088756611  35.22448   2.76277   4.20026   3.15427
   1   19667.6    508.4   0.327023424   5.47397   1.65458  -1.30246   1.01977
   2   20862.2    479.3   0.858037376  13.54010   1.81503  -3.12167   0.70777
   3   23713.6    421.7   0.446733900   6.20192  -1.53688   1.80436  -0.76432
   4   24949.3    400.8   0.211198973   2.78682   1.14601   0.75710   0.94883
   5   26575.7    376.3   0.032563058   0.40338  -0.53571   0.12681  -0.31672
   6   26907.9    371.6   0.000006574   0.00008  -0.00241   0.00744  -0.00438
   7   27985.7    357.3   0.131415888   1.54592   0.74768  -0.93691   0.33028
   8   28773.5    347.5   0.009738897   0.11143   0.20445  -0.25076   0.08216
   9   30341.4    329.6   0.013508758   0.14657   0.22991  -0.28222   0.11860
  10   30434.9    328.6   0.090161423   0.97527  -0.72751   0.51034  -0.43076
  11   30481.4    328.1   0.081873950   0.88427  -0.77000   0.09634  -0.53112
  12   30939.9    323.2   0.072329981   0.76962   0.69932   0.06106   0.52615
  13   31628.9    316.2   0.000194176   0.00202  -0.01589  -0.04178   0.00479
  14   32133.6    311.2   0.318845968   3.26660   1.06051   1.12481   0.93634
  15   32556.8    307.2   0.247317952   2.50086  -0.69402  -1.27407  -0.62924
  16   32870.4    304.2   0.042769263   0.42835  -0.30276  -0.42243  -0.39780
  17   34167.5    292.7   0.034559403   0.33299   0.44771   0.20112   0.30347
  18   34491.7    289.9   0.062624988   0.59773   0.26420   0.67322   0.27334
  19   34799.4    287.4   0.065658388   0.62115  -0.59490   0.38282  -0.34741
  20   35433.6    282.2   0.011840446   0.11001  -0.15249   0.04791  -0.29062
  21   35597.5    280.9   0.142499329   1.31786   0.02646  -1.14238  -0.11011
  22   36008.8    277.7   0.005905942   0.05400  -0.22359   0.01893  -0.06037
  23   36384.9    274.8   0.051258551   0.46379  -0.01604  -0.65982  -0.16785
  24   37264.3    268.4   0.000192032   0.00170   0.00189  -0.02829  -0.02988
  25   38013.3    263.1   0.051398646   0.44514  -0.36019   0.53067  -0.18380
  26   38138.7    262.2   0.005461456   0.04714   0.09674  -0.19428  -0.00650
  27   38375.8    260.6   0.052768237   0.45268   0.31353   0.37035   0.46607
  28   39142.5    255.5   0.134011509   1.12712  -0.11276  -1.02878  -0.23666
  29   39541.2    252.9   0.012315316   0.10253  -0.03583  -0.30389  -0.09436
  30   39933.0    250.4   0.120942478   0.99706  -0.36281   0.92923  -0.04435
  31   40048.1    249.7   0.001466789   0.01206  -0.03627   0.10179  -0.01949
  32   40245.9    248.5   0.042156340   0.34484  -0.38055   0.42120  -0.15037

FINAL SINGLE POINT ENERGY     -7103.434255673237

DIPOLE MOMENT
-------------
                                X             Y             Z
Electronic contribution:     91.47628     224.91158     109.11709
Nuclear contribution   :    -92.83877    -225.73494    -111.93252
                        -----------------------------------------
Total Dipole Moment    :     -1.36249      -0.82337      -2.81544
                        -----------------------------------------
Magnitude (a.u.)       :      3.23435
Magnitude (Debye)      :      8.22105

Rotational constants in cm-1:     0.000921     0.000198     0.000166
Rotational constants in MHz :    27.603902     5.948149     4.972127

                             ****ORCA TERMINATED NORMALLY****
TOTAL RUN TIME: 0 days 0 hours 11 minutes 49 seconds 110 msec
