                         Program Version 4.2.0 -  RELEASE  -
|  1> # ORCA input file
|  2> # SCF done       -167.818340252935          0.002079434909
|  3> ! CAM-B3LYP def2-SVP def2/J RIJCOSX Grid4 TightSCF
|  4> %maxcore 5000
|  5> %tddft
|  6>     Mode sTDDFT
|  7>     Ethresh 5.0
|  8>     maxcore 5000
|  9> end
| 10>
| 11> %pal
| 12>   nprocs 6
| 13>   end
| 14> * xyz 0 1
| 15>    C       -7.32962        -5.17994        -9.33137
| 16>    C       -7.51609        -6.40431        -8.72629
| 17>    C       -6.86913        -7.59026        -9.12400
| 18>    N       -6.37680        -8.59311        -9.39470
| 19>    C       -8.36249        -6.66235        -7.63100
| 20>    N       -9.02875        -6.96019        -6.74234
| 21>    C       -6.43758        -4.93373       -10.46459
| 22>    C       -6.49065        -3.55677       -10.78936
| 23>    C       -5.76327        -3.00708       -11.81495
| 24>    C       -4.94096        -3.85926       -12.56102
| 25>    C       -4.89484        -5.23285       -12.23108
| 26>    C       -5.63212        -5.78879       -11.19096
| 27>    S       -3.81829        -6.10578       -13.28064
| 28>    C       -3.45026        -4.63087       -14.13486
| 29>    C       -4.09818        -3.54087       -13.66135
| 30>   Br       -2.24360        -4.66852       -15.57121
| 31>    C       -7.42783        -2.87654        -9.86952
| 32>    O       -7.70174        -1.69096        -9.87454
| 33>    C       -7.94395        -3.93022        -8.97705
| 34>    C       -8.88244        -3.72120        -7.97882
| 35>    C       -9.44409        -2.49407        -7.66441
| 36>    C      -10.40220        -2.32761        -6.67372
| 37>    C      -11.02166        -1.12281        -6.29754
| 38>    C      -11.94654        -1.26066        -5.29425
| 39>    C      -12.08882        -2.58062        -4.84157
| 40>    S      -11.02071        -3.65013        -5.71105
| 41>    C      -12.94775        -3.05702        -3.84743
| 42>    C      -13.88067        -2.33328        -3.09454
| 43>    C      -14.58624        -3.10758        -2.20434
| 44>    C      -14.23121        -4.46150        -2.22059
| 45>    S      -12.97309        -4.74067        -3.40017
| 46>    C      -14.77373        -5.47920        -1.43425
| 47>    C      -14.37556        -6.79208        -1.46922
| 48>    C      -14.92653        -7.80894        -0.68901
| 49>    C      -14.54220        -9.15547        -0.67370
| 50>    C      -15.26743        -9.93663         0.19242
| 51>    C      -16.25793        -9.23294         0.89063
| 52>    S      -16.24191        -7.54811         0.43151
| 53>    C      -17.17658        -9.72910         1.81311
| 54>    C      -17.30138       -11.05547         2.26567
| 55>    C      -18.32387       -11.23838         3.15461
| 56>    C      -19.05516       -10.06484         3.43961
| 57>    S      -18.38311        -8.71060         2.55531
| 58>    C      -20.15598        -9.95055         4.25998
| 59>    C      -20.84897        -8.75324         4.46417
| 60>    O      -20.41932        -7.60138         3.86817
| 61>    C      -21.99454        -8.45600         5.19352
| 62>    C      -23.02623        -9.02186         6.05873
| 63>    O      -23.19722       -10.14230         6.46761
| 64>    N      -23.84527        -7.92850         6.34684
| 65>    C      -23.45895        -6.72335         5.76424
| 66>    O      -24.03599        -5.67436         5.89152
| 67>    C      -22.25046        -7.07752         5.01468
| 68>    C      -21.25670        -6.57624         4.19141
| 69>    C      -21.01745        -5.26956         3.70068
| 70>    C      -19.95337        -4.95748         2.92051
| 71>    C      -19.70623        -3.64256         2.43120
| 72>    C      -18.66541        -3.27604         1.65733
| 73>    C      -17.58610        -4.21291         1.21249
| 74>    C      -18.49138        -1.83280         1.25566
| 75>    N      -17.60214        -1.14413         2.17256
| 76>    C      -18.07857        -0.69704         3.38599
| 77>    C      -17.34568        -0.54114         4.48204
| 78>    H       -5.82636        -1.95322       -12.03641
| 79>    H       -5.56238        -6.84316       -10.98177
| 80>    H       -3.98909        -2.55247       -14.06926
| 81>    H       -9.21217        -4.57490        -7.39963
| 82>    H       -9.13285        -1.61663        -8.21294
| 83>    H      -10.77336        -0.19058        -6.77261
| 84>    H      -12.51542        -0.44651        -4.88266
| 85>    H      -14.02220        -1.27492        -3.21613
| 86>    H      -15.34770        -2.72634        -1.54697
| 87>    H      -15.56409        -5.19736        -0.75028
| 88>    H      -13.57823        -7.07775        -2.14337
| 89>    H      -13.74604        -9.52282        -1.29585
| 90>    H      -15.10656       -10.99030         0.33005
| 91>    H      -16.64778       -11.84041         1.93048
| 92>    H      -18.57874       -12.17993         3.60712
| 93>    H      -20.53372       -10.82414         4.76761
| 94>    H      -24.66357        -8.00716         6.93375
| 95>    H      -21.73979        -4.52329         3.99768
| 96>    H      -19.26464        -5.74647         2.65243
| 97>    H      -20.43429        -2.89140         2.71095
| 98>    H      -17.93078        -4.79002         0.35287
| 99>    H      -17.30914        -4.91809         1.99210
|100>    H      -16.69797        -3.65812         0.91426
|101>    H      -19.44937        -1.30872         1.26335
|102>    H      -18.06407        -1.76443         0.24966
|103>    H      -16.67494        -1.54645         2.22793
|104>    H      -19.11821        -0.39895         3.36451
|105>    H      -16.30862        -0.82900         4.51872
|106>    H      -17.75818        -0.10020         5.36834
|107> *
|108>
|109>                          ****END OF INPUT****

CARTESIAN COORDINATES (ANGSTROEM)
---------------------------------
  C     -7.329620   -5.179940   -9.331370
  C     -7.516090   -6.404310   -8.726290
  C     -6.869130   -7.590260   -9.124000
  N     -6.376800   -8.593110   -9.394700
  C     -8.362490   -6.662350   -7.631000
  N     -9.028750   -6.960190   -6.742340
  C     -6.437580   -4.933730  -10.464590
  C     -6.490650   -3.556770  -10.789360
  C     -5.763270   -3.007080  -11.814950
  C     -4.940960   -3.859260  -12.561020
  C     -4.894840   -5.232850  -12.231080
  C     -5.632120   -5.788790  -11.190960
  S     -3.818290   -6.105780  -13.280640
  C     -3.450260   -4.630870  -14.134860
  C     -4.098180   -3.540870  -13.661350
  Br    -2.243600   -4.668520  -15.571210
  C     -7.427830   -2.876540   -9.869520
  O     -7.701740   -1.690960   -9.874540
  C     -7.943950   -3.930220   -8.977050
  C     -8.882440   -3.721200   -7.978820
  C     -9.444090   -2.494070   -7.664410
  C    -10.402200   -2.327610   -6.673720
  C    -11.021660   -1.122810   -6.297540
  C    -11.946540   -1.260660   -5.294250
  C    -12.088820   -2.580620   -4.841570
  S    -11.020710   -3.650130   -5.711050
  C    -12.947750   -3.057020   -3.847430
  C    -13.880670   -2.333280   -3.094540
  C    -14.586240   -3.107580   -2.204340
  C    -14.231210   -4.461500   -2.220590
  S    -12.973090   -4.740670   -3.400170
  C    -14.773730   -5.479200   -1.434250
  C    -14.375560   -6.792080   -1.469220
  C    -14.926530   -7.808940   -0.689010
  C    -14.542200   -9.155470   -0.673700
  C    -15.267430   -9.936630    0.192420
  C    -16.257930   -9.232940    0.890630
  S    -16.241910   -7.548110    0.431510
  C    -17.176580   -9.729100    1.813110
  C    -17.301380  -11.055470    2.265670
  C    -18.323870  -11.238380    3.154610
  C    -19.055160  -10.064840    3.439610
  S    -18.383110   -8.710600    2.555310
  C    -20.155980   -9.950550    4.259980
  C    -20.848970   -8.753240    4.464170
  O    -20.419320   -7.601380    3.868170
  C    -21.994540   -8.456000    5.193520
  C    -23.026230   -9.021860    6.058730
  O    -23.197220  -10.142300    6.467610
  N    -23.845270   -7.928500    6.346840
  C    -23.458950   -6.723350    5.764240
  O    -24.035990   -5.674360    5.891520
  C    -22.250460   -7.077520    5.014680
  C    -21.256700   -6.576240    4.191410
  C    -21.017450   -5.269560    3.700680
  C    -19.953370   -4.957480    2.920510
  C    -19.706230   -3.642560    2.431200
  C    -18.665410   -3.276040    1.657330
  C    -17.586100   -4.212910    1.212490
  C    -18.491380   -1.832800    1.255660
  N    -17.602140   -1.144130    2.172560
  C    -18.078570   -0.697040    3.385990
  C    -17.345680   -0.541140    4.482040
  H     -5.826360   -1.953220  -12.036410
  H     -5.562380   -6.843160  -10.981770
  H     -3.989090   -2.552470  -14.069260
  H     -9.212170   -4.574900   -7.399630
  H     -9.132850   -1.616630   -8.212940
  H    -10.773360   -0.190580   -6.772610
  H    -12.515420   -0.446510   -4.882660
  H    -14.022200   -1.274920   -3.216130
  H    -15.347700   -2.726340   -1.546970
  H    -15.564090   -5.197360   -0.750280
  H    -13.578230   -7.077750   -2.143370
  H    -13.746040   -9.522820   -1.295850
  H    -15.106560  -10.990300    0.330050
  H    -16.647780  -11.840410    1.930480
  H    -18.578740  -12.179930    3.607120
  H    -20.533720  -10.824140    4.767610
  H    -24.663570   -8.007160    6.933750
  H    -21.739790   -4.523290    3.997680
  H    -19.264640   -5.746470    2.652430
  H    -20.434290   -2.891400    2.710950
  H    -17.930780   -4.790020    0.352870
  H    -17.309140   -4.918090    1.992100
  H    -16.697970   -3.658120    0.914260
  H    -19.449370   -1.308720    1.263350
  H    -18.064070   -1.764430    0.249660
  H    -16.674940   -1.546450    2.227930
  H    -19.118210   -0.398950    3.364510
  H    -16.308620   -0.829000    4.518720
  H    -17.758180   -0.100200    5.368340

 Total Charge           Charge          ....    0
 Multiplicity           Mult            ....    1
 Number of Electrons    NEL             ....  498
 Basis Dimension        Dim             .... 1065

ORBITAL ENERGIES
----------------

  NO   OCC          E(Eh)            E(eV)
   0   2.0000    -482.873931    -13139.6677
   1   2.0000     -88.971322     -2421.0327
   2   2.0000     -88.969426     -2420.9812
   3   2.0000     -88.965835     -2420.8834
   4   2.0000     -88.960793     -2420.7463
   5   2.0000     -88.956774     -2420.6369
   6   2.0000     -62.551627     -1702.1163
   7   2.0000     -56.385557     -1534.3290
   8   2.0000     -56.382879     -1534.2561
   9   2.0000     -56.382839     -1534.2550
  10   2.0000     -19.315711      -525.6072
  11   2.0000     -19.211031      -522.7587
  12   2.0000     -19.210385      -522.7412
  13   2.0000     -19.194178      -522.3001
  14   2.0000     -14.454113      -393.3164
  15   2.0000     -14.418680      -392.3522
  16   2.0000     -14.395494      -391.7213
  17   2.0000     -14.392792      -391.6478
  18   2.0000     -10.400520      -283.0125
  19   2.0000     -10.400015      -282.9988
  20   2.0000     -10.366470      -282.0860
  21   2.0000     -10.366394      -282.0839
  22   2.0000     -10.344405      -281.4856
  23   2.0000     -10.344246      -281.4812
  24   2.0000     -10.333540      -281.1899
  25   2.0000     -10.333432      -281.1870
  26   2.0000     -10.332606      -281.1645
  27   2.0000     -10.332557      -281.1632
  28   2.0000     -10.331840      -281.1436
  29   2.0000     -10.323173      -280.9078
  30   2.0000     -10.320214      -280.8273
  31   2.0000     -10.319105      -280.7971
  32   2.0000     -10.317683      -280.7584
  33   2.0000     -10.315262      -280.6925
  34   2.0000     -10.312892      -280.6281
  35   2.0000     -10.308601      -280.5113
  36   2.0000     -10.308319      -280.5036
  37   2.0000     -10.308125      -280.4983
  38   2.0000     -10.307654      -280.4855
  39   2.0000     -10.307183      -280.4727
  40   2.0000     -10.306150      -280.4446
  41   2.0000     -10.304635      -280.4034
  42   2.0000     -10.301962      -280.3306
  43   2.0000     -10.300254      -280.2842
  44   2.0000     -10.299943      -280.2757
  45   2.0000     -10.299911      -280.2748
  46   2.0000     -10.299764      -280.2708
  47   2.0000     -10.297622      -280.2125
  48   2.0000     -10.295844      -280.1642
  49   2.0000     -10.295468      -280.1539
  50   2.0000     -10.294693      -280.1328
  51   2.0000     -10.293925      -280.1120
  52   2.0000     -10.293003      -280.0868
  53   2.0000     -10.292262      -280.0667
  54   2.0000     -10.290301      -280.0133
  55   2.0000     -10.290165      -280.0096
  56   2.0000     -10.288716      -279.9702
  57   2.0000     -10.287011      -279.9238
  58   2.0000     -10.286828      -279.9188
  59   2.0000     -10.284698      -279.8609
  60   2.0000     -10.282951      -279.8133
  61   2.0000     -10.282878      -279.8113
  62   2.0000     -10.277686      -279.6700
  63   2.0000     -10.272488      -279.5286
  64   2.0000     -10.269873      -279.4574
  65   2.0000     -10.268472      -279.4193
  66   2.0000     -10.237043      -278.5641
  67   2.0000      -8.781047      -238.9444
  68   2.0000      -8.067322      -219.5230
  69   2.0000      -8.064769      -219.4535
  70   2.0000      -8.062072      -219.3801
  71   2.0000      -8.056773      -219.2359
  72   2.0000      -8.052708      -219.1253
  73   2.0000      -6.617242      -180.0643
  74   2.0000      -6.602811      -179.6716
  75   2.0000      -6.602664      -179.6676
  76   2.0000      -6.036886      -164.2720
  77   2.0000      -6.034566      -164.2089
  78   2.0000      -6.032883      -164.1631
  79   2.0000      -6.031607      -164.1284
  80   2.0000      -6.030222      -164.0907
  81   2.0000      -6.028623      -164.0472
  82   2.0000      -6.027531      -164.0175
  83   2.0000      -6.026452      -163.9881
  84   2.0000      -6.025900      -163.9731
  85   2.0000      -6.023402      -163.9051
  86   2.0000      -6.022228      -163.8731
  87   2.0000      -6.022220      -163.8729
  88   2.0000      -6.018187      -163.7632
  89   2.0000      -6.018003      -163.7582
  90   2.0000      -6.014086      -163.6516
  91   2.0000      -2.733175       -74.3735
  92   2.0000      -2.729059       -74.2615
  93   2.0000      -2.728947       -74.2584
  94   2.0000      -2.717477       -73.9463
  95   2.0000      -2.717461       -73.9459
  96   2.0000      -1.231454       -33.5096
  97   2.0000      -1.154885       -31.4260
  98   2.0000      -1.134163       -30.8621
  99   2.0000      -1.107410       -30.1341
 100   2.0000      -1.042697       -28.3732
 101   2.0000      -1.022609       -27.8266
 102   2.0000      -1.018796       -27.7229
 103   2.0000      -1.011646       -27.5283
 104   2.0000      -1.004713       -27.3396
 105   2.0000      -0.997433       -27.1415
 106   2.0000      -0.993885       -27.0450
 107   2.0000      -0.987323       -26.8664
 108   2.0000      -0.973462       -26.4892
 109   2.0000      -0.969181       -26.3728
 110   2.0000      -0.940792       -25.6002
 111   2.0000      -0.928419       -25.2636
 112   2.0000      -0.926215       -25.2036
 113   2.0000      -0.924930       -25.1686
 114   2.0000      -0.918465       -24.9927
 115   2.0000      -0.901604       -24.5339
 116   2.0000      -0.893262       -24.3069
 117   2.0000      -0.889988       -24.2178
 118   2.0000      -0.877157       -23.8687
 119   2.0000      -0.869628       -23.6638
 120   2.0000      -0.868126       -23.6229
 121   2.0000      -0.859476       -23.3875
 122   2.0000      -0.858790       -23.3689
 123   2.0000      -0.848560       -23.0905
 124   2.0000      -0.842161       -22.9164
 125   2.0000      -0.834357       -22.7040
 126   2.0000      -0.833027       -22.6678
 127   2.0000      -0.825283       -22.4571
 128   2.0000      -0.812763       -22.1164
 129   2.0000      -0.810209       -22.0469
 130   2.0000      -0.795186       -21.6381
 131   2.0000      -0.783443       -21.3186
 132   2.0000      -0.772444       -21.0193
 133   2.0000      -0.768600       -20.9147
 134   2.0000      -0.761723       -20.7275
 135   2.0000      -0.752456       -20.4754
 136   2.0000      -0.740058       -20.1380
 137   2.0000      -0.735115       -20.0035
 138   2.0000      -0.719081       -19.5672
 139   2.0000      -0.707566       -19.2538
 140   2.0000      -0.701115       -19.0783
 141   2.0000      -0.692843       -18.8532
 142   2.0000      -0.691163       -18.8075
 143   2.0000      -0.678728       -18.4691
 144   2.0000      -0.676815       -18.4171
 145   2.0000      -0.671224       -18.2649
 146   2.0000      -0.664176       -18.0731
 147   2.0000      -0.656870       -17.8743
 148   2.0000      -0.649094       -17.6628
 149   2.0000      -0.644360       -17.5339
 150   2.0000      -0.639694       -17.4070
 151   2.0000      -0.636198       -17.3118
 152   2.0000      -0.632373       -17.2077
 153   2.0000      -0.629248       -17.1227
 154   2.0000      -0.622996       -16.9526
 155   2.0000      -0.614821       -16.7301
 156   2.0000      -0.613206       -16.6862
 157   2.0000      -0.609134       -16.5754
 158   2.0000      -0.605002       -16.4630
 159   2.0000      -0.596543       -16.2328
 160   2.0000      -0.591352       -16.0915
 161   2.0000      -0.588727       -16.0201
 162   2.0000      -0.581869       -15.8335
 163   2.0000      -0.579728       -15.7752
 164   2.0000      -0.577115       -15.7041
 165   2.0000      -0.569773       -15.5043
 166   2.0000      -0.568418       -15.4674
 167   2.0000      -0.564003       -15.3473
 168   2.0000      -0.555970       -15.1287
 169   2.0000      -0.554756       -15.0957
 170   2.0000      -0.547768       -14.9055
 171   2.0000      -0.545719       -14.8498
 172   2.0000      -0.543777       -14.7969
 173   2.0000      -0.538579       -14.6555
 174   2.0000      -0.530921       -14.4471
 175   2.0000      -0.527573       -14.3560
 176   2.0000      -0.522543       -14.2191
 177   2.0000      -0.519980       -14.1494
 178   2.0000      -0.519306       -14.1310
 179   2.0000      -0.519052       -14.1241
 180   2.0000      -0.516798       -14.0628
 181   2.0000      -0.515968       -14.0402
 182   2.0000      -0.515213       -14.0197
 183   2.0000      -0.511494       -13.9185
 184   2.0000      -0.511388       -13.9156
 185   2.0000      -0.509896       -13.8750
 186   2.0000      -0.508441       -13.8354
 187   2.0000      -0.506791       -13.7905
 188   2.0000      -0.498581       -13.5671
 189   2.0000      -0.495002       -13.4697
 190   2.0000      -0.492278       -13.3956
 191   2.0000      -0.490572       -13.3491
 192   2.0000      -0.489361       -13.3162
 193   2.0000      -0.487250       -13.2588
 194   2.0000      -0.485770       -13.2185
 195   2.0000      -0.482132       -13.1195
 196   2.0000      -0.480843       -13.0844
 197   2.0000      -0.477778       -13.0010
 198   2.0000      -0.476950       -12.9785
 199   2.0000      -0.475743       -12.9456
 200   2.0000      -0.475169       -12.9300
 201   2.0000      -0.472374       -12.8540
 202   2.0000      -0.469645       -12.7797
 203   2.0000      -0.465393       -12.6640
 204   2.0000      -0.461863       -12.5679
 205   2.0000      -0.456517       -12.4224
 206   2.0000      -0.454095       -12.3565
 207   2.0000      -0.450553       -12.2602
 208   2.0000      -0.444177       -12.0867
 209   2.0000      -0.441747       -12.0205
 210   2.0000      -0.440312       -11.9815
 211   2.0000      -0.437133       -11.8950
 212   2.0000      -0.436026       -11.8649
 213   2.0000      -0.434631       -11.8269
 214   2.0000      -0.431127       -11.7316
 215   2.0000      -0.430199       -11.7063
 216   2.0000      -0.424509       -11.5515
 217   2.0000      -0.424250       -11.5444
 218   2.0000      -0.422377       -11.4935
 219   2.0000      -0.417162       -11.3516
 220   2.0000      -0.409944       -11.1551
 221   2.0000      -0.409452       -11.1418
 222   2.0000      -0.406781       -11.0691
 223   2.0000      -0.403762       -10.9869
 224   2.0000      -0.398258       -10.8371
 225   2.0000      -0.396532       -10.7902
 226   2.0000      -0.387497       -10.5443
 227   2.0000      -0.385484       -10.4896
 228   2.0000      -0.379257       -10.3201
 229   2.0000      -0.371315       -10.1040
 230   2.0000      -0.370066       -10.0700
 231   2.0000      -0.363479        -9.8908
 232   2.0000      -0.362320        -9.8592
 233   2.0000      -0.361791        -9.8448
 234   2.0000      -0.356384        -9.6977
 235   2.0000      -0.350111        -9.5270
 236   2.0000      -0.345641        -9.4054
 237   2.0000      -0.345585        -9.4039
 238   2.0000      -0.344244        -9.3674
 239   2.0000      -0.333966        -9.0877
 240   2.0000      -0.326463        -8.8835
 241   2.0000      -0.314613        -8.5611
 242   2.0000      -0.303292        -8.2530
 243   2.0000      -0.298847        -8.1320
 244   2.0000      -0.281468        -7.6591
 245   2.0000      -0.276355        -7.5200
 246   2.0000      -0.266970        -7.2646
 247   2.0000      -0.248431        -6.7601
 248   2.0000      -0.205576        -5.5940
 249   0.0000      -0.131106        -3.5676
 250   0.0000      -0.081051        -2.2055
 251   0.0000      -0.054659        -1.4874
 252   0.0000      -0.051523        -1.4020
 253   0.0000      -0.037693        -1.0257

MULLIKEN ATOMIC CHARGES
-----------------------
   0 C :    0.327535
   1 C :   -0.368035
   2 C :   -0.189881
   3 N :    0.134236
   4 C :   -0.190135
   5 N :    0.122474
   6 C :    0.013520
   7 C :   -0.008042
   8 C :   -0.079806
   9 C :    0.116681
  10 C :   -0.092727
  11 C :   -0.027312
  12 S :    0.176637
  13 C :   -0.122976
  14 C :    0.036366
  15 Br:    0.011507
  16 C :    0.135645
  17 O :   -0.169202
  18 C :   -0.096327
  19 C :   -0.038606
  20 C :   -0.021305
  21 C :    0.002270
  22 C :    0.021834
  23 C :    0.037075
  24 C :   -0.050565
  25 S :    0.113179
  26 C :   -0.026361
  27 C :    0.010550
  28 C :    0.038672
  29 C :   -0.035328
  30 S :    0.119401
  31 C :    0.017136
  32 C :   -0.005125
  33 C :   -0.020238
  34 C :    0.028301
  35 C :    0.023586
  36 C :   -0.042659
  37 S :    0.083683
  38 C :   -0.026206
  39 C :    0.022417
  40 C :    0.035629
  41 C :   -0.010587
  42 S :    0.105908
  43 C :   -0.031932
  44 C :    0.089587
  45 O :   -0.245565
  46 C :   -0.025565
  47 C :    0.159927
  48 O :   -0.145005
  49 N :   -0.168674
  50 C :    0.161715
  51 O :   -0.143744
  52 C :   -0.034418
  53 C :    0.107941
  54 C :   -0.039946
  55 C :    0.036758
  56 C :    0.019693
  57 C :   -0.179204
  58 C :    0.055580
  59 C :    0.192996
  60 N :   -0.179550
  61 C :    0.045761
  62 C :   -0.076283
  63 H :   -0.016825
  64 H :   -0.010060
  65 H :   -0.007784
  66 H :    0.010455
  67 H :    0.015210
  68 H :   -0.003006
  69 H :   -0.009493
  70 H :   -0.008124
  71 H :   -0.018607
  72 H :   -0.025618
  73 H :    0.007042
  74 H :    0.001125
  75 H :   -0.003514
  76 H :   -0.005826
  77 H :   -0.000015
  78 H :    0.014212
  79 H :    0.138136
  80 H :    0.009817
  81 H :   -0.000698
  82 H :   -0.024457
  83 H :    0.048835
  84 H :    0.042083
  85 H :    0.010143
  86 H :    0.014814
  87 H :    0.001252
  88 H :    0.102647
  89 H :   -0.002735
  90 H :   -0.005158
  91 H :    0.013259
Sum of atomic charges:   -0.0000000

LOEWDIN ATOMIC CHARGES
----------------------
   0 C :    0.071228
   1 C :   -0.161798
   2 C :   -0.019643
   3 N :   -0.074135
   4 C :   -0.019946
   5 N :   -0.074726
   6 C :   -0.016907
   7 C :   -0.048018
   8 C :    0.015496
   9 C :   -0.037299
  10 C :   -0.146485
  11 C :   -0.015397
  12 S :    0.425182
  13 C :   -0.276164
  14 C :   -0.071209
  15 Br:    0.127325
  16 C :    0.080817
  17 O :   -0.161981
  18 C :   -0.110428
  19 C :    0.041525
  20 C :   -0.069648
  21 C :   -0.109687
  22 C :   -0.045498
  23 C :   -0.014905
  24 C :   -0.194424
  25 S :    0.418406
  26 C :   -0.151702
  27 C :   -0.044389
  28 C :   -0.025319
  29 C :   -0.159524
  30 S :    0.414528
  31 C :   -0.035784
  32 C :   -0.062416
  33 C :   -0.132650
  34 C :   -0.035077
  35 C :   -0.022725
  36 C :   -0.179013
  37 S :    0.397440
  38 C :   -0.169964
  39 C :   -0.030238
  40 C :   -0.023343
  41 C :   -0.138359
  42 S :    0.408202
  43 C :   -0.057503
  44 C :    0.057546
  45 O :   -0.002857
  46 C :   -0.090450
  47 C :    0.082714
  48 O :   -0.162977
  49 N :   -0.007683
  50 C :    0.084142
  51 O :   -0.160900
  52 C :   -0.098743
  53 C :    0.078278
  54 C :   -0.048421
  55 C :    0.010031
  56 C :   -0.050723
  57 C :   -0.020990
  58 C :   -0.058743
  59 C :    0.039580
  60 N :   -0.040671
  61 C :    0.020387
  62 C :   -0.145257
  63 H :    0.038090
  64 H :    0.039721
  65 H :    0.036965
  66 H :    0.030485
  67 H :    0.038107
  68 H :    0.037648
  69 H :    0.033612
  70 H :    0.033807
  71 H :    0.032351
  72 H :    0.029635
  73 H :    0.033970
  74 H :    0.039315
  75 H :    0.035828
  76 H :    0.034841
  77 H :    0.038696
  78 H :    0.053203
  79 H :    0.094392
  80 H :    0.045292
  81 H :    0.025921
  82 H :    0.026976
  83 H :    0.040321
  84 H :    0.033869
  85 H :    0.021549
  86 H :    0.030203
  87 H :    0.020978
  88 H :    0.066807
  89 H :    0.022089
  90 H :    0.014111
  91 H :    0.023110

  Mayer bond orders larger than 0.100000
B(  0-C ,  1-C ) :   1.5648 B(  0-C ,  6-C ) :   0.9847 B(  0-C , 18-C ) :   1.1316
B(  1-C ,  2-C ) :   1.1516 B(  1-C ,  4-C ) :   1.1574 B(  2-C ,  3-N ) :   2.9599
B(  4-C ,  5-N ) :   2.9523 B(  6-C ,  7-C ) :   1.2778 B(  6-C , 11-C ) :   1.4250
B(  7-C ,  8-C ) :   1.4348 B(  7-C , 16-C ) :   0.9348 B(  8-C ,  9-C ) :   1.2361
B(  8-C , 63-H ) :   1.0160 B(  9-C , 10-C ) :   1.3190 B(  9-C , 14-C ) :   1.1613
B( 10-C , 11-C ) :   1.3164 B( 10-C , 12-S ) :   1.0824 B( 11-C , 64-H ) :   0.9787
B( 12-S , 13-C ) :   1.0847 B( 13-C , 14-C ) :   1.6199 B( 13-C , 15-Br) :   1.0121
B( 14-C , 65-H ) :   1.0001 B( 16-C , 17-O ) :   2.1786 B( 16-C , 18-C ) :   0.9734
B( 18-C , 19-C ) :   1.4409 B( 19-C , 20-C ) :   1.3007 B( 19-C , 66-H ) :   0.9435
B( 20-C , 21-C ) :   1.3678 B( 20-C , 67-H ) :   0.9772 B( 21-C , 22-C ) :   1.2208
B( 21-C , 25-S ) :   1.0892 B( 22-C , 23-C ) :   1.4857 B( 22-C , 68-H ) :   1.0027
B( 23-C , 24-C ) :   1.2697 B( 23-C , 69-H ) :   0.9952 B( 24-C , 25-S ) :   1.0624
B( 24-C , 26-C ) :   1.3734 B( 26-C , 27-C ) :   1.2706 B( 26-C , 30-S ) :   1.0934
B( 27-C , 28-C ) :   1.4857 B( 27-C , 70-H ) :   0.9955 B( 28-C , 29-C ) :   1.2337
B( 28-C , 71-H ) :   1.0007 B( 29-C , 30-S ) :   1.0549 B( 29-C , 31-C ) :   1.4313
B( 31-C , 32-C ) :   1.3032 B( 31-C , 72-H ) :   0.9713 B( 32-C , 33-C ) :   1.4261
B( 32-C , 73-H ) :   0.9739 B( 33-C , 34-C ) :   1.2276 B( 33-C , 37-S ) :   1.0688
B( 34-C , 35-C ) :   1.4983 B( 34-C , 74-H ) :   1.0025 B( 35-C , 36-C ) :   1.2562
B( 35-C , 75-H ) :   0.9948 B( 36-C , 37-S ) :   1.0584 B( 36-C , 38-C ) :   1.4179
B( 38-C , 39-C ) :   1.2299 B( 38-C , 42-S ) :   1.0513 B( 39-C , 40-C ) :   1.5481
B( 39-C , 76-H ) :   0.9959 B( 40-C , 41-C ) :   1.1683 B( 40-C , 77-H ) :   1.0023
B( 41-C , 42-S ) :   1.0566 B( 41-C , 43-C ) :   1.4937 B( 43-C , 44-C ) :   1.2472
B( 43-C , 78-H ) :   0.9649 B( 44-C , 45-O ) :   1.1094 B( 44-C , 46-C ) :   1.3525
B( 45-O , 53-C ) :   1.1326 B( 46-C , 47-C ) :   0.8885 B( 46-C , 52-C ) :   1.2955
B( 47-C , 48-O ) :   2.2651 B( 47-C , 49-N ) :   1.0730 B( 49-N , 50-C ) :   1.0795
B( 49-N , 79-H ) :   0.9140 B( 50-C , 51-O ) :   2.2683 B( 50-C , 52-C ) :   0.8786
B( 52-C , 53-C ) :   1.3797 B( 53-C , 54-C ) :   1.1692 B( 54-C , 55-C ) :   1.6299
B( 54-C , 80-H ) :   0.9702 B( 55-C , 56-C ) :   1.1114 B( 55-C , 81-H ) :   0.9756
B( 56-C , 57-C ) :   1.7489 B( 56-C , 82-H ) :   0.9774 B( 57-C , 58-C ) :   1.0666
B( 57-C , 59-C ) :   1.0328 B( 58-C , 83-H ) :   0.9445 B( 58-C , 84-H ) :   0.9439
B( 58-C , 85-H ) :   0.9489 B( 59-C , 60-N ) :   1.0488 B( 59-C , 86-H ) :   0.9395
B( 59-C , 87-H ) :   0.9387 B( 60-N , 61-C ) :   1.1399 B( 60-N , 88-H ) :   0.9450
B( 61-C , 62-C ) :   1.9171 B( 61-C , 89-H ) :   0.9600 B( 62-C , 90-H ) :   0.9578
B( 62-C , 91-H ) :   0.9530

-----------------------------------------------------------------------------
         ABSORPTION SPECTRUM VIA TRANSITION ELECTRIC DIPOLE MOMENTS
-----------------------------------------------------------------------------
State   Energy  Wavelength   fosc         T2         TX        TY        TZ
        (cm-1)    (nm)                  (au**2)     (au)      (au)      (au)
-----------------------------------------------------------------------------
   0    5091.2   1964.2   0.912231005  58.98785   5.09046   1.93196  -5.41689
   1   12598.0    793.8   0.005990173   0.15654  -0.09405   0.37710  -0.07409
   2   14935.1    669.6   0.038053730   0.83881   0.40181   0.16244  -0.80683
   3   17805.4    561.6   0.081069686   1.49893   0.05268   1.22281   0.02998
   4   19233.2    519.9   0.004906655   0.08399  -0.19476  -0.21150   0.03635
   5   20704.6    483.0   0.241581271   3.84125   0.73722  -1.80891  -0.16006
   6   21533.0    464.4   0.410511889   6.27620   0.28502   2.38598  -0.70855
   7   22312.9    448.2   0.017295831   0.25519  -0.19669   0.42438  -0.19078
   8   23136.8    432.2   0.189832002   2.70110   0.77334  -1.36523  -0.48906
   9   24665.7    405.4   0.380044553   5.07244  -0.23556   2.22872  -0.22304
  10   25432.5    393.2   0.019183266   0.24832   0.33853  -0.26469  -0.25230
  11   25643.8    390.0   0.403342722   5.17806  -1.47420   1.34281   1.09620
  12   26438.1    378.2   0.058364874   0.72677  -0.59276   0.23171   0.56720
  13   27811.8    359.6   0.057787362   0.68404   0.61323   0.55273  -0.04976
  14   28244.7    354.0   0.119845918   1.39689  -0.96433   0.43916   0.52354
  15   28298.7    353.4   0.014362708   0.16709   0.27085  -0.21130  -0.22154
  16   29051.6    344.2   0.098509059   1.11630   0.82498   0.26301  -0.60543
  17   29387.9    340.3   0.147016664   1.64692  -0.72209  -0.91666   0.53409
  18   30273.9    330.3   0.006444556   0.07008   0.24701  -0.00902  -0.09479
  19   30788.0    324.8   0.063542875   0.67946   0.60639  -0.46822  -0.30417
  20   31107.9    321.5   0.059780629   0.63265   0.45756  -0.03424  -0.64971
  21   31480.2    317.7   0.228683668   2.39151   0.88953   0.10982  -1.26024
  22   31606.5    316.4   0.268516438   2.79686  -1.06407  -0.40901   1.22365
  23   32017.2    312.3   0.284604432   2.92640  -1.15313  -0.41434   1.19374
  24   32178.8    310.8   0.001964343   0.02010  -0.11040  -0.02544   0.08521
  25   32405.5    308.6   0.060005462   0.60960  -0.54501  -0.06438   0.55536
  26   32660.3    306.2   0.000469568   0.00473  -0.04614   0.03066  -0.04080
  27   32743.0    305.4   0.077967490   0.78392  -0.18324  -0.73984   0.45053
  28   32781.2    305.1   0.011152001   0.11200   0.10868  -0.31338   0.04447
  29   33259.9    300.7   0.005594553   0.05538   0.06660  -0.06581   0.21589
  30   33920.4    294.8   0.004145433   0.04023  -0.17914  -0.00281   0.09019
  31   34524.1    289.7   0.000526502   0.00502  -0.01561  -0.06068   0.03310
  32   35249.3    283.7   0.057362031   0.53573   0.58727   0.20345  -0.38659
  33   35634.0    280.6   0.171768629   1.58692  -0.50167  -0.84603   0.78708
  34   35735.6    279.8   0.024889997   0.22930  -0.44163   0.12414   0.13731
  35   36132.7    276.8   0.003819909   0.03480   0.04299   0.09967  -0.15173
  36   36529.8    273.7   0.425598432   3.83555   0.97889   1.17211  -1.22616
  37   36592.6    273.3   0.022569489   0.20305   0.22053   0.27862  -0.27710
  38   37045.9    269.9   0.034508651   0.30666   0.00298   0.53052  -0.15877
  39   37978.6    263.3   0.035307929   0.30606   0.43595  -0.14799  -0.30677
  40   38129.9    262.3   0.003857416   0.03330  -0.12666  -0.10517   0.07874
  41   38155.6    262.1   0.016184226   0.13964   0.21902   0.21790  -0.21021
  42   38635.5    258.8   0.002981987   0.02541   0.01444   0.13708   0.08007
  43   38913.0    257.0   0.124220779   1.05093  -0.29362  -0.84886   0.49412
  44   39094.6    255.8   0.005815271   0.04897   0.05956   0.19259   0.09128
  45   39464.5    253.4   0.027188811   0.22681  -0.39115   0.13460   0.23599

FINAL SINGLE POINT ENERGY     -6965.736227499823

DIPOLE MOMENT
-------------
                                X             Y             Z
Electronic contribution:    162.33460     -19.86863    -183.32577
Nuclear contribution   :   -164.73027      20.49315     185.41241
                        -----------------------------------------
Total Dipole Moment    :     -2.39567       0.62452       2.08664
                        -----------------------------------------
Magnitude (a.u.)       :      3.23780
Magnitude (Debye)      :      8.22982

Rotational constants in cm-1:     0.002588     0.000187     0.000175
Rotational constants in MHz :    77.591585     5.595844     5.258270

                             ****ORCA TERMINATED NORMALLY****
TOTAL RUN TIME: 0 days 0 hours 8 minutes 46 seconds 936 msec
