                         Program Version 4.2.0 -  RELEASE  -
|  1> # ORCA input file
|  2> # SCF done       -194.600016175567          0.000553002295
|  3> ! CAM-B3LYP def2-SVP def2/J RIJCOSX Grid4 TightSCF
|  4> %maxcore 5000
|  5> %tddft
|  6>     Mode sTDDFT
|  7>     Ethresh 5.0
|  8>     maxcore 5000
|  9> end
| 10>
| 11> %pal
| 12>   nprocs 6
| 13>   end
| 14> * xyz 0 1
| 15>    C      -10.20139         3.69005        -3.66763
| 16>    C      -10.70665         2.48837        -3.21121
| 17>    C      -12.07711         2.18529        -3.15732
| 18>    N      -13.18683         1.90184        -3.05345
| 19>    C       -9.92812         1.46629        -2.64509
| 20>    N       -9.36155         0.60067        -2.14264
| 21>    C      -11.00857         4.81290        -4.14089
| 22>    C      -10.15569         5.92834        -4.31774
| 23>    C      -10.61113         7.14728        -4.75097
| 24>    C      -11.98087         7.27450        -5.01661
| 25>    C      -12.82454         6.15676        -4.83209
| 26>    C      -12.35934         4.91864        -4.39772
| 27>    S      -14.47689         6.53255        -5.21641
| 28>    C      -14.01642         8.16628        -5.61636
| 29>    C      -12.69454         8.41858        -5.46867
| 30>   Br      -15.32401         9.38402        -6.18910
| 31>    C       -8.77724         5.54731        -3.94348
| 32>    O       -7.79882         6.26919        -3.97228
| 33>    C       -8.84201         4.11970        -3.58900
| 34>    C       -7.73545         3.32541        -3.32158
| 35>    C       -6.45229         3.74525        -2.94147
| 36>    C       -6.12866         4.90194        -2.21000
| 37>    O       -4.85204         5.38291        -2.15173
| 38>    C       -3.88872         4.60168        -2.71640
| 39>    C       -4.19102         3.32107        -3.26362
| 40>    C       -3.08919         2.66986        -3.71497
| 41>    S       -1.66716         3.61515        -3.48081
| 42>    C       -2.56555         4.89920        -2.76736
| 43>    O       -5.46658         2.85834        -3.34160
| 44>    C       -7.04951         5.64831        -1.45733
| 45>    C       -8.24901         5.14534        -0.99525
| 46>    C       -9.32472         5.89426        -0.55986
| 47>    C      -10.56088         5.32334        -0.26497
| 48>    C      -11.78277         5.98514        -0.06211
| 49>    C      -12.85518         5.14409         0.09918
| 50>    C      -12.51825         3.78328         0.04800
| 51>    S      -10.80271         3.59312        -0.20831
| 52>    C      -13.35642         2.67713         0.17869
| 53>    C      -14.74532         2.68484         0.40650
| 54>    C      -15.28476         1.43377         0.51319
| 55>    C      -14.34149         0.39616         0.35950
| 56>    S      -12.75125         1.04687         0.08141
| 57>    C      -14.62900        -0.95730         0.41162
| 58>    C      -13.71024        -1.97030         0.13335
| 59>    C      -14.03534        -3.34156         0.12769
| 60>    O      -13.16905        -4.28548        -0.34448
| 61>    C      -11.95622        -3.83275        -0.77260
| 62>    C      -11.59559        -2.45831        -0.69468
| 63>    C      -10.34451        -2.20734        -1.15468
| 64>    S       -9.58944        -3.65596        -1.69379
| 65>    C      -10.96773        -4.60597        -1.29238
| 66>    O      -12.46364        -1.52255        -0.20635
| 67>    C      -15.27171        -3.83054         0.57928
| 68>    C      -15.69314        -5.12979         0.42467
| 69>    C      -16.91593        -5.64576         0.87682
| 70>    C      -18.04165        -5.01480         1.36048
| 71>    C      -18.50803        -3.65497         1.33578
| 72>    C      -18.23560        -2.70149         0.37809
| 73>    C      -18.61097        -1.35121         0.47126
| 74>    N      -18.79790        -0.21867         0.53982
| 75>    C      -17.53677        -2.98252        -0.81163
| 76>    N      -17.00575        -3.16922        -1.81247
| 77>    C      -19.52019        -3.51495         2.38045
| 78>    C      -19.83262        -4.80358         2.88021
| 79>    C      -18.97153        -5.80168         2.20989
| 80>    O      -18.98665        -7.00384         2.35472
| 81>    C      -20.79072        -5.00929         3.84117
| 82>    C      -21.46364        -3.88853         4.34238
| 83>    C      -21.13662        -2.60583         3.84435
| 84>    C      -20.17476        -2.39857         2.86197
| 85>    S      -22.08285        -1.36380         4.60719
| 86>    C      -22.89728        -2.56920         5.56874
| 87>    C      -22.48213        -3.83623         5.33335
| 88>   Br      -24.21487        -2.03931         6.79443
| 89>    H       -9.93684         7.97936        -4.87917
| 90>    H      -13.04173         4.09320        -4.28251
| 91>    H      -12.23897         9.37036        -5.67269
| 92>    H       -7.80237         2.26647        -3.54436
| 93>    H       -3.03439         1.70070        -4.16434
| 94>    H       -2.07619         5.78757        -2.42720
| 95>    H       -6.75787         6.66087        -1.21884
| 96>    H       -8.39548         4.07263        -1.04608
| 97>    H       -9.25572         6.97309        -0.54387
| 98>    H      -11.84978         7.05861        -0.05939
| 99>    H      -13.86563         5.47924         0.24654
|100>    H      -15.31204         3.59450         0.48486
|101>    H      -16.32820         1.22783         0.67642
|102>    H      -15.65013        -1.21833         0.62780
|103>    H       -9.84432        -1.26198        -1.23290
|104>    H      -10.97727        -5.66248        -1.45971
|105>    H      -15.89175        -3.14056         1.12477
|106>    H      -15.01202        -5.82732        -0.04154
|107>    H      -16.97894        -6.72848         0.93609
|108>    H      -21.01767        -6.00239         4.19566
|109>    H      -19.95976        -1.40221         2.51206
|110>    H      -22.87602        -4.70010         5.83695
|111> *
|112>
|113>                          ****END OF INPUT****

CARTESIAN COORDINATES (ANGSTROEM)
---------------------------------
  C    -10.201390    3.690050   -3.667630
  C    -10.706650    2.488370   -3.211210
  C    -12.077110    2.185290   -3.157320
  N    -13.186830    1.901840   -3.053450
  C     -9.928120    1.466290   -2.645090
  N     -9.361550    0.600670   -2.142640
  C    -11.008570    4.812900   -4.140890
  C    -10.155690    5.928340   -4.317740
  C    -10.611130    7.147280   -4.750970
  C    -11.980870    7.274500   -5.016610
  C    -12.824540    6.156760   -4.832090
  C    -12.359340    4.918640   -4.397720
  S    -14.476890    6.532550   -5.216410
  C    -14.016420    8.166280   -5.616360
  C    -12.694540    8.418580   -5.468670
  Br   -15.324010    9.384020   -6.189100
  C     -8.777240    5.547310   -3.943480
  O     -7.798820    6.269190   -3.972280
  C     -8.842010    4.119700   -3.589000
  C     -7.735450    3.325410   -3.321580
  C     -6.452290    3.745250   -2.941470
  C     -6.128660    4.901940   -2.210000
  O     -4.852040    5.382910   -2.151730
  C     -3.888720    4.601680   -2.716400
  C     -4.191020    3.321070   -3.263620
  C     -3.089190    2.669860   -3.714970
  S     -1.667160    3.615150   -3.480810
  C     -2.565550    4.899200   -2.767360
  O     -5.466580    2.858340   -3.341600
  C     -7.049510    5.648310   -1.457330
  C     -8.249010    5.145340   -0.995250
  C     -9.324720    5.894260   -0.559860
  C    -10.560880    5.323340   -0.264970
  C    -11.782770    5.985140   -0.062110
  C    -12.855180    5.144090    0.099180
  C    -12.518250    3.783280    0.048000
  S    -10.802710    3.593120   -0.208310
  C    -13.356420    2.677130    0.178690
  C    -14.745320    2.684840    0.406500
  C    -15.284760    1.433770    0.513190
  C    -14.341490    0.396160    0.359500
  S    -12.751250    1.046870    0.081410
  C    -14.629000   -0.957300    0.411620
  C    -13.710240   -1.970300    0.133350
  C    -14.035340   -3.341560    0.127690
  O    -13.169050   -4.285480   -0.344480
  C    -11.956220   -3.832750   -0.772600
  C    -11.595590   -2.458310   -0.694680
  C    -10.344510   -2.207340   -1.154680
  S     -9.589440   -3.655960   -1.693790
  C    -10.967730   -4.605970   -1.292380
  O    -12.463640   -1.522550   -0.206350
  C    -15.271710   -3.830540    0.579280
  C    -15.693140   -5.129790    0.424670
  C    -16.915930   -5.645760    0.876820
  C    -18.041650   -5.014800    1.360480
  C    -18.508030   -3.654970    1.335780
  C    -18.235600   -2.701490    0.378090
  C    -18.610970   -1.351210    0.471260
  N    -18.797900   -0.218670    0.539820
  C    -17.536770   -2.982520   -0.811630
  N    -17.005750   -3.169220   -1.812470
  C    -19.520190   -3.514950    2.380450
  C    -19.832620   -4.803580    2.880210
  C    -18.971530   -5.801680    2.209890
  O    -18.986650   -7.003840    2.354720
  C    -20.790720   -5.009290    3.841170
  C    -21.463640   -3.888530    4.342380
  C    -21.136620   -2.605830    3.844350
  C    -20.174760   -2.398570    2.861970
  S    -22.082850   -1.363800    4.607190
  C    -22.897280   -2.569200    5.568740
  C    -22.482130   -3.836230    5.333350
  Br   -24.214870   -2.039310    6.794430
  H     -9.936840    7.979360   -4.879170
  H    -13.041730    4.093200   -4.282510
  H    -12.238970    9.370360   -5.672690
  H     -7.802370    2.266470   -3.544360
  H     -3.034390    1.700700   -4.164340
  H     -2.076190    5.787570   -2.427200
  H     -6.757870    6.660870   -1.218840
  H     -8.395480    4.072630   -1.046080
  H     -9.255720    6.973090   -0.543870
  H    -11.849780    7.058610   -0.059390
  H    -13.865630    5.479240    0.246540
  H    -15.312040    3.594500    0.484860
  H    -16.328200    1.227830    0.676420
  H    -15.650130   -1.218330    0.627800
  H     -9.844320   -1.261980   -1.232900
  H    -10.977270   -5.662480   -1.459710
  H    -15.891750   -3.140560    1.124770
  H    -15.012020   -5.827320   -0.041540
  H    -16.978940   -6.728480    0.936090
  H    -21.017670   -6.002390    4.195660
  H    -19.959760   -1.402210    2.512060
  H    -22.876020   -4.700100    5.836950

 Total Charge           Charge          ....    0
 Multiplicity           Mult            ....    1
 Number of Electrons    NEL             ....  600
 Basis Dimension        Dim             .... 1206

ORBITAL ENERGIES
----------------

  NO   OCC          E(Eh)            E(eV)
   0   2.0000    -482.885451    -13139.9811
   1   2.0000    -482.877714    -13139.7706
   2   2.0000     -88.975549     -2421.1478
   3   2.0000     -88.965391     -2420.8714
   4   2.0000     -88.965373     -2420.8709
   5   2.0000     -88.961952     -2420.7778
   6   2.0000     -88.955231     -2420.5949
   7   2.0000     -88.955079     -2420.5908
   8   2.0000     -62.563175     -1702.4305
   9   2.0000     -62.555447     -1702.2203
  10   2.0000     -56.397128     -1534.6439
  11   2.0000     -56.394409     -1534.5699
  12   2.0000     -56.394375     -1534.5690
  13   2.0000     -56.389381     -1534.4331
  14   2.0000     -56.386700     -1534.3601
  15   2.0000     -56.386651     -1534.3588
  16   2.0000     -19.292832      -524.9847
  17   2.0000     -19.285882      -524.7955
  18   2.0000     -19.283630      -524.7343
  19   2.0000     -19.264694      -524.2190
  20   2.0000     -19.210043      -522.7318
  21   2.0000     -19.197157      -522.3812
  22   2.0000     -14.421386      -392.4259
  23   2.0000     -14.413350      -392.2072
  24   2.0000     -14.404457      -391.9652
  25   2.0000     -14.398550      -391.8045
  26   2.0000     -10.374245      -282.2976
  27   2.0000     -10.365116      -282.0492
  28   2.0000     -10.364920      -282.0438
  29   2.0000     -10.360819      -281.9322
  30   2.0000     -10.358274      -281.8630
  31   2.0000     -10.347978      -281.5828
  32   2.0000     -10.345486      -281.5150
  33   2.0000     -10.342283      -281.4278
  34   2.0000     -10.341424      -281.4045
  35   2.0000     -10.340195      -281.3710
  36   2.0000     -10.339876      -281.3623
  37   2.0000     -10.339070      -281.3404
  38   2.0000     -10.338757      -281.3319
  39   2.0000     -10.337271      -281.2914
  40   2.0000     -10.331438      -281.1327
  41   2.0000     -10.329815      -281.0886
  42   2.0000     -10.328722      -281.0588
  43   2.0000     -10.325761      -280.9782
  44   2.0000     -10.325164      -280.9620
  45   2.0000     -10.324896      -280.9547
  46   2.0000     -10.318814      -280.7892
  47   2.0000     -10.316618      -280.7294
  48   2.0000     -10.314317      -280.6668
  49   2.0000     -10.311832      -280.5992
  50   2.0000     -10.311684      -280.5952
  51   2.0000     -10.310075      -280.5514
  52   2.0000     -10.308974      -280.5214
  53   2.0000     -10.308898      -280.5194
  54   2.0000     -10.307459      -280.4802
  55   2.0000     -10.306296      -280.4486
  56   2.0000     -10.305698      -280.4323
  57   2.0000     -10.305347      -280.4227
  58   2.0000     -10.303737      -280.3789
  59   2.0000     -10.300065      -280.2790
  60   2.0000     -10.299746      -280.2703
  61   2.0000     -10.299560      -280.2653
  62   2.0000     -10.298887      -280.2470
  63   2.0000     -10.296206      -280.1740
  64   2.0000     -10.295527      -280.1555
  65   2.0000     -10.294714      -280.1334
  66   2.0000     -10.293933      -280.1122
  67   2.0000     -10.293500      -280.1004
  68   2.0000     -10.293203      -280.0923
  69   2.0000     -10.291417      -280.0437
  70   2.0000     -10.290946      -280.0309
  71   2.0000     -10.290660      -280.0231
  72   2.0000     -10.290579      -280.0209
  73   2.0000     -10.289306      -279.9863
  74   2.0000     -10.288721      -279.9703
  75   2.0000     -10.288663      -279.9687
  76   2.0000     -10.287081      -279.9257
  77   2.0000     -10.286530      -279.9107
  78   2.0000     -10.286267      -279.9035
  79   2.0000     -10.280508      -279.7469
  80   2.0000     -10.276236      -279.6306
  81   2.0000     -10.270902      -279.4854
  82   2.0000      -8.792608      -239.2590
  83   2.0000      -8.784880      -239.0487
  84   2.0000      -8.071492      -219.6365
  85   2.0000      -8.061240      -219.3575
  86   2.0000      -8.060486      -219.3370
  87   2.0000      -8.057165      -219.2466
  88   2.0000      -8.051063      -219.0806
  89   2.0000      -8.050868      -219.0753
  90   2.0000      -6.628926      -180.3822
  91   2.0000      -6.621125      -180.1700
  92   2.0000      -6.614338      -179.9853
  93   2.0000      -6.614135      -179.9798
  94   2.0000      -6.606607      -179.7749
  95   2.0000      -6.606497      -179.7719
  96   2.0000      -6.041208      -164.3896
  97   2.0000      -6.036893      -164.2722
  98   2.0000      -6.032730      -164.1589
  99   2.0000      -6.030931      -164.1100
 100   2.0000      -6.030010      -164.0849
 101   2.0000      -6.026914      -164.0007
 102   2.0000      -6.026662      -163.9938
 103   2.0000      -6.025997      -163.9757
 104   2.0000      -6.022540      -163.8816
 105   2.0000      -6.022504      -163.8807
 106   2.0000      -6.021945      -163.8655
 107   2.0000      -6.020553      -163.8276
 108   2.0000      -6.020339      -163.8217
 109   2.0000      -6.018357      -163.7678
 110   2.0000      -6.016379      -163.7140
 111   2.0000      -6.016061      -163.7054
 112   2.0000      -6.012762      -163.6156
 113   2.0000      -6.012709      -163.6141
 114   2.0000      -2.744742       -74.6882
 115   2.0000      -2.740678       -74.5776
 116   2.0000      -2.740612       -74.5759
 117   2.0000      -2.736961       -74.4765
 118   2.0000      -2.732964       -74.3677
 119   2.0000      -2.732817       -74.3637
 120   2.0000      -2.728975       -74.2592
 121   2.0000      -2.728941       -74.2583
 122   2.0000      -2.721315       -74.0508
 123   2.0000      -2.721283       -74.0499
 124   2.0000      -1.217405       -33.1273
 125   2.0000      -1.204536       -32.7771
 126   2.0000      -1.180928       -32.1347
 127   2.0000      -1.163624       -31.6638
 128   2.0000      -1.124778       -30.6068
 129   2.0000      -1.110914       -30.2295
 130   2.0000      -1.022849       -27.8331
 131   2.0000      -1.014462       -27.6049
 132   2.0000      -1.013741       -27.5853
 133   2.0000      -1.008808       -27.4511
 134   2.0000      -1.000727       -27.2312
 135   2.0000      -0.996300       -27.1107
 136   2.0000      -0.993708       -27.0402
 137   2.0000      -0.988079       -26.8870
 138   2.0000      -0.986228       -26.8366
 139   2.0000      -0.984692       -26.7948
 140   2.0000      -0.981755       -26.7149
 141   2.0000      -0.973718       -26.4962
 142   2.0000      -0.944941       -25.7131
 143   2.0000      -0.937355       -25.5067
 144   2.0000      -0.934953       -25.4414
 145   2.0000      -0.925307       -25.1789
 146   2.0000      -0.915740       -24.9185
 147   2.0000      -0.907793       -24.7023
 148   2.0000      -0.902059       -24.5463
 149   2.0000      -0.894739       -24.3471
 150   2.0000      -0.888791       -24.1852
 151   2.0000      -0.885184       -24.0871
 152   2.0000      -0.877958       -23.8905
 153   2.0000      -0.872443       -23.7404
 154   2.0000      -0.868135       -23.6232
 155   2.0000      -0.861539       -23.4437
 156   2.0000      -0.856279       -23.3005
 157   2.0000      -0.845388       -23.0042
 158   2.0000      -0.838539       -22.8178
 159   2.0000      -0.829668       -22.5764
 160   2.0000      -0.828519       -22.5452
 161   2.0000      -0.821710       -22.3599
 162   2.0000      -0.820630       -22.3305
 163   2.0000      -0.815934       -22.2027
 164   2.0000      -0.814873       -22.1738
 165   2.0000      -0.802973       -21.8500
 166   2.0000      -0.787597       -21.4316
 167   2.0000      -0.776942       -21.1417
 168   2.0000      -0.765904       -20.8413
 169   2.0000      -0.757089       -20.6014
 170   2.0000      -0.746907       -20.3244
 171   2.0000      -0.741330       -20.1726
 172   2.0000      -0.733281       -19.9536
 173   2.0000      -0.722641       -19.6641
 174   2.0000      -0.714763       -19.4497
 175   2.0000      -0.704980       -19.1835
 176   2.0000      -0.700183       -19.0530
 177   2.0000      -0.697166       -18.9709
 178   2.0000      -0.689016       -18.7491
 179   2.0000      -0.685291       -18.6477
 180   2.0000      -0.681365       -18.5409
 181   2.0000      -0.676863       -18.4184
 182   2.0000      -0.676744       -18.4151
 183   2.0000      -0.669585       -18.2203
 184   2.0000      -0.661448       -17.9989
 185   2.0000      -0.659039       -17.9334
 186   2.0000      -0.653110       -17.7720
 187   2.0000      -0.647003       -17.6058
 188   2.0000      -0.641943       -17.4682
 189   2.0000      -0.639381       -17.3984
 190   2.0000      -0.630841       -17.1660
 191   2.0000      -0.627163       -17.0660
 192   2.0000      -0.623048       -16.9540
 193   2.0000      -0.618701       -16.8357
 194   2.0000      -0.610423       -16.6104
 195   2.0000      -0.609675       -16.5901
 196   2.0000      -0.595513       -16.2047
 197   2.0000      -0.594384       -16.1740
 198   2.0000      -0.591850       -16.1051
 199   2.0000      -0.587031       -15.9739
 200   2.0000      -0.583484       -15.8774
 201   2.0000      -0.579497       -15.7689
 202   2.0000      -0.578493       -15.7416
 203   2.0000      -0.575486       -15.6598
 204   2.0000      -0.573131       -15.5957
 205   2.0000      -0.563479       -15.3330
 206   2.0000      -0.556682       -15.1481
 207   2.0000      -0.553506       -15.0617
 208   2.0000      -0.551653       -15.0112
 209   2.0000      -0.547890       -14.9088
 210   2.0000      -0.542517       -14.7626
 211   2.0000      -0.540450       -14.7064
 212   2.0000      -0.536450       -14.5976
 213   2.0000      -0.534224       -14.5370
 214   2.0000      -0.532815       -14.4986
 215   2.0000      -0.532002       -14.4765
 216   2.0000      -0.530974       -14.4485
 217   2.0000      -0.526324       -14.3220
 218   2.0000      -0.523488       -14.2448
 219   2.0000      -0.519538       -14.1374
 220   2.0000      -0.518154       -14.0997
 221   2.0000      -0.514094       -13.9892
 222   2.0000      -0.512943       -13.9579
 223   2.0000      -0.511853       -13.9282
 224   2.0000      -0.509675       -13.8690
 225   2.0000      -0.507122       -13.7995
 226   2.0000      -0.506083       -13.7712
 227   2.0000      -0.503633       -13.7045
 228   2.0000      -0.500956       -13.6317
 229   2.0000      -0.500280       -13.6133
 230   2.0000      -0.498178       -13.5561
 231   2.0000      -0.495876       -13.4935
 232   2.0000      -0.495090       -13.4721
 233   2.0000      -0.491517       -13.3749
 234   2.0000      -0.487167       -13.2565
 235   2.0000      -0.484445       -13.1824
 236   2.0000      -0.483813       -13.1652
 237   2.0000      -0.483438       -13.1550
 238   2.0000      -0.481207       -13.0943
 239   2.0000      -0.479008       -13.0345
 240   2.0000      -0.477912       -13.0046
 241   2.0000      -0.476079       -12.9548
 242   2.0000      -0.470587       -12.8053
 243   2.0000      -0.467116       -12.7109
 244   2.0000      -0.464781       -12.6473
 245   2.0000      -0.462664       -12.5897
 246   2.0000      -0.460100       -12.5200
 247   2.0000      -0.459445       -12.5021
 248   2.0000      -0.455766       -12.4020
 249   2.0000      -0.453585       -12.3427
 250   2.0000      -0.449439       -12.2298
 251   2.0000      -0.446901       -12.1608
 252   2.0000      -0.445666       -12.1272
 253   2.0000      -0.444996       -12.1090
 254   2.0000      -0.443517       -12.0687
 255   2.0000      -0.440747       -11.9933
 256   2.0000      -0.438074       -11.9206
 257   2.0000      -0.435770       -11.8579
 258   2.0000      -0.434328       -11.8187
 259   2.0000      -0.432192       -11.7605
 260   2.0000      -0.430161       -11.7053
 261   2.0000      -0.429079       -11.6758
 262   2.0000      -0.428533       -11.6610
 263   2.0000      -0.427738       -11.6393
 264   2.0000      -0.424171       -11.5423
 265   2.0000      -0.421346       -11.4654
 266   2.0000      -0.418858       -11.3977
 267   2.0000      -0.416658       -11.3378
 268   2.0000      -0.413517       -11.2524
 269   2.0000      -0.410226       -11.1628
 270   2.0000      -0.409973       -11.1559
 271   2.0000      -0.403545       -10.9810
 272   2.0000      -0.398219       -10.8361
 273   2.0000      -0.397259       -10.8100
 274   2.0000      -0.394032       -10.7221
 275   2.0000      -0.388267       -10.5653
 276   2.0000      -0.384618       -10.4660
 277   2.0000      -0.376933       -10.2569
 278   2.0000      -0.375007       -10.2045
 279   2.0000      -0.369329       -10.0499
 280   2.0000      -0.367397        -9.9974
 281   2.0000      -0.364508        -9.9188
 282   2.0000      -0.354335        -9.6419
 283   2.0000      -0.347130        -9.4459
 284   2.0000      -0.344447        -9.3729
 285   2.0000      -0.339355        -9.2343
 286   2.0000      -0.331916        -9.0319
 287   2.0000      -0.325826        -8.8662
 288   2.0000      -0.317848        -8.6491
 289   2.0000      -0.314620        -8.5612
 290   2.0000      -0.307610        -8.3705
 291   2.0000      -0.303257        -8.2520
 292   2.0000      -0.297864        -8.1053
 293   2.0000      -0.295895        -8.0517
 294   2.0000      -0.293273        -7.9804
 295   2.0000      -0.292571        -7.9613
 296   2.0000      -0.281468        -7.6591
 297   2.0000      -0.266463        -7.2508
 298   2.0000      -0.243211        -6.6181
 299   2.0000      -0.217106        -5.9078
 300   0.0000      -0.127084        -3.4581
 301   0.0000      -0.087065        -2.3692
 302   0.0000      -0.067016        -1.8236
 303   0.0000      -0.058835        -1.6010
 304   0.0000      -0.043926        -1.1953

MULLIKEN ATOMIC CHARGES
-----------------------
   0 C :    0.323827
   1 C :   -0.379162
   2 C :   -0.186247
   3 N :    0.124123
   4 C :   -0.182082
   5 N :    0.137470
   6 C :    0.023408
   7 C :   -0.010571
   8 C :   -0.091732
   9 C :    0.116242
  10 C :   -0.092331
  11 C :   -0.041060
  12 S :    0.171909
  13 C :   -0.126201
  14 C :    0.035229
  15 Br:    0.010267
  16 C :    0.157036
  17 O :   -0.159737
  18 C :   -0.165633
  19 C :   -0.053583
  20 C :    0.117360
  21 C :    0.212958
  22 O :   -0.223829
  23 C :    0.203907
  24 C :    0.217342
  25 C :   -0.168427
  26 S :    0.111205
  27 C :   -0.165569
  28 O :   -0.250886
  29 C :   -0.043855
  30 C :    0.067489
  31 C :   -0.024765
  32 C :   -0.017593
  33 C :    0.030364
  34 C :    0.044694
  35 C :   -0.065790
  36 S :    0.112346
  37 C :   -0.002076
  38 C :    0.029830
  39 C :    0.044979
  40 C :   -0.011026
  41 S :    0.170399
  42 C :   -0.046423
  43 C :    0.208397
  44 C :    0.176977
  45 O :   -0.237711
  46 C :    0.213272
  47 C :    0.223134
  48 C :   -0.156642
  49 S :    0.126547
  50 C :   -0.171963
  51 O :   -0.266111
  52 C :   -0.033757
  53 C :    0.024066
  54 C :    0.049912
  55 C :   -0.126825
  56 C :    0.274582
  57 C :   -0.386935
  58 C :   -0.134376
  59 N :    0.113105
  60 C :   -0.226390
  61 N :    0.186218
  62 C :    0.011683
  63 C :   -0.001050
  64 C :    0.134469
  65 O :   -0.148246
  66 C :   -0.068278
  67 C :    0.111739
  68 C :   -0.088677
  69 C :   -0.028987
  70 S :    0.179677
  71 C :   -0.125537
  72 C :    0.042034
  73 Br:    0.021541
  74 H :   -0.018777
  75 H :   -0.011509
  76 H :   -0.008198
  77 H :    0.035344
  78 H :    0.026034
  79 H :    0.026033
  80 H :    0.003476
  81 H :    0.032603
  82 H :   -0.005690
  83 H :   -0.005083
  84 H :   -0.004608
  85 H :   -0.004708
  86 H :    0.007237
  87 H :   -0.009110
  88 H :    0.024024
  89 H :    0.026499
  90 H :    0.020802
  91 H :    0.011991
  92 H :    0.027533
  93 H :   -0.009752
  94 H :   -0.010343
  95 H :   -0.003472
Sum of atomic charges:   -0.0000000

LOEWDIN ATOMIC CHARGES
----------------------
   0 C :    0.067299
   1 C :   -0.186294
   2 C :   -0.025382
   3 N :   -0.086615
   4 C :   -0.008836
   5 N :   -0.083916
   6 C :   -0.016498
   7 C :   -0.045147
   8 C :    0.010671
   9 C :   -0.040487
  10 C :   -0.150625
  11 C :   -0.019182
  12 S :    0.422726
  13 C :   -0.278870
  14 C :   -0.071559
  15 Br:    0.126169
  16 C :    0.074371
  17 O :   -0.154818
  18 C :   -0.130884
  19 C :    0.035962
  20 C :   -0.002884
  21 C :    0.089474
  22 O :   -0.026339
  23 C :   -0.012392
  24 C :   -0.005479
  25 C :   -0.212566
  26 S :    0.439108
  27 C :   -0.205348
  28 O :   -0.059839
  29 C :   -0.045626
  30 C :    0.019569
  31 C :   -0.068968
  32 C :   -0.117155
  33 C :   -0.045322
  34 C :   -0.009180
  35 C :   -0.185051
  36 S :    0.443295
  37 C :   -0.143447
  38 C :   -0.024184
  39 C :   -0.002871
  40 C :   -0.127834
  41 S :    0.455063
  42 C :   -0.043924
  43 C :    0.054361
  44 C :    0.033949
  45 O :   -0.037193
  46 C :   -0.010363
  47 C :   -0.018106
  48 C :   -0.185489
  49 S :    0.455358
  50 C :   -0.209651
  51 O :   -0.045052
  52 C :    0.019802
  53 C :   -0.036270
  54 C :    0.065608
  55 C :   -0.102911
  56 C :    0.068127
  57 C :   -0.167963
  58 C :   -0.017222
  59 N :   -0.075943
  60 C :   -0.026333
  61 N :   -0.039651
  62 C :   -0.018019
  63 C :   -0.050536
  64 C :    0.081841
  65 O :   -0.146322
  66 C :    0.022067
  67 C :   -0.034599
  68 C :   -0.144440
  69 C :   -0.017570
  70 S :    0.428134
  71 C :   -0.272938
  72 C :   -0.069299
  73 Br:    0.135086
  74 H :    0.037188
  75 H :    0.038519
  76 H :    0.036651
  77 H :    0.047377
  78 H :    0.029856
  79 H :    0.029914
  80 H :    0.039539
  81 H :    0.027918
  82 H :    0.036272
  83 H :    0.036893
  84 H :    0.036446
  85 H :    0.035737
  86 H :    0.042389
  87 H :    0.043508
  88 H :    0.024984
  89 H :    0.029938
  90 H :    0.036984
  91 H :    0.038430
  92 H :    0.047864
  93 H :    0.041268
  94 H :    0.038723
  95 H :    0.038953

  Mayer bond orders larger than 0.100000
B(  0-C ,  1-C ) :   1.5287 B(  0-C ,  6-C ) :   0.9770 B(  0-C , 18-C ) :   1.1853
B(  1-C ,  2-C ) :   1.1634 B(  1-C ,  4-C ) :   1.1830 B(  2-C ,  3-N ) :   2.9234
B(  4-C ,  5-N ) :   2.8873 B(  5-N , 88-H ) :   0.1183 B(  6-C ,  7-C ) :   1.2738
B(  6-C , 11-C ) :   1.4302 B(  7-C ,  8-C ) :   1.4442 B(  7-C , 16-C ) :   0.9275
B(  8-C ,  9-C ) :   1.2176 B(  8-C , 74-H ) :   1.0191 B(  9-C , 10-C ) :   1.3323
B(  9-C , 14-C ) :   1.1629 B( 10-C , 11-C ) :   1.2979 B( 10-C , 12-S ) :   1.0810
B( 11-C , 75-H ) :   0.9841 B( 12-S , 13-C ) :   1.0861 B( 13-C , 14-C ) :   1.6188
B( 13-C , 15-Br) :   1.0097 B( 14-C , 76-H ) :   0.9998 B( 16-C , 17-O ) :   2.1896
B( 16-C , 18-C ) :   0.9832 B( 18-C , 19-C ) :   1.3717 B( 19-C , 20-C ) :   1.3326
B( 19-C , 77-H ) :   0.9398 B( 20-C , 21-C ) :   1.2882 B( 20-C , 28-O ) :   1.0292
B( 21-C , 22-O ) :   1.0973 B( 21-C , 29-C ) :   1.2745 B( 22-O , 23-C ) :   1.0439
B( 23-C , 24-C ) :   1.1984 B( 23-C , 27-C ) :   1.5684 B( 24-C , 25-C ) :   1.5746
B( 24-C , 28-O ) :   1.0742 B( 25-C , 26-S ) :   1.1371 B( 25-C , 78-H ) :   0.9698
B( 26-S , 27-C ) :   1.1519 B( 27-C , 79-H ) :   0.9722 B( 29-C , 30-C ) :   1.4827
B( 29-C , 80-H ) :   0.9608 B( 30-C , 31-C ) :   1.3279 B( 30-C , 81-H ) :   0.9347
B( 31-C , 32-C ) :   1.3816 B( 31-C , 82-H ) :   0.9884 B( 32-C , 33-C ) :   1.2158
B( 32-C , 36-S ) :   1.1010 B( 33-C , 34-C ) :   1.5031 B( 33-C , 83-H ) :   0.9996
B( 34-C , 35-C ) :   1.2575 B( 34-C , 84-H ) :   0.9933 B( 35-C , 36-S ) :   1.0639
B( 35-C , 37-C ) :   1.4107 B( 37-C , 38-C ) :   1.2118 B( 37-C , 41-S ) :   1.0760
B( 38-C , 39-C ) :   1.5519 B( 38-C , 85-H ) :   0.9976 B( 39-C , 40-C ) :   1.1670
B( 39-C , 86-H ) :   0.9946 B( 40-C , 41-S ) :   1.0681 B( 40-C , 42-C ) :   1.5101
B( 42-C , 43-C ) :   1.2582 B( 42-C , 87-H ) :   0.9531 B( 43-C , 44-C ) :   1.3002
B( 43-C , 51-O ) :   1.0900 B( 44-C , 45-O ) :   1.1030 B( 44-C , 52-C ) :   1.3035
B( 45-O , 46-C ) :   1.0332 B( 46-C , 47-C ) :   1.2117 B( 46-C , 50-C ) :   1.5685
B( 47-C , 48-C ) :   1.5702 B( 47-C , 51-O ) :   0.9945 B( 48-C , 49-S ) :   1.1633
B( 48-C , 88-H ) :   0.9468 B( 49-S , 50-C ) :   1.1477 B( 50-C , 89-H ) :   0.9728
B( 52-C , 53-C ) :   1.5058 B( 52-C , 90-H ) :   0.9319 B( 53-C , 54-C ) :   1.2349
B( 53-C , 91-H ) :   0.9692 B( 54-C , 55-C ) :   1.5407 B( 54-C , 92-H ) :   0.9370
B( 55-C , 56-C ) :   1.0878 B( 55-C , 64-C ) :   0.9583 B( 56-C , 57-C ) :   1.5710
B( 56-C , 62-C ) :   1.0266 B( 57-C , 58-C ) :   1.1286 B( 57-C , 60-C ) :   1.1814
B( 58-C , 59-N ) :   2.9067 B( 60-C , 61-N ) :   3.0018 B( 62-C , 63-C ) :   1.2730
B( 62-C , 69-C ) :   1.4168 B( 63-C , 64-C ) :   0.9175 B( 63-C , 66-C ) :   1.4364
B( 64-C , 65-O ) :   2.2539 B( 66-C , 67-C ) :   1.2441 B( 66-C , 93-H ) :   1.0164
B( 67-C , 68-C ) :   1.3136 B( 67-C , 72-C ) :   1.1629 B( 68-C , 69-C ) :   1.3245
B( 68-C , 70-S ) :   1.0830 B( 69-C , 94-H ) :   0.9839 B( 70-S , 71-C ) :   1.0863
B( 71-C , 72-C ) :   1.6189 B( 71-C , 73-Br) :   1.0168 B( 72-C , 95-H ) :   1.0007

-----------------------------------------------------------------------------
         ABSORPTION SPECTRUM VIA TRANSITION ELECTRIC DIPOLE MOMENTS
-----------------------------------------------------------------------------
State   Energy  Wavelength   fosc         T2         TX        TY        TZ
        (cm-1)    (nm)                  (au**2)     (au)      (au)      (au)
-----------------------------------------------------------------------------
   0    5831.8   1714.7   0.485360593  27.39914  -3.39635  -3.43593   2.01452
   1   10748.5    930.4   0.294128824   9.00879   2.12455   2.10892   0.21798
   2   13456.2    743.2   0.076841119   1.87996   1.08017   0.44577   0.71727
   3   15340.0    651.9   0.012227724   0.26242   0.21245  -0.23626  -0.40183
   4   17602.9    568.1   0.232145915   4.34163  -1.33205  -1.59364  -0.16605
   5   18640.9    536.5   0.133795977   2.36294   0.71660   1.32156   0.32080
   6   19261.6    519.2   0.017369352   0.29687   0.15543  -0.46578  -0.23614
   7   21188.5    472.0   0.137172586   2.13129   1.44816  -0.02140  -0.18346
   8   21475.9    465.6   0.021764543   0.33364  -0.46296  -0.33072  -0.09964
   9   22003.2    454.5   0.092032667   1.37699   0.50672   1.04995   0.13358
  10   22356.2    447.3   0.070777462   1.04225  -0.64767   0.44313   0.65300
  11   22924.6    436.2   0.070538992   1.01299  -0.83195   0.15814   0.54391
  12   22970.5    435.3   0.119876284   1.71806  -1.11449  -0.36896   0.58296
  13   23565.1    424.4   0.034600301   0.48338  -0.11624  -0.40904   0.55005
  14   24274.2    412.0   0.203773028   2.76361  -0.94401   1.12220   0.78302
  15   24765.6    403.8   0.012121672   0.16113  -0.31120   0.19072  -0.16707
  16   25762.6    388.2   0.155387936   1.98566   1.33984  -0.42804   0.08519
  17   25950.2    385.4   0.044105036   0.55953  -0.37337   0.44204   0.47406
  18   26807.2    373.0   0.050965050   0.62589  -0.77961  -0.03814   0.12902
  19   27016.1    370.2   0.021500289   0.26200   0.15198  -0.48844   0.01808
  20   27189.1    367.8   0.050717311   0.61410  -0.59777   0.43508  -0.25975
  21   27745.2    360.4   0.010387863   0.12326   0.26350  -0.20354  -0.11133
  22   27793.5    359.8   0.162731085   1.92754   1.33272   0.17879  -0.34558
  23   28912.9    345.9   0.142917299   1.62730   0.69897  -0.92606   0.53024
  24   29309.3    341.2   0.029485854   0.33120  -0.23366   0.24441   0.46568
  25   29582.3    338.0   0.042995982   0.47849   0.60811   0.05379  -0.32527
  26   30019.9    333.1   0.165802670   1.81827  -0.49791  -0.93093   0.83888
  27   30157.7    331.6   0.071095994   0.77611  -0.07511   0.25790   0.83902
  28   30451.2    328.4   0.086583427   0.93606  -0.07922   0.87987  -0.39448
  29   30812.5    324.5   0.196410004   2.09851   0.97338  -0.21986  -1.05010
  30   31130.2    321.2   0.335350731   3.54644  -1.47684   1.08683   0.42917
  31   31632.8    316.1   0.226347031   2.35566   1.42407  -0.34310  -0.45822
  32   31903.4    313.4   0.153391612   1.58285   0.55255  -1.00015   0.52654
  33   32008.7    312.4   0.016701989   0.17178   0.10516  -0.39441   0.07185
  34   32065.6    311.9   0.254850668   2.61651  -0.89605   1.22759  -0.55374
  35   32355.3    309.1   0.078868303   0.80248   0.17509   0.08824  -0.87409
  36   32702.8    305.8   0.013768838   0.13861   0.28512  -0.20746   0.11946
  37   33228.6    300.9   0.138249845   1.36971  -0.87116  -0.68792   0.37087
  38   33338.9    299.9   0.224099039   2.21291   1.02635  -1.07503  -0.06172
  39   33505.3    298.5   0.108481170   1.06590  -0.74638   0.71324   0.01011
  40   33880.2    295.2   0.108097070   1.05037   0.62655  -0.76815  -0.26030
  41   33950.8    294.5   0.120046600   1.16406  -1.06596   0.15409   0.06364
  42   34274.1    291.8   0.039875814   0.38302   0.03225  -0.57944   0.21500
  43   34461.9    290.2   0.035416068   0.33833  -0.18971   0.49865  -0.23171
  44   34835.0    287.1   0.029492261   0.27872   0.12080   0.33465  -0.39004
  45   34938.9    286.2   0.008068304   0.07602   0.24100  -0.02326   0.13192
  46   35415.4    282.4   0.027761918   0.25807  -0.20565   0.31615  -0.34033
  47   35577.9    281.1   0.001138295   0.01053  -0.08959  -0.04570  -0.02047
  48   35722.0    279.9   0.272060474   2.50729  -1.44840  -0.08208   0.63458
  49   35875.2    278.7   0.114620098   1.05182   0.20967  -0.88383   0.47614
  50   36004.7    277.7   0.076554461   0.69998  -0.09512   0.81044  -0.18474
  51   36534.9    273.7   0.005552886   0.05004   0.21931   0.02650   0.03520
  52   37088.1    269.6   0.059199072   0.52548   0.36749   0.34956  -0.51791
  53   37319.8    268.0   0.094919536   0.83732  -0.51607  -0.62576   0.42358
  54   37642.0    265.7   0.073337346   0.64140   0.61329   0.30317  -0.41636
  55   37689.7    265.3   0.157316928   1.37413  -0.98278  -0.18845   0.61054
  56   37890.3    263.9   0.049225558   0.42770   0.61916  -0.13686  -0.16002
  57   38182.0    261.9   0.020109024   0.17338   0.27661   0.24865  -0.18720
  58   38310.8    261.0   0.000608015   0.00522  -0.05416  -0.03045  -0.03693
  59   38557.1    259.4   0.061664242   0.52651   0.64935  -0.23032  -0.22762
  60   38703.2    258.4   0.026762797   0.22765   0.46886   0.05196  -0.07156
  61   38704.5    258.4   0.002074271   0.01764  -0.02413  -0.00216   0.13060
  62   39086.7    255.8   0.021319533   0.17957  -0.21155   0.14215   0.33854
  63   39203.3    255.1   0.066263562   0.55645  -0.68989  -0.22803   0.16883
  64   39415.1    253.7   0.009853470   0.08230  -0.04495  -0.19252   0.20788
  65   39615.5    252.4   0.032853563   0.27302   0.28354   0.43502   0.05820
  66   39791.4    251.3   0.018251104   0.15100   0.21990   0.31980  -0.01929
  67   40124.3    249.2   0.004210079   0.03454  -0.07591  -0.13831  -0.09823
  68   40263.8    248.4   0.033734629   0.27583  -0.48053  -0.18732   0.09914

FINAL SINGLE POINT ENERGY    -10350.133846998706

DIPOLE MOMENT
-------------
                                X             Y             Z
Electronic contribution:   -134.54153      44.21956      19.26011
Nuclear contribution   :    134.41097     -42.79656     -17.11118
                        -----------------------------------------
Total Dipole Moment    :     -0.13056       1.42300       2.14893
                        -----------------------------------------
Magnitude (a.u.)       :      2.58067
Magnitude (Debye)      :      6.55955

Rotational constants in cm-1:     0.000889     0.000272     0.000228
Rotational constants in MHz :    26.644118     8.143213     6.839280

                             ****ORCA TERMINATED NORMALLY****
TOTAL RUN TIME: 0 days 0 hours 12 minutes 51 seconds 795 msec
