                         Program Version 4.2.0 -  RELEASE  -
|  1> # ORCA input file
|  2> # SCF done       -186.683301408501          0.000789664060
|  3> ! CAM-B3LYP def2-SVP def2/J RIJCOSX Grid4 TightSCF
|  4> %maxcore 5000
|  5> %tddft
|  6>     Mode sTDDFT
|  7>     Ethresh 5.0
|  8>     maxcore 5000
|  9> end
| 10>
| 11> %pal
| 12>   nprocs 6
| 13>   end
| 14> * xyz 0 1
| 15>    C        0.23315         4.73043         3.63568
| 16>    C        0.86073         4.54809         4.83813
| 17>    C        0.33285         4.96364         6.07860
| 18>    N       -0.04639         5.27501         7.11614
| 19>    C        2.13438         3.96106         4.99224
| 20>    N        3.17607         3.51661         5.18152
| 21>    C       -1.02373         5.43308         3.42056
| 22>    C       -1.24641         5.55943         2.01867
| 23>    C       -2.34393         6.19951         1.51940
| 24>    C       -3.28735         6.75191         2.41440
| 25>    C       -3.07746         6.61978         3.81770
| 26>    C       -1.93234         5.95134         4.30613
| 27>    C       -4.02862         7.16937         4.70162
| 28>    C       -5.13297         7.82088         4.22436
| 29>    C       -5.33746         7.95248         2.84256
| 30>    C       -4.43443         7.42973         1.95702
| 31>    C       -0.14757         4.90827         1.28247
| 32>    O       -0.03063         4.80075         0.08214
| 33>    C        0.74930         4.34488         2.33213
| 34>    C        1.78567         3.52203         2.05707
| 35>    C        2.22911         3.23232         0.70336
| 36>    C        2.05052         1.99155         0.17210
| 37>    S        2.45594         1.87554        -1.49226
| 38>    C        2.95614         3.53790        -1.49091
| 39>    C        2.80621         4.15486        -0.24139
| 40>    C        3.29811         5.46661        -0.04355
| 41>    C        3.40715         5.98401         1.37060
| 42>    C        2.36420         7.02846         1.77719
| 43>    C        3.77968         6.18847        -1.12860
| 44>    C        4.18645         7.62758        -0.98178
| 45>    C        3.02304         8.54984        -1.36044
| 46>    C        3.87921         5.58209        -2.40512
| 47>    C        4.46013         6.07600        -3.63439
| 48>    C        4.51712         5.10555        -4.59267
| 49>    S        3.85692         3.59183        -4.12463
| 50>    C        3.50723         4.23569        -2.55173
| 51>    C        4.93761         7.40988        -3.93147
| 52>    C        6.05330         7.65231        -4.64949
| 53>    C        6.49838         8.95437        -5.00203
| 54>    S        8.01565         9.17708        -5.84706
| 55>    C        7.86403        10.91806        -5.91719
| 56>    C        6.66900        11.29292        -5.29968
| 57>    C        5.92450        10.19235        -4.79222
| 58>    S        4.47086        10.77562        -4.04626
| 59>    C        4.98830        12.40265        -4.47711
| 60>    N        6.09778        12.50810        -5.09523
| 61>    C        8.84413        11.71868        -6.51889
| 62>    C        8.73018        13.08098        -6.63102
| 63>    C        9.69713        13.89589        -7.21976
| 64>    C        9.56536        15.25935        -7.37315
| 65>    C       10.49955        16.14776        -7.95076
| 66>    C       10.08851        17.44782        -7.98797
| 67>    C        8.80234        17.65384        -7.44422
| 68>    S        8.13572        16.14348        -6.86843
| 69>    C        8.09713        18.84110        -7.36079
| 70>    C        8.50019        20.12393        -7.79078
| 71>    C        7.56470        21.09238        -7.59074
| 72>    C        6.36547        20.62941        -6.99111
| 73>    S        6.48320        18.90716        -6.67998
| 74>    C        5.26628        21.39440        -6.70230
| 75>    C        4.05979        20.96936        -6.12113
| 76>    S        3.70142        19.32975        -5.60264
| 77>    C        2.11560        19.71332        -5.05911
| 78>    C        1.84430        21.04682        -5.25788
| 79>    C        2.94086        21.74089        -5.85243
| 80>    O        2.64503        23.04457        -6.03823
| 81>    C        1.37557        23.19068        -5.57065
| 82>    N        0.79282        24.47648        -5.64108
| 83>    O       -0.34554        24.57883        -5.22061
| 84>    O        1.45274        25.37803        -6.11222
| 85>    C        0.83227        22.03028        -5.08626
| 86>    H       -2.48946         6.28543         0.45265
| 87>    H       -1.80331         5.86184         5.37323
| 88>    H       -3.86547         7.06687         5.76443
| 89>    H       -5.85531         8.23911         4.90914
| 90>    H       -6.21462         8.46960         2.48344
| 91>    H       -4.58714         7.52759         0.89213
| 92>    H        2.25974         2.95799         2.85176
| 93>    H        1.61854         1.14114         0.66402
| 94>    H        4.40635         6.40124         1.52033
| 95>    H        3.32712         5.12735         2.04448
| 96>    H        2.25954         7.04858         2.86081
| 97>    H        1.39565         6.80115         1.33954
| 98>    H        2.65398         8.02371         1.45422
| 99>    H        5.04383         7.82952        -1.62618
|100>    H        4.49078         7.84308         0.04103
|101>    H        2.65447         8.32452        -2.35812
|102>    H        3.33964         9.59038        -1.33235
|103>    H        2.19197         8.41818        -0.67354
|104>    H        4.88179         5.22183        -5.59472
|105>    H        4.33780         8.24423        -3.60437
|106>    H        6.68687         6.83555        -4.96609
|107>    H        4.37260        13.23990        -4.21432
|108>    H        9.71801        11.21585        -6.91149
|109>    H        7.83617        13.55175        -6.24398
|110>    H       10.60893        13.44201        -7.58706
|111>    H       11.44724        15.79986        -8.32291
|112>    H       10.67136        18.25498        -8.39368
|113>    H        9.46327        20.29751        -8.23596
|114>    H        7.69039        22.12694        -7.85634
|115>    H        5.31018        22.44728        -6.94828
|116>    H        1.49522        18.95068        -4.63753
|117>    H       -0.14871        21.91988        -4.67320
|118> *
|119>
|120>                          ****END OF INPUT****

CARTESIAN COORDINATES (ANGSTROEM)
---------------------------------
  C      0.233150    4.730430    3.635680
  C      0.860730    4.548090    4.838130
  C      0.332850    4.963640    6.078600
  N     -0.046390    5.275010    7.116140
  C      2.134380    3.961060    4.992240
  N      3.176070    3.516610    5.181520
  C     -1.023730    5.433080    3.420560
  C     -1.246410    5.559430    2.018670
  C     -2.343930    6.199510    1.519400
  C     -3.287350    6.751910    2.414400
  C     -3.077460    6.619780    3.817700
  C     -1.932340    5.951340    4.306130
  C     -4.028620    7.169370    4.701620
  C     -5.132970    7.820880    4.224360
  C     -5.337460    7.952480    2.842560
  C     -4.434430    7.429730    1.957020
  C     -0.147570    4.908270    1.282470
  O     -0.030630    4.800750    0.082140
  C      0.749300    4.344880    2.332130
  C      1.785670    3.522030    2.057070
  C      2.229110    3.232320    0.703360
  C      2.050520    1.991550    0.172100
  S      2.455940    1.875540   -1.492260
  C      2.956140    3.537900   -1.490910
  C      2.806210    4.154860   -0.241390
  C      3.298110    5.466610   -0.043550
  C      3.407150    5.984010    1.370600
  C      2.364200    7.028460    1.777190
  C      3.779680    6.188470   -1.128600
  C      4.186450    7.627580   -0.981780
  C      3.023040    8.549840   -1.360440
  C      3.879210    5.582090   -2.405120
  C      4.460130    6.076000   -3.634390
  C      4.517120    5.105550   -4.592670
  S      3.856920    3.591830   -4.124630
  C      3.507230    4.235690   -2.551730
  C      4.937610    7.409880   -3.931470
  C      6.053300    7.652310   -4.649490
  C      6.498380    8.954370   -5.002030
  S      8.015650    9.177080   -5.847060
  C      7.864030   10.918060   -5.917190
  C      6.669000   11.292920   -5.299680
  C      5.924500   10.192350   -4.792220
  S      4.470860   10.775620   -4.046260
  C      4.988300   12.402650   -4.477110
  N      6.097780   12.508100   -5.095230
  C      8.844130   11.718680   -6.518890
  C      8.730180   13.080980   -6.631020
  C      9.697130   13.895890   -7.219760
  C      9.565360   15.259350   -7.373150
  C     10.499550   16.147760   -7.950760
  C     10.088510   17.447820   -7.987970
  C      8.802340   17.653840   -7.444220
  S      8.135720   16.143480   -6.868430
  C      8.097130   18.841100   -7.360790
  C      8.500190   20.123930   -7.790780
  C      7.564700   21.092380   -7.590740
  C      6.365470   20.629410   -6.991110
  S      6.483200   18.907160   -6.679980
  C      5.266280   21.394400   -6.702300
  C      4.059790   20.969360   -6.121130
  S      3.701420   19.329750   -5.602640
  C      2.115600   19.713320   -5.059110
  C      1.844300   21.046820   -5.257880
  C      2.940860   21.740890   -5.852430
  O      2.645030   23.044570   -6.038230
  C      1.375570   23.190680   -5.570650
  N      0.792820   24.476480   -5.641080
  O     -0.345540   24.578830   -5.220610
  O      1.452740   25.378030   -6.112220
  C      0.832270   22.030280   -5.086260
  H     -2.489460    6.285430    0.452650
  H     -1.803310    5.861840    5.373230
  H     -3.865470    7.066870    5.764430
  H     -5.855310    8.239110    4.909140
  H     -6.214620    8.469600    2.483440
  H     -4.587140    7.527590    0.892130
  H      2.259740    2.957990    2.851760
  H      1.618540    1.141140    0.664020
  H      4.406350    6.401240    1.520330
  H      3.327120    5.127350    2.044480
  H      2.259540    7.048580    2.860810
  H      1.395650    6.801150    1.339540
  H      2.653980    8.023710    1.454220
  H      5.043830    7.829520   -1.626180
  H      4.490780    7.843080    0.041030
  H      2.654470    8.324520   -2.358120
  H      3.339640    9.590380   -1.332350
  H      2.191970    8.418180   -0.673540
  H      4.881790    5.221830   -5.594720
  H      4.337800    8.244230   -3.604370
  H      6.686870    6.835550   -4.966090
  H      4.372600   13.239900   -4.214320
  H      9.718010   11.215850   -6.911490
  H      7.836170   13.551750   -6.243980
  H     10.608930   13.442010   -7.587060
  H     11.447240   15.799860   -8.322910
  H     10.671360   18.254980   -8.393680
  H      9.463270   20.297510   -8.235960
  H      7.690390   22.126940   -7.856340
  H      5.310180   22.447280   -6.948280
  H      1.495220   18.950680   -4.637530
  H     -0.148710   21.919880   -4.673200

 Total Charge           Charge          ....    0
 Multiplicity           Mult            ....    1
 Number of Electrons    NEL             ....  540
 Basis Dimension        Dim             .... 1182

ORBITAL ENERGIES
----------------

  NO   OCC          E(Eh)            E(eV)
   0   2.0000     -88.972380     -2421.0615
   1   2.0000     -88.964849     -2420.8566
   2   2.0000     -88.962197     -2420.7845
   3   2.0000     -88.953707     -2420.5534
   4   2.0000     -88.949917     -2420.4503
   5   2.0000     -88.946243     -2420.3503
   6   2.0000     -88.942608     -2420.2514
   7   2.0000     -19.305751      -525.3362
   8   2.0000     -19.240737      -523.5671
   9   2.0000     -19.238331      -523.5016
  10   2.0000     -19.217431      -522.9329
  11   2.0000     -14.652169      -398.7058
  12   2.0000     -14.420034      -392.3891
  13   2.0000     -14.419242      -392.3675
  14   2.0000     -14.419239      -392.3674
  15   2.0000     -10.383589      -282.5518
  16   2.0000     -10.368187      -282.1327
  17   2.0000     -10.347273      -281.5636
  18   2.0000     -10.344497      -281.4881
  19   2.0000     -10.341651      -281.4106
  20   2.0000     -10.340397      -281.3765
  21   2.0000     -10.322384      -280.8863
  22   2.0000     -10.322216      -280.8818
  23   2.0000     -10.321644      -280.8662
  24   2.0000     -10.314259      -280.6652
  25   2.0000     -10.310727      -280.5691
  26   2.0000     -10.309140      -280.5260
  27   2.0000     -10.308870      -280.5186
  28   2.0000     -10.308250      -280.5017
  29   2.0000     -10.308226      -280.5011
  30   2.0000     -10.307506      -280.4815
  31   2.0000     -10.307247      -280.4744
  32   2.0000     -10.306555      -280.4556
  33   2.0000     -10.306104      -280.4433
  34   2.0000     -10.304500      -280.3997
  35   2.0000     -10.303445      -280.3710
  36   2.0000     -10.301507      -280.3183
  37   2.0000     -10.301394      -280.3152
  38   2.0000     -10.301325      -280.3133
  39   2.0000     -10.301160      -280.3088
  40   2.0000     -10.300805      -280.2991
  41   2.0000     -10.299853      -280.2732
  42   2.0000     -10.296744      -280.1887
  43   2.0000     -10.296320      -280.1771
  44   2.0000     -10.294326      -280.1229
  45   2.0000     -10.292037      -280.0606
  46   2.0000     -10.291637      -280.0497
  47   2.0000     -10.290125      -280.0085
  48   2.0000     -10.289496      -279.9914
  49   2.0000     -10.289221      -279.9839
  50   2.0000     -10.289110      -279.9809
  51   2.0000     -10.288734      -279.9707
  52   2.0000     -10.287140      -279.9273
  53   2.0000     -10.286613      -279.9130
  54   2.0000     -10.285907      -279.8938
  55   2.0000     -10.284584      -279.8578
  56   2.0000     -10.283343      -279.8240
  57   2.0000     -10.282971      -279.8139
  58   2.0000     -10.281606      -279.7767
  59   2.0000     -10.280871      -279.7567
  60   2.0000     -10.279801      -279.7276
  61   2.0000     -10.278200      -279.6840
  62   2.0000     -10.277583      -279.6673
  63   2.0000     -10.276765      -279.6450
  64   2.0000     -10.272949      -279.5411
  65   2.0000     -10.272307      -279.5237
  66   2.0000     -10.270627      -279.4780
  67   2.0000     -10.266194      -279.3573
  68   2.0000     -10.262616      -279.2600
  69   2.0000     -10.258415      -279.1457
  70   2.0000     -10.255340      -279.0620
  71   2.0000      -8.066795      -219.5087
  72   2.0000      -8.060108      -219.3267
  73   2.0000      -8.057298      -219.2502
  74   2.0000      -8.049854      -219.0477
  75   2.0000      -8.046026      -218.9435
  76   2.0000      -8.042389      -218.8445
  77   2.0000      -8.038783      -218.7464
  78   2.0000      -6.036136      -164.2516
  79   2.0000      -6.031714      -164.1313
  80   2.0000      -6.029659      -164.0754
  81   2.0000      -6.029266      -164.0647
  82   2.0000      -6.026600      -163.9921
  83   2.0000      -6.025541      -163.9633
  84   2.0000      -6.022638      -163.8843
  85   2.0000      -6.021694      -163.8586
  86   2.0000      -6.019364      -163.7952
  87   2.0000      -6.019325      -163.7942
  88   2.0000      -6.015534      -163.6910
  89   2.0000      -6.015146      -163.6804
  90   2.0000      -6.012176      -163.5996
  91   2.0000      -6.011473      -163.5805
  92   2.0000      -6.011295      -163.5757
  93   2.0000      -6.008496      -163.4995
  94   2.0000      -6.008062      -163.4877
  95   2.0000      -6.007753      -163.4793
  96   2.0000      -6.004493      -163.3906
  97   2.0000      -6.003266      -163.3572
  98   2.0000      -5.999721      -163.2607
  99   2.0000      -1.323276       -36.0082
 100   2.0000      -1.225465       -33.3466
 101   2.0000      -1.139428       -31.0054
 102   2.0000      -1.132302       -30.8115
 103   2.0000      -1.071515       -29.1574
 104   2.0000      -1.022097       -27.8127
 105   2.0000      -1.002764       -27.2866
 106   2.0000      -1.001355       -27.2483
 107   2.0000      -0.997931       -27.1551
 108   2.0000      -0.997287       -27.1376
 109   2.0000      -0.990022       -26.9399
 110   2.0000      -0.978826       -26.6352
 111   2.0000      -0.976173       -26.5630
 112   2.0000      -0.971407       -26.4333
 113   2.0000      -0.970697       -26.4140
 114   2.0000      -0.932180       -25.3659
 115   2.0000      -0.928515       -25.2662
 116   2.0000      -0.924224       -25.1494
 117   2.0000      -0.920486       -25.0477
 118   2.0000      -0.909512       -24.7491
 119   2.0000      -0.900980       -24.5169
 120   2.0000      -0.893538       -24.3144
 121   2.0000      -0.889536       -24.2055
 122   2.0000      -0.885265       -24.0893
 123   2.0000      -0.880533       -23.9605
 124   2.0000      -0.875337       -23.8191
 125   2.0000      -0.864396       -23.5214
 126   2.0000      -0.856927       -23.3182
 127   2.0000      -0.853501       -23.2249
 128   2.0000      -0.845156       -22.9979
 129   2.0000      -0.837311       -22.7844
 130   2.0000      -0.831786       -22.6340
 131   2.0000      -0.829798       -22.5800
 132   2.0000      -0.826441       -22.4886
 133   2.0000      -0.821437       -22.3524
 134   2.0000      -0.816041       -22.2056
 135   2.0000      -0.803011       -21.8510
 136   2.0000      -0.796238       -21.6667
 137   2.0000      -0.785398       -21.3718
 138   2.0000      -0.777927       -21.1685
 139   2.0000      -0.773618       -21.0512
 140   2.0000      -0.764707       -20.8087
 141   2.0000      -0.758085       -20.6285
 142   2.0000      -0.732950       -19.9446
 143   2.0000      -0.720802       -19.6140
 144   2.0000      -0.716423       -19.4949
 145   2.0000      -0.708665       -19.2838
 146   2.0000      -0.706779       -19.2324
 147   2.0000      -0.704257       -19.1638
 148   2.0000      -0.702692       -19.1212
 149   2.0000      -0.697960       -18.9925
 150   2.0000      -0.696896       -18.9635
 151   2.0000      -0.688519       -18.7355
 152   2.0000      -0.687135       -18.6979
 153   2.0000      -0.679697       -18.4955
 154   2.0000      -0.670744       -18.2519
 155   2.0000      -0.666838       -18.1456
 156   2.0000      -0.646806       -17.6005
 157   2.0000      -0.643604       -17.5133
 158   2.0000      -0.642248       -17.4765
 159   2.0000      -0.638628       -17.3780
 160   2.0000      -0.637225       -17.3398
 161   2.0000      -0.635276       -17.2867
 162   2.0000      -0.632712       -17.2170
 163   2.0000      -0.624761       -17.0006
 164   2.0000      -0.622762       -16.9462
 165   2.0000      -0.619962       -16.8700
 166   2.0000      -0.615113       -16.7381
 167   2.0000      -0.610776       -16.6201
 168   2.0000      -0.609843       -16.5947
 169   2.0000      -0.607286       -16.5251
 170   2.0000      -0.596561       -16.2332
 171   2.0000      -0.588405       -16.0113
 172   2.0000      -0.583176       -15.8690
 173   2.0000      -0.581651       -15.8275
 174   2.0000      -0.581271       -15.8172
 175   2.0000      -0.563315       -15.3286
 176   2.0000      -0.562421       -15.3043
 177   2.0000      -0.558460       -15.1965
 178   2.0000      -0.555546       -15.1172
 179   2.0000      -0.551699       -15.0125
 180   2.0000      -0.550064       -14.9680
 181   2.0000      -0.549460       -14.9516
 182   2.0000      -0.548293       -14.9198
 183   2.0000      -0.545431       -14.8419
 184   2.0000      -0.539815       -14.6891
 185   2.0000      -0.538376       -14.6499
 186   2.0000      -0.535368       -14.5681
 187   2.0000      -0.531517       -14.4633
 188   2.0000      -0.527956       -14.3664
 189   2.0000      -0.524388       -14.2693
 190   2.0000      -0.523556       -14.2467
 191   2.0000      -0.522097       -14.2070
 192   2.0000      -0.520124       -14.1533
 193   2.0000      -0.515305       -14.0222
 194   2.0000      -0.513923       -13.9846
 195   2.0000      -0.507735       -13.8162
 196   2.0000      -0.506112       -13.7720
 197   2.0000      -0.504082       -13.7168
 198   2.0000      -0.502111       -13.6631
 199   2.0000      -0.500008       -13.6059
 200   2.0000      -0.499320       -13.5872
 201   2.0000      -0.497012       -13.5244
 202   2.0000      -0.492520       -13.4021
 203   2.0000      -0.491252       -13.3677
 204   2.0000      -0.489508       -13.3202
 205   2.0000      -0.486951       -13.2506
 206   2.0000      -0.485267       -13.2048
 207   2.0000      -0.481550       -13.1037
 208   2.0000      -0.473953       -12.8969
 209   2.0000      -0.473587       -12.8869
 210   2.0000      -0.471028       -12.8173
 211   2.0000      -0.469812       -12.7842
 212   2.0000      -0.466599       -12.6968
 213   2.0000      -0.461522       -12.5586
 214   2.0000      -0.459971       -12.5164
 215   2.0000      -0.457044       -12.4368
 216   2.0000      -0.456243       -12.4150
 217   2.0000      -0.453007       -12.3270
 218   2.0000      -0.450895       -12.2695
 219   2.0000      -0.450330       -12.2541
 220   2.0000      -0.448539       -12.2054
 221   2.0000      -0.448249       -12.1975
 222   2.0000      -0.447155       -12.1677
 223   2.0000      -0.445007       -12.1093
 224   2.0000      -0.440535       -11.9876
 225   2.0000      -0.439935       -11.9712
 226   2.0000      -0.437318       -11.9000
 227   2.0000      -0.436868       -11.8878
 228   2.0000      -0.435733       -11.8569
 229   2.0000      -0.431154       -11.7323
 230   2.0000      -0.428785       -11.6678
 231   2.0000      -0.427983       -11.6460
 232   2.0000      -0.426590       -11.6081
 233   2.0000      -0.426390       -11.6027
 234   2.0000      -0.423355       -11.5201
 235   2.0000      -0.419267       -11.4088
 236   2.0000      -0.416356       -11.3296
 237   2.0000      -0.415821       -11.3151
 238   2.0000      -0.413894       -11.2626
 239   2.0000      -0.412055       -11.2126
 240   2.0000      -0.410580       -11.1725
 241   2.0000      -0.406652       -11.0656
 242   2.0000      -0.400172       -10.8892
 243   2.0000      -0.392747       -10.6872
 244   2.0000      -0.387752       -10.5513
 245   2.0000      -0.386759       -10.5243
 246   2.0000      -0.386402       -10.5145
 247   2.0000      -0.379155       -10.3173
 248   2.0000      -0.376920       -10.2565
 249   2.0000      -0.374956       -10.2031
 250   2.0000      -0.368121       -10.0171
 251   2.0000      -0.364091        -9.9074
 252   2.0000      -0.361275        -9.8308
 253   2.0000      -0.351998        -9.5783
 254   2.0000      -0.350482        -9.5371
 255   2.0000      -0.339851        -9.2478
 256   2.0000      -0.337468        -9.1830
 257   2.0000      -0.335403        -9.1268
 258   2.0000      -0.327833        -8.9208
 259   2.0000      -0.324293        -8.8245
 260   2.0000      -0.320427        -8.7193
 261   2.0000      -0.313500        -8.5308
 262   2.0000      -0.312609        -8.5065
 263   2.0000      -0.310116        -8.4387
 264   2.0000      -0.297204        -8.0873
 265   2.0000      -0.289603        -7.8805
 266   2.0000      -0.269955        -7.3458
 267   2.0000      -0.267300        -7.2736
 268   2.0000      -0.244432        -6.6513
 269   2.0000      -0.201091        -5.4720
 270   0.0000      -0.089674        -2.4401
 271   0.0000      -0.087280        -2.3750
 272   0.0000      -0.059284        -1.6132
 273   0.0000      -0.057254        -1.5580
 274   0.0000      -0.035107        -0.9553

MULLIKEN ATOMIC CHARGES
-----------------------
   0 C :    0.330547
   1 C :   -0.351010
   2 C :   -0.182124
   3 N :    0.155030
   4 C :   -0.203148
   5 N :    0.169454
   6 C :    0.051318
   7 C :   -0.005928
   8 C :   -0.082467
   9 C :    0.100216
  10 C :    0.099940
  11 C :   -0.090403
  12 C :   -0.021261
  13 C :    0.037450
  14 C :    0.038365
  15 C :   -0.019245
  16 C :    0.145146
  17 O :   -0.126397
  18 C :   -0.082115
  19 C :   -0.096601
  20 C :    0.034299
  21 C :   -0.086960
  22 S :    0.136974
  23 C :   -0.141209
  24 C :    0.153056
  25 C :   -0.113746
  26 C :    0.025573
  27 C :    0.032971
  28 C :   -0.125424
  29 C :    0.031522
  30 C :    0.039473
  31 C :    0.120520
  32 C :    0.068282
  33 C :   -0.118876
  34 S :    0.125679
  35 C :   -0.147950
  36 C :   -0.035494
  37 C :    0.047872
  38 C :   -0.196257
  39 S :    0.145717
  40 C :   -0.137553
  41 C :    0.075003
  42 C :   -0.014191
  43 S :    0.074462
  44 C :    0.027304
  45 N :   -0.045678
  46 C :    0.009863
  47 C :    0.006073
  48 C :   -0.005543
  49 C :   -0.022115
  50 C :    0.038525
  51 C :    0.023472
  52 C :   -0.045099
  53 S :    0.082978
  54 C :   -0.039932
  55 C :    0.030759
  56 C :    0.033297
  57 C :   -0.025270
  58 S :    0.061708
  59 C :   -0.015153
  60 C :   -0.188109
  61 S :    0.138974
  62 C :   -0.134759
  63 C :    0.125283
  64 C :    0.190058
  65 O :   -0.184461
  66 C :    0.232085
  67 N :    0.273705
  68 O :   -0.252548
  69 O :   -0.231577
  70 C :   -0.068945
  71 H :   -0.012066
  72 H :   -0.007483
  73 H :   -0.007739
  74 H :   -0.003422
  75 H :   -0.004345
  76 H :   -0.015921
  77 H :    0.048446
  78 H :    0.020149
  79 H :    0.021394
  80 H :    0.005362
  81 H :    0.013295
  82 H :    0.012108
  83 H :    0.021664
  84 H :    0.014222
  85 H :   -0.009163
  86 H :    0.018018
  87 H :    0.011890
  88 H :    0.003350
  89 H :    0.018404
  90 H :   -0.003449
  91 H :   -0.022909
  92 H :    0.042157
  93 H :   -0.028519
  94 H :    0.019052
  95 H :   -0.018362
  96 H :   -0.013521
  97 H :   -0.013884
  98 H :   -0.014935
  99 H :   -0.010655
 100 H :    0.002558
 101 H :    0.028356
 102 H :    0.010544
Sum of atomic charges:   -0.0000000

LOEWDIN ATOMIC CHARGES
----------------------
   0 C :    0.076621
   1 C :   -0.135394
   2 C :   -0.017726
   3 N :   -0.049691
   4 C :   -0.023457
   5 N :   -0.047488
   6 C :   -0.026972
   7 C :   -0.056769
   8 C :    0.032196
   9 C :   -0.007451
  10 C :   -0.006423
  11 C :    0.020697
  12 C :   -0.005098
  13 C :   -0.012753
  14 C :   -0.011028
  15 C :   -0.009574
  16 C :    0.076554
  17 O :   -0.124621
  18 C :   -0.083062
  19 C :    0.080114
  20 C :   -0.067089
  21 C :   -0.155022
  22 S :    0.424001
  23 C :   -0.175141
  24 C :   -0.029648
  25 C :   -0.021994
  26 C :   -0.026263
  27 C :   -0.054427
  28 C :   -0.013187
  29 C :   -0.029844
  30 C :   -0.052534
  31 C :   -0.040991
  32 C :   -0.060814
  33 C :   -0.169069
  34 S :    0.413562
  35 C :   -0.175320
  36 C :   -0.022815
  37 C :   -0.046099
  38 C :   -0.194771
  39 S :    0.446422
  40 C :   -0.172860
  41 C :   -0.067123
  42 C :   -0.203822
  43 S :    0.383087
  44 C :   -0.096081
  45 N :   -0.077930
  46 C :   -0.043437
  47 C :   -0.020070
  48 C :   -0.050762
  49 C :   -0.146110
  50 C :   -0.031122
  51 C :   -0.034923
  52 C :   -0.173242
  53 S :    0.381365
  54 C :   -0.182629
  55 C :   -0.033832
  56 C :   -0.034791
  57 C :   -0.149976
  58 S :    0.363346
  59 C :   -0.075488
  60 C :   -0.201565
  61 S :    0.470732
  62 C :   -0.195966
  63 C :   -0.084524
  64 C :    0.017378
  65 O :    0.000985
  66 C :    0.024024
  67 N :    0.272449
  68 O :   -0.213307
  69 O :   -0.193534
  70 C :   -0.009621
  71 H :    0.039628
  72 H :    0.039209
  73 H :    0.035139
  74 H :    0.033786
  75 H :    0.033214
  76 H :    0.032345
  77 H :    0.048774
  78 H :    0.025715
  79 H :    0.032043
  80 H :    0.028690
  81 H :    0.026371
  82 H :    0.023123
  83 H :    0.024490
  84 H :    0.029530
  85 H :    0.025088
  86 H :    0.020669
  87 H :    0.018853
  88 H :    0.024052
  89 H :    0.022605
  90 H :    0.017173
  91 H :    0.028274
  92 H :    0.020437
  93 H :    0.026796
  94 H :    0.025239
  95 H :    0.031199
  96 H :    0.033408
  97 H :    0.031407
  98 H :    0.031894
  99 H :    0.034157
 100 H :    0.045383
 101 H :    0.026978
 102 H :    0.046050

  Mayer bond orders larger than 0.100000
B(  0-C ,  1-C ) :   1.6605 B(  0-C ,  6-C ) :   0.9974 B(  0-C , 18-C ) :   1.0185
B(  1-C ,  2-C ) :   1.1361 B(  1-C ,  4-C ) :   1.1560 B(  2-C ,  3-N ) :   2.9719
B(  4-C ,  5-N ) :   2.9730 B(  6-C ,  7-C ) :   1.2145 B(  6-C , 11-C ) :   1.4374
B(  7-C ,  8-C ) :   1.4725 B(  7-C , 16-C ) :   0.9321 B(  8-C ,  9-C ) :   1.1766
B(  8-C , 71-H ) :   1.0184 B(  9-C , 10-C ) :   1.2552 B(  9-C , 15-C ) :   1.2426
B( 10-C , 11-C ) :   1.2074 B( 10-C , 12-C ) :   1.2359 B( 11-C , 72-H ) :   0.9926
B( 12-C , 13-C ) :   1.4904 B( 12-C , 73-H ) :   0.9983 B( 13-C , 14-C ) :   1.2582
B( 13-C , 74-H ) :   0.9887 B( 14-C , 15-C ) :   1.4899 B( 14-C , 75-H ) :   0.9882
B( 15-C , 76-H ) :   0.9983 B( 16-C , 17-O ) :   2.2437 B( 16-C , 18-C ) :   0.9179
B( 18-C , 19-C ) :   1.7332 B( 19-C , 20-C ) :   1.0056 B( 19-C , 77-H ) :   0.9423
B( 20-C , 21-C ) :   1.6076 B( 20-C , 24-C ) :   1.1560 B( 21-C , 22-S ) :   1.1288
B( 21-C , 78-H ) :   0.9671 B( 22-S , 23-C ) :   1.0707 B( 23-C , 24-C ) :   1.3805
B( 23-C , 35-C ) :   1.3811 B( 24-C , 25-C ) :   1.2832 B( 25-C , 26-C ) :   1.0550
B( 25-C , 28-C ) :   1.5052 B( 26-C , 27-C ) :   1.0910 B( 26-C , 79-H ) :   0.9260
B( 26-C , 80-H ) :   0.9102 B( 27-C , 81-H ) :   0.9565 B( 27-C , 82-H ) :   0.9600
B( 27-C , 83-H ) :   0.9592 B( 28-C , 29-C ) :   1.0729 B( 28-C , 31-C ) :   1.2568
B( 29-C , 30-C ) :   1.1120 B( 29-C , 84-H ) :   0.9143 B( 29-C , 85-H ) :   0.9091
B( 30-C , 86-H ) :   0.9571 B( 30-C , 87-H ) :   0.9643 B( 30-C , 88-H ) :   0.9502
B( 31-C , 32-C ) :   1.1504 B( 31-C , 35-C ) :   1.3713 B( 32-C , 33-C ) :   1.6109
B( 32-C , 36-C ) :   1.0268 B( 33-C , 34-S ) :   1.1129 B( 33-C , 89-H ) :   0.9642
B( 34-S , 35-C ) :   1.0782 B( 36-C , 37-C ) :   1.7398 B( 36-C , 90-H ) :   0.9450
B( 37-C , 38-C ) :   1.1261 B( 37-C , 91-H ) :   0.9640 B( 38-C , 39-S ) :   1.1131
B( 38-C , 40-C ) :   0.1024 B( 38-C , 42-C ) :   1.5060 B( 39-S , 40-C ) :   1.1151
B( 40-C , 41-C ) :   1.3838 B( 40-C , 46-C ) :   1.1770 B( 41-C , 42-C ) :   1.2646
B( 41-C , 45-N ) :   1.2952 B( 42-C , 43-S ) :   1.0538 B( 43-S , 44-C ) :   1.0819
B( 43-S , 45-N ) :   0.1045 B( 44-C , 45-N ) :   1.7791 B( 44-C , 92-H ) :   0.9634
B( 46-C , 47-C ) :   1.5883 B( 46-C , 93-H ) :   0.9645 B( 47-C , 48-C ) :   1.1853
B( 47-C , 94-H ) :   0.9519 B( 48-C , 49-C ) :   1.5234 B( 48-C , 95-H ) :   0.9840
B( 49-C , 50-C ) :   1.1584 B( 49-C , 53-S ) :   1.0384 B( 50-C , 51-C ) :   1.5728
B( 50-C , 96-H ) :   0.9991 B( 51-C , 52-C ) :   1.1980 B( 51-C , 97-H ) :   0.9939
B( 52-C , 53-S ) :   1.0517 B( 52-C , 54-C ) :   1.4978 B( 54-C , 55-C ) :   1.1929
B( 54-C , 58-S ) :   1.0380 B( 55-C , 56-C ) :   1.5870 B( 55-C , 98-H ) :   0.9921
B( 56-C , 57-C ) :   1.1449 B( 56-C , 99-H ) :   1.0002 B( 57-C , 58-S ) :   1.0368
B( 57-C , 59-C ) :   1.5622 B( 59-C , 60-C ) :   1.1789 B( 59-C ,100-H ) :   0.9732
B( 60-C , 61-S ) :   1.1085 B( 60-C , 62-C ) :   0.1081 B( 60-C , 64-C ) :   1.4386
B( 61-S , 62-C ) :   1.1828 B( 62-C , 63-C ) :   1.4166 B( 62-C ,101-H ) :   0.9746
B( 63-C , 64-C ) :   1.2322 B( 63-C , 70-C ) :   1.0610 B( 64-C , 65-O ) :   1.1202
B( 65-O , 66-C ) :   1.1243 B( 66-C , 67-N ) :   0.9183 B( 66-C , 70-C ) :   1.5748
B( 67-N , 68-O ) :   1.5311 B( 67-N , 69-O ) :   1.5139 B( 68-O , 69-O ) :   0.2791
B( 70-C ,102-H ) :   1.0246

-----------------------------------------------------------------------------
         ABSORPTION SPECTRUM VIA TRANSITION ELECTRIC DIPOLE MOMENTS
-----------------------------------------------------------------------------
State   Energy  Wavelength   fosc         T2         TX        TY        TZ
        (cm-1)    (nm)                  (au**2)     (au)      (au)      (au)
-----------------------------------------------------------------------------
   0   12068.8    828.6   1.239605380  33.81387  -1.19057   5.65722  -0.62633
   1   17031.8    587.1   0.001421716   0.02748   0.10189   0.07889  -0.10428
   2   17676.0    565.7   0.169022249   3.14800  -0.92942  -1.35859   0.66213
   3   20283.2    493.0   0.174542949   2.83297  -1.08346  -1.04762   0.74939
   4   21172.1    472.3   0.199550021   3.10286  -0.97338   0.48027   1.38735
   5   22565.1    443.2   0.035819402   0.52259  -0.41265   0.31015   0.50608
   6   23603.5    423.7   1.160151762  16.18131  -3.56578  -0.90878   1.62500
   7   23886.7    418.6   0.013010507   0.17931   0.38252   0.11717  -0.13878
   8   26989.9    370.5   0.036145515   0.44089   0.41963   0.47959  -0.18653
   9   27018.8    370.1   0.018278526   0.22272  -0.28097  -0.23942   0.29402
  10   27652.9    361.6   0.055240459   0.65765   0.73312  -0.34195   0.05702
  11   27909.7    358.3   0.064564670   0.76158   0.77964  -0.37443   0.11641
  12   28277.6    353.6   0.007894020   0.09190   0.06004   0.10079   0.27953
  13   28858.8    346.5   0.031783396   0.36258   0.55828  -0.10716  -0.19852
  14   29331.7    340.9   0.027062144   0.30374  -0.08954   0.54298  -0.02985
  15   29378.2    340.4   0.098108936   1.09941   0.26292  -1.01473  -0.02482
  16   29798.4    335.6   0.057658899   0.63701   0.74029   0.19526  -0.22553
  17   30212.3    331.0   0.031202130   0.34000   0.45439  -0.35212  -0.09768
  18   30254.6    330.5   0.049876456   0.54272   0.45942  -0.18657   0.54484
  19   31006.0    322.5   0.001655092   0.01757   0.03430  -0.12012   0.04436
  20   31456.6    317.9   0.024057469   0.25178  -0.28619  -0.38185   0.15513
  21   31889.8    313.6   0.039609597   0.40891  -0.13996   0.02132   0.62359
  22   31968.3    312.8   0.074993953   0.77229  -0.03482  -0.85425   0.20330
  23   32410.5    308.5   0.096469243   0.97989  -0.44012   0.83455   0.29951
  24   32755.9    305.3   0.005881307   0.05911   0.08889   0.16276  -0.15722
  25   32761.9    305.2   0.064359597   0.64673  -0.27122  -0.55337   0.51667
  26   34064.2    293.6   0.178136988   1.72160   0.24897  -0.17702   1.27604
  27   34139.9    292.9   0.233259667   2.24933   1.15580  -0.52808   0.79661
  28   34601.3    289.0   0.151812982   1.44442   1.07529  -0.28351   0.45583
  29   34654.3    288.6   0.206835368   1.96491   0.84451  -1.09304   0.23872
  30   35000.6    285.7   0.104757126   0.98533  -0.87923   0.38881   0.24722
  31   35100.4    284.9   0.240357887   2.25435   1.28765  -0.77045  -0.05209
  32   35529.1    281.5   0.313486435   2.90476  -1.39942   0.93375   0.27293
  33   35854.8    278.9   0.028558394   0.26222  -0.42258  -0.28033  -0.07110
  34   36459.8    274.3   0.025117989   0.22680  -0.33730   0.20263   0.26827
  35   36708.4    272.4   0.097608900   0.87539   0.12161   0.84184   0.38974
  36   36896.9    271.0   0.338512973   3.02038  -0.71924   1.58191  -0.02504
  37   37109.5    269.5   0.000883057   0.00783   0.03380  -0.05918   0.05647
  38   37451.9    267.0   0.105868469   0.93061  -0.73443   0.54715   0.30308
  39   37669.6    265.5   0.014744313   0.12886  -0.09073  -0.34591  -0.03118
  40   38384.5    260.5   0.063188287   0.54195  -0.13947   0.71705   0.09124
  41   38611.4    259.0   0.067895498   0.57890  -0.06597  -0.32036   0.68696
  42   39120.3    255.6   0.100064316   0.84208  -0.70169   0.15323  -0.57116
  43   39244.5    254.8   0.028205845   0.23661   0.31889  -0.35712   0.08596
  44   39349.6    254.1   0.049507236   0.41419   0.31455  -0.53176  -0.18023
  45   39656.5    252.2   0.169066129   1.40352  -0.31952  -0.97402   0.59390
  46   39855.6    250.9   0.078137391   0.64542   0.39524   0.05036  -0.69762
  47   39926.5    250.5   0.092091251   0.75933  -0.34283   0.21058   0.77295
  48   40166.0    249.0   0.008443429   0.06920   0.17905   0.07076  -0.17927
  49   40194.7    248.8   0.013566129   0.11111  -0.20175   0.25527   0.07245

FINAL SINGLE POINT ENERGY     -5456.024640054544

DIPOLE MOMENT
-------------
                                X             Y             Z
Electronic contribution:      5.64925      19.76703     -23.32391
Nuclear contribution   :     -6.05684     -20.95720      22.24143
                        -----------------------------------------
Total Dipole Moment    :     -0.40759      -1.19017      -1.08248
                        -----------------------------------------
Magnitude (a.u.)       :      1.65964
Magnitude (Debye)      :      4.21847

Rotational constants in cm-1:     0.000911     0.000251     0.000206
Rotational constants in MHz :    27.318199     7.527828     6.183243

                             ****ORCA TERMINATED NORMALLY****
TOTAL RUN TIME: 0 days 0 hours 10 minutes 41 seconds 526 msec
