                         Program Version 4.2.0 -  RELEASE  -
|  1> # ORCA input file
|  2> # SCF done       -194.122244917221          0.000662177847
|  3> ! CAM-B3LYP def2-SVP def2/J RIJCOSX Grid4 TightSCF
|  4> %maxcore 5000
|  5> %tddft
|  6>     Mode sTDDFT
|  7>     Ethresh 5.0
|  8>     maxcore 5000
|  9> end
| 10>
| 11> %pal
| 12>   nprocs 6
| 13>   end
| 14> * xyz 0 1
| 15>    C       14.58388        -9.31439        -6.92754
| 16>    S       13.15766        -9.67443        -6.05551
| 17>    C       12.60325        -8.02618        -6.17429
| 18>    C       13.51741        -7.25688        -6.83649
| 19>    C       14.65710        -7.99663        -7.28223
| 20>    C       15.73613        -7.43798        -7.99646
| 21>    N       16.61981        -6.99425        -8.57384
| 22>    C       13.41313        -5.78428        -7.06568
| 23>    F       12.22178        -5.27220        -6.72647
| 24>    F       14.33010        -5.10804        -6.34904
| 25>    F       13.61434        -5.45212        -8.35036
| 26>    C       11.38298        -7.60164        -5.49133
| 27>    C       11.49507        -7.09404        -4.23379
| 28>    S       10.00096        -6.65279        -3.51816
| 29>    C        9.16620        -7.16828        -4.94857
| 30>    C       10.01824        -7.65507        -5.94998
| 31>    C        9.46371        -8.05669        -7.19094
| 32>    C       10.40885        -8.51066        -8.27437
| 33>    C       10.77973        -7.36998        -9.22411
| 34>    C        8.09149        -7.99628        -7.39712
| 35>    C        7.50536        -8.28776        -8.75456
| 36>    C        6.95232        -7.01458        -9.39954
| 37>    C        7.22544        -7.58939        -6.34723
| 38>    C        5.78114        -7.48180        -6.27994
| 39>    C        5.37268        -6.94395        -5.09048
| 40>    S        6.63317        -6.57408        -3.99016
| 41>    C        7.79565        -7.14242        -5.14455
| 42>    C        4.79017        -7.91087        -7.23897
| 43>    C        3.58392        -7.31469        -7.38550
| 44>    C        2.57180        -7.77924        -8.25537
| 45>    C        1.36008        -7.16699        -8.40493
| 46>    C        0.27250        -7.59025        -9.21668
| 47>    C       -0.82631        -6.79688        -9.14335
| 48>    C       -0.67853        -5.68383        -8.27677
| 49>    S        0.91911        -5.68930        -7.55452
| 50>    C       -1.59541        -4.70487        -7.98358
| 51>    C       -2.93796        -4.59815        -8.43799
| 52>    C       -3.60968        -3.53065        -7.94874
| 53>    C       -2.83692        -2.70121        -7.07599
| 54>    S       -1.20552        -3.36692        -6.91723
| 55>    C       -3.22326        -1.59113        -6.41567
| 56>    C       -2.28239        -0.80227        -5.61225
| 57>    C       -1.40432         0.02246        -6.23694
| 58>    S       -0.35681         0.88695        -5.17766
| 59>    C       -1.09787         0.10435        -3.81922
| 60>    C       -2.11967        -0.78517        -4.18061
| 61>    C       -2.79391        -1.50781        -3.16880
| 62>    C       -3.85766        -2.48495        -3.59636
| 63>    C       -3.28078        -3.89522        -3.73914
| 64>    C       -2.44295        -1.35027        -1.83371
| 65>    C       -3.18058        -2.11540        -0.76503
| 66>    C       -4.13846        -1.21038         0.01186
| 67>    C       -1.41506        -0.43952        -1.46980
| 68>    C       -0.88211        -0.04853        -0.17741
| 69>    C        0.08735         0.91172        -0.29794
| 70>    S        0.44517         1.37882        -1.90153
| 71>    C       -0.76821         0.28144        -2.48657
| 72>    C       -1.22471        -0.56316         1.12405
| 73>    C       -1.09788         0.13099         2.27399
| 74>    C       -1.39832        -0.38450         3.56951
| 75>    S       -1.10156         0.62016         4.95866
| 76>    C       -1.66209        -0.58587         6.03789
| 77>    C       -2.06291        -1.70606         5.37886
| 78>    C       -1.92065        -1.60980         3.96366
| 79>    C       -2.30153        -2.65753         3.11065
| 80>    N       -2.62932        -3.52992         2.44045
| 81>    C       -2.60249        -2.92539         6.05166
| 82>    F       -2.63647        -2.78978         7.38677
| 83>    F       -3.85721        -3.21110         5.66662
| 84>    F       -1.86630        -4.01963         5.79892
| 85>    H       15.30175       -10.08238        -7.13690
| 86>    H       12.40430        -6.95251        -3.68144
| 87>    H        9.98182        -9.34033        -8.83943
| 88>    H       11.31691        -8.89157        -7.81378
| 89>    H       11.10730        -6.50012        -8.66182
| 90>    H        9.92846        -7.07289        -9.82935
| 91>    H       11.58401        -7.67676        -9.88951
| 92>    H        6.71666        -9.03421        -8.66869
| 93>    H        8.25732        -8.70375        -9.41937
| 94>    H        6.13252        -6.60218        -8.81816
| 95>    H        6.58764        -7.23173       -10.40118
| 96>    H        7.73201        -6.25955        -9.47027
| 97>    H        4.35930        -6.78693        -4.77722
| 98>    H        5.00448        -8.78387        -7.83585
| 99>    H        3.35930        -6.41523        -6.82679
|100>    H        2.75588        -8.68014        -8.82593
|101>    H        0.34494        -8.47686        -9.82217
|102>    H       -1.73787        -6.97168        -9.68666
|103>    H       -3.36178        -5.32580        -9.10739
|104>    H       -4.63407        -3.29181        -8.17422
|105>    H       -4.22633        -1.20873        -6.55432
|106>    H       -1.31818         0.18202        -7.29439
|107>    H       -4.25182        -2.17642        -4.56378
|108>    H       -4.69236        -2.48820        -2.89527
|109>    H       -4.04503        -4.57973        -4.10074
|110>    H       -2.90434        -4.26471        -2.78863
|111>    H       -2.45612        -3.89131        -4.44716
|112>    H       -2.47280        -2.59070        -0.08781
|113>    H       -3.75761        -2.92537        -1.20092
|114>    H       -3.61643        -0.36358         0.45128
|115>    H       -4.61412        -1.77461         0.81044
|116>    H       -4.90985        -0.82495        -0.65192
|117>    H        0.66386         1.33957         0.49873
|118>    H       -1.57655        -1.57750         1.18211
|119>    H       -0.76346         1.15924         2.26025
|120>    H       -1.66948        -0.41320         7.09557
|121> *
|122>
|123>                          ****END OF INPUT****

CARTESIAN COORDINATES (ANGSTROEM)
---------------------------------
  C     14.583880   -9.314390   -6.927540
  S     13.157660   -9.674430   -6.055510
  C     12.603250   -8.026180   -6.174290
  C     13.517410   -7.256880   -6.836490
  C     14.657100   -7.996630   -7.282230
  C     15.736130   -7.437980   -7.996460
  N     16.619810   -6.994250   -8.573840
  C     13.413130   -5.784280   -7.065680
  F     12.221780   -5.272200   -6.726470
  F     14.330100   -5.108040   -6.349040
  F     13.614340   -5.452120   -8.350360
  C     11.382980   -7.601640   -5.491330
  C     11.495070   -7.094040   -4.233790
  S     10.000960   -6.652790   -3.518160
  C      9.166200   -7.168280   -4.948570
  C     10.018240   -7.655070   -5.949980
  C      9.463710   -8.056690   -7.190940
  C     10.408850   -8.510660   -8.274370
  C     10.779730   -7.369980   -9.224110
  C      8.091490   -7.996280   -7.397120
  C      7.505360   -8.287760   -8.754560
  C      6.952320   -7.014580   -9.399540
  C      7.225440   -7.589390   -6.347230
  C      5.781140   -7.481800   -6.279940
  C      5.372680   -6.943950   -5.090480
  S      6.633170   -6.574080   -3.990160
  C      7.795650   -7.142420   -5.144550
  C      4.790170   -7.910870   -7.238970
  C      3.583920   -7.314690   -7.385500
  C      2.571800   -7.779240   -8.255370
  C      1.360080   -7.166990   -8.404930
  C      0.272500   -7.590250   -9.216680
  C     -0.826310   -6.796880   -9.143350
  C     -0.678530   -5.683830   -8.276770
  S      0.919110   -5.689300   -7.554520
  C     -1.595410   -4.704870   -7.983580
  C     -2.937960   -4.598150   -8.437990
  C     -3.609680   -3.530650   -7.948740
  C     -2.836920   -2.701210   -7.075990
  S     -1.205520   -3.366920   -6.917230
  C     -3.223260   -1.591130   -6.415670
  C     -2.282390   -0.802270   -5.612250
  C     -1.404320    0.022460   -6.236940
  S     -0.356810    0.886950   -5.177660
  C     -1.097870    0.104350   -3.819220
  C     -2.119670   -0.785170   -4.180610
  C     -2.793910   -1.507810   -3.168800
  C     -3.857660   -2.484950   -3.596360
  C     -3.280780   -3.895220   -3.739140
  C     -2.442950   -1.350270   -1.833710
  C     -3.180580   -2.115400   -0.765030
  C     -4.138460   -1.210380    0.011860
  C     -1.415060   -0.439520   -1.469800
  C     -0.882110   -0.048530   -0.177410
  C      0.087350    0.911720   -0.297940
  S      0.445170    1.378820   -1.901530
  C     -0.768210    0.281440   -2.486570
  C     -1.224710   -0.563160    1.124050
  C     -1.097880    0.130990    2.273990
  C     -1.398320   -0.384500    3.569510
  S     -1.101560    0.620160    4.958660
  C     -1.662090   -0.585870    6.037890
  C     -2.062910   -1.706060    5.378860
  C     -1.920650   -1.609800    3.963660
  C     -2.301530   -2.657530    3.110650
  N     -2.629320   -3.529920    2.440450
  C     -2.602490   -2.925390    6.051660
  F     -2.636470   -2.789780    7.386770
  F     -3.857210   -3.211100    5.666620
  F     -1.866300   -4.019630    5.798920
  H     15.301750  -10.082380   -7.136900
  H     12.404300   -6.952510   -3.681440
  H      9.981820   -9.340330   -8.839430
  H     11.316910   -8.891570   -7.813780
  H     11.107300   -6.500120   -8.661820
  H      9.928460   -7.072890   -9.829350
  H     11.584010   -7.676760   -9.889510
  H      6.716660   -9.034210   -8.668690
  H      8.257320   -8.703750   -9.419370
  H      6.132520   -6.602180   -8.818160
  H      6.587640   -7.231730  -10.401180
  H      7.732010   -6.259550   -9.470270
  H      4.359300   -6.786930   -4.777220
  H      5.004480   -8.783870   -7.835850
  H      3.359300   -6.415230   -6.826790
  H      2.755880   -8.680140   -8.825930
  H      0.344940   -8.476860   -9.822170
  H     -1.737870   -6.971680   -9.686660
  H     -3.361780   -5.325800   -9.107390
  H     -4.634070   -3.291810   -8.174220
  H     -4.226330   -1.208730   -6.554320
  H     -1.318180    0.182020   -7.294390
  H     -4.251820   -2.176420   -4.563780
  H     -4.692360   -2.488200   -2.895270
  H     -4.045030   -4.579730   -4.100740
  H     -2.904340   -4.264710   -2.788630
  H     -2.456120   -3.891310   -4.447160
  H     -2.472800   -2.590700   -0.087810
  H     -3.757610   -2.925370   -1.200920
  H     -3.616430   -0.363580    0.451280
  H     -4.614120   -1.774610    0.810440
  H     -4.909850   -0.824950   -0.651920
  H      0.663860    1.339570    0.498730
  H     -1.576550   -1.577500    1.182110
  H     -0.763460    1.159240    2.260250
  H     -1.669480   -0.413200    7.095570

 Total Charge           Charge          ....    0
 Multiplicity           Mult            ....    1
 Number of Electrons    NEL             ....  556
 Basis Dimension        Dim             .... 1192

ORBITAL ENERGIES
----------------

  NO   OCC          E(Eh)            E(eV)
   0   2.0000     -88.988328     -2421.4955
   1   2.0000     -88.982918     -2421.3483
   2   2.0000     -88.957607     -2420.6596
   3   2.0000     -88.953982     -2420.5609
   4   2.0000     -88.950497     -2420.4661
   5   2.0000     -88.946685     -2420.3623
   6   2.0000     -88.937400     -2420.1097
   7   2.0000     -88.937279     -2420.1064
   8   2.0000     -24.802679      -674.9152
   9   2.0000     -24.799686      -674.8338
  10   2.0000     -24.798597      -674.8041
  11   2.0000     -24.795821      -674.7286
  12   2.0000     -24.794379      -674.6894
  13   2.0000     -24.794085      -674.6813
  14   2.0000     -14.411595      -392.1594
  15   2.0000     -14.408861      -392.0850
  16   2.0000     -10.523207      -286.3510
  17   2.0000     -10.519941      -286.2622
  18   2.0000     -10.339116      -281.3416
  19   2.0000     -10.336593      -281.2730
  20   2.0000     -10.330990      -281.1205
  21   2.0000     -10.330074      -281.0956
  22   2.0000     -10.322109      -280.8789
  23   2.0000     -10.321170      -280.8533
  24   2.0000     -10.316230      -280.7189
  25   2.0000     -10.313475      -280.6439
  26   2.0000     -10.312913      -280.6286
  27   2.0000     -10.309502      -280.5358
  28   2.0000     -10.305430      -280.4250
  29   2.0000     -10.304303      -280.3943
  30   2.0000     -10.304085      -280.3884
  31   2.0000     -10.303548      -280.3738
  32   2.0000     -10.301692      -280.3233
  33   2.0000     -10.300584      -280.2931
  34   2.0000     -10.298482      -280.2359
  35   2.0000     -10.297913      -280.2205
  36   2.0000     -10.297070      -280.1975
  37   2.0000     -10.295766      -280.1620
  38   2.0000     -10.292908      -280.0843
  39   2.0000     -10.292762      -280.0803
  40   2.0000     -10.291419      -280.0437
  41   2.0000     -10.290916      -280.0301
  42   2.0000     -10.289886      -280.0020
  43   2.0000     -10.287045      -279.9247
  44   2.0000     -10.285565      -279.8845
  45   2.0000     -10.284926      -279.8671
  46   2.0000     -10.283505      -279.8284
  47   2.0000     -10.282192      -279.7927
  48   2.0000     -10.281740      -279.7804
  49   2.0000     -10.280513      -279.7470
  50   2.0000     -10.279609      -279.7224
  51   2.0000     -10.278331      -279.6876
  52   2.0000     -10.278207      -279.6842
  53   2.0000     -10.278123      -279.6820
  54   2.0000     -10.275708      -279.6162
  55   2.0000     -10.275557      -279.6121
  56   2.0000     -10.275132      -279.6006
  57   2.0000     -10.274161      -279.5741
  58   2.0000     -10.272794      -279.5369
  59   2.0000     -10.271226      -279.4943
  60   2.0000     -10.268946      -279.4322
  61   2.0000     -10.267606      -279.3958
  62   2.0000     -10.263445      -279.2825
  63   2.0000     -10.262368      -279.2532
  64   2.0000     -10.253572      -279.0139
  65   2.0000     -10.253070      -279.0002
  66   2.0000     -10.251554      -278.9590
  67   2.0000     -10.249597      -278.9057
  68   2.0000     -10.244944      -278.7791
  69   2.0000     -10.241495      -278.6852
  70   2.0000      -8.083719      -219.9692
  71   2.0000      -8.079114      -219.8439
  72   2.0000      -8.053822      -219.1557
  73   2.0000      -8.050151      -219.0557
  74   2.0000      -8.046929      -218.9681
  75   2.0000      -8.042814      -218.8561
  76   2.0000      -8.033657      -218.6069
  77   2.0000      -8.032864      -218.5854
  78   2.0000      -6.052967      -164.7096
  79   2.0000      -6.048520      -164.5886
  80   2.0000      -6.048311      -164.5829
  81   2.0000      -6.046119      -164.5233
  82   2.0000      -6.044030      -164.4664
  83   2.0000      -6.041377      -164.3942
  84   2.0000      -6.023257      -163.9012
  85   2.0000      -6.019546      -163.8002
  86   2.0000      -6.019094      -163.7879
  87   2.0000      -6.016380      -163.7140
  88   2.0000      -6.015537      -163.6911
  89   2.0000      -6.015363      -163.6863
  90   2.0000      -6.012303      -163.6031
  91   2.0000      -6.012178      -163.5997
  92   2.0000      -6.012015      -163.5953
  93   2.0000      -6.008619      -163.5028
  94   2.0000      -6.008138      -163.4898
  95   2.0000      -6.004475      -163.3901
  96   2.0000      -6.003429      -163.3616
  97   2.0000      -6.002747      -163.3430
  98   2.0000      -5.999502      -163.2548
  99   2.0000      -5.998745      -163.2342
 100   2.0000      -5.994368      -163.1150
 101   2.0000      -5.993527      -163.0922
 102   2.0000      -1.389663       -37.8146
 103   2.0000      -1.386375       -37.7252
 104   2.0000      -1.292790       -35.1786
 105   2.0000      -1.289984       -35.1022
 106   2.0000      -1.288671       -35.0665
 107   2.0000      -1.286177       -34.9987
 108   2.0000      -1.025092       -27.8942
 109   2.0000      -1.020150       -27.7597
 110   2.0000      -1.003790       -27.3145
 111   2.0000      -0.999811       -27.2063
 112   2.0000      -0.990927       -26.9645
 113   2.0000      -0.989221       -26.9181
 114   2.0000      -0.989017       -26.9125
 115   2.0000      -0.973129       -26.4802
 116   2.0000      -0.972187       -26.4546
 117   2.0000      -0.964293       -26.2398
 118   2.0000      -0.925896       -25.1949
 119   2.0000      -0.919582       -25.0231
 120   2.0000      -0.916509       -24.9395
 121   2.0000      -0.908270       -24.7153
 122   2.0000      -0.893695       -24.3187
 123   2.0000      -0.891075       -24.2474
 124   2.0000      -0.888925       -24.1889
 125   2.0000      -0.885523       -24.0963
 126   2.0000      -0.871753       -23.7216
 127   2.0000      -0.867076       -23.5943
 128   2.0000      -0.860142       -23.4057
 129   2.0000      -0.855554       -23.2808
 130   2.0000      -0.848917       -23.1002
 131   2.0000      -0.845643       -23.0111
 132   2.0000      -0.843420       -22.9506
 133   2.0000      -0.831814       -22.6348
 134   2.0000      -0.825345       -22.4588
 135   2.0000      -0.818087       -22.2613
 136   2.0000      -0.815988       -22.2042
 137   2.0000      -0.809904       -22.0386
 138   2.0000      -0.796658       -21.6782
 139   2.0000      -0.790539       -21.5116
 140   2.0000      -0.786454       -21.4005
 141   2.0000      -0.777799       -21.1650
 142   2.0000      -0.772856       -21.0305
 143   2.0000      -0.768929       -20.9236
 144   2.0000      -0.756500       -20.5854
 145   2.0000      -0.730074       -19.8663
 146   2.0000      -0.722980       -19.6733
 147   2.0000      -0.718984       -19.5645
 148   2.0000      -0.716260       -19.4904
 149   2.0000      -0.712154       -19.3787
 150   2.0000      -0.709341       -19.3021
 151   2.0000      -0.703342       -19.1389
 152   2.0000      -0.699938       -19.0463
 153   2.0000      -0.697628       -18.9834
 154   2.0000      -0.693048       -18.8588
 155   2.0000      -0.689887       -18.7728
 156   2.0000      -0.687333       -18.7033
 157   2.0000      -0.683993       -18.6124
 158   2.0000      -0.681099       -18.5336
 159   2.0000      -0.671250       -18.2656
 160   2.0000      -0.669578       -18.2202
 161   2.0000      -0.668452       -18.1895
 162   2.0000      -0.667087       -18.1524
 163   2.0000      -0.661540       -18.0014
 164   2.0000      -0.646275       -17.5860
 165   2.0000      -0.645103       -17.5541
 166   2.0000      -0.641546       -17.4573
 167   2.0000      -0.637726       -17.3534
 168   2.0000      -0.627090       -17.0640
 169   2.0000      -0.623546       -16.9676
 170   2.0000      -0.617798       -16.8111
 171   2.0000      -0.613496       -16.6941
 172   2.0000      -0.608162       -16.5489
 173   2.0000      -0.605622       -16.4798
 174   2.0000      -0.599643       -16.3171
 175   2.0000      -0.589462       -16.0401
 176   2.0000      -0.587517       -15.9871
 177   2.0000      -0.582544       -15.8518
 178   2.0000      -0.576980       -15.7004
 179   2.0000      -0.563045       -15.3212
 180   2.0000      -0.556575       -15.1452
 181   2.0000      -0.553112       -15.0509
 182   2.0000      -0.551208       -14.9991
 183   2.0000      -0.547860       -14.9080
 184   2.0000      -0.546990       -14.8844
 185   2.0000      -0.544773       -14.8240
 186   2.0000      -0.542646       -14.7662
 187   2.0000      -0.540183       -14.6991
 188   2.0000      -0.538363       -14.6496
 189   2.0000      -0.534331       -14.5399
 190   2.0000      -0.532250       -14.4833
 191   2.0000      -0.530298       -14.4301
 192   2.0000      -0.526407       -14.3243
 193   2.0000      -0.521336       -14.1863
 194   2.0000      -0.521181       -14.1821
 195   2.0000      -0.519693       -14.1416
 196   2.0000      -0.516579       -14.0568
 197   2.0000      -0.514639       -14.0040
 198   2.0000      -0.510417       -13.8891
 199   2.0000      -0.507536       -13.8108
 200   2.0000      -0.504291       -13.7225
 201   2.0000      -0.502520       -13.6743
 202   2.0000      -0.502318       -13.6688
 203   2.0000      -0.500946       -13.6314
 204   2.0000      -0.498988       -13.5782
 205   2.0000      -0.496800       -13.5186
 206   2.0000      -0.496512       -13.5108
 207   2.0000      -0.495428       -13.4813
 208   2.0000      -0.492765       -13.4088
 209   2.0000      -0.490960       -13.3597
 210   2.0000      -0.490068       -13.3354
 211   2.0000      -0.489000       -13.3064
 212   2.0000      -0.487649       -13.2696
 213   2.0000      -0.485062       -13.1992
 214   2.0000      -0.483845       -13.1661
 215   2.0000      -0.483073       -13.1451
 216   2.0000      -0.481369       -13.0987
 217   2.0000      -0.480404       -13.0725
 218   2.0000      -0.478706       -13.0262
 219   2.0000      -0.477188       -12.9850
 220   2.0000      -0.472688       -12.8625
 221   2.0000      -0.468889       -12.7591
 222   2.0000      -0.463854       -12.6221
 223   2.0000      -0.463625       -12.6159
 224   2.0000      -0.457396       -12.4464
 225   2.0000      -0.455165       -12.3857
 226   2.0000      -0.453432       -12.3385
 227   2.0000      -0.453043       -12.3279
 228   2.0000      -0.452322       -12.3083
 229   2.0000      -0.450824       -12.2676
 230   2.0000      -0.449408       -12.2290
 231   2.0000      -0.446229       -12.1425
 232   2.0000      -0.444981       -12.1085
 233   2.0000      -0.442972       -12.0539
 234   2.0000      -0.441433       -12.0120
 235   2.0000      -0.438455       -11.9310
 236   2.0000      -0.437592       -11.9075
 237   2.0000      -0.436536       -11.8787
 238   2.0000      -0.435670       -11.8552
 239   2.0000      -0.434838       -11.8325
 240   2.0000      -0.434164       -11.8142
 241   2.0000      -0.432412       -11.7665
 242   2.0000      -0.424822       -11.5600
 243   2.0000      -0.424089       -11.5400
 244   2.0000      -0.423766       -11.5312
 245   2.0000      -0.421767       -11.4769
 246   2.0000      -0.418608       -11.3909
 247   2.0000      -0.413996       -11.2654
 248   2.0000      -0.412059       -11.2127
 249   2.0000      -0.408363       -11.1121
 250   2.0000      -0.407042       -11.0762
 251   2.0000      -0.406290       -11.0557
 252   2.0000      -0.405163       -11.0250
 253   2.0000      -0.401389       -10.9224
 254   2.0000      -0.399408       -10.8684
 255   2.0000      -0.396492       -10.7891
 256   2.0000      -0.390811       -10.6345
 257   2.0000      -0.386485       -10.5168
 258   2.0000      -0.380052       -10.3417
 259   2.0000      -0.377021       -10.2593
 260   2.0000      -0.370640       -10.0856
 261   2.0000      -0.365871        -9.9559
 262   2.0000      -0.350965        -9.5502
 263   2.0000      -0.350737        -9.5440
 264   2.0000      -0.344622        -9.3776
 265   2.0000      -0.341288        -9.2869
 266   2.0000      -0.333787        -9.0828
 267   2.0000      -0.330954        -9.0057
 268   2.0000      -0.325847        -8.8667
 269   2.0000      -0.325466        -8.8564
 270   2.0000      -0.319204        -8.6860
 271   2.0000      -0.297371        -8.0919
 272   2.0000      -0.295768        -8.0483
 273   2.0000      -0.272819        -7.4238
 274   2.0000      -0.266970        -7.2646
 275   2.0000      -0.263747        -7.1769
 276   2.0000      -0.257022        -6.9939
 277   2.0000      -0.212657        -5.7867
 278   0.0000      -0.063809        -1.7363
 279   0.0000      -0.050454        -1.3729
 280   0.0000      -0.023201        -0.6313
 281   0.0000      -0.011220        -0.3053
 282   0.0000      -0.002419        -0.0658

MULLIKEN ATOMIC CHARGES
-----------------------
   0 C :   -0.065169
   1 S :    0.193476
   2 C :   -0.286809
   3 C :    0.050081
   4 C :   -0.113931
   5 C :   -0.161373
   6 N :    0.152047
   7 C :    0.539041
   8 F :   -0.147954
   9 F :   -0.156970
  10 F :   -0.157525
  11 C :    0.004941
  12 C :   -0.077058
  13 S :    0.140686
  14 C :   -0.145140
  15 C :    0.158410
  16 C :   -0.125513
  17 C :    0.052403
  18 C :    0.037680
  19 C :   -0.129380
  20 C :    0.047896
  21 C :    0.019501
  22 C :    0.122388
  23 C :    0.071622
  24 C :   -0.116528
  25 S :    0.131140
  26 C :   -0.154522
  27 C :   -0.036804
  28 C :    0.004775
  29 C :   -0.021225
  30 C :   -0.013258
  31 C :    0.037300
  32 C :    0.028604
  33 C :   -0.048909
  34 S :    0.062052
  35 C :   -0.057397
  36 C :    0.027376
  37 C :    0.052325
  38 C :   -0.011283
  39 S :    0.086919
  40 C :   -0.077661
  41 C :   -0.022868
  42 C :   -0.083945
  43 S :    0.119327
  44 C :   -0.136419
  45 C :    0.134102
  46 C :   -0.123808
  47 C :    0.056077
  48 C :    0.050653
  49 C :   -0.130843
  50 C :    0.027760
  51 C :    0.027922
  52 C :    0.135002
  53 C :    0.066000
  54 C :   -0.117825
  55 S :    0.138812
  56 C :   -0.164253
  57 C :   -0.020191
  58 C :    0.035513
  59 C :   -0.079338
  60 S :    0.156938
  61 C :   -0.114269
  62 C :   -0.034829
  63 C :   -0.075974
  64 C :   -0.199665
  65 N :    0.138994
  66 C :    0.528175
  67 F :   -0.158630
  68 F :   -0.157580
  69 F :   -0.156740
  70 H :    0.042034
  71 H :    0.025266
  72 H :    0.006465
  73 H :   -0.009163
  74 H :    0.004388
  75 H :    0.006990
  76 H :    0.015244
  77 H :    0.001029
  78 H :   -0.008887
  79 H :    0.030744
  80 H :    0.009932
  81 H :    0.015368
  82 H :    0.025335
  83 H :   -0.006916
  84 H :    0.001916
  85 H :   -0.020647
  86 H :   -0.014468
  87 H :   -0.015717
  88 H :   -0.014911
  89 H :   -0.015001
  90 H :    0.018655
  91 H :    0.020520
  92 H :   -0.019676
  93 H :    0.001551
  94 H :    0.008937
  95 H :    0.009671
  96 H :    0.009176
  97 H :    0.023426
  98 H :   -0.000550
  99 H :    0.015425
 100 H :    0.023846
 101 H :    0.001693
 102 H :    0.020799
 103 H :    0.011260
 104 H :   -0.024465
 105 H :    0.046376
Sum of atomic charges:   -0.0000000

LOEWDIN ATOMIC CHARGES
----------------------
   0 C :   -0.142047
   1 S :    0.491710
   2 C :   -0.139791
   3 C :   -0.100853
   4 C :   -0.094830
   5 C :   -0.040304
   6 N :   -0.038114
   7 C :    0.170479
   8 F :   -0.043264
   9 F :   -0.059653
  10 F :   -0.050226
  11 C :   -0.097220
  12 C :   -0.156950
  13 S :    0.427793
  14 C :   -0.177976
  15 C :   -0.041221
  16 C :   -0.022289
  17 C :   -0.033204
  18 C :   -0.051932
  19 C :   -0.016684
  20 C :   -0.029832
  21 C :   -0.050198
  22 C :   -0.037985
  23 C :   -0.064753
  24 C :   -0.163357
  25 S :    0.419046
  26 C :   -0.177945
  27 C :   -0.015705
  28 C :   -0.032275
  29 C :   -0.057832
  30 C :   -0.144373
  31 C :   -0.033193
  32 C :   -0.032298
  33 C :   -0.177780
  34 S :    0.359049
  35 C :   -0.183104
  36 C :   -0.026142
  37 C :   -0.035901
  38 C :   -0.135918
  39 S :    0.369979
  40 C :   -0.057760
  41 C :   -0.076120
  42 C :   -0.162446
  43 S :    0.406990
  44 C :   -0.180761
  45 C :   -0.040970
  46 C :   -0.015929
  47 C :   -0.031076
  48 C :   -0.050262
  49 C :   -0.018802
  50 C :   -0.030082
  51 C :   -0.050657
  52 C :   -0.038467
  53 C :   -0.067926
  54 C :   -0.162148
  55 S :    0.427119
  56 C :   -0.177589
  57 C :    0.025099
  58 C :   -0.066001
  59 C :   -0.123411
  60 S :    0.476324
  61 C :   -0.164811
  62 C :   -0.098399
  63 C :   -0.110978
  64 C :   -0.031441
  65 N :   -0.050840
  66 C :    0.169148
  67 F :   -0.058455
  68 F :   -0.056932
  69 F :   -0.056293
  70 H :    0.037611
  71 H :    0.027619
  72 H :    0.025504
  73 H :    0.014261
  74 H :    0.018504
  75 H :    0.022475
  76 H :    0.025451
  77 H :    0.023869
  78 H :    0.025083
  79 H :    0.026649
  80 H :    0.024075
  81 H :    0.023870
  82 H :    0.024477
  83 H :    0.026333
  84 H :    0.021300
  85 H :    0.030719
  86 H :    0.032716
  87 H :    0.030890
  88 H :    0.031434
  89 H :    0.032594
  90 H :    0.033485
  91 H :    0.025700
  92 H :    0.025772
  93 H :    0.023622
  94 H :    0.022832
  95 H :    0.022342
  96 H :    0.015719
  97 H :    0.026655
  98 H :    0.029088
  99 H :    0.020921
 100 H :    0.027453
 101 H :    0.022692
 102 H :    0.022118
 103 H :    0.036072
 104 H :    0.025900
 105 H :    0.035164

  Mayer bond orders larger than 0.100000
B(  0-C ,  1-S ) :   1.1733 B(  0-C ,  4-C ) :   1.5885 B(  0-C , 70-H ) :   0.9720
B(  1-S ,  2-C ) :   1.1870 B(  2-C ,  3-C ) :   1.6238 B(  2-C , 11-C ) :   0.9296
B(  3-C ,  4-C ) :   1.2361 B(  3-C ,  7-C ) :   0.9433 B(  4-C ,  5-C ) :   1.0949
B(  5-C ,  6-N ) :   3.0451 B(  7-C ,  8-F ) :   1.1330 B(  7-C ,  9-F ) :   1.1813
B(  7-C , 10-F ) :   1.1501 B( 11-C , 12-C ) :   1.6347 B( 11-C , 15-C ) :   1.1868
B( 12-C , 13-S ) :   1.1278 B( 12-C , 71-H ) :   0.9693 B( 13-S , 14-C ) :   1.0820
B( 14-C , 15-C ) :   1.3665 B( 14-C , 26-C ) :   1.3689 B( 15-C , 16-C ) :   1.2605
B( 16-C , 17-C ) :   1.0674 B( 16-C , 19-C ) :   1.5167 B( 17-C , 18-C ) :   1.1063
B( 17-C , 72-H ) :   0.9160 B( 17-C , 73-H ) :   0.9050 B( 18-C , 74-H ) :   0.9568
B( 18-C , 75-H ) :   0.9634 B( 18-C , 76-H ) :   0.9629 B( 19-C , 20-C ) :   1.0749
B( 19-C , 22-C ) :   1.2364 B( 20-C , 21-C ) :   1.1059 B( 20-C , 77-H ) :   0.9232
B( 20-C , 78-H ) :   0.9099 B( 21-C , 79-H ) :   0.9633 B( 21-C , 80-H ) :   0.9655
B( 21-C , 81-H ) :   0.9559 B( 22-C , 23-C ) :   1.1400 B( 22-C , 26-C ) :   1.3754
B( 23-C , 24-C ) :   1.6066 B( 23-C , 27-C ) :   1.0128 B( 24-C , 25-S ) :   1.1177
B( 24-C , 82-H ) :   0.9613 B( 25-S , 26-C ) :   1.0821 B( 27-C , 28-C ) :   1.7032
B( 27-C , 83-H ) :   0.9764 B( 28-C , 29-C ) :   1.1198 B( 28-C , 84-H ) :   0.9732
B( 29-C , 30-C ) :   1.6008 B( 29-C , 85-H ) :   0.9838 B( 30-C , 31-C ) :   1.1228
B( 30-C , 34-S ) :   1.0230 B( 31-C , 32-C ) :   1.6160 B( 31-C , 86-H ) :   0.9987
B( 32-C , 33-C ) :   1.1673 B( 32-C , 87-H ) :   0.9923 B( 33-C , 34-S ) :   1.0371
B( 33-C , 35-C ) :   1.5588 B( 35-C , 36-C ) :   1.1589 B( 35-C , 39-S ) :   1.0306
B( 36-C , 37-C ) :   1.6426 B( 36-C , 88-H ) :   0.9922 B( 37-C , 38-C ) :   1.0888
B( 37-C , 89-H ) :   0.9987 B( 38-C , 39-S ) :   1.0294 B( 38-C , 40-C ) :   1.7642
B( 40-C , 41-C ) :   0.9610 B( 40-C , 90-H ) :   0.9489 B( 41-C , 42-C ) :   1.6484
B( 41-C , 45-C ) :   1.1724 B( 42-C , 43-S ) :   1.1081 B( 42-C , 91-H ) :   0.9657
B( 43-S , 44-C ) :   1.0790 B( 44-C , 45-C ) :   1.3700 B( 44-C , 56-C ) :   1.3812
B( 45-C , 46-C ) :   1.2664 B( 46-C , 47-C ) :   1.0749 B( 46-C , 49-C ) :   1.5125
B( 47-C , 48-C ) :   1.1130 B( 47-C , 92-H ) :   0.8956 B( 47-C , 93-H ) :   0.9101
B( 48-C , 94-H ) :   0.9644 B( 48-C , 95-H ) :   0.9630 B( 48-C , 96-H ) :   0.9528
B( 49-C , 50-C ) :   1.0576 B( 49-C , 52-C ) :   1.2469 B( 50-C , 51-C ) :   1.1084
B( 50-C , 97-H ) :   0.9220 B( 50-C , 98-H ) :   0.9054 B( 51-C , 99-H ) :   0.9653
B( 51-C ,100-H ) :   0.9643 B( 51-C ,101-H ) :   0.9562 B( 52-C , 53-C ) :   1.1387
B( 52-C , 56-C ) :   1.3762 B( 53-C , 54-C ) :   1.5816 B( 53-C , 57-C ) :   1.0538
B( 54-C , 55-S ) :   1.1364 B( 54-C ,102-H ) :   0.9608 B( 55-S , 56-C ) :   1.0730
B( 57-C , 58-C ) :   1.7341 B( 57-C ,103-H ) :   0.9466 B( 58-C , 59-C ) :   1.1232
B( 58-C ,104-H ) :   0.9473 B( 59-C , 60-S ) :   1.1497 B( 59-C , 63-C ) :   1.4985
B( 60-S , 61-C ) :   1.1582 B( 61-C , 62-C ) :   1.5919 B( 61-C ,105-H ) :   0.9686
B( 62-C , 63-C ) :   1.2547 B( 62-C , 66-C ) :   0.9455 B( 63-C , 64-C ) :   1.1599
B( 64-C , 65-N ) :   2.9427 B( 66-C , 67-F ) :   1.1745 B( 66-C , 68-F ) :   1.1726
B( 66-C , 69-F ) :   1.1757

-----------------------------------------------------------------------------
         ABSORPTION SPECTRUM VIA TRANSITION ELECTRIC DIPOLE MOMENTS
-----------------------------------------------------------------------------
State   Energy  Wavelength   fosc         T2         TX        TY        TZ
        (cm-1)    (nm)                  (au**2)     (au)      (au)      (au)
-----------------------------------------------------------------------------
   0   18570.2    538.5   1.360381992  24.11682  -4.03649   2.78363   0.27381
   1   25730.8    388.6   0.000970072   0.01241  -0.07406  -0.05146   0.06540
   2   27644.0    361.7   0.606782762   7.22618  -0.36383  -0.66023   2.58029
   3   27766.2    360.1   0.029703358   0.35218  -0.54753  -0.21043   0.09006
   4   28803.3    347.2   0.031470468   0.35970   0.40677   0.27821   0.34181
   5   29793.0    335.6   0.023589632   0.26067  -0.26934  -0.23109  -0.36704
   6   30897.0    323.7   0.231055172   2.46193  -0.49357  -0.99130  -1.11160
   7   31078.8    321.8   0.030014775   0.31794  -0.28735  -0.03708   0.48373
   8   31127.1    321.3   0.043994052   0.46530   0.25377  -0.43951  -0.45577
   9   31496.4    317.5   0.132523788   1.38519  -0.66235  -0.58491  -0.77741
  10   32618.1    306.6   0.000140876   0.00142   0.03326   0.01010   0.01463
  11   33039.5    302.7   0.044360970   0.44202   0.13697  -0.40778  -0.50693
  12   34030.3    293.9   0.040742972   0.39415  -0.48444  -0.25916  -0.30382
  13   34548.5    289.4   0.001760333   0.01677  -0.09702  -0.02983  -0.08044
  14   35621.1    280.7   0.003015499   0.02787  -0.03967   0.05264   0.15338
  15   36841.3    271.4   0.163083577   1.45730   1.17262   0.13300   0.25414
  16   37542.9    266.4   0.294928706   2.58621  -0.85021  -0.89748   1.02854
  17   37841.2    264.3   0.445929484   3.87951  -0.38220  -0.14047  -1.92710
  18   38051.4    262.8   0.056008673   0.48457   0.03395   0.04965  -0.69351
  19   38181.0    261.9   0.201173512   1.73460   1.07433   0.18830   0.73822
  20   38744.6    258.1   0.130126845   1.10569  -0.31639   0.47555   0.88285
  21   38950.9    256.7   0.029189064   0.24671   0.29611   0.30412   0.25794
  22   39104.5    255.7   0.022093322   0.18600  -0.39151  -0.00718  -0.18074
  23   39388.4    253.9   0.009038567   0.07555  -0.12089  -0.16420  -0.18431
  24   40094.3    249.4   0.099938131   0.82059   0.83381   0.17074   0.31016

FINAL SINGLE POINT ENERGY     -5969.084015186237

DIPOLE MOMENT
-------------
                                X             Y             Z
Electronic contribution:     52.56902      19.00624      67.61501
Nuclear contribution   :    -54.03432     -19.40457     -67.82936
                        -----------------------------------------
Total Dipole Moment    :     -1.46529      -0.39833      -0.21435
                        -----------------------------------------
Magnitude (a.u.)       :      1.53352
Magnitude (Debye)      :      3.89791

Rotational constants in cm-1:     0.000893     0.000262     0.000225
Rotational constants in MHz :    26.771574     7.852360     6.740090

                             ****ORCA TERMINATED NORMALLY****
TOTAL RUN TIME: 0 days 0 hours 14 minutes 49 seconds 309 msec
