                         Program Version 4.2.0 -  RELEASE  -
|  1> # ORCA input file
|  2> # SCF done       -164.097034525526          0.000310688768
|  3> ! CAM-B3LYP def2-SVP def2/J RIJCOSX Grid4 TightSCF
|  4> %maxcore 5000
|  5> %tddft
|  6>     Mode sTDDFT
|  7>     Ethresh 5.0
|  8>     maxcore 5000
|  9> end
| 10>
| 11> %pal
| 12>   nprocs 6
| 13>   end
| 14> * xyz 0 1
| 15>    C       -5.59259         0.72761         3.78750
| 16>    C       -5.43319         2.07059         4.06352
| 17>    C       -4.86913         2.57582         5.25045
| 18>    N       -4.43670         3.07211         6.19294
| 19>    C       -5.77011         3.14320         3.22049
| 20>    N       -5.98965         4.08973         2.60136
| 21>    C       -5.15579        -0.35597         4.65941
| 22>    C       -5.39083        -1.58708         4.00225
| 23>    C       -5.07489        -2.79865         4.56256
| 24>    C       -4.51159        -2.79867         5.84454
| 25>    C       -4.28561        -1.56450         6.49615
| 26>    C       -4.59510        -0.33693         5.92326
| 27>    S       -3.58414        -1.79227         8.07080
| 28>    C       -3.60528        -3.51956         7.83348
| 29>    C       -4.10991        -3.90757         6.63853
| 30>   Br       -2.95921        -4.64771         9.18653
| 31>    C       -5.98680        -1.32806         2.66986
| 32>    O       -6.16461        -2.15672         1.80528
| 33>    C       -6.19774         0.13826         2.61543
| 34>    C       -6.84459         0.87645         1.65245
| 35>    C       -7.65958         0.45094         0.58387
| 36>    C       -8.17360         1.35832        -0.33822
| 37>    O       -9.08147         0.99281        -1.29809
| 38>    C       -9.36876        -0.34058        -1.36794
| 39>    C       -8.80733        -1.27385        -0.44979
| 40>    C       -9.19432        -2.54945        -0.69499
| 41>    S      -10.25690        -2.62809        -2.05161
| 42>    C      -10.17383        -0.92366        -2.29099
| 43>    O       -7.99659        -0.87930         0.56381
| 44>    C       -7.81184         2.73651        -0.38581
| 45>    C       -8.49274         3.68340        -1.07697
| 46>    C       -8.06559         5.04498        -1.05157
| 47>    C       -8.76149         6.12734        -1.44306
| 48>    C      -10.15525         6.08130        -1.98504
| 49>    C       -8.18381         7.50831        -1.23826
| 50>    N       -8.86182         8.22062        -0.17357
| 51>    C       -8.65981         8.01684         1.14836
| 52>    C       -7.72571         7.19502         1.70050
| 53>    C       -7.47631         7.00915         3.07427
| 54>    C       -7.97191         7.65850         4.17565
| 55>    C       -7.62380         7.34344         5.51326
| 56>    C       -8.19891         8.13756         6.45677
| 57>    C       -9.04241         9.14031         5.92684
| 58>    S       -9.08730         9.02580         4.18323
| 59>    C       -9.75389        10.10009         6.61818
| 60>    C       -9.78743        10.31916         8.01159
| 61>    C      -10.58663        11.35563         8.38327
| 62>    C      -11.23106        12.02589         7.30844
| 63>    S      -10.76768        11.28113         5.79541
| 64>    C      -12.12201        13.05487         7.48451
| 65>    C      -12.93023        13.78924         6.58346
| 66>    C      -12.75247        14.05376         5.24678
| 67>    O      -13.75947        14.59651         4.45753
| 68>    C      -14.87849        15.00225         5.10916
| 69>    C      -15.01173        14.86186         6.52166
| 70>    C      -16.18473        15.35312         6.99016
| 71>    S      -17.15002        15.99528         5.71051
| 72>    C      -15.95361        15.59606         4.53371
| 73>    O      -14.05236        14.26705         7.27418
| 74>    C      -11.55231        13.90633         4.47010
| 75>    C      -10.29928        13.90035         4.93212
| 76>    H       -5.25916        -3.71992         4.03247
| 77>    H       -4.39996         0.57587         6.46062
| 78>    H       -4.19620        -4.93287         6.32800
| 79>    H       -6.78870         1.94532         1.76877
| 80>    H       -8.91337        -3.43215        -0.16077
| 81>    H      -10.71498        -0.45589        -3.08654
| 82>    H       -6.94832         3.04630         0.18051
| 83>    H       -9.38646         3.41191        -1.61779
| 84>    H       -7.07693         5.19364        -0.63681
| 85>    H      -10.33176         5.16652        -2.54352
| 86>    H      -10.34241         6.92989        -2.64049
| 87>    H      -10.87932         6.11690        -1.16949
| 88>    H       -8.29368         8.10139        -2.15131
| 89>    H       -7.12153         7.44741        -0.99364
| 90>    H       -9.70322         8.70934        -0.43373
| 91>    H       -9.31503         8.59529         1.78339
| 92>    H       -7.11646         6.58617         1.05371
| 93>    H       -6.76988         6.21910         3.29950
| 94>    H       -6.94936         6.53372         5.73167
| 95>    H       -8.03693         8.03560         7.51443
| 96>    H       -9.22165         9.71512         8.69769
| 97>    H      -10.73917        11.66902         9.40099
| 98>    H      -12.37467        13.26357         8.51807
| 99>    H      -16.53649        15.37543         7.99999
|100>    H      -16.11058        15.81980         3.49961
|101>    H      -11.73568        13.87314         3.40435
|102>    H      -10.07302        14.03026         5.97549
|103>    H       -9.46449        13.81650         4.25993
|104> *
|105>
|106>                          ****END OF INPUT****

CARTESIAN COORDINATES (ANGSTROEM)
---------------------------------
  C     -5.592590    0.727610    3.787500
  C     -5.433190    2.070590    4.063520
  C     -4.869130    2.575820    5.250450
  N     -4.436700    3.072110    6.192940
  C     -5.770110    3.143200    3.220490
  N     -5.989650    4.089730    2.601360
  C     -5.155790   -0.355970    4.659410
  C     -5.390830   -1.587080    4.002250
  C     -5.074890   -2.798650    4.562560
  C     -4.511590   -2.798670    5.844540
  C     -4.285610   -1.564500    6.496150
  C     -4.595100   -0.336930    5.923260
  S     -3.584140   -1.792270    8.070800
  C     -3.605280   -3.519560    7.833480
  C     -4.109910   -3.907570    6.638530
  Br    -2.959210   -4.647710    9.186530
  C     -5.986800   -1.328060    2.669860
  O     -6.164610   -2.156720    1.805280
  C     -6.197740    0.138260    2.615430
  C     -6.844590    0.876450    1.652450
  C     -7.659580    0.450940    0.583870
  C     -8.173600    1.358320   -0.338220
  O     -9.081470    0.992810   -1.298090
  C     -9.368760   -0.340580   -1.367940
  C     -8.807330   -1.273850   -0.449790
  C     -9.194320   -2.549450   -0.694990
  S    -10.256900   -2.628090   -2.051610
  C    -10.173830   -0.923660   -2.290990
  O     -7.996590   -0.879300    0.563810
  C     -7.811840    2.736510   -0.385810
  C     -8.492740    3.683400   -1.076970
  C     -8.065590    5.044980   -1.051570
  C     -8.761490    6.127340   -1.443060
  C    -10.155250    6.081300   -1.985040
  C     -8.183810    7.508310   -1.238260
  N     -8.861820    8.220620   -0.173570
  C     -8.659810    8.016840    1.148360
  C     -7.725710    7.195020    1.700500
  C     -7.476310    7.009150    3.074270
  C     -7.971910    7.658500    4.175650
  C     -7.623800    7.343440    5.513260
  C     -8.198910    8.137560    6.456770
  C     -9.042410    9.140310    5.926840
  S     -9.087300    9.025800    4.183230
  C     -9.753890   10.100090    6.618180
  C     -9.787430   10.319160    8.011590
  C    -10.586630   11.355630    8.383270
  C    -11.231060   12.025890    7.308440
  S    -10.767680   11.281130    5.795410
  C    -12.122010   13.054870    7.484510
  C    -12.930230   13.789240    6.583460
  C    -12.752470   14.053760    5.246780
  O    -13.759470   14.596510    4.457530
  C    -14.878490   15.002250    5.109160
  C    -15.011730   14.861860    6.521660
  C    -16.184730   15.353120    6.990160
  S    -17.150020   15.995280    5.710510
  C    -15.953610   15.596060    4.533710
  O    -14.052360   14.267050    7.274180
  C    -11.552310   13.906330    4.470100
  C    -10.299280   13.900350    4.932120
  H     -5.259160   -3.719920    4.032470
  H     -4.399960    0.575870    6.460620
  H     -4.196200   -4.932870    6.328000
  H     -6.788700    1.945320    1.768770
  H     -8.913370   -3.432150   -0.160770
  H    -10.714980   -0.455890   -3.086540
  H     -6.948320    3.046300    0.180510
  H     -9.386460    3.411910   -1.617790
  H     -7.076930    5.193640   -0.636810
  H    -10.331760    5.166520   -2.543520
  H    -10.342410    6.929890   -2.640490
  H    -10.879320    6.116900   -1.169490
  H     -8.293680    8.101390   -2.151310
  H     -7.121530    7.447410   -0.993640
  H     -9.703220    8.709340   -0.433730
  H     -9.315030    8.595290    1.783390
  H     -7.116460    6.586170    1.053710
  H     -6.769880    6.219100    3.299500
  H     -6.949360    6.533720    5.731670
  H     -8.036930    8.035600    7.514430
  H     -9.221650    9.715120    8.697690
  H    -10.739170   11.669020    9.400990
  H    -12.374670   13.263570    8.518070
  H    -16.536490   15.375430    7.999990
  H    -16.110580   15.819800    3.499610
  H    -11.735680   13.873140    3.404350
  H    -10.073020   14.030260    5.975490
  H     -9.464490   13.816500    4.259930

 Total Charge           Charge          ....    0
 Multiplicity           Mult            ....    1
 Number of Electrons    NEL             ....  486
 Basis Dimension        Dim             .... 1032

ORBITAL ENERGIES
----------------

  NO   OCC          E(Eh)            E(eV)
   0   2.0000    -482.885568    -13139.9843
   1   2.0000     -88.974866     -2421.1292
   2   2.0000     -88.965917     -2420.8857
   3   2.0000     -88.933862     -2420.0134
   4   2.0000     -88.928474     -2419.8668
   5   2.0000     -88.926218     -2419.8054
   6   2.0000     -62.563299     -1702.4339
   7   2.0000     -56.397250     -1534.6472
   8   2.0000     -56.394533     -1534.5733
   9   2.0000     -56.394497     -1534.5723
  10   2.0000     -19.301219      -525.2129
  11   2.0000     -19.276670      -524.5449
  12   2.0000     -19.243945      -523.6544
  13   2.0000     -19.240778      -523.5682
  14   2.0000     -19.208213      -522.6821
  15   2.0000     -14.442739      -393.0069
  16   2.0000     -14.427397      -392.5894
  17   2.0000     -14.415134      -392.2557
  18   2.0000     -10.382606      -282.5251
  19   2.0000     -10.362651      -281.9821
  20   2.0000     -10.362483      -281.9775
  21   2.0000     -10.358847      -281.8786
  22   2.0000     -10.351384      -281.6755
  23   2.0000     -10.347218      -281.5621
  24   2.0000     -10.344162      -281.4790
  25   2.0000     -10.340680      -281.3842
  26   2.0000     -10.332483      -281.1611
  27   2.0000     -10.324444      -280.9424
  28   2.0000     -10.321495      -280.8622
  29   2.0000     -10.319938      -280.8198
  30   2.0000     -10.319240      -280.8008
  31   2.0000     -10.315556      -280.7005
  32   2.0000     -10.314909      -280.6829
  33   2.0000     -10.314809      -280.6802
  34   2.0000     -10.312165      -280.6083
  35   2.0000     -10.311965      -280.6028
  36   2.0000     -10.307233      -280.4741
  37   2.0000     -10.306895      -280.4649
  38   2.0000     -10.305769      -280.4342
  39   2.0000     -10.305347      -280.4227
  40   2.0000     -10.302748      -280.3520
  41   2.0000     -10.299760      -280.2707
  42   2.0000     -10.299351      -280.2596
  43   2.0000     -10.298891      -280.2471
  44   2.0000     -10.298669      -280.2410
  45   2.0000     -10.296372      -280.1785
  46   2.0000     -10.295985      -280.1680
  47   2.0000     -10.295919      -280.1662
  48   2.0000     -10.290048      -280.0064
  49   2.0000     -10.285263      -279.8762
  50   2.0000     -10.283148      -279.8187
  51   2.0000     -10.281336      -279.7694
  52   2.0000     -10.279571      -279.7213
  53   2.0000     -10.278894      -279.7029
  54   2.0000     -10.270393      -279.4716
  55   2.0000     -10.269442      -279.4457
  56   2.0000     -10.268331      -279.4155
  57   2.0000     -10.265613      -279.3415
  58   2.0000     -10.261752      -279.2365
  59   2.0000     -10.261291      -279.2239
  60   2.0000     -10.257518      -279.1213
  61   2.0000     -10.253803      -279.0202
  62   2.0000     -10.252379      -278.9814
  63   2.0000     -10.248054      -278.8637
  64   2.0000     -10.247601      -278.8514
  65   2.0000      -8.792736      -239.2625
  66   2.0000      -8.070889      -219.6201
  67   2.0000      -8.061641      -219.3684
  68   2.0000      -8.029732      -218.5001
  69   2.0000      -8.024289      -218.3520
  70   2.0000      -8.021236      -218.2689
  71   2.0000      -6.629057      -180.3858
  72   2.0000      -6.614455      -179.9885
  73   2.0000      -6.614266      -179.9833
  74   2.0000      -6.040607      -164.3733
  75   2.0000      -6.036294      -164.2559
  76   2.0000      -6.032087      -164.1414
  77   2.0000      -6.031147      -164.1158
  78   2.0000      -6.026947      -164.0016
  79   2.0000      -6.023356      -163.9039
  80   2.0000      -5.999279      -163.2487
  81   2.0000      -5.995144      -163.1362
  82   2.0000      -5.993978      -163.1044
  83   2.0000      -5.991317      -163.0320
  84   2.0000      -5.990807      -163.0181
  85   2.0000      -5.990050      -162.9976
  86   2.0000      -5.986643      -162.9048
  87   2.0000      -5.985352      -162.8697
  88   2.0000      -5.982709      -162.7978
  89   2.0000      -2.744881       -74.6920
  90   2.0000      -2.740857       -74.5825
  91   2.0000      -2.740682       -74.5778
  92   2.0000      -2.729092       -74.2624
  93   2.0000      -2.729072       -74.2618
  94   2.0000      -1.220194       -33.2032
  95   2.0000      -1.179750       -32.1026
  96   2.0000      -1.168584       -31.7988
  97   2.0000      -1.130985       -30.7757
  98   2.0000      -1.123169       -30.5630
  99   2.0000      -1.039380       -28.2830
 100   2.0000      -1.025137       -27.8954
 101   2.0000      -1.016896       -27.6712
 102   2.0000      -0.999077       -27.1863
 103   2.0000      -0.997029       -27.1305
 104   2.0000      -0.989498       -26.9256
 105   2.0000      -0.972558       -26.4647
 106   2.0000      -0.961059       -26.1517
 107   2.0000      -0.949731       -25.8435
 108   2.0000      -0.948193       -25.8016
 109   2.0000      -0.940291       -25.5866
 110   2.0000      -0.924070       -25.1452
 111   2.0000      -0.908594       -24.7241
 112   2.0000      -0.899302       -24.4712
 113   2.0000      -0.890291       -24.2260
 114   2.0000      -0.885395       -24.0928
 115   2.0000      -0.879980       -23.9455
 116   2.0000      -0.873867       -23.7791
 117   2.0000      -0.854652       -23.2563
 118   2.0000      -0.849359       -23.1122
 119   2.0000      -0.834441       -22.7063
 120   2.0000      -0.832405       -22.6509
 121   2.0000      -0.828790       -22.5525
 122   2.0000      -0.823377       -22.4052
 123   2.0000      -0.819323       -22.2949
 124   2.0000      -0.810838       -22.0640
 125   2.0000      -0.804053       -21.8794
 126   2.0000      -0.799785       -21.7633
 127   2.0000      -0.796476       -21.6732
 128   2.0000      -0.789442       -21.4818
 129   2.0000      -0.774985       -21.0884
 130   2.0000      -0.769069       -20.9274
 131   2.0000      -0.759394       -20.6642
 132   2.0000      -0.750945       -20.4342
 133   2.0000      -0.737243       -20.0614
 134   2.0000      -0.724340       -19.7103
 135   2.0000      -0.711726       -19.3671
 136   2.0000      -0.703532       -19.1441
 137   2.0000      -0.698572       -19.0091
 138   2.0000      -0.693786       -18.8789
 139   2.0000      -0.685090       -18.6422
 140   2.0000      -0.678123       -18.4527
 141   2.0000      -0.672183       -18.2910
 142   2.0000      -0.667102       -18.1528
 143   2.0000      -0.656704       -17.8698
 144   2.0000      -0.656152       -17.8548
 145   2.0000      -0.648071       -17.6349
 146   2.0000      -0.646091       -17.5810
 147   2.0000      -0.635274       -17.2867
 148   2.0000      -0.628258       -17.0958
 149   2.0000      -0.624220       -16.9859
 150   2.0000      -0.624139       -16.9837
 151   2.0000      -0.612646       -16.6709
 152   2.0000      -0.609179       -16.5766
 153   2.0000      -0.600525       -16.3411
 154   2.0000      -0.598116       -16.2756
 155   2.0000      -0.595627       -16.2078
 156   2.0000      -0.589187       -16.0326
 157   2.0000      -0.586015       -15.9463
 158   2.0000      -0.581409       -15.8209
 159   2.0000      -0.580001       -15.7826
 160   2.0000      -0.565492       -15.3878
 161   2.0000      -0.565297       -15.3825
 162   2.0000      -0.561381       -15.2760
 163   2.0000      -0.558727       -15.2037
 164   2.0000      -0.551872       -15.0172
 165   2.0000      -0.547367       -14.8946
 166   2.0000      -0.541533       -14.7359
 167   2.0000      -0.540009       -14.6944
 168   2.0000      -0.537793       -14.6341
 169   2.0000      -0.536414       -14.5966
 170   2.0000      -0.530444       -14.4341
 171   2.0000      -0.525461       -14.2985
 172   2.0000      -0.522658       -14.2223
 173   2.0000      -0.521791       -14.1987
 174   2.0000      -0.519020       -14.1232
 175   2.0000      -0.518280       -14.1031
 176   2.0000      -0.515188       -14.0190
 177   2.0000      -0.511983       -13.9318
 178   2.0000      -0.509096       -13.8532
 179   2.0000      -0.505872       -13.7655
 180   2.0000      -0.503459       -13.6998
 181   2.0000      -0.497384       -13.5345
 182   2.0000      -0.495886       -13.4938
 183   2.0000      -0.492681       -13.4065
 184   2.0000      -0.491132       -13.3644
 185   2.0000      -0.486365       -13.2347
 186   2.0000      -0.485457       -13.2100
 187   2.0000      -0.483933       -13.1685
 188   2.0000      -0.475982       -12.9521
 189   2.0000      -0.475326       -12.9343
 190   2.0000      -0.474258       -12.9052
 191   2.0000      -0.472993       -12.8708
 192   2.0000      -0.471700       -12.8356
 193   2.0000      -0.468581       -12.7507
 194   2.0000      -0.468110       -12.7379
 195   2.0000      -0.463773       -12.6199
 196   2.0000      -0.461153       -12.5486
 197   2.0000      -0.459852       -12.5132
 198   2.0000      -0.457523       -12.4498
 199   2.0000      -0.453707       -12.3460
 200   2.0000      -0.450964       -12.2714
 201   2.0000      -0.447016       -12.1639
 202   2.0000      -0.446648       -12.1539
 203   2.0000      -0.443937       -12.0802
 204   2.0000      -0.441189       -12.0054
 205   2.0000      -0.440905       -11.9976
 206   2.0000      -0.439301       -11.9540
 207   2.0000      -0.434212       -11.8155
 208   2.0000      -0.433107       -11.7854
 209   2.0000      -0.431365       -11.7380
 210   2.0000      -0.427301       -11.6274
 211   2.0000      -0.425080       -11.5670
 212   2.0000      -0.422984       -11.5100
 213   2.0000      -0.418040       -11.3754
 214   2.0000      -0.415596       -11.3090
 215   2.0000      -0.412941       -11.2367
 216   2.0000      -0.412318       -11.2197
 217   2.0000      -0.409414       -11.1407
 218   2.0000      -0.405798       -11.0423
 219   2.0000      -0.403768       -10.9871
 220   2.0000      -0.390851       -10.6356
 221   2.0000      -0.389541       -10.5999
 222   2.0000      -0.384124       -10.4526
 223   2.0000      -0.383204       -10.4275
 224   2.0000      -0.375032       -10.2052
 225   2.0000      -0.373300       -10.1580
 226   2.0000      -0.361728        -9.8431
 227   2.0000      -0.350674        -9.5423
 228   2.0000      -0.333864        -9.0849
 229   2.0000      -0.332899        -9.0586
 230   2.0000      -0.329064        -8.9543
 231   2.0000      -0.319461        -8.6930
 232   2.0000      -0.314101        -8.5471
 233   2.0000      -0.309796        -8.4300
 234   2.0000      -0.304097        -8.2749
 235   2.0000      -0.303295        -8.2531
 236   2.0000      -0.294092        -8.0027
 237   2.0000      -0.288063        -7.8386
 238   2.0000      -0.276343        -7.5197
 239   2.0000      -0.264443        -7.1959
 240   2.0000      -0.258120        -7.0238
 241   2.0000      -0.229363        -6.2413
 242   2.0000      -0.189164        -5.1474
 243   0.0000      -0.101034        -2.7493
 244   0.0000      -0.061175        -1.6646
 245   0.0000      -0.050775        -1.3817
 246   0.0000      -0.024381        -0.6634
 247   0.0000       0.001205         0.0328

MULLIKEN ATOMIC CHARGES
-----------------------
   0 C :    0.315971
   1 C :   -0.370008
   2 C :   -0.190652
   3 N :    0.147579
   4 C :   -0.140622
   5 N :    0.110034
   6 C :    0.015596
   7 C :   -0.008139
   8 C :   -0.079566
   9 C :    0.124032
  10 C :   -0.091537
  11 C :   -0.023133
  12 S :    0.185133
  13 C :   -0.120293
  14 C :    0.032946
  15 Br:    0.023250
  16 C :    0.123880
  17 O :   -0.127611
  18 C :   -0.059991
  19 C :   -0.083366
  20 C :    0.181138
  21 C :    0.191353
  22 O :   -0.238626
  23 C :    0.204971
  24 C :    0.224812
  25 C :   -0.164501
  26 S :    0.117556
  27 C :   -0.167243
  28 O :   -0.222162
  29 C :   -0.082505
  30 C :    0.050615
  31 C :    0.011660
  32 C :   -0.166647
  33 C :    0.078153
  34 C :    0.196912
  35 N :   -0.156028
  36 C :    0.060092
  37 C :   -0.044865
  38 C :    0.018310
  39 C :   -0.048810
  40 C :    0.042275
  41 C :    0.007816
  42 C :   -0.021027
  43 S :    0.032904
  44 C :   -0.074129
  45 C :    0.027804
  46 C :    0.025330
  47 C :   -0.024671
  48 S :    0.099345
  49 C :   -0.082242
  50 C :    0.152095
  51 C :    0.108709
  52 O :   -0.260038
  53 C :    0.210481
  54 C :    0.225442
  55 C :   -0.185063
  56 S :    0.087041
  57 C :   -0.178174
  58 O :   -0.268435
  59 C :   -0.054815
  60 C :    0.008043
  61 H :   -0.012282
  62 H :   -0.007442
  63 H :   -0.003177
  64 H :    0.000973
  65 H :    0.035263
  66 H :    0.026697
  67 H :    0.020918
  68 H :    0.005300
  69 H :    0.000486
  70 H :    0.029890
  71 H :    0.010628
  72 H :    0.046623
  73 H :    0.020203
  74 H :    0.021478
  75 H :    0.125202
  76 H :    0.017237
  77 H :   -0.040074
  78 H :   -0.010352
  79 H :   -0.007569
  80 H :   -0.019988
  81 H :   -0.023197
  82 H :   -0.022937
  83 H :   -0.004545
  84 H :    0.016014
  85 H :    0.015382
  86 H :   -0.004100
  87 H :    0.038193
  88 H :    0.018792
Sum of atomic charges:   -0.0000000

LOEWDIN ATOMIC CHARGES
----------------------
   0 C :    0.084143
   1 C :   -0.159099
   2 C :   -0.020301
   3 N :   -0.061266
   4 C :   -0.002914
   5 N :   -0.071137
   6 C :   -0.024232
   7 C :   -0.046216
   8 C :    0.018466
   9 C :   -0.030859
  10 C :   -0.145484
  11 C :   -0.009304
  12 S :    0.430594
  13 C :   -0.270692
  14 C :   -0.071034
  15 Br:    0.136182
  16 C :    0.073026
  17 O :   -0.132687
  18 C :   -0.095223
  19 C :    0.046553
  20 C :    0.003439
  21 C :    0.082019
  22 O :   -0.034526
  23 C :   -0.014216
  24 C :   -0.005858
  25 C :   -0.200406
  26 S :    0.444299
  27 C :   -0.204655
  28 O :   -0.033135
  29 C :   -0.052175
  30 C :    0.029554
  31 C :   -0.045800
  32 C :   -0.013144
  33 C :   -0.052231
  34 C :    0.045975
  35 N :    0.003474
  36 C :    0.044933
  37 C :   -0.130215
  38 C :   -0.018090
  39 C :   -0.181503
  40 C :   -0.011873
  41 C :   -0.063717
  42 C :   -0.156275
  43 S :    0.356803
  44 C :   -0.207505
  45 C :   -0.041875
  46 C :   -0.046736
  47 C :   -0.149257
  48 S :    0.427263
  49 C :   -0.095865
  50 C :    0.015062
  51 C :    0.002082
  52 O :   -0.063028
  53 C :   -0.008183
  54 C :   -0.007064
  55 C :   -0.220371
  56 S :    0.414783
  57 C :   -0.220493
  58 O :   -0.070645
  59 C :   -0.062867
  60 C :   -0.044760
  61 H :    0.039949
  62 H :    0.040660
  63 H :    0.038798
  64 H :    0.044425
  65 H :    0.034595
  66 H :    0.030075
  67 H :    0.038957
  68 H :    0.030710
  69 H :    0.031213
  70 H :    0.035495
  71 H :    0.029261
  72 H :    0.044344
  73 H :    0.031200
  74 H :    0.031741
  75 H :    0.079337
  76 H :    0.014469
  77 H :    0.021378
  78 H :    0.034832
  79 H :    0.035237
  80 H :    0.029027
  81 H :    0.028106
  82 H :    0.028922
  83 H :    0.037901
  84 H :    0.025019
  85 H :    0.024672
  86 H :    0.030259
  87 H :    0.024110
  88 H :    0.023575

  Mayer bond orders larger than 0.100000
B(  0-C ,  1-C ) :   1.5735 B(  0-C ,  6-C ) :   1.0032 B(  0-C , 18-C ) :   1.1058
B(  1-C ,  2-C ) :   1.1494 B(  1-C ,  4-C ) :   1.1667 B(  2-C ,  3-N ) :   2.9645
B(  4-C ,  5-N ) :   2.8654 B(  6-C ,  7-C ) :   1.2756 B(  6-C , 11-C ) :   1.4031
B(  7-C ,  8-C ) :   1.4315 B(  7-C , 16-C ) :   0.9237 B(  8-C ,  9-C ) :   1.2397
B(  8-C , 61-H ) :   1.0169 B(  9-C , 10-C ) :   1.3107 B(  9-C , 14-C ) :   1.1610
B( 10-C , 11-C ) :   1.3322 B( 10-C , 12-S ) :   1.0834 B( 11-C , 62-H ) :   0.9805
B( 12-S , 13-C ) :   1.0868 B( 13-C , 14-C ) :   1.6179 B( 13-C , 15-Br) :   1.0187
B( 14-C , 63-H ) :   1.0016 B( 16-C , 17-O ) :   2.2843 B( 16-C , 18-C ) :   0.9160
B( 18-C , 19-C ) :   1.5280 B( 19-C , 20-C ) :   1.2499 B( 19-C , 64-H ) :   0.9184
B( 20-C , 21-C ) :   1.3591 B( 20-C , 28-O ) :   1.0939 B( 21-C , 22-O ) :   1.1149
B( 21-C , 29-C ) :   1.1486 B( 22-O , 23-C ) :   1.0223 B( 23-C , 24-C ) :   1.2055
B( 23-C , 27-C ) :   1.5696 B( 24-C , 25-C ) :   1.5774 B( 24-C , 28-O ) :   1.0582
B( 25-C , 26-S ) :   1.1396 B( 25-C , 65-H ) :   0.9695 B( 26-S , 27-C ) :   1.1515
B( 27-C , 66-H ) :   0.9735 B( 29-C , 30-C ) :   1.6700 B( 29-C , 67-H ) :   0.9557
B( 30-C , 31-C ) :   1.1050 B( 30-C , 68-H ) :   0.9771 B( 31-C , 32-C ) :   1.7590
B( 31-C , 69-H ) :   0.9710 B( 32-C , 33-C ) :   1.0702 B( 32-C , 34-C ) :   1.0367
B( 33-C , 70-H ) :   0.9488 B( 33-C , 71-H ) :   0.9519 B( 33-C , 72-H ) :   0.9476
B( 34-C , 35-N ) :   1.0250 B( 34-C , 73-H ) :   0.9360 B( 34-C , 74-H ) :   0.9320
B( 35-N , 36-C ) :   1.2309 B( 35-N , 75-H ) :   0.9386 B( 36-C , 37-C ) :   1.5984
B( 36-C , 76-H ) :   0.9453 B( 37-C , 38-C ) :   1.2291 B( 37-C , 77-H ) :   0.9525
B( 38-C , 39-C ) :   1.5792 B( 38-C , 78-H ) :   0.9499 B( 39-C , 40-C ) :   1.1581
B( 39-C , 43-S ) :   0.9994 B( 40-C , 41-C ) :   1.5798 B( 40-C , 79-H ) :   0.9987
B( 41-C , 42-C ) :   1.1855 B( 41-C , 80-H ) :   0.9941 B( 42-C , 43-S ) :   1.0537
B( 42-C , 44-C ) :   1.5119 B( 44-C , 45-C ) :   1.1828 B( 44-C , 48-S ) :   1.0130
B( 45-C , 46-C ) :   1.5906 B( 45-C , 81-H ) :   0.9927 B( 46-C , 47-C ) :   1.1356
B( 46-C , 82-H ) :   0.9998 B( 47-C , 48-S ) :   1.0740 B( 47-C , 49-C ) :   1.5690
B( 49-C , 50-C ) :   1.1699 B( 49-C , 83-H ) :   0.9409 B( 50-C , 51-C ) :   1.4989
B( 50-C , 58-O ) :   1.0102 B( 51-C , 52-O ) :   1.0115 B( 51-C , 59-C ) :   1.1548
B( 52-O , 53-C ) :   1.0794 B( 53-C , 54-C ) :   1.1923 B( 53-C , 57-C ) :   1.5728
B( 54-C , 55-C ) :   1.5715 B( 54-C , 58-O ) :   1.0802 B( 55-C , 56-S ) :   1.1300
B( 55-C , 84-H ) :   0.9720 B( 56-S , 57-C ) :   1.1310 B( 57-C , 85-H ) :   0.9716
B( 59-C , 60-C ) :   1.8671 B( 59-C , 86-H ) :   0.9447 B( 60-C , 87-H ) :   0.9519
B( 60-C , 88-H ) :   0.9476

-----------------------------------------------------------------------------
         ABSORPTION SPECTRUM VIA TRANSITION ELECTRIC DIPOLE MOMENTS
-----------------------------------------------------------------------------
State   Energy  Wavelength   fosc         T2         TX        TY        TZ
        (cm-1)    (nm)                  (au**2)     (au)      (au)      (au)
-----------------------------------------------------------------------------
   0    7793.4   1283.1   0.016749512   0.70754  -0.30474   0.73652   0.26874
   1   16088.5    621.6   1.084708459  22.19588  -2.55997   3.74524   1.27105
   2   17139.3    583.5   0.468202718   8.99323  -0.86162   0.02047  -2.87236
   3   17622.6    567.5   0.062253933   1.16298   0.62198  -0.41225   0.77857
   4   18953.8    527.6   0.013071003   0.22703   0.18658  -0.04883   0.43570
   5   22551.3    443.4   0.178082086   2.59971  -0.32290   0.44997   1.51426
   6   24368.1    410.4   0.005851293   0.07905   0.16183  -0.20783   0.09834
   7   24508.7    408.0   0.016167468   0.21717  -0.17586  -0.20396  -0.38032
   8   25340.6    394.6   0.004644998   0.06035  -0.03681  -0.00922  -0.24271
   9   26162.1    382.2   0.024328990   0.30614  -0.08316  -0.54517   0.04490
  10   26791.5    373.3   0.115331215   1.41718  -0.49583   0.67675  -0.84460
  11   27144.8    368.4   0.400213814   4.85379   0.28760  -2.09997   0.60101
  12   27964.4    357.6   0.126720902   1.49183  -0.27559  -0.16861   1.17790
  13   28377.1    352.4   0.247853572   2.87543  -0.90964   0.18284  -1.41935
  14   28574.5    350.0   0.005804026   0.06687  -0.10418   0.07445  -0.22466
  15   29036.2    344.4   0.085846809   0.97333   0.31326  -0.80359   0.47900
  16   30518.0    327.7   0.167290267   1.80464   0.43824  -0.39482   1.20694
  17   30574.0    327.1   0.154152033   1.65986  -0.45908   0.61531  -1.03465
  18   30836.3    324.3   0.292297117   3.12060  -0.55958   0.69469  -1.52476
  19   32023.4    312.3   0.000198475   0.00204   0.03719   0.02554   0.00230
  20   32402.0    308.6   0.067958793   0.69048   0.13557  -0.28245   0.76962
  21   32625.3    306.5   0.012983814   0.13102   0.08647  -0.23483   0.26152
  22   32888.5    304.1   0.735296053   7.36026   0.46386  -2.43367   1.10559
  23   33365.0    299.7   0.003849331   0.03798  -0.08245   0.10027  -0.14535
  24   33514.5    298.4   0.015644682   0.15368  -0.33930   0.10509  -0.16586
  25   33790.7    295.9   0.018609199   0.18130   0.31760  -0.13868  -0.24738
  26   34138.8    292.9   0.000522541   0.00504   0.01136   0.06199  -0.03268
  27   34385.1    290.8   0.009581112   0.09173  -0.25910   0.15671  -0.00649
  28   34469.8    290.1   0.002430002   0.02321   0.08064   0.00637   0.12909
  29   34810.8    287.3   0.133763867   1.26503   0.75833   0.26433   0.78746
  30   35041.3    285.4   0.155153142   1.45766   0.32913  -1.08655   0.41077
  31   35685.5    280.2   0.019175685   0.17690   0.32396  -0.20352   0.17473
  32   35903.6    278.5   0.027021710   0.24777  -0.39461   0.30067  -0.04062
  33   36185.2    276.4   0.010504956   0.09557  -0.24051   0.12542   0.14832
  34   36375.0    274.9   0.000859973   0.00778  -0.07318   0.04003  -0.02873
  35   36578.0    273.4   0.000072452   0.00065   0.00499   0.01971  -0.01545
  36   36715.5    272.4   0.134347982   1.20464  -0.44492   0.72396  -0.69468
  37   36866.3    271.3   0.038956379   0.34788  -0.56157  -0.06498   0.16821
  38   37535.7    266.4   0.253152679   2.22031   0.46904   0.79768   1.16791
  39   37820.2    264.4   0.050580509   0.44029   0.66054  -0.05817   0.02421
  40   37989.1    263.2   0.021416660   0.18560  -0.42259  -0.00776  -0.08336
  41   38285.5    261.2   0.079596587   0.68444  -0.01316  -0.79759  -0.21937
  42   39191.9    255.2   0.001464007   0.01230   0.06546  -0.03587  -0.08202
  43   40114.7    249.3   0.006002788   0.04926   0.16492  -0.11252  -0.09698
  44   40243.5    248.5   0.097004221   0.79354   0.62049  -0.44813  -0.45576

FINAL SINGLE POINT ENERGY     -6909.363144411393

DIPOLE MOMENT
-------------
                                X             Y             Z
Electronic contribution:     68.77576    -143.01059      81.23021
Nuclear contribution   :    -68.44324     139.82448     -83.97397
                        -----------------------------------------
Total Dipole Moment    :      0.33252      -3.18611      -2.74377
                        -----------------------------------------
Magnitude (a.u.)       :      4.21783
Magnitude (Debye)      :     10.72087

Rotational constants in cm-1:     0.001171     0.000306     0.000258
Rotational constants in MHz :    35.100156     9.159317     7.743768

                             ****ORCA TERMINATED NORMALLY****
TOTAL RUN TIME: 0 days 0 hours 7 minutes 32 seconds 831 msec
