                         Program Version 4.2.0 -  RELEASE  -
|  1> # ORCA input file
|  2> # SCF done       -143.642562730041          0.000883516638
|  3> ! CAM-B3LYP def2-SVP def2/J RIJCOSX Grid4 TightSCF
|  4> %maxcore 5000
|  5> %tddft
|  6>     Mode sTDDFT
|  7>     Ethresh 5.0
|  8>     maxcore 5000
|  9> end
| 10>
| 11> %pal
| 12>   nprocs 6
| 13>   end
| 14> * xyz 0 1
| 15>    C       -1.55868        -0.89555        -0.25757
| 16>    C       -1.73786        -2.11271         0.34666
| 17>    C       -0.76150        -3.13045         0.36491
| 18>    N        0.00009        -3.98793         0.41707
| 19>    C       -2.93381        -2.54905         0.95750
| 20>    N       -3.88139        -2.99867         1.42403
| 21>    C       -0.39831        -0.50201        -1.04444
| 22>    C       -0.69192         0.71701        -1.70169
| 23>    C        0.19919         1.33896        -2.54202
| 24>    C        1.44438         0.73260        -2.73703
| 25>    C        1.73284        -0.48137        -2.06829
| 26>    C        0.82937        -1.11324        -1.22314
| 27>    S        3.32907        -1.05469        -2.44506
| 28>    C        3.58312         0.32347        -3.48285
| 29>    C        2.52884         1.17108        -3.54497
| 30>   Br        5.21499         0.51330        -4.38725
| 31>    C       -2.04996         1.17024        -1.33426
| 32>    O       -2.60790         2.15230        -1.76741
| 33>    C       -2.53074         0.18378        -0.32583
| 34>    C       -3.59561         0.31299         0.51745
| 35>    C       -4.60815         1.29916         0.51767
| 36>    O       -4.78845         2.19302        -0.48584
| 37>    C       -5.59727         1.51904         1.46636
| 38>    C       -6.11501         1.08537         2.77211
| 39>    O       -5.73152         0.23980         3.53426
| 40>    N       -7.20969         1.92279         2.97931
| 41>    C       -7.44948         2.85816         1.97277
| 42>    O       -8.33942         3.66692         1.97538
| 43>    C       -6.38880         2.58879         0.99635
| 44>    C       -5.85097         2.97959        -0.22020
| 45>    C       -6.24563         3.99743        -1.13463
| 46>    C       -5.53984         4.26291        -2.25175
| 47>    C       -5.88627         5.24805        -3.25997
| 48>    C       -6.91728         6.11039        -3.17220
| 49>    C       -5.05537         5.25243        -4.40449
| 50>    C       -4.33495         5.23163        -5.37922
| 51>    C       -3.52451         5.21475        -6.50863
| 52>    C       -4.00553         5.40966        -7.76558
| 53>    C       -3.20191         5.39425        -8.92025
| 54>    C       -3.68333         5.51827       -10.19802
| 55>    C       -2.93051         5.52203       -11.39873
| 56>    C       -3.67873         5.64069       -12.52976
| 57>    C       -5.06861         5.73134       -12.29183
| 58>    S       -5.39411         5.67745       -10.57300
| 59>    C       -6.08321         5.83273       -13.22388
| 60>    C       -5.96922         5.89325       -14.63028
| 61>    C       -7.16489         5.97722       -15.27479
| 62>    C       -8.30101         5.98589       -14.42417
| 63>    S       -7.76835         5.88695       -12.75423
| 64>    C       -9.60162         6.06226       -14.86122
| 65>    C      -10.81132         6.06890       -14.13433
| 66>    C      -10.94094         5.95907       -12.76621
| 67>    C      -12.28453         5.99266       -12.26503
| 68>    C      -13.26774         6.12610       -13.18992
| 69>   Si      -12.52733         6.22691       -14.88431
| 70>    H       -0.05615         2.26550        -3.03192
| 71>    H        1.09628        -2.03477        -0.73362
| 72>    H        2.51507         2.06918        -4.13500
| 73>    H       -3.70928        -0.39813         1.32617
| 74>    H       -7.78515         1.86103         3.80727
| 75>    H       -7.14536         4.52927        -0.86473
| 76>    H       -4.64222         3.68667        -2.43963
| 77>    H       -7.56422         6.14174        -2.31450
| 78>    H       -7.11813         6.81286        -3.96225
| 79>    H       -2.47033         5.02328        -6.34969
| 80>    H       -5.06717         5.57501        -7.90081
| 81>    H       -2.13289         5.27124        -8.80122
| 82>    H       -1.85809         5.43632       -11.38500
| 83>    H       -3.27177         5.65960       -13.52492
| 84>    H       -5.01500         5.87512       -15.12544
| 85>    H       -7.27395         6.03195       -16.34392
| 86>    H       -9.70749         6.12827       -15.93838
| 87>    H      -10.11521         5.84769       -12.08162
| 88>    H      -12.46485         5.91037       -11.20264
| 89>    H      -14.30574         6.16011       -12.90108
| 90>    H      -12.73089         7.50757       -15.56617
| 91>    H      -12.86573         5.10870       -15.76821
| 92> *
| 93>
| 94>                          ****END OF INPUT****

CARTESIAN COORDINATES (ANGSTROEM)
---------------------------------
  C     -1.558680   -0.895550   -0.257570
  C     -1.737860   -2.112710    0.346660
  C     -0.761500   -3.130450    0.364910
  N      0.000090   -3.987930    0.417070
  C     -2.933810   -2.549050    0.957500
  N     -3.881390   -2.998670    1.424030
  C     -0.398310   -0.502010   -1.044440
  C     -0.691920    0.717010   -1.701690
  C      0.199190    1.338960   -2.542020
  C      1.444380    0.732600   -2.737030
  C      1.732840   -0.481370   -2.068290
  C      0.829370   -1.113240   -1.223140
  S      3.329070   -1.054690   -2.445060
  C      3.583120    0.323470   -3.482850
  C      2.528840    1.171080   -3.544970
  Br     5.214990    0.513300   -4.387250
  C     -2.049960    1.170240   -1.334260
  O     -2.607900    2.152300   -1.767410
  C     -2.530740    0.183780   -0.325830
  C     -3.595610    0.312990    0.517450
  C     -4.608150    1.299160    0.517670
  O     -4.788450    2.193020   -0.485840
  C     -5.597270    1.519040    1.466360
  C     -6.115010    1.085370    2.772110
  O     -5.731520    0.239800    3.534260
  N     -7.209690    1.922790    2.979310
  C     -7.449480    2.858160    1.972770
  O     -8.339420    3.666920    1.975380
  C     -6.388800    2.588790    0.996350
  C     -5.850970    2.979590   -0.220200
  C     -6.245630    3.997430   -1.134630
  C     -5.539840    4.262910   -2.251750
  C     -5.886270    5.248050   -3.259970
  C     -6.917280    6.110390   -3.172200
  C     -5.055370    5.252430   -4.404490
  C     -4.334950    5.231630   -5.379220
  C     -3.524510    5.214750   -6.508630
  C     -4.005530    5.409660   -7.765580
  C     -3.201910    5.394250   -8.920250
  C     -3.683330    5.518270  -10.198020
  C     -2.930510    5.522030  -11.398730
  C     -3.678730    5.640690  -12.529760
  C     -5.068610    5.731340  -12.291830
  S     -5.394110    5.677450  -10.573000
  C     -6.083210    5.832730  -13.223880
  C     -5.969220    5.893250  -14.630280
  C     -7.164890    5.977220  -15.274790
  C     -8.301010    5.985890  -14.424170
  S     -7.768350    5.886950  -12.754230
  C     -9.601620    6.062260  -14.861220
  C    -10.811320    6.068900  -14.134330
  C    -10.940940    5.959070  -12.766210
  C    -12.284530    5.992660  -12.265030
  C    -13.267740    6.126100  -13.189920
  Si   -12.527330    6.226910  -14.884310
  H     -0.056150    2.265500   -3.031920
  H      1.096280   -2.034770   -0.733620
  H      2.515070    2.069180   -4.135000
  H     -3.709280   -0.398130    1.326170
  H     -7.785150    1.861030    3.807270
  H     -7.145360    4.529270   -0.864730
  H     -4.642220    3.686670   -2.439630
  H     -7.564220    6.141740   -2.314500
  H     -7.118130    6.812860   -3.962250
  H     -2.470330    5.023280   -6.349690
  H     -5.067170    5.575010   -7.900810
  H     -2.132890    5.271240   -8.801220
  H     -1.858090    5.436320  -11.385000
  H     -3.271770    5.659600  -13.524920
  H     -5.015000    5.875120  -15.125440
  H     -7.273950    6.031950  -16.343920
  H     -9.707490    6.128270  -15.938380
  H    -10.115210    5.847690  -12.081620
  H    -12.464850    5.910370  -11.202640
  H    -14.305740    6.160110  -12.901080
  H    -12.730890    7.507570  -15.566170
  H    -12.865730    5.108700  -15.768210

 Total Charge           Charge          ....    0
 Multiplicity           Mult            ....    1
 Number of Electrons    NEL             ....  430
 Basis Dimension        Dim             ....  914

ORBITAL ENERGIES
----------------

  NO   OCC          E(Eh)            E(eV)
   0   2.0000    -482.888510    -13140.0644
   1   2.0000     -88.978675     -2421.2328
   2   2.0000     -88.946155     -2420.3479
   3   2.0000     -88.944467     -2420.3020
   4   2.0000     -66.183193     -1800.9362
   5   2.0000     -62.566244     -1702.5141
   6   2.0000     -56.400197     -1534.7274
   7   2.0000     -56.397475     -1534.6533
   8   2.0000     -56.397440     -1534.6524
   9   2.0000     -19.313777      -525.5546
  10   2.0000     -19.220149      -523.0068
  11   2.0000     -19.217704      -522.9403
  12   2.0000     -19.214975      -522.8660
  13   2.0000     -14.458499      -393.4358
  14   2.0000     -14.418355      -392.3434
  15   2.0000     -14.416213      -392.2851
  16   2.0000     -10.406547      -283.1765
  17   2.0000     -10.404518      -283.1213
  18   2.0000     -10.373784      -282.2850
  19   2.0000     -10.373580      -282.2795
  20   2.0000     -10.368621      -282.1445
  21   2.0000     -10.362201      -281.9698
  22   2.0000     -10.347267      -281.5635
  23   2.0000     -10.345065      -281.5035
  24   2.0000     -10.329153      -281.0706
  25   2.0000     -10.329038      -281.0674
  26   2.0000     -10.320601      -280.8378
  27   2.0000     -10.317872      -280.7636
  28   2.0000     -10.311951      -280.6025
  29   2.0000     -10.311370      -280.5867
  30   2.0000     -10.311263      -280.5837
  31   2.0000     -10.310699      -280.5684
  32   2.0000     -10.310695      -280.5683
  33   2.0000     -10.309884      -280.5462
  34   2.0000     -10.308974      -280.5215
  35   2.0000     -10.307536      -280.4823
  36   2.0000     -10.304509      -280.3999
  37   2.0000     -10.304421      -280.3976
  38   2.0000     -10.303911      -280.3837
  39   2.0000     -10.299926      -280.2752
  40   2.0000     -10.297165      -280.2001
  41   2.0000     -10.296684      -280.1870
  42   2.0000     -10.295900      -280.1657
  43   2.0000     -10.294513      -280.1279
  44   2.0000     -10.290613      -280.0218
  45   2.0000     -10.286088      -279.8987
  46   2.0000     -10.285567      -279.8845
  47   2.0000     -10.285168      -279.8737
  48   2.0000     -10.284580      -279.8576
  49   2.0000     -10.282845      -279.8104
  50   2.0000     -10.282495      -279.8009
  51   2.0000     -10.278417      -279.6899
  52   2.0000     -10.277901      -279.6759
  53   2.0000     -10.274931      -279.5951
  54   2.0000     -10.272259      -279.5224
  55   2.0000     -10.268732      -279.4264
  56   2.0000     -10.264645      -279.3152
  57   2.0000     -10.257504      -279.1209
  58   2.0000     -10.248544      -278.8771
  59   2.0000      -8.795690      -239.3429
  60   2.0000      -8.074646      -219.7223
  61   2.0000      -8.042035      -218.8349
  62   2.0000      -8.040905      -218.8041
  63   2.0000      -6.632021      -180.4665
  64   2.0000      -6.617402      -180.0687
  65   2.0000      -6.617216      -180.0636
  66   2.0000      -6.044349      -164.4751
  67   2.0000      -6.040054      -164.3582
  68   2.0000      -6.035866      -164.2443
  69   2.0000      -6.011761      -163.5883
  70   2.0000      -6.010646      -163.5580
  71   2.0000      -6.007666      -163.4769
  72   2.0000      -6.006656      -163.4494
  73   2.0000      -6.003056      -163.3515
  74   2.0000      -6.001717      -163.3150
  75   2.0000      -5.354919      -145.7147
  76   2.0000      -3.717669      -101.1629
  77   2.0000      -3.716356      -101.1272
  78   2.0000      -3.716259      -101.1245
  79   2.0000      -2.747857       -74.7730
  80   2.0000      -2.743832       -74.6635
  81   2.0000      -2.743614       -74.6575
  82   2.0000      -2.732033       -74.3424
  83   2.0000      -2.732017       -74.3420
  84   2.0000      -1.237079       -33.6626
  85   2.0000      -1.160788       -31.5866
  86   2.0000      -1.140352       -31.0305
  87   2.0000      -1.136119       -30.9154
  88   2.0000      -1.047901       -28.5148
  89   2.0000      -1.026483       -27.9320
  90   2.0000      -1.015894       -27.6439
  91   2.0000      -0.995630       -27.0925
  92   2.0000      -0.995094       -27.0779
  93   2.0000      -0.993348       -27.0304
  94   2.0000      -0.972938       -26.4750
  95   2.0000      -0.951080       -25.8802
  96   2.0000      -0.941128       -25.6094
  97   2.0000      -0.931928       -25.3591
  98   2.0000      -0.920674       -25.0528
  99   2.0000      -0.917493       -24.9663
 100   2.0000      -0.911633       -24.8068
 101   2.0000      -0.910265       -24.7696
 102   2.0000      -0.890827       -24.2406
 103   2.0000      -0.889056       -24.1924
 104   2.0000      -0.879562       -23.9341
 105   2.0000      -0.865801       -23.5596
 106   2.0000      -0.854607       -23.2550
 107   2.0000      -0.846413       -23.0321
 108   2.0000      -0.832897       -22.6643
 109   2.0000      -0.824600       -22.4385
 110   2.0000      -0.822018       -22.3682
 111   2.0000      -0.814694       -22.1690
 112   2.0000      -0.793696       -21.5976
 113   2.0000      -0.785893       -21.3852
 114   2.0000      -0.772098       -21.0098
 115   2.0000      -0.766384       -20.8544
 116   2.0000      -0.764910       -20.8143
 117   2.0000      -0.761516       -20.7219
 118   2.0000      -0.742023       -20.1915
 119   2.0000      -0.732154       -19.9229
 120   2.0000      -0.714247       -19.4357
 121   2.0000      -0.709003       -19.2929
 122   2.0000      -0.703889       -19.1538
 123   2.0000      -0.692908       -18.8550
 124   2.0000      -0.685570       -18.6553
 125   2.0000      -0.680437       -18.5156
 126   2.0000      -0.670937       -18.2571
 127   2.0000      -0.662177       -18.0187
 128   2.0000      -0.655948       -17.8493
 129   2.0000      -0.638568       -17.3763
 130   2.0000      -0.632467       -17.2103
 131   2.0000      -0.624553       -16.9949
 132   2.0000      -0.623428       -16.9643
 133   2.0000      -0.618478       -16.8296
 134   2.0000      -0.615455       -16.7474
 135   2.0000      -0.607237       -16.5237
 136   2.0000      -0.601831       -16.3766
 137   2.0000      -0.597553       -16.2603
 138   2.0000      -0.594345       -16.1730
 139   2.0000      -0.593667       -16.1545
 140   2.0000      -0.591739       -16.1020
 141   2.0000      -0.581865       -15.8334
 142   2.0000      -0.576207       -15.6794
 143   2.0000      -0.570876       -15.5343
 144   2.0000      -0.569528       -15.4976
 145   2.0000      -0.558547       -15.1988
 146   2.0000      -0.556021       -15.1301
 147   2.0000      -0.550527       -14.9806
 148   2.0000      -0.550017       -14.9667
 149   2.0000      -0.544918       -14.8280
 150   2.0000      -0.544443       -14.8150
 151   2.0000      -0.541060       -14.7230
 152   2.0000      -0.534198       -14.5363
 153   2.0000      -0.530194       -14.4273
 154   2.0000      -0.525172       -14.2906
 155   2.0000      -0.521404       -14.1881
 156   2.0000      -0.519953       -14.1486
 157   2.0000      -0.518226       -14.1016
 158   2.0000      -0.511129       -13.9085
 159   2.0000      -0.509977       -13.8772
 160   2.0000      -0.504818       -13.7368
 161   2.0000      -0.497516       -13.5381
 162   2.0000      -0.496941       -13.5225
 163   2.0000      -0.495940       -13.4952
 164   2.0000      -0.493259       -13.4223
 165   2.0000      -0.487392       -13.2626
 166   2.0000      -0.486859       -13.2481
 167   2.0000      -0.479933       -13.0596
 168   2.0000      -0.478909       -13.0318
 169   2.0000      -0.477168       -12.9844
 170   2.0000      -0.469161       -12.7665
 171   2.0000      -0.466212       -12.6863
 172   2.0000      -0.462682       -12.5902
 173   2.0000      -0.461688       -12.5632
 174   2.0000      -0.459661       -12.5080
 175   2.0000      -0.457198       -12.4410
 176   2.0000      -0.452360       -12.3093
 177   2.0000      -0.451289       -12.2802
 178   2.0000      -0.450567       -12.2606
 179   2.0000      -0.449962       -12.2441
 180   2.0000      -0.447688       -12.1822
 181   2.0000      -0.444724       -12.1016
 182   2.0000      -0.441533       -12.0147
 183   2.0000      -0.431634       -11.7453
 184   2.0000      -0.431610       -11.7447
 185   2.0000      -0.426973       -11.6185
 186   2.0000      -0.425323       -11.5736
 187   2.0000      -0.420943       -11.4544
 188   2.0000      -0.419900       -11.4260
 189   2.0000      -0.410724       -11.1764
 190   2.0000      -0.402561       -10.9542
 191   2.0000      -0.401295       -10.9198
 192   2.0000      -0.396004       -10.7758
 193   2.0000      -0.389920       -10.6103
 194   2.0000      -0.389828       -10.6078
 195   2.0000      -0.387488       -10.5441
 196   2.0000      -0.378973       -10.3124
 197   2.0000      -0.377925       -10.2839
 198   2.0000      -0.375096       -10.2069
 199   2.0000      -0.371113       -10.0985
 200   2.0000      -0.369311       -10.0495
 201   2.0000      -0.365123        -9.9355
 202   2.0000      -0.350773        -9.5450
 203   2.0000      -0.349972        -9.5232
 204   2.0000      -0.344806        -9.3826
 205   2.0000      -0.338523        -9.2117
 206   2.0000      -0.338337        -9.2066
 207   2.0000      -0.326013        -8.8713
 208   2.0000      -0.321901        -8.7594
 209   2.0000      -0.318639        -8.6706
 210   2.0000      -0.304520        -8.2864
 211   2.0000      -0.296850        -8.0777
 212   2.0000      -0.277332        -7.5466
 213   2.0000      -0.265276        -7.2185
 214   2.0000      -0.209385        -5.6977
 215   0.0000      -0.102653        -2.7933
 216   0.0000      -0.083880        -2.2825
 217   0.0000      -0.065026        -1.7695
 218   0.0000      -0.054991        -1.4964
 219   0.0000      -0.029310        -0.7976

MULLIKEN ATOMIC CHARGES
-----------------------
   0 C :    0.288839
   1 C :   -0.335946
   2 C :   -0.179316
   3 N :    0.151757
   4 C :   -0.208733
   5 N :    0.178144
   6 C :    0.021947
   7 C :   -0.019921
   8 C :   -0.071183
   9 C :    0.120178
  10 C :   -0.090743
  11 C :   -0.019349
  12 S :    0.189383
  13 C :   -0.122874
  14 C :    0.037879
  15 Br:    0.025619
  16 C :    0.144298
  17 O :   -0.122983
  18 C :   -0.060875
  19 C :   -0.050983
  20 C :    0.080260
  21 O :   -0.166881
  22 C :   -0.018866
  23 C :    0.174534
  24 O :   -0.126949
  25 N :   -0.168430
  26 C :    0.168651
  27 O :   -0.136608
  28 C :   -0.045408
  29 C :    0.090095
  30 C :   -0.014770
  31 C :    0.050853
  32 C :   -0.053535
  33 C :    0.007822
  34 C :    0.002394
  35 C :    0.014679
  36 C :   -0.100041
  37 C :    0.028052
  38 C :   -0.025316
  39 C :   -0.009017
  40 C :    0.031553
  41 C :    0.030827
  42 C :   -0.050135
  43 S :    0.075951
  44 C :   -0.034503
  45 C :    0.023137
  46 C :    0.034538
  47 C :   -0.017046
  48 S :    0.063752
  49 C :    0.004396
  50 C :   -0.166235
  51 C :   -0.035956
  52 C :    0.034670
  53 C :   -0.172001
  54 Si:    0.506398
  55 H :   -0.011083
  56 H :   -0.004010
  57 H :   -0.003353
  58 H :    0.041533
  59 H :    0.142010
  60 H :    0.009572
  61 H :    0.033007
  62 H :    0.026156
  63 H :    0.035590
  64 H :    0.015881
  65 H :    0.013263
  66 H :   -0.016239
  67 H :   -0.011975
  68 H :   -0.012789
  69 H :   -0.016045
  70 H :   -0.011303
  71 H :   -0.022924
  72 H :   -0.000913
  73 H :   -0.007145
  74 H :    0.007778
  75 H :   -0.081425
  76 H :   -0.081586
Sum of atomic charges:   -0.0000000

LOEWDIN ATOMIC CHARGES
----------------------
   0 C :    0.071808
   1 C :   -0.131691
   2 C :   -0.017022
   3 N :   -0.048656
   4 C :   -0.029410
   5 N :   -0.036047
   6 C :   -0.020885
   7 C :   -0.051068
   8 C :    0.022160
   9 C :   -0.031734
  10 C :   -0.142842
  11 C :   -0.009291
  12 S :    0.434428
  13 C :   -0.270642
  14 C :   -0.070755
  15 Br:    0.138272
  16 C :    0.080716
  17 O :   -0.132445
  18 C :   -0.076209
  19 C :    0.047680
  20 C :    0.041292
  21 O :    0.049824
  22 C :   -0.058040
  23 C :    0.085140
  24 O :   -0.141725
  25 N :   -0.005633
  26 C :    0.085724
  27 O :   -0.154560
  28 C :   -0.106662
  29 C :    0.093697
  30 C :   -0.042357
  31 C :    0.044631
  32 C :   -0.050014
  33 C :    0.008779
  34 C :   -0.038629
  35 C :   -0.028582
  36 C :   -0.051173
  37 C :   -0.001880
  38 C :   -0.066702
  39 C :   -0.135364
  40 C :   -0.037756
  41 C :   -0.025997
  42 C :   -0.181126
  43 S :    0.368747
  44 C :   -0.173691
  45 C :   -0.043128
  46 C :   -0.025826
  47 C :   -0.147390
  48 S :    0.387539
  49 C :   -0.059093
  50 C :   -0.182971
  51 C :   -0.029673
  52 C :   -0.013424
  53 C :   -0.195869
  54 Si:    0.546568
  55 H :    0.040584
  56 H :    0.041415
  57 H :    0.038778
  58 H :    0.060776
  59 H :    0.096686
  60 H :    0.042620
  61 H :    0.046000
  62 H :    0.025449
  63 H :    0.034661
  64 H :    0.038543
  65 H :    0.029438
  66 H :    0.031864
  67 H :    0.033431
  68 H :    0.032374
  69 H :    0.030785
  70 H :    0.033563
  71 H :    0.028879
  72 H :    0.008701
  73 H :    0.025732
  74 H :    0.019776
  75 H :   -0.090561
  76 H :   -0.090538

  Mayer bond orders larger than 0.100000
B(  0-C ,  1-C ) :   1.6529 B(  0-C ,  6-C ) :   1.0095 B(  0-C , 18-C ) :   1.0495
B(  1-C ,  2-C ) :   1.1388 B(  1-C ,  4-C ) :   1.1378 B(  2-C ,  3-N ) :   2.9745
B(  4-C ,  5-N ) :   3.0031 B(  6-C ,  7-C ) :   1.2748 B(  6-C , 11-C ) :   1.4048
B(  7-C ,  8-C ) :   1.4239 B(  7-C , 16-C ) :   0.9424 B(  8-C ,  9-C ) :   1.2478
B(  8-C , 55-H ) :   1.0164 B(  9-C , 10-C ) :   1.3034 B(  9-C , 14-C ) :   1.1635
B( 10-C , 11-C ) :   1.3329 B( 10-C , 12-S ) :   1.0871 B( 11-C , 56-H ) :   0.9811
B( 12-S , 13-C ) :   1.0863 B( 13-C , 14-C ) :   1.6185 B( 13-C , 15-Br) :   1.0196
B( 14-C , 57-H ) :   1.0000 B( 16-C , 17-O ) :   2.2338 B( 16-C , 18-C ) :   0.9210
B( 18-C , 19-C ) :   1.5746 B( 19-C , 20-C ) :   1.2083 B( 19-C , 58-H ) :   0.9356
B( 20-C , 21-O ) :   1.1496 B( 20-C , 22-C ) :   1.3797 B( 21-O , 29-C ) :   1.2067
B( 22-C , 23-C ) :   0.8659 B( 22-C , 28-C ) :   1.3150 B( 23-C , 24-O ) :   2.2650
B( 23-C , 25-N ) :   1.0862 B( 25-N , 26-C ) :   1.0723 B( 25-N , 59-H ) :   0.9134
B( 26-C , 27-O ) :   2.2760 B( 26-C , 28-C ) :   0.8767 B( 28-C , 29-C ) :   1.3469
B( 29-C , 30-C ) :   1.1794 B( 30-C , 31-C ) :   1.6758 B( 30-C , 60-H ) :   0.9530
B( 31-C , 32-C ) :   1.0488 B( 31-C , 61-H ) :   0.9798 B( 32-C , 33-C ) :   1.8865
B( 32-C , 34-C ) :   0.9090 B( 33-C , 62-H ) :   0.9390 B( 33-C , 63-H ) :   0.9469
B( 34-C , 35-C ) :   2.3405 B( 35-C , 36-C ) :   0.9804 B( 36-C , 37-C ) :   1.6748
B( 36-C , 64-H ) :   0.9647 B( 37-C , 38-C ) :   1.1547 B( 37-C , 65-H ) :   0.9753
B( 38-C , 39-C ) :   1.5712 B( 38-C , 66-H ) :   0.9793 B( 39-C , 40-C ) :   1.1410
B( 39-C , 43-S ) :   1.0353 B( 40-C , 41-C ) :   1.5881 B( 40-C , 67-H ) :   0.9995
B( 41-C , 42-C ) :   1.1908 B( 41-C , 68-H ) :   0.9943 B( 42-C , 43-S ) :   1.0408
B( 42-C , 44-C ) :   1.5074 B( 44-C , 45-C ) :   1.1857 B( 44-C , 48-S ) :   1.0423
B( 45-C , 46-C ) :   1.5870 B( 45-C , 69-H ) :   0.9938 B( 46-C , 47-C ) :   1.1455
B( 46-C , 70-H ) :   0.9991 B( 47-C , 48-S ) :   1.0337 B( 47-C , 49-C ) :   1.5728
B( 49-C , 50-C ) :   1.1883 B( 49-C , 71-H ) :   0.9644 B( 50-C , 51-C ) :   1.6241
B( 50-C , 54-Si) :   0.9172 B( 51-C , 52-C ) :   1.1169 B( 51-C , 72-H ) :   0.9758
B( 52-C , 53-C ) :   1.7962 B( 52-C , 73-H ) :   0.9847 B( 53-C , 54-Si) :   0.9516
B( 53-C , 74-H ) :   0.9455 B( 54-Si, 75-H ) :   0.9494 B( 54-Si, 76-H ) :   0.9493

-----------------------------------------------------------------------------
         ABSORPTION SPECTRUM VIA TRANSITION ELECTRIC DIPOLE MOMENTS
-----------------------------------------------------------------------------
State   Energy  Wavelength   fosc         T2         TX        TY        TZ
        (cm-1)    (nm)                  (au**2)     (au)      (au)      (au)
-----------------------------------------------------------------------------
   0   14062.2    711.1   0.301391601   7.05594  -1.63039   0.16705  -2.09042
   1   14897.6    671.2   0.978073450  21.61373  -3.35759   0.58094  -3.16272
   2   21199.7    471.7   0.457532191   7.10507  -1.63976   2.08372  -0.27272
   3   21663.4    461.6   0.194475708   2.95539   1.48225  -0.83242  -0.25572
   4   22523.2    444.0   0.007711629   0.11272  -0.22747   0.21000   0.12990
   5   23740.3    421.2   0.080158974   1.11158   0.97376  -0.25688  -0.31206
   6   25858.2    386.7   0.081965613   1.04354   0.78541   0.49087  -0.43094
   7   26460.6    377.9   0.045052436   0.56052   0.72214  -0.19734   0.00946
   8   26903.8    371.7   0.041604076   0.50909   0.35301   0.35407  -0.50903
   9   27425.0    364.6   1.047434003  12.57351  -2.11722   0.03708   2.84421
  10   28593.6    349.7   0.097096705   1.11792   0.94702   0.11722  -0.45535
  11   29058.9    344.1   0.056291836   0.63774   0.48606   0.44758  -0.44850
  12   30013.3    333.2   0.153510984   1.68384   0.48491   0.39303  -1.13764
  13   31201.9    320.5   0.128539212   1.35622  -0.58828   0.68798  -0.73269
  14   31683.3    315.6   0.028148688   0.29248   0.18462  -0.36429   0.35453
  15   31925.6    313.2   0.039447723   0.40678  -0.12117   0.29950  -0.54991
  16   32272.3    309.9   0.011028272   0.11250   0.01380  -0.32374  -0.08662
  17   32380.2    308.8   0.004960649   0.05044  -0.01087   0.10779   0.19672
  18   32553.7    307.2   0.539405768   5.45495   1.52953   0.72976  -1.60715
  19   32647.0    306.3   0.091601998   0.92371  -0.58586  -0.29524   0.70236
  20   32909.7    303.9   0.291094593   2.91197  -0.96238  -1.08768   0.89596
  21   33769.7    296.1   0.054375395   0.53009  -0.47111   0.02209   0.55467
  22   33963.5    294.4   0.001926834   0.01868  -0.07873  -0.01869   0.11013
  23   34371.4    290.9   0.022926192   0.21959   0.21408  -0.21348  -0.35803
  24   34954.1    286.1   0.003743230   0.03526  -0.18091  -0.00124   0.05025
  25   35521.7    281.5   0.012565968   0.11646   0.26150  -0.08160  -0.20352
  26   36297.5    275.5   0.040923258   0.37117   0.39987   0.13175  -0.44036
  27   36637.0    272.9   0.087558905   0.78678   0.65629   0.09873  -0.58849
  28   37185.0    268.9   0.091929947   0.81389   0.32611  -0.48199   0.68937
  29   37762.7    264.8   0.023729565   0.20687   0.27290  -0.27482   0.23848
  30   37931.2    263.6   0.032757402   0.28431  -0.21434  -0.12790  -0.47118
  31   38081.1    262.6   0.002529928   0.02187  -0.03241   0.05325   0.13411
  32   38455.6    260.0   0.224281370   1.92004  -1.08982   0.61476   0.59530
  33   39231.5    254.9   0.073571089   0.61737   0.32457  -0.65722   0.28300
  34   39253.6    254.8   0.085758360   0.71924  -0.29222   0.75892  -0.24059
  35   39510.7    253.1   0.049846198   0.41533  -0.45734   0.41675   0.18025
  36   40053.4    249.7   0.015855365   0.13032  -0.34923   0.05081   0.07601
  37   40060.5    249.6   0.024599846   0.20216   0.17821   0.33937  -0.23501
  38   40085.6    249.5   0.004673208   0.03838  -0.16958  -0.02346   0.09525
  39   40208.9    248.7   0.017371245   0.14223   0.23348  -0.27201   0.11715

FINAL SINGLE POINT ENERGY     -6171.681957635757

DIPOLE MOMENT
-------------
                                X             Y             Z
Electronic contribution:    132.68039     -56.33190      61.24761
Nuclear contribution   :   -131.69348      58.66601     -64.17160
                        -----------------------------------------
Total Dipole Moment    :      0.98691       2.33411      -2.92398
                        -----------------------------------------
Magnitude (a.u.)       :      3.86933
Magnitude (Debye)      :      9.83506

Rotational constants in cm-1:     0.001132     0.000396     0.000311
Rotational constants in MHz :    33.922250    11.875331     9.331550

                             ****ORCA TERMINATED NORMALLY****
TOTAL RUN TIME: 0 days 0 hours 5 minutes 32 seconds 278 msec
