                         Program Version 4.2.0 -  RELEASE  -
|  1> # ORCA input file
|  2> # SCF done       -176.456531885488          0.000733156059
|  3> ! CAM-B3LYP def2-SVP def2/J RIJCOSX Grid4 TightSCF
|  4> %maxcore 5000
|  5> %tddft
|  6>     Mode sTDDFT
|  7>     Ethresh 5.0
|  8>     maxcore 5000
|  9> end
| 10>
| 11> %pal
| 12>   nprocs 6
| 13>   end
| 14> * xyz 0 1
| 15>    C       -3.84857         1.79740        -8.46708
| 16>    C       -4.19511         0.46937        -8.60484
| 17>    C       -3.85422        -0.32395        -9.71570
| 18>    N       -3.61091        -1.02536       -10.59365
| 19>    C       -4.92468        -0.29252        -7.67302
| 20>    N       -5.50923        -0.99369        -6.97371
| 21>    C       -3.07730         2.56463        -9.44647
| 22>    C       -2.90074         3.87830        -8.95046
| 23>    C       -2.22144         4.84844        -9.64290
| 24>    C       -1.68995         4.50714       -10.89226
| 25>    C       -1.87120         3.19379       -11.37992
| 26>    C       -2.55799         2.21027       -10.67581
| 27>    S       -1.14156         2.98690       -12.94475
| 28>    C       -0.60853         4.64683       -12.91844
| 29>    C       -0.95885         5.32289       -11.79971
| 30>   Br        0.35302         5.33421       -14.37643
| 31>    C       -3.56246         3.99102        -7.63147
| 32>    O       -3.59336         4.98737        -6.93219
| 33>    C       -4.15839         2.67082        -7.37175
| 34>    C       -4.92438         2.36152        -6.25581
| 35>    C       -5.22419         3.24502        -5.23487
| 36>    C       -6.04679         2.92196        -4.16168
| 37>    C       -6.44067         3.77715        -3.12019
| 38>    C       -7.30552         3.20163        -2.22246
| 39>    C       -7.61544         1.86872        -2.52057
| 40>    S       -6.78143         1.34818        -3.96103
| 41>    C       -8.48910         1.01924        -1.83297
| 42>    C       -9.30726         1.33224        -0.74238
| 43>    C      -10.10004         0.28485        -0.33282
| 44>    C       -9.92100        -0.88684        -1.07400
| 45>    S       -8.71776        -0.63873        -2.31621
| 46>    C      -10.60231        -2.09468        -0.90118
| 47>    C      -10.35439        -3.25001        -1.59565
| 48>    C      -11.09076        -4.42869        -1.44214
| 49>    C      -10.85378        -5.66561        -2.04907
| 50>    C      -11.76751        -6.63997        -1.71615
| 51>    C      -12.76793        -6.19485        -0.84649
| 52>    S      -12.51235        -4.51766        -0.43183
| 53>    C      -13.87230        -6.89376        -0.35644
| 54>    C      -14.21494        -8.23946        -0.54840
| 55>    C      -15.39746        -8.59702         0.04482
| 56>    C      -16.05138        -7.54808         0.72195
| 57>    S      -15.08516        -6.09073         0.60461
| 58>    C      -17.28133        -7.64194         1.34603
| 59>    C      -18.01127        -6.62995         1.96856
| 60>    S      -19.62255        -7.01887         2.58410
| 61>    C      -19.84521        -5.39260         3.07539
| 62>    C      -18.72590        -4.59264         2.79341
| 63>    C      -17.70355        -5.27999         2.17885
| 64>    C      -18.96462        -3.16695         3.23136
| 65>    C      -17.97470        -2.74675         4.32148
| 66>    C      -18.90042        -2.20461         2.04223
| 67>    C      -20.36828        -3.27917         3.77711
| 68>    C      -20.83856        -4.59351         3.67063
| 69>    S      -22.43638        -4.76223         4.27184
| 70>    C      -22.48385        -3.05321         4.66800
| 71>    C      -21.29427        -2.41681         4.33893
| 72>    C      -23.66917        -2.51723         5.24032
| 73>    C      -23.83456        -1.22143         5.58132
| 74>    C      -25.02403        -0.63591         6.14877
| 75>    C      -26.20246        -1.34491         6.40517
| 76>    C      -27.29509        -0.69886         6.94304
| 77>    F      -28.41519        -1.41225         7.17591
| 78>    C      -27.28815         0.65148         7.25182
| 79>    C      -26.13198         1.37171         7.00705
| 80>    C      -25.03562         0.73046         6.46872
| 81>    F      -23.92288         1.46214         6.24135
| 82>    H       -2.10430         5.84090        -9.23660
| 83>    H       -2.66935         1.22418       -11.09430
| 84>    H       -0.71488         6.35398       -11.61944
| 85>    H       -5.33795         1.36326        -6.18093
| 86>    H       -4.82423         4.24801        -5.27221
| 87>    H       -6.08897         4.79164        -3.06098
| 88>    H       -7.71281         3.71058        -1.36744
| 89>    H       -9.31582         2.30669        -0.28906
| 90>    H      -10.80020         0.34024         0.48209
| 91>    H      -11.38579        -2.09957        -0.15267
| 92>    H       -9.54203        -3.27098        -2.31057
| 93>    H      -10.02254        -5.81989        -2.71391
| 94>    H      -11.73823        -7.64666        -2.09219
| 95>    H      -13.59469        -8.91344        -1.11108
| 96>    H      -15.81997        -9.58529         0.00153
| 97>    H      -17.74642        -8.61925         1.31762
| 98>    H      -16.76781        -4.84363         1.88577
| 99>    H      -16.96145        -2.75575         3.92791
|100>    H      -18.02777        -3.43099         5.16528
|101>    H      -18.20814        -1.74408         4.67069
|102>    H      -17.89928        -2.20280         1.61862
|103>    H      -19.14874        -1.19625         2.36363
|104>    H      -19.60483        -2.50826         1.27112
|105>    H      -21.12873        -1.36844         4.50469
|106>    H      -24.46856        -3.22861         5.39266
|107>    H      -23.01752        -0.53211         5.42520
|108>    H      -26.27482        -2.39711         6.18586
|109>    H      -28.16496         1.11735         7.67003
|110>    H      -26.07326         2.42529         7.22894
|111> *
|112>
|113>                          ****END OF INPUT****

CARTESIAN COORDINATES (ANGSTROEM)
---------------------------------
  C     -3.848570    1.797400   -8.467080
  C     -4.195110    0.469370   -8.604840
  C     -3.854220   -0.323950   -9.715700
  N     -3.610910   -1.025360  -10.593650
  C     -4.924680   -0.292520   -7.673020
  N     -5.509230   -0.993690   -6.973710
  C     -3.077300    2.564630   -9.446470
  C     -2.900740    3.878300   -8.950460
  C     -2.221440    4.848440   -9.642900
  C     -1.689950    4.507140  -10.892260
  C     -1.871200    3.193790  -11.379920
  C     -2.557990    2.210270  -10.675810
  S     -1.141560    2.986900  -12.944750
  C     -0.608530    4.646830  -12.918440
  C     -0.958850    5.322890  -11.799710
  Br     0.353020    5.334210  -14.376430
  C     -3.562460    3.991020   -7.631470
  O     -3.593360    4.987370   -6.932190
  C     -4.158390    2.670820   -7.371750
  C     -4.924380    2.361520   -6.255810
  C     -5.224190    3.245020   -5.234870
  C     -6.046790    2.921960   -4.161680
  C     -6.440670    3.777150   -3.120190
  C     -7.305520    3.201630   -2.222460
  C     -7.615440    1.868720   -2.520570
  S     -6.781430    1.348180   -3.961030
  C     -8.489100    1.019240   -1.832970
  C     -9.307260    1.332240   -0.742380
  C    -10.100040    0.284850   -0.332820
  C     -9.921000   -0.886840   -1.074000
  S     -8.717760   -0.638730   -2.316210
  C    -10.602310   -2.094680   -0.901180
  C    -10.354390   -3.250010   -1.595650
  C    -11.090760   -4.428690   -1.442140
  C    -10.853780   -5.665610   -2.049070
  C    -11.767510   -6.639970   -1.716150
  C    -12.767930   -6.194850   -0.846490
  S    -12.512350   -4.517660   -0.431830
  C    -13.872300   -6.893760   -0.356440
  C    -14.214940   -8.239460   -0.548400
  C    -15.397460   -8.597020    0.044820
  C    -16.051380   -7.548080    0.721950
  S    -15.085160   -6.090730    0.604610
  C    -17.281330   -7.641940    1.346030
  C    -18.011270   -6.629950    1.968560
  S    -19.622550   -7.018870    2.584100
  C    -19.845210   -5.392600    3.075390
  C    -18.725900   -4.592640    2.793410
  C    -17.703550   -5.279990    2.178850
  C    -18.964620   -3.166950    3.231360
  C    -17.974700   -2.746750    4.321480
  C    -18.900420   -2.204610    2.042230
  C    -20.368280   -3.279170    3.777110
  C    -20.838560   -4.593510    3.670630
  S    -22.436380   -4.762230    4.271840
  C    -22.483850   -3.053210    4.668000
  C    -21.294270   -2.416810    4.338930
  C    -23.669170   -2.517230    5.240320
  C    -23.834560   -1.221430    5.581320
  C    -25.024030   -0.635910    6.148770
  C    -26.202460   -1.344910    6.405170
  C    -27.295090   -0.698860    6.943040
  F    -28.415190   -1.412250    7.175910
  C    -27.288150    0.651480    7.251820
  C    -26.131980    1.371710    7.007050
  C    -25.035620    0.730460    6.468720
  F    -23.922880    1.462140    6.241350
  H     -2.104300    5.840900   -9.236600
  H     -2.669350    1.224180  -11.094300
  H     -0.714880    6.353980  -11.619440
  H     -5.337950    1.363260   -6.180930
  H     -4.824230    4.248010   -5.272210
  H     -6.088970    4.791640   -3.060980
  H     -7.712810    3.710580   -1.367440
  H     -9.315820    2.306690   -0.289060
  H    -10.800200    0.340240    0.482090
  H    -11.385790   -2.099570   -0.152670
  H     -9.542030   -3.270980   -2.310570
  H    -10.022540   -5.819890   -2.713910
  H    -11.738230   -7.646660   -2.092190
  H    -13.594690   -8.913440   -1.111080
  H    -15.819970   -9.585290    0.001530
  H    -17.746420   -8.619250    1.317620
  H    -16.767810   -4.843630    1.885770
  H    -16.961450   -2.755750    3.927910
  H    -18.027770   -3.430990    5.165280
  H    -18.208140   -1.744080    4.670690
  H    -17.899280   -2.202800    1.618620
  H    -19.148740   -1.196250    2.363630
  H    -19.604830   -2.508260    1.271120
  H    -21.128730   -1.368440    4.504690
  H    -24.468560   -3.228610    5.392660
  H    -23.017520   -0.532110    5.425200
  H    -26.274820   -2.397110    6.185860
  H    -28.164960    1.117350    7.670030
  H    -26.073260    2.425290    7.228940

 Total Charge           Charge          ....    0
 Multiplicity           Mult            ....    1
 Number of Electrons    NEL             ....  540
 Basis Dimension        Dim             .... 1129

ORBITAL ENERGIES
----------------

  NO   OCC          E(Eh)            E(eV)
   0   2.0000    -482.865606    -13139.4411
   1   2.0000     -88.980078     -2421.2710
   2   2.0000     -88.977216     -2421.1931
   3   2.0000     -88.970107     -2420.9997
   4   2.0000     -88.963485     -2420.8195
   5   2.0000     -88.954903     -2420.5860
   6   2.0000     -88.950682     -2420.4711
   7   2.0000     -88.943261     -2420.2692
   8   2.0000     -62.543334     -1701.8906
   9   2.0000     -56.377255     -1534.1031
  10   2.0000     -56.374593     -1534.0307
  11   2.0000     -56.374548     -1534.0294
  12   2.0000     -24.789081      -674.5452
  13   2.0000     -24.781235      -674.3317
  14   2.0000     -19.179311      -521.8956
  15   2.0000     -14.380901      -391.3242
  16   2.0000     -14.378963      -391.2715
  17   2.0000     -10.364438      -282.0307
  18   2.0000     -10.363338      -282.0008
  19   2.0000     -10.335366      -281.2396
  20   2.0000     -10.334594      -281.2186
  21   2.0000     -10.329372      -281.0765
  22   2.0000     -10.326085      -280.9871
  23   2.0000     -10.324875      -280.9541
  24   2.0000     -10.324761      -280.9510
  25   2.0000     -10.323181      -280.9080
  26   2.0000     -10.323086      -280.9055
  27   2.0000     -10.321684      -280.8673
  28   2.0000     -10.320366      -280.8314
  29   2.0000     -10.317552      -280.7549
  30   2.0000     -10.315426      -280.6970
  31   2.0000     -10.309619      -280.5390
  32   2.0000     -10.308470      -280.5077
  33   2.0000     -10.306320      -280.4492
  34   2.0000     -10.305285      -280.4211
  35   2.0000     -10.304442      -280.3981
  36   2.0000     -10.302667      -280.3498
  37   2.0000     -10.302588      -280.3477
  38   2.0000     -10.302340      -280.3409
  39   2.0000     -10.300308      -280.2856
  40   2.0000     -10.299253      -280.2569
  41   2.0000     -10.298980      -280.2495
  42   2.0000     -10.298934      -280.2482
  43   2.0000     -10.298637      -280.2402
  44   2.0000     -10.297226      -280.2018
  45   2.0000     -10.293806      -280.1087
  46   2.0000     -10.292548      -280.0745
  47   2.0000     -10.292513      -280.0735
  48   2.0000     -10.292503      -280.0732
  49   2.0000     -10.292411      -280.0707
  50   2.0000     -10.292359      -280.0693
  51   2.0000     -10.292348      -280.0690
  52   2.0000     -10.291969      -280.0587
  53   2.0000     -10.291185      -280.0374
  54   2.0000     -10.287701      -279.9426
  55   2.0000     -10.285920      -279.8941
  56   2.0000     -10.285378      -279.8794
  57   2.0000     -10.285270      -279.8764
  58   2.0000     -10.284559      -279.8571
  59   2.0000     -10.279032      -279.7067
  60   2.0000     -10.278807      -279.7006
  61   2.0000     -10.278442      -279.6906
  62   2.0000     -10.276205      -279.6298
  63   2.0000     -10.274574      -279.5854
  64   2.0000     -10.273623      -279.5595
  65   2.0000     -10.273468      -279.5553
  66   2.0000     -10.271066      -279.4899
  67   2.0000     -10.270727      -279.4807
  68   2.0000     -10.259832      -279.1842
  69   2.0000     -10.252089      -278.9735
  70   2.0000     -10.251123      -278.9472
  71   2.0000      -8.772765      -238.7191
  72   2.0000      -8.075085      -219.7342
  73   2.0000      -8.072316      -219.6589
  74   2.0000      -8.065884      -219.4839
  75   2.0000      -8.059809      -219.3186
  76   2.0000      -8.051013      -219.0792
  77   2.0000      -8.046719      -218.9624
  78   2.0000      -8.039173      -218.7570
  79   2.0000      -6.608952      -179.8387
  80   2.0000      -6.594527      -179.4462
  81   2.0000      -6.594403      -179.4428
  82   2.0000      -6.044411      -164.4768
  83   2.0000      -6.041577      -164.3997
  84   2.0000      -6.040455      -164.3691
  85   2.0000      -6.037611      -164.2917
  86   2.0000      -6.037037      -164.2761
  87   2.0000      -6.035502      -164.2344
  88   2.0000      -6.034408      -164.2046
  89   2.0000      -6.031422      -164.1233
  90   2.0000      -6.029333      -164.0665
  91   2.0000      -6.027163      -164.0075
  92   2.0000      -6.025332      -163.9576
  93   2.0000      -6.021137      -163.8435
  94   2.0000      -6.020489      -163.8258
  95   2.0000      -6.016457      -163.7161
  96   2.0000      -6.016397      -163.7145
  97   2.0000      -6.012465      -163.6075
  98   2.0000      -6.012174      -163.5996
  99   2.0000      -6.008647      -163.5036
 100   2.0000      -6.007924      -163.4839
 101   2.0000      -6.004637      -163.3945
 102   2.0000      -6.000622      -163.2852
 103   2.0000      -2.724822       -74.1462
 104   2.0000      -2.720777       -74.0361
 105   2.0000      -2.720722       -74.0346
 106   2.0000      -2.709227       -73.7218
 107   2.0000      -2.709219       -73.7216
 108   2.0000      -1.302317       -35.4378
 109   2.0000      -1.295773       -35.2598
 110   2.0000      -1.092378       -29.7251
 111   2.0000      -1.029129       -28.0040
 112   2.0000      -1.014621       -27.6092
 113   2.0000      -0.998718       -27.1765
 114   2.0000      -0.994437       -27.0600
 115   2.0000      -0.993444       -27.0330
 116   2.0000      -0.987843       -26.8806
 117   2.0000      -0.980430       -26.6789
 118   2.0000      -0.975722       -26.5507
 119   2.0000      -0.973208       -26.4823
 120   2.0000      -0.959720       -26.1153
 121   2.0000      -0.956086       -26.0164
 122   2.0000      -0.945045       -25.7160
 123   2.0000      -0.918099       -24.9827
 124   2.0000      -0.913483       -24.8571
 125   2.0000      -0.910871       -24.7860
 126   2.0000      -0.902478       -24.5577
 127   2.0000      -0.886963       -24.1355
 128   2.0000      -0.879434       -23.9306
 129   2.0000      -0.876836       -23.8599
 130   2.0000      -0.865850       -23.5610
 131   2.0000      -0.860754       -23.4223
 132   2.0000      -0.856741       -23.3131
 133   2.0000      -0.851468       -23.1696
 134   2.0000      -0.847981       -23.0747
 135   2.0000      -0.845671       -23.0119
 136   2.0000      -0.845520       -23.0078
 137   2.0000      -0.840523       -22.8718
 138   2.0000      -0.838990       -22.8301
 139   2.0000      -0.835643       -22.7390
 140   2.0000      -0.822942       -22.3934
 141   2.0000      -0.820523       -22.3276
 142   2.0000      -0.805432       -21.9169
 143   2.0000      -0.800777       -21.7903
 144   2.0000      -0.790388       -21.5075
 145   2.0000      -0.786117       -21.3913
 146   2.0000      -0.771844       -21.0029
 147   2.0000      -0.758983       -20.6530
 148   2.0000      -0.742975       -20.2174
 149   2.0000      -0.730370       -19.8744
 150   2.0000      -0.724782       -19.7223
 151   2.0000      -0.718864       -19.5613
 152   2.0000      -0.714968       -19.4553
 153   2.0000      -0.705060       -19.1857
 154   2.0000      -0.694876       -18.9085
 155   2.0000      -0.688588       -18.7374
 156   2.0000      -0.683255       -18.5923
 157   2.0000      -0.672059       -18.2876
 158   2.0000      -0.666009       -18.1230
 159   2.0000      -0.657858       -17.9012
 160   2.0000      -0.652244       -17.7485
 161   2.0000      -0.647698       -17.6248
 162   2.0000      -0.644775       -17.5452
 163   2.0000      -0.642083       -17.4720
 164   2.0000      -0.639249       -17.3948
 165   2.0000      -0.635326       -17.2881
 166   2.0000      -0.633487       -17.2381
 167   2.0000      -0.631048       -17.1717
 168   2.0000      -0.627609       -17.0781
 169   2.0000      -0.623230       -16.9589
 170   2.0000      -0.619221       -16.8499
 171   2.0000      -0.614601       -16.7242
 172   2.0000      -0.610447       -16.6111
 173   2.0000      -0.602418       -16.3926
 174   2.0000      -0.600711       -16.3462
 175   2.0000      -0.592789       -16.1306
 176   2.0000      -0.591789       -16.1034
 177   2.0000      -0.579353       -15.7650
 178   2.0000      -0.571720       -15.5573
 179   2.0000      -0.568522       -15.4703
 180   2.0000      -0.564790       -15.3687
 181   2.0000      -0.563875       -15.3438
 182   2.0000      -0.561598       -15.2819
 183   2.0000      -0.552969       -15.0470
 184   2.0000      -0.549216       -14.9449
 185   2.0000      -0.548483       -14.9250
 186   2.0000      -0.543184       -14.7808
 187   2.0000      -0.539451       -14.6792
 188   2.0000      -0.537665       -14.6306
 189   2.0000      -0.534621       -14.5478
 190   2.0000      -0.533144       -14.5076
 191   2.0000      -0.523178       -14.2364
 192   2.0000      -0.522256       -14.2113
 193   2.0000      -0.520296       -14.1580
 194   2.0000      -0.516102       -14.0439
 195   2.0000      -0.515448       -14.0260
 196   2.0000      -0.512826       -13.9547
 197   2.0000      -0.510848       -13.9009
 198   2.0000      -0.507823       -13.8186
 199   2.0000      -0.506858       -13.7923
 200   2.0000      -0.505529       -13.7561
 201   2.0000      -0.504200       -13.7200
 202   2.0000      -0.499444       -13.5906
 203   2.0000      -0.499125       -13.5819
 204   2.0000      -0.494949       -13.4682
 205   2.0000      -0.494641       -13.4599
 206   2.0000      -0.489916       -13.3313
 207   2.0000      -0.489644       -13.3239
 208   2.0000      -0.486236       -13.2311
 209   2.0000      -0.482478       -13.1289
 210   2.0000      -0.480421       -13.0729
 211   2.0000      -0.477664       -12.9979
 212   2.0000      -0.477038       -12.9809
 213   2.0000      -0.475166       -12.9299
 214   2.0000      -0.472214       -12.8496
 215   2.0000      -0.469092       -12.7646
 216   2.0000      -0.467531       -12.7222
 217   2.0000      -0.464946       -12.6518
 218   2.0000      -0.464133       -12.6297
 219   2.0000      -0.463762       -12.6196
 220   2.0000      -0.463095       -12.6014
 221   2.0000      -0.458666       -12.4809
 222   2.0000      -0.455915       -12.4061
 223   2.0000      -0.455454       -12.3935
 224   2.0000      -0.454825       -12.3764
 225   2.0000      -0.447445       -12.1756
 226   2.0000      -0.442245       -12.0341
 227   2.0000      -0.441922       -12.0253
 228   2.0000      -0.441465       -12.0129
 229   2.0000      -0.440028       -11.9738
 230   2.0000      -0.436057       -11.8657
 231   2.0000      -0.434093       -11.8123
 232   2.0000      -0.430353       -11.7105
 233   2.0000      -0.424980       -11.5643
 234   2.0000      -0.424653       -11.5554
 235   2.0000      -0.419861       -11.4250
 236   2.0000      -0.419693       -11.4204
 237   2.0000      -0.418006       -11.3745
 238   2.0000      -0.417500       -11.3607
 239   2.0000      -0.413694       -11.2572
 240   2.0000      -0.412351       -11.2206
 241   2.0000      -0.411450       -11.1961
 242   2.0000      -0.410299       -11.1648
 243   2.0000      -0.398184       -10.8351
 244   2.0000      -0.396805       -10.7976
 245   2.0000      -0.393670       -10.7123
 246   2.0000      -0.390137       -10.6162
 247   2.0000      -0.386185       -10.5086
 248   2.0000      -0.375496       -10.2178
 249   2.0000      -0.374042       -10.1782
 250   2.0000      -0.364079        -9.9071
 251   2.0000      -0.357960        -9.7406
 252   2.0000      -0.355445        -9.6722
 253   2.0000      -0.353535        -9.6202
 254   2.0000      -0.345582        -9.4038
 255   2.0000      -0.343263        -9.3407
 256   2.0000      -0.338863        -9.2209
 257   2.0000      -0.336894        -9.1674
 258   2.0000      -0.335822        -9.1382
 259   2.0000      -0.331303        -9.0152
 260   2.0000      -0.322865        -8.7856
 261   2.0000      -0.318513        -8.6672
 262   2.0000      -0.308511        -8.3950
 263   2.0000      -0.300167        -8.1680
 264   2.0000      -0.288787        -7.8583
 265   2.0000      -0.286815        -7.8046
 266   2.0000      -0.267672        -7.2837
 267   2.0000      -0.260145        -7.0789
 268   2.0000      -0.235060        -6.3963
 269   2.0000      -0.191747        -5.2177
 270   0.0000      -0.123222        -3.3530
 271   0.0000      -0.075199        -2.0463
 272   0.0000      -0.053306        -1.4505
 273   0.0000      -0.037260        -1.0139
 274   0.0000      -0.023955        -0.6518

MULLIKEN ATOMIC CHARGES
-----------------------
   0 C :    0.330506
   1 C :   -0.379169
   2 C :   -0.189867
   3 N :    0.120710
   4 C :   -0.190024
   5 N :    0.120406
   6 C :    0.011668
   7 C :   -0.001534
   8 C :   -0.085958
   9 C :    0.118375
  10 C :   -0.091540
  11 C :   -0.030718
  12 S :    0.171178
  13 C :   -0.124804
  14 C :    0.036396
  15 Br:    0.003902
  16 C :    0.131339
  17 O :   -0.176340
  18 C :   -0.100852
  19 C :   -0.039148
  20 C :   -0.024815
  21 C :    0.001430
  22 C :    0.014841
  23 C :    0.034712
  24 C :   -0.056146
  25 S :    0.112076
  26 C :   -0.025666
  27 C :    0.005832
  28 C :    0.036540
  29 C :   -0.045146
  30 S :    0.121762
  31 C :    0.013734
  32 C :   -0.017457
  33 C :   -0.016280
  34 C :    0.020261
  35 C :    0.031625
  36 C :   -0.052407
  37 S :    0.086168
  38 C :   -0.013078
  39 C :    0.014976
  40 C :    0.043951
  41 C :   -0.050946
  42 S :    0.065919
  43 C :    0.056051
  44 C :   -0.108588
  45 S :    0.154504
  46 C :   -0.072779
  47 C :   -0.005215
  48 C :   -0.025251
  49 C :   -0.110704
  50 C :    0.106782
  51 C :    0.103893
  52 C :    0.012990
  53 C :   -0.095410
  54 S :    0.155949
  55 C :   -0.079215
  56 C :   -0.037063
  57 C :    0.071264
  58 C :   -0.013651
  59 C :    0.033023
  60 C :   -0.093221
  61 C :    0.301197
  62 F :   -0.198680
  63 C :   -0.049896
  64 C :   -0.034231
  65 C :    0.242985
  66 F :   -0.197868
  67 H :   -0.021323
  68 H :   -0.013521
  69 H :   -0.010729
  70 H :    0.006000
  71 H :    0.009670
  72 H :   -0.009072
  73 H :   -0.014433
  74 H :   -0.014474
  75 H :   -0.011577
  76 H :   -0.002079
  77 H :    0.006063
  78 H :   -0.001488
  79 H :   -0.007553
  80 H :   -0.007124
  81 H :   -0.005023
  82 H :   -0.006635
  83 H :   -0.004121
  84 H :    0.013966
  85 H :    0.023324
  86 H :    0.013497
  87 H :    0.014175
  88 H :    0.014329
  89 H :    0.024182
  90 H :   -0.018011
  91 H :   -0.017975
  92 H :   -0.008014
  93 H :   -0.012081
  94 H :    0.003728
  95 H :    0.003022
Sum of atomic charges:   -0.0000000

LOEWDIN ATOMIC CHARGES
----------------------
   0 C :    0.070309
   1 C :   -0.170909
   2 C :   -0.019182
   3 N :   -0.084066
   4 C :   -0.020731
   5 N :   -0.081262
   6 C :   -0.015181
   7 C :   -0.046604
   8 C :    0.012328
   9 C :   -0.039603
  10 C :   -0.147683
  11 C :   -0.017925
  12 S :    0.420896
  13 C :   -0.278737
  14 C :   -0.071495
  15 Br:    0.121537
  16 C :    0.079137
  17 O :   -0.168320
  18 C :   -0.120655
  19 C :    0.038249
  20 C :   -0.078325
  21 C :   -0.109835
  22 C :   -0.055951
  23 C :   -0.017265
  24 C :   -0.204779
  25 S :    0.418396
  26 C :   -0.147180
  27 C :   -0.055296
  28 C :   -0.021673
  29 C :   -0.172581
  30 S :    0.415853
  31 C :   -0.024829
  32 C :   -0.075046
  33 C :   -0.125863
  34 C :   -0.045935
  35 C :   -0.018977
  36 C :   -0.194002
  37 S :    0.392989
  38 C :   -0.153661
  39 C :   -0.050036
  40 C :   -0.014402
  41 C :   -0.166820
  42 S :    0.403060
  43 C :   -0.042381
  44 C :   -0.173833
  45 S :    0.439920
  46 C :   -0.177508
  47 C :   -0.034838
  48 C :   -0.046713
  49 C :   -0.035577
  50 C :   -0.022636
  51 C :   -0.023011
  52 C :   -0.024076
  53 C :   -0.204612
  54 S :    0.442865
  55 C :   -0.155251
  56 C :   -0.051800
  57 C :   -0.035015
  58 C :   -0.014699
  59 C :   -0.044965
  60 C :   -0.035951
  61 C :    0.080415
  62 F :   -0.073828
  63 C :   -0.039683
  64 C :   -0.035886
  65 C :    0.081788
  66 F :   -0.072696
  67 H :    0.036504
  68 H :    0.038814
  69 H :    0.035826
  70 H :    0.029373
  71 H :    0.036220
  72 H :    0.035096
  73 H :    0.031493
  74 H :    0.031382
  75 H :    0.033757
  76 H :    0.029159
  77 H :    0.033546
  78 H :    0.038022
  79 H :    0.034767
  80 H :    0.034502
  81 H :    0.036606
  82 H :    0.038302
  83 H :    0.018166
  84 H :    0.025169
  85 H :    0.031026
  86 H :    0.025231
  87 H :    0.025395
  88 H :    0.025316
  89 H :    0.031374
  90 H :    0.031508
  91 H :    0.026223
  92 H :    0.029220
  93 H :    0.036666
  94 H :    0.041121
  95 H :    0.042245

  Mayer bond orders larger than 0.100000
B(  0-C ,  1-C ) :   1.5472 B(  0-C ,  6-C ) :   0.9783 B(  0-C , 18-C ) :   1.1507
B(  1-C ,  2-C ) :   1.1550 B(  1-C ,  4-C ) :   1.1604 B(  2-C ,  3-N ) :   2.9552
B(  4-C ,  5-N ) :   2.9533 B(  6-C ,  7-C ) :   1.2829 B(  6-C , 11-C ) :   1.4271
B(  7-C ,  8-C ) :   1.4341 B(  7-C , 16-C ) :   0.9313 B(  8-C ,  9-C ) :   1.2307
B(  8-C , 67-H ) :   1.0168 B(  9-C , 10-C ) :   1.3273 B(  9-C , 14-C ) :   1.1582
B( 10-C , 11-C ) :   1.3108 B( 10-C , 12-S ) :   1.0794 B( 11-C , 68-H ) :   0.9796
B( 12-S , 13-C ) :   1.0850 B( 13-C , 14-C ) :   1.6216 B( 13-C , 15-Br) :   1.0072
B( 14-C , 69-H ) :   1.0000 B( 16-C , 17-O ) :   2.1712 B( 16-C , 18-C ) :   0.9834
B( 18-C , 19-C ) :   1.3992 B( 19-C , 20-C ) :   1.3413 B( 19-C , 70-H ) :   0.9443
B( 20-C , 21-C ) :   1.3300 B( 20-C , 71-H ) :   0.9771 B( 21-C , 22-C ) :   1.2491
B( 21-C , 25-S ) :   1.0986 B( 22-C , 23-C ) :   1.4543 B( 22-C , 72-H ) :   1.0017
B( 23-C , 24-C ) :   1.2977 B( 23-C , 73-H ) :   0.9957 B( 24-C , 25-S ) :   1.0621
B( 24-C , 26-C ) :   1.3397 B( 26-C , 27-C ) :   1.2946 B( 26-C , 30-S ) :   1.1054
B( 27-C , 28-C ) :   1.4562 B( 27-C , 74-H ) :   0.9958 B( 28-C , 29-C ) :   1.2616
B( 28-C , 75-H ) :   1.0008 B( 29-C , 30-S ) :   1.0537 B( 29-C , 31-C ) :   1.4004
B( 31-C , 32-C ) :   1.3374 B( 31-C , 76-H ) :   0.9702 B( 32-C , 33-C ) :   1.3875
B( 32-C , 77-H ) :   0.9758 B( 33-C , 34-C ) :   1.2561 B( 33-C , 37-S ) :   1.0824
B( 34-C , 35-C ) :   1.4675 B( 34-C , 78-H ) :   1.0018 B( 35-C , 36-C ) :   1.2860
B( 35-C , 79-H ) :   0.9951 B( 36-C , 37-S ) :   1.0560 B( 36-C , 38-C ) :   1.3788
B( 38-C , 39-C ) :   1.2567 B( 38-C , 42-S ) :   1.0808 B( 39-C , 40-C ) :   1.5145
B( 39-C , 80-H ) :   0.9953 B( 40-C , 41-C ) :   1.2013 B( 40-C , 81-H ) :   0.9997
B( 41-C , 42-S ) :   1.0386 B( 41-C , 43-C ) :   1.5182 B( 43-C , 44-C ) :   1.2382
B( 43-C , 82-H ) :   0.9516 B( 44-C , 45-S ) :   1.0738 B( 44-C , 48-C ) :   1.3591
B( 45-S , 46-C ) :   1.1033 B( 46-C , 47-C ) :   1.4682 B( 46-C , 53-C ) :   1.2087
B( 47-C , 48-C ) :   1.4058 B( 47-C , 49-C ) :   0.9366 B( 48-C , 83-H ) :   0.9757
B( 49-C , 50-C ) :   1.0327 B( 49-C , 51-C ) :   1.0373 B( 49-C , 52-C ) :   0.9414
B( 50-C , 84-H ) :   0.9647 B( 50-C , 85-H ) :   0.9641 B( 50-C , 86-H ) :   0.9647
B( 51-C , 87-H ) :   0.9641 B( 51-C , 88-H ) :   0.9643 B( 51-C , 89-H ) :   0.9645
B( 52-C , 53-C ) :   1.4980 B( 52-C , 56-C ) :   1.3361 B( 53-C , 54-S ) :   1.0768
B( 54-S , 55-C ) :   1.1170 B( 55-C , 56-C ) :   1.4465 B( 55-C , 57-C ) :   1.1210
B( 56-C , 90-H ) :   0.9999 B( 57-C , 58-C ) :   1.6995 B( 57-C , 91-H ) :   0.9531
B( 58-C , 59-C ) :   1.0899 B( 58-C , 92-H ) :   0.9805 B( 59-C , 60-C ) :   1.2935
B( 59-C , 65-C ) :   1.3114 B( 60-C , 61-C ) :   1.3780 B( 60-C , 93-H ) :   0.9959
B( 61-C , 62-F ) :   1.0851 B( 61-C , 63-C ) :   1.3603 B( 63-C , 64-C ) :   1.3252
B( 63-C , 94-H ) :   0.9962 B( 64-C , 65-C ) :   1.3891 B( 64-C , 95-H ) :   0.9917
B( 65-C , 66-F ) :   1.0919

-----------------------------------------------------------------------------
         ABSORPTION SPECTRUM VIA TRANSITION ELECTRIC DIPOLE MOMENTS
-----------------------------------------------------------------------------
State   Energy  Wavelength   fosc         T2         TX        TY        TZ
        (cm-1)    (nm)                  (au**2)     (au)      (au)      (au)
-----------------------------------------------------------------------------
   0    4254.8   2350.3   0.837100012  64.77041   6.10411   3.36525  -4.02311
   1   11891.7    840.9   0.054545914   1.51006   1.10732  -0.13401  -0.51570
   2   14606.6    684.6   0.249499785   5.62336   1.77773  -1.42610   0.65519
   3   18040.8    554.3   0.010137293   0.18499   0.16735   0.39481   0.03321
   4   20000.4    500.0   1.025743621  16.88399  -1.58774   3.09078   2.19320
   5   21174.5    472.3   0.470107472   7.30904   1.48170  -1.68431  -1.50888
   6   22484.1    444.8   0.240194908   3.51693   1.24426  -0.38821  -1.34835
   7   23529.3    425.0   0.070666429   0.98874   0.05334  -0.93495  -0.33429
   8   23850.3    419.3   0.483766057   6.67754   0.83170  -2.21664  -1.03552
   9   25829.9    387.1   0.001333031   0.01699   0.05322   0.00352  -0.11893
  10   26191.5    381.8   0.125861145   1.58200  -0.56751   0.22104   1.10049
  11   26717.7    374.3   0.064184140   0.79087  -0.48835  -0.08995   0.73776
  12   27780.1    360.0   0.030481238   0.36122   0.33197  -0.27348  -0.41979
  13   28003.4    357.1   0.118080178   1.38817  -1.06136   0.26830   0.43555
  14   28597.5    349.7   0.015485800   0.17827   0.22028  -0.01431   0.35992
  15   29449.5    339.6   0.010255108   0.11464   0.07318  -0.15429  -0.29237
  16   29712.1    336.6   0.003759830   0.04166  -0.20123  -0.03414  -0.00069
  17   30628.8    326.5   0.005436769   0.05844  -0.17340  -0.02999   0.16574
  18   31135.0    321.2   0.054527572   0.57656   0.37311   0.48796  -0.44637
  19   31305.1    319.4   0.288212777   3.03091  -0.59676  -1.21846   1.09093
  20   31613.6    316.3   0.000796485   0.00829   0.05268   0.03558  -0.06521
  21   31845.1    314.0   0.075508063   0.78060   0.49115   0.30662  -0.66734
  22   31988.1    312.6   0.001144137   0.01178  -0.03006  -0.08733   0.05696
  23   32069.9    311.8   0.026808378   0.27520  -0.00212   0.52105  -0.06086
  24   32687.2    305.9   0.156736948   1.57859  -0.79379   0.06762   0.97155
  25   32938.7    303.6   0.012897776   0.12891   0.07260   0.28103  -0.21133
  26   33731.5    296.5   0.141385191   1.37989  -0.81996  -0.71647   0.44072
  27   33772.3    296.1   0.044645073   0.43520  -0.47832  -0.38919   0.23440
  28   33837.3    295.5   0.017005207   0.16545   0.23145   0.13814  -0.30462
  29   34289.3    291.6   0.007238264   0.06949  -0.03624  -0.22365   0.13477
  30   34442.4    290.3   0.036096586   0.34502   0.16793  -0.48198  -0.29072
  31   34780.8    287.5   0.023004268   0.21774   0.33797  -0.19834  -0.25333
  32   35064.0    285.2   0.001565079   0.01469  -0.03102  -0.09995  -0.06118
  33   35829.5    279.1   0.089125104   0.81891   0.16523   0.88551  -0.08644
  34   35940.2    278.2   0.216198692   1.98038   0.73927   1.11031  -0.44841
  35   36316.9    275.4   0.001108511   0.01005  -0.08027  -0.01619   0.05782
  36   36610.6    273.1   0.007409518   0.06663   0.23372   0.07382  -0.08095
  37   37402.2    267.4   0.122062090   1.07438  -0.17341   0.96596   0.33352
  38   37642.9    265.7   0.094253030   0.82430   0.39486   0.77486  -0.26072
  39   38261.2    261.4   0.042891381   0.36905  -0.54698   0.10739   0.24153
  40   38374.2    260.6   0.033052380   0.28356   0.33896  -0.23078  -0.33971
  41   38694.3    258.4   0.000452346   0.00385   0.00309  -0.02453  -0.05690
  42   38990.1    256.5   0.016453198   0.13892   0.27513  -0.14436  -0.20588
  43   39239.4    254.8   0.001360047   0.01141   0.04031   0.07719   0.06186
  44   39641.8    252.3   0.127780004   1.06117  -0.03352   0.86025   0.56570
  45   40128.0    249.2   0.012025219   0.09866   0.04007  -0.15799   0.26849
  46   40194.4    248.8   0.012235916   0.10022  -0.07020   0.07816   0.29863

FINAL SINGLE POINT ENERGY     -7816.855050904684

DIPOLE MOMENT
-------------
                                X             Y             Z
Electronic contribution:    148.53430      70.62093    -156.98136
Nuclear contribution   :   -155.21383     -72.68065     163.00353
                        -----------------------------------------
Total Dipole Moment    :     -6.67953      -2.05971       6.02217
                        -----------------------------------------
Magnitude (a.u.)       :      9.22633
Magnitude (Debye)      :     23.45146

Rotational constants in cm-1:     0.001403     0.000128     0.000121
Rotational constants in MHz :    42.074370     3.829430     3.617664

                             ****ORCA TERMINATED NORMALLY****
TOTAL RUN TIME: 0 days 0 hours 10 minutes 1 seconds 978 msec
