                         Program Version 4.2.0 -  RELEASE  -
|  1> # ORCA input file
|  2> # SCF done       -193.230476827575          0.000779707282
|  3> ! CAM-B3LYP def2-SVP def2/J RIJCOSX Grid4 TightSCF
|  4> %maxcore 5000
|  5> %tddft
|  6>     Mode sTDDFT
|  7>     Ethresh 5.0
|  8>     maxcore 5000
|  9> end
| 10>
| 11> %pal
| 12>   nprocs 6
| 13>   end
| 14> * xyz 0 1
| 15>    C       -9.11016       -11.41385         3.43702
| 16>    C       -9.35917       -11.09909         2.11691
| 17>    C       -8.87289       -11.83864         1.02360
| 18>    N       -8.50452       -12.39112         0.08488
| 19>    C      -10.14692       -10.02557         1.66148
| 20>    N      -10.78157        -9.18888         1.19240
| 21>    C       -8.33955       -12.57372         3.88769
| 22>    C       -8.36091       -12.60497         5.30243
| 23>    C       -7.72331       -13.57581         6.03244
| 24>    C       -7.02400       -14.56603         5.33169
| 25>    C       -7.00619       -14.52538         3.91992
| 26>    C       -7.65596       -13.54265         3.18048
| 27>    S       -6.07949       -15.83789         3.25431
| 28>    C       -5.73535       -16.41410         4.86345
| 29>    C       -6.28330       -15.66519         5.84843
| 30>   Br       -4.68088       -17.95031         5.09100
| 31>    C       -9.13986       -11.44795         5.80023
| 32>    O       -9.35865       -11.18547         6.96900
| 33>    C       -9.56212       -10.70864         4.60099
| 34>    C      -10.22341        -9.48776         4.62233
| 35>    C      -10.62666        -8.82468         5.76707
| 36>    C      -11.18303        -7.55075         5.75408
| 37>    C      -11.56168        -6.78759         6.87118
| 38>    C      -12.00020        -5.52417         6.56249
| 39>    C      -11.99135        -5.24818         5.18876
| 40>    S      -11.43874        -6.63684         4.28591
| 41>    C      -12.28632        -4.04122         4.55038
| 42>    C      -12.59318        -2.80519         5.13186
| 43>    C      -12.69470        -1.78397         4.21783
| 44>    C      -12.51097        -2.17890         2.88558
| 45>    S      -12.20339        -3.89713         2.81587
| 46>    C      -12.37621        -1.30786         1.79791
| 47>    C      -12.27261        -1.60058         0.45747
| 48>    C      -12.70595        -2.73462        -0.24086
| 49>    C      -12.33391        -3.06628        -1.55339
| 50>    C      -13.00388        -4.14089        -2.07860
| 51>    C      -13.97947        -4.66517        -1.21606
| 52>    S      -13.96624        -3.80749         0.30765
| 53>    C      -14.91403        -5.65597        -1.48567
| 54>    C      -15.01721        -6.44781        -2.65068
| 55>    C      -16.09691        -7.27475        -2.66236
| 56>    C      -16.93006        -7.16607        -1.51411
| 57>    S      -16.21522        -6.01652        -0.38197
| 58>    C      -18.15707        -7.73926        -1.36762
| 59>    C      -19.02310        -7.58492        -0.23074
| 60>    C      -18.49306        -7.55688         1.03234
| 61>    S      -19.63896        -7.40066         2.29098
| 62>    C      -20.91517        -7.31678         1.11491
| 63>    C      -20.46701        -7.43452        -0.21019
| 64>    C      -21.41285        -7.29127        -1.25739
| 65>    C      -20.94336        -7.32997        -2.68968
| 66>    C      -20.26483        -6.01596        -3.08189
| 67>    C      -22.75125        -7.05452        -0.96848
| 68>    C      -23.75515        -6.81637        -2.06763
| 69>    C      -24.35141        -8.12598        -2.59130
| 70>    C      -23.20097        -7.01006         0.37294
| 71>    C      -24.51648        -6.77184         0.92195
| 72>    C      -24.48856        -6.69055         2.28225
| 73>    S      -22.93831        -6.92180         2.98622
| 74>    C      -22.25477        -7.11842         1.40324
| 75>    C      -25.77619        -6.65835         0.21013
| 76>    C      -26.73358        -5.77325         0.53341
| 77>    C      -27.98967        -5.67875        -0.14566
| 78>    O      -28.26278        -6.54394        -1.17928
| 79>    C      -29.48534        -6.20546        -1.62261
| 80>    C      -30.45965        -6.54898        -2.59470
| 81>    C      -30.42522        -7.60299        -3.62747
| 82>    O      -31.32006        -7.79222        -4.42189
| 83>    N      -29.28631        -8.33741        -3.60559
| 84>    C      -31.48103        -5.65568        -2.36064
| 85>    O      -31.22291        -4.80675        -1.34516
| 86>    C      -29.99930        -5.14044        -0.89061
| 87>    C      -29.03031        -4.79497         0.06917
| 88>    H       -7.75801       -13.57222         7.11067
| 89>    H       -7.60929       -13.55591         2.10453
| 90>    H       -6.17112       -15.87592         6.89638
| 91>    H      -10.41387        -8.99607         3.67579
| 92>    H      -10.47576        -9.29428         6.72829
| 93>    H      -11.48856        -7.17853         7.87032
| 94>    H      -12.31842        -4.80129         7.29209
| 95>    H      -12.70605        -2.67810         6.19309
| 96>    H      -12.89849        -0.76044         4.48040
| 97>    H      -12.24113        -0.26899         2.07649
| 98>    H      -11.84092        -0.83040        -0.17149
| 99>    H      -11.56852        -2.51961        -2.07590
|100>    H      -12.83260        -4.53557        -3.06347
|101>    H      -14.29598        -6.38373        -3.44510
|102>    H      -16.34235        -7.94516        -3.46685
|103>    H      -18.49178        -8.35169        -2.19062
|104>    H      -17.46127        -7.69053         1.29220
|105>    H      -21.77619        -7.50981        -3.36426
|106>    H      -20.25774        -8.16356        -2.82690
|107>    H      -19.42103        -5.80371        -2.43068
|108>    H      -20.97008        -5.19154        -3.00207
|109>    H      -19.90584        -6.06641        -4.10739
|110>    H      -23.29598        -6.27053        -2.89166
|111>    H      -24.55204        -6.18168        -1.67899
|112>    H      -23.59273        -8.73144        -3.08181
|113>    H      -25.14290        -7.91887        -3.30869
|114>    H      -24.76148        -8.71735        -1.77559
|115>    H      -25.33242        -6.54674         2.92852
|116>    H      -25.96792        -7.35763        -0.58881
|117>    H      -26.58077        -5.04974         1.32039
|118>    H      -28.56852        -8.18053        -2.92083
|119>    H      -29.18450        -9.09144        -4.26329
|120>    H      -32.42058        -5.55526        -2.86612
|121>    H      -29.06641        -4.02482         0.81027
|122> *
|123>
|124>                          ****END OF INPUT****

CARTESIAN COORDINATES (ANGSTROEM)
---------------------------------
  C     -9.110160  -11.413850    3.437020
  C     -9.359170  -11.099090    2.116910
  C     -8.872890  -11.838640    1.023600
  N     -8.504520  -12.391120    0.084880
  C    -10.146920  -10.025570    1.661480
  N    -10.781570   -9.188880    1.192400
  C     -8.339550  -12.573720    3.887690
  C     -8.360910  -12.604970    5.302430
  C     -7.723310  -13.575810    6.032440
  C     -7.024000  -14.566030    5.331690
  C     -7.006190  -14.525380    3.919920
  C     -7.655960  -13.542650    3.180480
  S     -6.079490  -15.837890    3.254310
  C     -5.735350  -16.414100    4.863450
  C     -6.283300  -15.665190    5.848430
  Br    -4.680880  -17.950310    5.091000
  C     -9.139860  -11.447950    5.800230
  O     -9.358650  -11.185470    6.969000
  C     -9.562120  -10.708640    4.600990
  C    -10.223410   -9.487760    4.622330
  C    -10.626660   -8.824680    5.767070
  C    -11.183030   -7.550750    5.754080
  C    -11.561680   -6.787590    6.871180
  C    -12.000200   -5.524170    6.562490
  C    -11.991350   -5.248180    5.188760
  S    -11.438740   -6.636840    4.285910
  C    -12.286320   -4.041220    4.550380
  C    -12.593180   -2.805190    5.131860
  C    -12.694700   -1.783970    4.217830
  C    -12.510970   -2.178900    2.885580
  S    -12.203390   -3.897130    2.815870
  C    -12.376210   -1.307860    1.797910
  C    -12.272610   -1.600580    0.457470
  C    -12.705950   -2.734620   -0.240860
  C    -12.333910   -3.066280   -1.553390
  C    -13.003880   -4.140890   -2.078600
  C    -13.979470   -4.665170   -1.216060
  S    -13.966240   -3.807490    0.307650
  C    -14.914030   -5.655970   -1.485670
  C    -15.017210   -6.447810   -2.650680
  C    -16.096910   -7.274750   -2.662360
  C    -16.930060   -7.166070   -1.514110
  S    -16.215220   -6.016520   -0.381970
  C    -18.157070   -7.739260   -1.367620
  C    -19.023100   -7.584920   -0.230740
  C    -18.493060   -7.556880    1.032340
  S    -19.638960   -7.400660    2.290980
  C    -20.915170   -7.316780    1.114910
  C    -20.467010   -7.434520   -0.210190
  C    -21.412850   -7.291270   -1.257390
  C    -20.943360   -7.329970   -2.689680
  C    -20.264830   -6.015960   -3.081890
  C    -22.751250   -7.054520   -0.968480
  C    -23.755150   -6.816370   -2.067630
  C    -24.351410   -8.125980   -2.591300
  C    -23.200970   -7.010060    0.372940
  C    -24.516480   -6.771840    0.921950
  C    -24.488560   -6.690550    2.282250
  S    -22.938310   -6.921800    2.986220
  C    -22.254770   -7.118420    1.403240
  C    -25.776190   -6.658350    0.210130
  C    -26.733580   -5.773250    0.533410
  C    -27.989670   -5.678750   -0.145660
  O    -28.262780   -6.543940   -1.179280
  C    -29.485340   -6.205460   -1.622610
  C    -30.459650   -6.548980   -2.594700
  C    -30.425220   -7.602990   -3.627470
  O    -31.320060   -7.792220   -4.421890
  N    -29.286310   -8.337410   -3.605590
  C    -31.481030   -5.655680   -2.360640
  O    -31.222910   -4.806750   -1.345160
  C    -29.999300   -5.140440   -0.890610
  C    -29.030310   -4.794970    0.069170
  H     -7.758010  -13.572220    7.110670
  H     -7.609290  -13.555910    2.104530
  H     -6.171120  -15.875920    6.896380
  H    -10.413870   -8.996070    3.675790
  H    -10.475760   -9.294280    6.728290
  H    -11.488560   -7.178530    7.870320
  H    -12.318420   -4.801290    7.292090
  H    -12.706050   -2.678100    6.193090
  H    -12.898490   -0.760440    4.480400
  H    -12.241130   -0.268990    2.076490
  H    -11.840920   -0.830400   -0.171490
  H    -11.568520   -2.519610   -2.075900
  H    -12.832600   -4.535570   -3.063470
  H    -14.295980   -6.383730   -3.445100
  H    -16.342350   -7.945160   -3.466850
  H    -18.491780   -8.351690   -2.190620
  H    -17.461270   -7.690530    1.292200
  H    -21.776190   -7.509810   -3.364260
  H    -20.257740   -8.163560   -2.826900
  H    -19.421030   -5.803710   -2.430680
  H    -20.970080   -5.191540   -3.002070
  H    -19.905840   -6.066410   -4.107390
  H    -23.295980   -6.270530   -2.891660
  H    -24.552040   -6.181680   -1.678990
  H    -23.592730   -8.731440   -3.081810
  H    -25.142900   -7.918870   -3.308690
  H    -24.761480   -8.717350   -1.775590
  H    -25.332420   -6.546740    2.928520
  H    -25.967920   -7.357630   -0.588810
  H    -26.580770   -5.049740    1.320390
  H    -28.568520   -8.180530   -2.920830
  H    -29.184500   -9.091440   -4.263290
  H    -32.420580   -5.555260   -2.866120
  H    -29.066410   -4.024820    0.810270

 Total Charge           Charge          ....    0
 Multiplicity           Mult            ....    1
 Number of Electrons    NEL             ....  582
 Basis Dimension        Dim             .... 1238

ORBITAL ENERGIES
----------------

  NO   OCC          E(Eh)            E(eV)
   0   2.0000    -482.868608    -13139.5228
   1   2.0000     -88.964378     -2420.8438
   2   2.0000     -88.964103     -2420.8363
   3   2.0000     -88.960937     -2420.7502
   4   2.0000     -88.958555     -2420.6853
   5   2.0000     -88.954754     -2420.5819
   6   2.0000     -88.954204     -2420.5669
   7   2.0000     -88.946398     -2420.3545
   8   2.0000     -62.546305     -1701.9715
   9   2.0000     -56.380231     -1534.1841
  10   2.0000     -56.377564     -1534.1115
  11   2.0000     -56.377519     -1534.1103
  12   2.0000     -19.306775      -525.3640
  13   2.0000     -19.305151      -525.3199
  14   2.0000     -19.183323      -522.0047
  15   2.0000     -19.171566      -521.6848
  16   2.0000     -14.426444      -392.5635
  17   2.0000     -14.385475      -391.4487
  18   2.0000     -14.383477      -391.3943
  19   2.0000     -10.373190      -282.2688
  20   2.0000     -10.342902      -281.4447
  21   2.0000     -10.339849      -281.3616
  22   2.0000     -10.337938      -281.3096
  23   2.0000     -10.335147      -281.2336
  24   2.0000     -10.333484      -281.1884
  25   2.0000     -10.331135      -281.1245
  26   2.0000     -10.328678      -281.0576
  27   2.0000     -10.324367      -280.9403
  28   2.0000     -10.323547      -280.9180
  29   2.0000     -10.322634      -280.8931
  30   2.0000     -10.320298      -280.8296
  31   2.0000     -10.309789      -280.5436
  32   2.0000     -10.308780      -280.5162
  33   2.0000     -10.308122      -280.4983
  34   2.0000     -10.307789      -280.4892
  35   2.0000     -10.307378      -280.4780
  36   2.0000     -10.307038      -280.4688
  37   2.0000     -10.305951      -280.4392
  38   2.0000     -10.305941      -280.4389
  39   2.0000     -10.305896      -280.4377
  40   2.0000     -10.303275      -280.3664
  41   2.0000     -10.302021      -280.3322
  42   2.0000     -10.300890      -280.3015
  43   2.0000     -10.300690      -280.2960
  44   2.0000     -10.300440      -280.2892
  45   2.0000     -10.298631      -280.2400
  46   2.0000     -10.297677      -280.2140
  47   2.0000     -10.293350      -280.0963
  48   2.0000     -10.291748      -280.0527
  49   2.0000     -10.291335      -280.0414
  50   2.0000     -10.291150      -280.0364
  51   2.0000     -10.290631      -280.0223
  52   2.0000     -10.289496      -279.9914
  53   2.0000     -10.289399      -279.9888
  54   2.0000     -10.289377      -279.9882
  55   2.0000     -10.289245      -279.9846
  56   2.0000     -10.289094      -279.9805
  57   2.0000     -10.286662      -279.9143
  58   2.0000     -10.286353      -279.9059
  59   2.0000     -10.285400      -279.8800
  60   2.0000     -10.284757      -279.8625
  61   2.0000     -10.284403      -279.8528
  62   2.0000     -10.283106      -279.8175
  63   2.0000     -10.282718      -279.8070
  64   2.0000     -10.280004      -279.7331
  65   2.0000     -10.278659      -279.6965
  66   2.0000     -10.278538      -279.6932
  67   2.0000     -10.276773      -279.6452
  68   2.0000     -10.275084      -279.5992
  69   2.0000     -10.274836      -279.5925
  70   2.0000     -10.274790      -279.5912
  71   2.0000     -10.272525      -279.5296
  72   2.0000     -10.267957      -279.4053
  73   2.0000     -10.263721      -279.2901
  74   2.0000     -10.263472      -279.2833
  75   2.0000     -10.256341      -279.0892
  76   2.0000     -10.255442      -279.0648
  77   2.0000      -8.775711      -238.7992
  78   2.0000      -8.060464      -219.3364
  79   2.0000      -8.060030      -219.3246
  80   2.0000      -8.057031      -219.2430
  81   2.0000      -8.054765      -219.1813
  82   2.0000      -8.050689      -219.0704
  83   2.0000      -8.050175      -219.0564
  84   2.0000      -8.042328      -218.8429
  85   2.0000      -6.611905      -179.9191
  86   2.0000      -6.597467      -179.5262
  87   2.0000      -6.597347      -179.5229
  88   2.0000      -6.029892      -164.0817
  89   2.0000      -6.029745      -164.0777
  90   2.0000      -6.026548      -163.9907
  91   2.0000      -6.025651      -163.9663
  92   2.0000      -6.025631      -163.9658
  93   2.0000      -6.024279      -163.9290
  94   2.0000      -6.022407      -163.8780
  95   2.0000      -6.022311      -163.8754
  96   2.0000      -6.021031      -163.8406
  97   2.0000      -6.020186      -163.8176
  98   2.0000      -6.020042      -163.8137
  99   2.0000      -6.019874      -163.8091
 100   2.0000      -6.018398      -163.7689
 101   2.0000      -6.016413      -163.7149
 102   2.0000      -6.016004      -163.7038
 103   2.0000      -6.015620      -163.6933
 104   2.0000      -6.012169      -163.5994
 105   2.0000      -6.011833      -163.5903
 106   2.0000      -6.011397      -163.5784
 107   2.0000      -6.007794      -163.4804
 108   2.0000      -6.003740      -163.3701
 109   2.0000      -2.727785       -74.2268
 110   2.0000      -2.723746       -74.1169
 111   2.0000      -2.723634       -74.1138
 112   2.0000      -2.712163       -73.8017
 113   2.0000      -2.712154       -73.8015
 114   2.0000      -1.227667       -33.4065
 115   2.0000      -1.209947       -32.9243
 116   2.0000      -1.112406       -30.2701
 117   2.0000      -1.096203       -29.8292
 118   2.0000      -1.013964       -27.5914
 119   2.0000      -1.009786       -27.4777
 120   2.0000      -0.999801       -27.2060
 121   2.0000      -0.997080       -27.1319
 122   2.0000      -0.989610       -26.9286
 123   2.0000      -0.985372       -26.8133
 124   2.0000      -0.984769       -26.7969
 125   2.0000      -0.980091       -26.6696
 126   2.0000      -0.975045       -26.5323
 127   2.0000      -0.964133       -26.2354
 128   2.0000      -0.960203       -26.1285
 129   2.0000      -0.934868       -25.4390
 130   2.0000      -0.922727       -25.1087
 131   2.0000      -0.917911       -24.9776
 132   2.0000      -0.916021       -24.9262
 133   2.0000      -0.910219       -24.7683
 134   2.0000      -0.904749       -24.6195
 135   2.0000      -0.895782       -24.3755
 136   2.0000      -0.889026       -24.1916
 137   2.0000      -0.881843       -23.9962
 138   2.0000      -0.875279       -23.8176
 139   2.0000      -0.872362       -23.7382
 140   2.0000      -0.863335       -23.4925
 141   2.0000      -0.861345       -23.4384
 142   2.0000      -0.859616       -23.3913
 143   2.0000      -0.851547       -23.1718
 144   2.0000      -0.848961       -23.1014
 145   2.0000      -0.844021       -22.9670
 146   2.0000      -0.837524       -22.7902
 147   2.0000      -0.834802       -22.7161
 148   2.0000      -0.823003       -22.3950
 149   2.0000      -0.821108       -22.3435
 150   2.0000      -0.816564       -22.2198
 151   2.0000      -0.804965       -21.9042
 152   2.0000      -0.802118       -21.8267
 153   2.0000      -0.789765       -21.4906
 154   2.0000      -0.787471       -21.4282
 155   2.0000      -0.769307       -20.9339
 156   2.0000      -0.753424       -20.5017
 157   2.0000      -0.746422       -20.3112
 158   2.0000      -0.731503       -19.9052
 159   2.0000      -0.730824       -19.8867
 160   2.0000      -0.728560       -19.8251
 161   2.0000      -0.725443       -19.7403
 162   2.0000      -0.715192       -19.4614
 163   2.0000      -0.707704       -19.2576
 164   2.0000      -0.702812       -19.1245
 165   2.0000      -0.699679       -19.0392
 166   2.0000      -0.692912       -18.8551
 167   2.0000      -0.679965       -18.5028
 168   2.0000      -0.670065       -18.2334
 169   2.0000      -0.669218       -18.2103
 170   2.0000      -0.665542       -18.1103
 171   2.0000      -0.661454       -17.9991
 172   2.0000      -0.657457       -17.8903
 173   2.0000      -0.648975       -17.6595
 174   2.0000      -0.646937       -17.6041
 175   2.0000      -0.641313       -17.4510
 176   2.0000      -0.636261       -17.3135
 177   2.0000      -0.633892       -17.2491
 178   2.0000      -0.631040       -17.1715
 179   2.0000      -0.628260       -17.0958
 180   2.0000      -0.626317       -17.0429
 181   2.0000      -0.623768       -16.9736
 182   2.0000      -0.616601       -16.7786
 183   2.0000      -0.612319       -16.6621
 184   2.0000      -0.604076       -16.4377
 185   2.0000      -0.602162       -16.3856
 186   2.0000      -0.596437       -16.2299
 187   2.0000      -0.586733       -15.9658
 188   2.0000      -0.585843       -15.9416
 189   2.0000      -0.585267       -15.9259
 190   2.0000      -0.581340       -15.8191
 191   2.0000      -0.572707       -15.5841
 192   2.0000      -0.568884       -15.4801
 193   2.0000      -0.567020       -15.4294
 194   2.0000      -0.565840       -15.3973
 195   2.0000      -0.561672       -15.2839
 196   2.0000      -0.550502       -14.9799
 197   2.0000      -0.548658       -14.9297
 198   2.0000      -0.547338       -14.8938
 199   2.0000      -0.538745       -14.6600
 200   2.0000      -0.537371       -14.6226
 201   2.0000      -0.532847       -14.4995
 202   2.0000      -0.530689       -14.4408
 203   2.0000      -0.529768       -14.4157
 204   2.0000      -0.525926       -14.3112
 205   2.0000      -0.521248       -14.1839
 206   2.0000      -0.519196       -14.1280
 207   2.0000      -0.516969       -14.0674
 208   2.0000      -0.514398       -13.9975
 209   2.0000      -0.510793       -13.8994
 210   2.0000      -0.510385       -13.8883
 211   2.0000      -0.508575       -13.8390
 212   2.0000      -0.507573       -13.8118
 213   2.0000      -0.505973       -13.7682
 214   2.0000      -0.503370       -13.6974
 215   2.0000      -0.501592       -13.6490
 216   2.0000      -0.498904       -13.5759
 217   2.0000      -0.497127       -13.5275
 218   2.0000      -0.496239       -13.5033
 219   2.0000      -0.495486       -13.4829
 220   2.0000      -0.493432       -13.4270
 221   2.0000      -0.490012       -13.3339
 222   2.0000      -0.486843       -13.2477
 223   2.0000      -0.484559       -13.1855
 224   2.0000      -0.483757       -13.1637
 225   2.0000      -0.481774       -13.1097
 226   2.0000      -0.479734       -13.0542
 227   2.0000      -0.479112       -13.0373
 228   2.0000      -0.476366       -12.9626
 229   2.0000      -0.471502       -12.8302
 230   2.0000      -0.470172       -12.7940
 231   2.0000      -0.468578       -12.7507
 232   2.0000      -0.468327       -12.7438
 233   2.0000      -0.466733       -12.7004
 234   2.0000      -0.464661       -12.6441
 235   2.0000      -0.462643       -12.5891
 236   2.0000      -0.461047       -12.5457
 237   2.0000      -0.458521       -12.4770
 238   2.0000      -0.454188       -12.3591
 239   2.0000      -0.452655       -12.3174
 240   2.0000      -0.446827       -12.1588
 241   2.0000      -0.445283       -12.1168
 242   2.0000      -0.442596       -12.0437
 243   2.0000      -0.439855       -11.9691
 244   2.0000      -0.437395       -11.9021
 245   2.0000      -0.436043       -11.8653
 246   2.0000      -0.434606       -11.8262
 247   2.0000      -0.434130       -11.8133
 248   2.0000      -0.432877       -11.7792
 249   2.0000      -0.427910       -11.6440
 250   2.0000      -0.426364       -11.6019
 251   2.0000      -0.423551       -11.5254
 252   2.0000      -0.422038       -11.4842
 253   2.0000      -0.417334       -11.3562
 254   2.0000      -0.416477       -11.3329
 255   2.0000      -0.414708       -11.2848
 256   2.0000      -0.413875       -11.2621
 257   2.0000      -0.413025       -11.2390
 258   2.0000      -0.401391       -10.9224
 259   2.0000      -0.400551       -10.8995
 260   2.0000      -0.398415       -10.8414
 261   2.0000      -0.397140       -10.8067
 262   2.0000      -0.394791       -10.7428
 263   2.0000      -0.394569       -10.7368
 264   2.0000      -0.385665       -10.4945
 265   2.0000      -0.383571       -10.4375
 266   2.0000      -0.378682       -10.3045
 267   2.0000      -0.372656       -10.1405
 268   2.0000      -0.365705        -9.9513
 269   2.0000      -0.361457        -9.8358
 270   2.0000      -0.358382        -9.7521
 271   2.0000      -0.354036        -9.6338
 272   2.0000      -0.349177        -9.5016
 273   2.0000      -0.347227        -9.4485
 274   2.0000      -0.342676        -9.3247
 275   2.0000      -0.340630        -9.2690
 276   2.0000      -0.338872        -9.2212
 277   2.0000      -0.332586        -9.0501
 278   2.0000      -0.331086        -9.0093
 279   2.0000      -0.328320        -8.9340
 280   2.0000      -0.318498        -8.6668
 281   2.0000      -0.316458        -8.6112
 282   2.0000      -0.304256        -8.2792
 283   2.0000      -0.293275        -7.9804
 284   2.0000      -0.291026        -7.9192
 285   2.0000      -0.286459        -7.7950
 286   2.0000      -0.277022        -7.5381
 287   2.0000      -0.269445        -7.3320
 288   2.0000      -0.253395        -6.8952
 289   2.0000      -0.244704        -6.6587
 290   2.0000      -0.200364        -5.4522
 291   0.0000      -0.115370        -3.1394
 292   0.0000      -0.067122        -1.8265
 293   0.0000      -0.040802        -1.1103
 294   0.0000      -0.030194        -0.8216
 295   0.0000      -0.023695        -0.6448

MULLIKEN ATOMIC CHARGES
-----------------------
   0 C :    0.326730
   1 C :   -0.374373
   2 C :   -0.191917
   3 N :    0.123861
   4 C :   -0.198538
   5 N :    0.120980
   6 C :    0.012508
   7 C :   -0.004587
   8 C :   -0.084997
   9 C :    0.117431
  10 C :   -0.092152
  11 C :   -0.031244
  12 S :    0.171083
  13 C :   -0.123436
  14 C :    0.035073
  15 Br:    0.005055
  16 C :    0.133126
  17 O :   -0.174361
  18 C :   -0.100650
  19 C :   -0.042838
  20 C :   -0.026435
  21 C :    0.005534
  22 C :    0.011249
  23 C :    0.038956
  24 C :   -0.056968
  25 S :    0.109492
  26 C :   -0.032615
  27 C :    0.005437
  28 C :    0.048670
  29 C :   -0.087447
  30 S :    0.133257
  31 C :    0.028865
  32 C :   -0.022513
  33 C :   -0.052446
  34 C :    0.028492
  35 C :    0.041765
  36 C :   -0.069958
  37 S :    0.139671
  38 C :   -0.031660
  39 C :    0.032663
  40 C :    0.050201
  41 C :   -0.045885
  42 S :    0.109464
  43 C :   -0.029527
  44 C :    0.038603
  45 C :   -0.114717
  46 S :    0.152247
  47 C :   -0.153094
  48 C :    0.125571
  49 C :   -0.116698
  50 C :    0.033384
  51 C :    0.036084
  52 C :   -0.122889
  53 C :    0.010588
  54 C :    0.035060
  55 C :    0.114330
  56 C :    0.067731
  57 C :   -0.117384
  58 S :    0.129157
  59 C :   -0.141553
  60 C :   -0.017180
  61 C :   -0.021985
  62 C :    0.175202
  63 O :   -0.233560
  64 C :    0.097566
  65 C :   -0.075237
  66 C :    0.058889
  67 O :   -0.198251
  68 N :   -0.095712
  69 C :    0.113782
  70 O :   -0.174752
  71 C :    0.185282
  72 C :   -0.131482
  73 H :   -0.018734
  74 H :   -0.011834
  75 H :   -0.009296
  76 H :    0.009919
  77 H :    0.010991
  78 H :   -0.007144
  79 H :   -0.011901
  80 H :   -0.013327
  81 H :   -0.008515
  82 H :    0.002101
  83 H :    0.002864
  84 H :   -0.005912
  85 H :   -0.006190
  86 H :   -0.001985
  87 H :    0.000751
  88 H :    0.007804
  89 H :    0.042362
  90 H :   -0.001998
  91 H :   -0.003690
  92 H :    0.026670
  93 H :    0.010235
  94 H :    0.012556
  95 H :    0.005745
  96 H :    0.016722
  97 H :    0.010274
  98 H :    0.016079
  99 H :    0.017794
 100 H :    0.020047
 101 H :    0.003891
 102 H :   -0.005859
 103 H :    0.123583
 104 H :    0.128985
 105 H :    0.027714
 106 H :   -0.004696
Sum of atomic charges:   -0.0000000

LOEWDIN ATOMIC CHARGES
----------------------
   0 C :    0.071209
   1 C :   -0.171432
   2 C :   -0.019698
   3 N :   -0.084156
   4 C :   -0.021416
   5 N :   -0.082670
   6 C :   -0.015764
   7 C :   -0.046683
   8 C :    0.012624
   9 C :   -0.039169
  10 C :   -0.147581
  11 C :   -0.017948
  12 S :    0.421108
  13 C :   -0.278248
  14 C :   -0.071392
  15 Br:    0.122511
  16 C :    0.079362
  17 O :   -0.167548
  18 C :   -0.120925
  19 C :    0.039897
  20 C :   -0.079502
  21 C :   -0.108190
  22 C :   -0.055470
  23 C :   -0.014565
  24 C :   -0.203441
  25 S :    0.415562
  26 C :   -0.146425
  27 C :   -0.061475
  28 C :   -0.013303
  29 C :   -0.191488
  30 S :    0.419850
  31 C :   -0.027470
  32 C :   -0.088753
  33 C :   -0.138966
  34 C :   -0.042117
  35 C :   -0.016385
  36 C :   -0.192329
  37 S :    0.418887
  38 C :   -0.144962
  39 C :   -0.035064
  40 C :   -0.007565
  41 C :   -0.151052
  42 S :    0.401457
  43 C :   -0.013304
  44 C :   -0.075031
  45 C :   -0.166322
  46 S :    0.436427
  47 C :   -0.176330
  48 C :   -0.038974
  49 C :   -0.020354
  50 C :   -0.030786
  51 C :   -0.049585
  52 C :   -0.018286
  53 C :   -0.032259
  54 C :   -0.051749
  55 C :   -0.041007
  56 C :   -0.061778
  57 C :   -0.166131
  58 S :    0.414818
  59 C :   -0.177918
  60 C :   -0.017976
  61 C :   -0.039472
  62 C :    0.040189
  63 O :   -0.007376
  64 C :   -0.009865
  65 C :   -0.127121
  66 C :    0.060610
  67 O :   -0.215927
  68 N :   -0.007151
  69 C :    0.089263
  70 O :    0.023061
  71 C :   -0.010029
  72 C :   -0.068382
  73 H :    0.037096
  74 H :    0.038967
  75 H :    0.036217
  76 H :    0.029562
  77 H :    0.036566
  78 H :    0.035526
  79 H :    0.032609
  80 H :    0.031059
  81 H :    0.034610
  82 H :    0.039716
  83 H :    0.038853
  84 H :    0.035753
  85 H :    0.034790
  86 H :    0.036394
  87 H :    0.038259
  88 H :    0.036363
  89 H :    0.022033
  90 H :    0.026136
  91 H :    0.022264
  92 H :    0.025502
  93 H :    0.025317
  94 H :    0.023826
  95 H :    0.027002
  96 H :    0.031731
  97 H :    0.023714
  98 H :    0.024144
  99 H :    0.022083
 100 H :    0.023598
 101 H :    0.028867
 102 H :    0.037034
 103 H :    0.071401
 104 H :    0.080944
 105 H :    0.034297
 106 H :    0.037197

  Mayer bond orders larger than 0.100000
B(  0-C ,  1-C ) :   1.5459 B(  0-C ,  6-C ) :   0.9807 B(  0-C , 18-C ) :   1.1518
B(  1-C ,  2-C ) :   1.1551 B(  1-C ,  4-C ) :   1.1613 B(  2-C ,  3-N ) :   2.9571
B(  4-C ,  5-N ) :   2.9608 B(  6-C ,  7-C ) :   1.2815 B(  6-C , 11-C ) :   1.4274
B(  7-C ,  8-C ) :   1.4365 B(  7-C , 16-C ) :   0.9304 B(  8-C ,  9-C ) :   1.2325
B(  8-C , 73-H ) :   1.0162 B(  9-C , 10-C ) :   1.3258 B(  9-C , 14-C ) :   1.1591
B( 10-C , 11-C ) :   1.3122 B( 10-C , 12-S ) :   1.0792 B( 11-C , 74-H ) :   0.9795
B( 12-S , 13-C ) :   1.0848 B( 13-C , 14-C ) :   1.6208 B( 13-C , 15-Br) :   1.0073
B( 14-C , 75-H ) :   1.0006 B( 16-C , 17-O ) :   2.1756 B( 16-C , 18-C ) :   0.9829
B( 18-C , 19-C ) :   1.4009 B( 19-C , 20-C ) :   1.3373 B( 19-C , 76-H ) :   0.9463
B( 20-C , 21-C ) :   1.3360 B( 20-C , 77-H ) :   0.9779 B( 21-C , 22-C ) :   1.2419
B( 21-C , 25-S ) :   1.0989 B( 22-C , 23-C ) :   1.4621 B( 22-C , 78-H ) :   1.0029
B( 23-C , 24-C ) :   1.2898 B( 23-C , 79-H ) :   0.9953 B( 24-C , 25-S ) :   1.0589
B( 24-C , 26-C ) :   1.3564 B( 26-C , 27-C ) :   1.2748 B( 26-C , 30-S ) :   1.1078
B( 27-C , 28-C ) :   1.4785 B( 27-C , 80-H ) :   0.9955 B( 28-C , 29-C ) :   1.2519
B( 28-C , 81-H ) :   0.9988 B( 29-C , 30-S ) :   1.0576 B( 29-C , 31-C ) :   1.3789
B( 31-C , 32-C ) :   1.4014 B( 31-C , 82-H ) :   0.9574 B( 32-C , 33-C ) :   1.3671
B( 32-C , 83-H ) :   0.9545 B( 33-C , 34-C ) :   1.2332 B( 33-C , 37-S ) :   1.1009
B( 34-C , 35-C ) :   1.5102 B( 34-C , 84-H ) :   1.0003 B( 35-C , 36-C ) :   1.2417
B( 35-C , 85-H ) :   0.9927 B( 36-C , 37-S ) :   1.0558 B( 36-C , 38-C ) :   1.4414
B( 38-C , 39-C ) :   1.1981 B( 38-C , 42-S ) :   1.0799 B( 39-C , 40-C ) :   1.5917
B( 39-C , 86-H ) :   0.9942 B( 40-C , 41-C ) :   1.1244 B( 40-C , 87-H ) :   0.9973
B( 41-C , 42-S ) :   1.0200 B( 41-C , 43-C ) :   1.6678 B( 43-C , 44-C ) :   1.0286
B( 43-C , 88-H ) :   0.9610 B( 44-C , 45-C ) :   1.5761 B( 44-C , 48-C ) :   1.1474
B( 45-C , 46-S ) :   1.1399 B( 45-C , 89-H ) :   0.9576 B( 46-S , 47-C ) :   1.0768
B( 47-C , 48-C ) :   1.3772 B( 47-C , 59-C ) :   1.3787 B( 48-C , 49-C ) :   1.2542
B( 49-C , 50-C ) :   1.0644 B( 49-C , 52-C ) :   1.5201 B( 50-C , 51-C ) :   1.1052
B( 50-C , 90-H ) :   0.9083 B( 50-C , 91-H ) :   0.9264 B( 51-C , 92-H ) :   0.9667
B( 51-C , 93-H ) :   0.9579 B( 51-C , 94-H ) :   0.9661 B( 52-C , 53-C ) :   1.0582
B( 52-C , 55-C ) :   1.2654 B( 53-C , 54-C ) :   1.1095 B( 53-C , 95-H ) :   0.9133
B( 53-C , 96-H ) :   0.9184 B( 54-C , 97-H ) :   0.9588 B( 54-C , 98-H ) :   0.9670
B( 54-C , 99-H ) :   0.9566 B( 55-C , 56-C ) :   1.1509 B( 55-C , 59-C ) :   1.3701
B( 56-C , 57-C ) :   1.6188 B( 56-C , 60-C ) :   1.0030 B( 57-C , 58-S ) :   1.1133
B( 57-C ,100-H ) :   0.9649 B( 58-S , 59-C ) :   1.0800 B( 60-C , 61-C ) :   1.7492
B( 60-C ,101-H ) :   0.9535 B( 61-C , 62-C ) :   1.1264 B( 61-C ,102-H ) :   0.9649
B( 62-C , 63-O ) :   1.0932 B( 62-C , 72-C ) :   1.4664 B( 63-O , 64-C ) :   1.1140
B( 64-C , 65-C ) :   1.1747 B( 64-C , 71-C ) :   1.4220 B( 65-C , 66-C ) :   0.8893
B( 65-C , 69-C ) :   1.5345 B( 66-C , 67-O ) :   2.2354 B( 66-C , 68-N ) :   1.2754
B( 68-N ,103-H ) :   0.9375 B( 68-N ,104-H ) :   0.9352 B( 69-C , 70-O ) :   1.1498
B( 69-C ,105-H ) :   1.0046 B( 70-O , 71-C ) :   1.1391 B( 71-C , 72-C ) :   1.1776
B( 72-C ,106-H ) :   1.0326

-----------------------------------------------------------------------------
         ABSORPTION SPECTRUM VIA TRANSITION ELECTRIC DIPOLE MOMENTS
-----------------------------------------------------------------------------
State   Energy  Wavelength   fosc         T2         TX        TY        TZ
        (cm-1)    (nm)                  (au**2)     (au)      (au)      (au)
-----------------------------------------------------------------------------
   0    5521.4   1811.1   0.373546775  22.27252  -3.36708   2.10252  -2.55239
   1   12937.1    773.0   0.017908291   0.45571   0.58485   0.29456   0.16402
   2   16800.1    595.2   1.347671359  26.40881   1.07406   4.85813   1.28598
   3   20221.3    494.5   0.062857712   1.02335   0.29432   0.87875  -0.40561
   4   20832.4    480.0   0.003073445   0.04857   0.11635  -0.12366   0.14050
   5   21321.6    469.0   0.263838914   4.07375   0.98646   0.43038  -1.70746
   6   22722.3    440.1   0.135981597   1.97017  -0.50838   1.29727  -0.16972
   7   23749.7    421.1   0.190647296   2.64270  -1.04383   0.57797   1.10411
   8   24694.3    405.0   0.101520434   1.35342  -0.01948  -1.05763   0.48421
   9   25597.8    390.7   0.295712433   3.80314   1.23830  -0.03225  -1.50622
  10   26024.2    384.3   0.005116378   0.06472   0.11792  -0.10866  -0.19751
  11   26824.8    372.8   0.047875069   0.58756  -0.51094  -0.17492   0.54397
  12   26972.4    370.7   0.129397022   1.57936   0.96261   0.29088  -0.75374
  13   27281.6    366.5   0.051485122   0.62128  -0.70494  -0.14951   0.31935
  14   28387.6    352.3   0.235123396   2.72674   1.45830   0.34952  -0.69133
  15   28588.4    349.8   0.070876162   0.81618  -0.01098   0.90205  -0.04866
  16   29417.9    339.9   0.023887994   0.26733  -0.03054   0.30360  -0.41740
  17   30848.8    324.2   0.102418059   1.09299   0.68343  -0.74757   0.25893
  18   30888.2    323.7   0.169978470   1.81166   0.87858  -0.92149   0.43658
  19   31435.7    318.1   0.241506289   2.52919   1.14659  -1.04659   0.34523
  20   31528.3    317.2   0.020962754   0.21889  -0.37454   0.25818  -0.10932
  21   31715.4    315.3   0.062519301   0.64896  -0.47100  -0.64327   0.11543
  22   31891.0    313.6   0.092619297   0.95611  -0.58708   0.75852   0.18998
  23   31998.6    312.5   0.239493716   2.46399  -1.27906   0.60011  -0.68400
  24   32225.8    310.3   0.855268520   8.73724   2.61016  -0.45049   1.31201
  25   32446.4    308.2   0.038285156   0.38845   0.36563  -0.50055   0.06499
  26   32950.0    303.5   0.023411013   0.23391   0.01514   0.37819  -0.30107
  27   33415.9    299.3   0.106880601   1.05298  -0.38453   0.07761  -0.94821
  28   33650.9    297.2   0.021954619   0.21479  -0.00537   0.40724  -0.22116
  29   34081.3    293.4   0.056853728   0.54918  -0.40689   0.12028  -0.60758
  30   34591.9    289.1   0.026874389   0.25576  -0.28360   0.38467  -0.16541
  31   35024.0    285.5   0.027074411   0.25449  -0.30782   0.00172   0.39967
  32   35665.0    280.4   0.021129091   0.19504  -0.39011  -0.17895  -0.10405
  33   35767.5    279.6   0.052954600   0.48741   0.25180   0.62655  -0.17729
  34   36013.6    277.7   0.100748699   0.92098   0.60755  -0.74048  -0.05952
  35   36280.7    275.6   0.047954756   0.43514   0.29216  -0.35540   0.47273
  36   36292.7    275.5   0.223951443   2.03147   0.36519  -0.44702   1.30318
  37   37075.0    269.7   0.162251101   1.44073   1.12988  -0.26116  -0.30966
  38   37325.2    267.9   0.019302898   0.17025  -0.16643   0.10479   0.36273
  39   37548.6    266.3   0.050892091   0.44620  -0.34233  -0.15912   0.55108
  40   37986.5    263.3   0.014278625   0.12375   0.06301  -0.23605  -0.25310
  41   38188.5    261.9   0.037537426   0.32360  -0.47052   0.30322  -0.10132
  42   38343.5    260.8   0.028743294   0.24679   0.14337  -0.13401   0.45637
  43   38966.8    256.6   0.061607799   0.52049  -0.09199   0.02062   0.71527
  44   39178.0    255.2   0.025648699   0.21553  -0.04621  -0.22226  -0.40496
  45   39507.3    253.1   0.015613427   0.13011   0.34125  -0.07617   0.08861
  46   39649.9    252.2   0.003047287   0.02530   0.15511   0.02281  -0.02686
  47   39822.0    251.1   0.051194765   0.42323   0.60346   0.02041  -0.24219
  48   40091.5    249.4   0.028816313   0.23663   0.46690  -0.06281  -0.12117

FINAL SINGLE POINT ENERGY     -8052.709103707321

DIPOLE MOMENT
-------------
                                X             Y             Z
Electronic contribution:    185.55342    -133.14832      76.81571
Nuclear contribution   :   -187.96091     137.00058     -77.12277
                        -----------------------------------------
Total Dipole Moment    :     -2.40748       3.85226      -0.30706
                        -----------------------------------------
Magnitude (a.u.)       :      4.55304
Magnitude (Debye)      :     11.57291

Rotational constants in cm-1:     0.000929     0.000188     0.000171
Rotational constants in MHz :    27.839178     5.633951     5.132164

                             ****ORCA TERMINATED NORMALLY****
TOTAL RUN TIME: 0 days 0 hours 11 minutes 34 seconds 985 msec
