                         Program Version 4.2.0 -  RELEASE  -
|  1> # ORCA input file
|  2> # SCF done       -202.538816069479          0.000891064969
|  3> ! CAM-B3LYP def2-SVP def2/J RIJCOSX Grid4 TightSCF
|  4> %maxcore 5000
|  5> %tddft
|  6>     Mode sTDDFT
|  7>     Ethresh 5.0
|  8>     maxcore 5000
|  9> end
| 10>
| 11> %pal
| 12>   nprocs 6
| 13>   end
| 14> * xyz 0 1
| 15>    C       -6.42871        -1.58842         0.38092
| 16>    C       -7.63895        -2.10996         0.74732
| 17>    C       -7.90833        -3.49210         0.84714
| 18>    N       -8.18595        -4.60062         0.95021
| 19>    C       -8.79185        -1.34602         1.03195
| 20>    N       -9.77212        -0.79187         1.25509
| 21>    C       -5.24878        -2.34120        -0.00862
| 22>    C       -4.25384        -1.43431        -0.46279
| 23>    C       -3.01297        -1.86213        -0.87911
| 24>    C       -2.75031        -3.23448        -0.85201
| 25>    C       -3.75192        -4.12986        -0.40411
| 26>    C       -5.00245        -3.70156         0.02168
| 27>    S       -3.20367        -5.77567        -0.45074
| 28>    C       -1.65584        -5.24707        -1.06280
| 29>    C       -1.55435        -3.90620        -1.22440
| 30>   Br       -0.32839        -6.51909        -1.42415
| 31>    C       -4.77516        -0.06050        -0.38863
| 32>    O       -4.20313         0.96381        -0.72784
| 33>    C       -6.11152        -0.17239         0.23995
| 34>    C       -6.80001         0.84848         0.81007
| 35>    C       -6.56463         2.25806         0.61372
| 36>    C       -6.38341         2.76735        -0.68331
| 37>    C       -6.27434         4.11710        -0.92988
| 38>    C       -6.32219         5.03629         0.11738
| 39>    C       -6.47267         4.56202         1.39761
| 40>    C       -6.60050         3.18821         1.66016
| 41>    N       -6.63894         2.97787         3.02195
| 42>    C       -6.79653         1.72988         3.71624
| 43>    C       -6.55225         4.16225         3.71762
| 44>    O       -6.50299         4.25853         4.91675
| 45>    C       -6.53024         5.29698         2.69900
| 46>    C       -7.82325         6.11517         2.87217
| 47>    C       -9.05935         5.24926         2.61613
| 48>    O       -9.30251         4.16519         3.09256
| 49>    N       -9.85489         5.91321         1.72732
| 50>    C      -11.10602         5.39364         1.24502
| 51>    C       -9.24716         7.07468         1.27066
| 52>    C       -9.70153         7.97202         0.32848
| 53>    C       -8.85568         9.02324        -0.04649
| 54>    C       -7.61047         9.16659         0.57283
| 55>    C       -7.18929         8.29132         1.56126
| 56>    C       -8.00635         7.23581         1.90129
| 57>    C       -9.25796         9.93501        -1.10066
| 58>    C       -8.38746        10.38380        -2.03041
| 59>    C       -8.68070        11.26992        -3.09371
| 60>    C       -7.82064        11.45407        -4.14106
| 61>    C       -7.92699        12.35435        -5.23295
| 62>    C       -6.91169        12.26395        -6.13504
| 63>    C       -5.96054        11.26262        -5.82963
| 64>    S       -6.36407        10.47975        -4.32184
| 65>    C       -4.87186        10.84291        -6.56776
| 66>    C       -4.34108        11.38207        -7.75938
| 67>    C       -3.26293        10.70026        -8.23719
| 68>    C       -2.89609         9.57210        -7.46178
| 69>    S       -3.95579         9.42968        -6.07635
| 70>    C       -1.87582         8.69496        -7.73391
| 71>    C       -1.54682         7.53508        -7.02422
| 72>    S       -2.42569         6.88579        -5.64579
| 73>    C       -1.38747         5.48728        -5.46801
| 74>    C       -0.38757         5.53605        -6.44191
| 75>    C       -0.49489         6.66641        -7.29075
| 76>    O        0.48067         6.67088        -8.21848
| 77>    C        1.21278         5.55081        -7.97047
| 78>    N        2.32434         5.29670        -8.80767
| 79>    O        2.96208         4.28839        -8.57236
| 80>    O        2.56102         6.09235        -9.69161
| 81>    C        0.74238         4.81884        -6.91039
| 82>    C       -1.60192         4.51130        -4.47283
| 83>    S       -0.47941         3.19866        -4.26812
| 84>    C       -1.42484         2.55684        -2.96976
| 85>    C       -0.87389         1.36148        -2.33052
| 86>    O        0.17982         0.88783        -2.68218
| 87>    O       -1.56822         0.80910        -1.33144
| 88>    C       -2.54468         3.31994        -2.71762
| 89>    C       -2.64461         4.42444        -3.56246
| 90>    H       -2.25199        -1.16966        -1.20073
| 91>    H       -5.73283        -4.41401         0.36707
| 92>    H       -0.67628        -3.40506        -1.58910
| 93>    H       -7.62537         0.60195         1.46418
| 94>    H       -6.37480         2.07154        -1.50756
| 95>    H       -6.15641         4.46780        -1.94339
| 96>    H       -6.23734         6.09504        -0.07359
| 97>    H       -6.13457         0.97205         3.29310
| 98>    H       -7.83390         1.39193         3.67474
| 99>    H       -6.53298         1.91045         4.75912
|100>    H       -5.67057         5.95142         2.86176
|101>    H       -7.85560         6.46502         3.91106
|102>    H      -11.28124         4.44345         1.74808
|103>    H      -11.06334         5.23083         0.16606
|104>    H      -11.92048         6.08284         1.47537
|105>    H      -10.66251         7.85351        -0.14731
|106>    H       -6.97881         9.99494         0.29234
|107>    H       -6.23401         8.43097         2.04439
|108>    H      -10.30574        10.19629        -1.16367
|109>    H       -7.37061        10.00989        -2.00303
|110>    H       -9.61341        11.81658        -3.08504
|111>    H       -8.74930        13.04386        -5.30881
|112>    H       -6.83001        12.87038        -7.01943
|113>    H       -4.75819        12.25837        -8.22226
|114>    H       -2.72243        10.96231        -9.12933
|115>    H       -1.25352         8.89959        -8.59523
|116>    H        1.16122         3.90660        -6.53908
|117>    H       -2.48397         1.14335        -1.19398
|118>    H       -3.26768         3.09100        -1.95278
|119>    H       -3.44042         5.14734        -3.52841
|120> *
|121>
|122>                          ****END OF INPUT****

CARTESIAN COORDINATES (ANGSTROEM)
---------------------------------
  C     -6.428710   -1.588420    0.380920
  C     -7.638950   -2.109960    0.747320
  C     -7.908330   -3.492100    0.847140
  N     -8.185950   -4.600620    0.950210
  C     -8.791850   -1.346020    1.031950
  N     -9.772120   -0.791870    1.255090
  C     -5.248780   -2.341200   -0.008620
  C     -4.253840   -1.434310   -0.462790
  C     -3.012970   -1.862130   -0.879110
  C     -2.750310   -3.234480   -0.852010
  C     -3.751920   -4.129860   -0.404110
  C     -5.002450   -3.701560    0.021680
  S     -3.203670   -5.775670   -0.450740
  C     -1.655840   -5.247070   -1.062800
  C     -1.554350   -3.906200   -1.224400
  Br    -0.328390   -6.519090   -1.424150
  C     -4.775160   -0.060500   -0.388630
  O     -4.203130    0.963810   -0.727840
  C     -6.111520   -0.172390    0.239950
  C     -6.800010    0.848480    0.810070
  C     -6.564630    2.258060    0.613720
  C     -6.383410    2.767350   -0.683310
  C     -6.274340    4.117100   -0.929880
  C     -6.322190    5.036290    0.117380
  C     -6.472670    4.562020    1.397610
  C     -6.600500    3.188210    1.660160
  N     -6.638940    2.977870    3.021950
  C     -6.796530    1.729880    3.716240
  C     -6.552250    4.162250    3.717620
  O     -6.502990    4.258530    4.916750
  C     -6.530240    5.296980    2.699000
  C     -7.823250    6.115170    2.872170
  C     -9.059350    5.249260    2.616130
  O     -9.302510    4.165190    3.092560
  N     -9.854890    5.913210    1.727320
  C    -11.106020    5.393640    1.245020
  C     -9.247160    7.074680    1.270660
  C     -9.701530    7.972020    0.328480
  C     -8.855680    9.023240   -0.046490
  C     -7.610470    9.166590    0.572830
  C     -7.189290    8.291320    1.561260
  C     -8.006350    7.235810    1.901290
  C     -9.257960    9.935010   -1.100660
  C     -8.387460   10.383800   -2.030410
  C     -8.680700   11.269920   -3.093710
  C     -7.820640   11.454070   -4.141060
  C     -7.926990   12.354350   -5.232950
  C     -6.911690   12.263950   -6.135040
  C     -5.960540   11.262620   -5.829630
  S     -6.364070   10.479750   -4.321840
  C     -4.871860   10.842910   -6.567760
  C     -4.341080   11.382070   -7.759380
  C     -3.262930   10.700260   -8.237190
  C     -2.896090    9.572100   -7.461780
  S     -3.955790    9.429680   -6.076350
  C     -1.875820    8.694960   -7.733910
  C     -1.546820    7.535080   -7.024220
  S     -2.425690    6.885790   -5.645790
  C     -1.387470    5.487280   -5.468010
  C     -0.387570    5.536050   -6.441910
  C     -0.494890    6.666410   -7.290750
  O      0.480670    6.670880   -8.218480
  C      1.212780    5.550810   -7.970470
  N      2.324340    5.296700   -8.807670
  O      2.962080    4.288390   -8.572360
  O      2.561020    6.092350   -9.691610
  C      0.742380    4.818840   -6.910390
  C     -1.601920    4.511300   -4.472830
  S     -0.479410    3.198660   -4.268120
  C     -1.424840    2.556840   -2.969760
  C     -0.873890    1.361480   -2.330520
  O      0.179820    0.887830   -2.682180
  O     -1.568220    0.809100   -1.331440
  C     -2.544680    3.319940   -2.717620
  C     -2.644610    4.424440   -3.562460
  H     -2.251990   -1.169660   -1.200730
  H     -5.732830   -4.414010    0.367070
  H     -0.676280   -3.405060   -1.589100
  H     -7.625370    0.601950    1.464180
  H     -6.374800    2.071540   -1.507560
  H     -6.156410    4.467800   -1.943390
  H     -6.237340    6.095040   -0.073590
  H     -6.134570    0.972050    3.293100
  H     -7.833900    1.391930    3.674740
  H     -6.532980    1.910450    4.759120
  H     -5.670570    5.951420    2.861760
  H     -7.855600    6.465020    3.911060
  H    -11.281240    4.443450    1.748080
  H    -11.063340    5.230830    0.166060
  H    -11.920480    6.082840    1.475370
  H    -10.662510    7.853510   -0.147310
  H     -6.978810    9.994940    0.292340
  H     -6.234010    8.430970    2.044390
  H    -10.305740   10.196290   -1.163670
  H     -7.370610   10.009890   -2.003030
  H     -9.613410   11.816580   -3.085040
  H     -8.749300   13.043860   -5.308810
  H     -6.830010   12.870380   -7.019430
  H     -4.758190   12.258370   -8.222260
  H     -2.722430   10.962310   -9.129330
  H     -1.253520    8.899590   -8.595230
  H      1.161220    3.906600   -6.539080
  H     -2.483970    1.143350   -1.193980
  H     -3.267680    3.091000   -1.952780
  H     -3.440420    5.147340   -3.528410

 Total Charge           Charge          ....    0
 Multiplicity           Mult            ....    1
 Number of Electrons    NEL             ....  580
 Basis Dimension        Dim             .... 1238

ORBITAL ENERGIES
----------------

  NO   OCC          E(Eh)            E(eV)
   0   2.0000    -482.885914    -13139.9937
   1   2.0000     -88.979764     -2421.2625
   2   2.0000     -88.979181     -2421.2466
   3   2.0000     -88.966271     -2420.8953
   4   2.0000     -88.955975     -2420.6151
   5   2.0000     -88.952058     -2420.5086
   6   2.0000     -62.563620     -1702.4426
   7   2.0000     -56.397580     -1534.6562
   8   2.0000     -56.394846     -1534.5818
   9   2.0000     -56.394817     -1534.5810
  10   2.0000     -19.314148      -525.5647
  11   2.0000     -19.244168      -523.6604
  12   2.0000     -19.243404      -523.6396
  13   2.0000     -19.242661      -523.6194
  14   2.0000     -19.241848      -523.5973
  15   2.0000     -19.199286      -522.4391
  16   2.0000     -19.196984      -522.3765
  17   2.0000     -19.186814      -522.0998
  18   2.0000     -14.655679      -398.8013
  19   2.0000     -14.460369      -393.4866
  20   2.0000     -14.460348      -393.4861
  21   2.0000     -14.423444      -392.4819
  22   2.0000     -14.423145      -392.4737
  23   2.0000     -10.397492      -282.9301
  24   2.0000     -10.391600      -282.7698
  25   2.0000     -10.389201      -282.7045
  26   2.0000     -10.381695      -282.5003
  27   2.0000     -10.379392      -282.4376
  28   2.0000     -10.360820      -281.9322
  29   2.0000     -10.352416      -281.7036
  30   2.0000     -10.351418      -281.6764
  31   2.0000     -10.349889      -281.6348
  32   2.0000     -10.335444      -281.2417
  33   2.0000     -10.331085      -281.1231
  34   2.0000     -10.330224      -281.0997
  35   2.0000     -10.327869      -281.0356
  36   2.0000     -10.325797      -280.9792
  37   2.0000     -10.325405      -280.9686
  38   2.0000     -10.324732      -280.9502
  39   2.0000     -10.323499      -280.9167
  40   2.0000     -10.321835      -280.8714
  41   2.0000     -10.320623      -280.8384
  42   2.0000     -10.318615      -280.7838
  43   2.0000     -10.317558      -280.7550
  44   2.0000     -10.316082      -280.7149
  45   2.0000     -10.315951      -280.7113
  46   2.0000     -10.314502      -280.6719
  47   2.0000     -10.311675      -280.5950
  48   2.0000     -10.311553      -280.5916
  49   2.0000     -10.311217      -280.5825
  50   2.0000     -10.310373      -280.5595
  51   2.0000     -10.307554      -280.4828
  52   2.0000     -10.304750      -280.4065
  53   2.0000     -10.303670      -280.3771
  54   2.0000     -10.303496      -280.3724
  55   2.0000     -10.302528      -280.3460
  56   2.0000     -10.302253      -280.3386
  57   2.0000     -10.301758      -280.3251
  58   2.0000     -10.299575      -280.2657
  59   2.0000     -10.298396      -280.2336
  60   2.0000     -10.297327      -280.2045
  61   2.0000     -10.297034      -280.1965
  62   2.0000     -10.295525      -280.1555
  63   2.0000     -10.295335      -280.1503
  64   2.0000     -10.292978      -280.0862
  65   2.0000     -10.291987      -280.0592
  66   2.0000     -10.291590      -280.0484
  67   2.0000     -10.291390      -280.0430
  68   2.0000     -10.290866      -280.0287
  69   2.0000     -10.288062      -279.9524
  70   2.0000     -10.288034      -279.9516
  71   2.0000     -10.287167      -279.9281
  72   2.0000     -10.285663      -279.8871
  73   2.0000     -10.285363      -279.8790
  74   2.0000     -10.284733      -279.8618
  75   2.0000     -10.283802      -279.8365
  76   2.0000     -10.283449      -279.8269
  77   2.0000     -10.278519      -279.6927
  78   2.0000     -10.276188      -279.6293
  79   2.0000      -8.793047      -239.2710
  80   2.0000      -8.075162      -219.7363
  81   2.0000      -8.073764      -219.6983
  82   2.0000      -8.061245      -219.3576
  83   2.0000      -8.052147      -219.1101
  84   2.0000      -8.048521      -219.0114
  85   2.0000      -6.629400      -180.3951
  86   2.0000      -6.614771      -179.9971
  87   2.0000      -6.614538      -179.9907
  88   2.0000      -6.044831      -164.4882
  89   2.0000      -6.043216      -164.4443
  90   2.0000      -6.040560      -164.3720
  91   2.0000      -6.039093      -164.3321
  92   2.0000      -6.036417      -164.2593
  93   2.0000      -6.035705      -164.2399
  94   2.0000      -6.030631      -164.1018
  95   2.0000      -6.026216      -163.9817
  96   2.0000      -6.023466      -163.9069
  97   2.0000      -6.021922      -163.8648
  98   2.0000      -6.018245      -163.7648
  99   2.0000      -6.017788      -163.7523
 100   2.0000      -6.014269      -163.6566
 101   2.0000      -6.013070      -163.6240
 102   2.0000      -6.009356      -163.5229
 103   2.0000      -2.745264       -74.7024
 104   2.0000      -2.741171       -74.5911
 105   2.0000      -2.740976       -74.5857
 106   2.0000      -2.729365       -74.2698
 107   2.0000      -2.729349       -74.2694
 108   2.0000      -1.327045       -36.1107
 109   2.0000      -1.234340       -33.5881
 110   2.0000      -1.170727       -31.8571
 111   2.0000      -1.153565       -31.3901
 112   2.0000      -1.146398       -31.1951
 113   2.0000      -1.143280       -31.1102
 114   2.0000      -1.137861       -30.9628
 115   2.0000      -1.082945       -29.4684
 116   2.0000      -1.067916       -29.0595
 117   2.0000      -1.066086       -29.0097
 118   2.0000      -1.030165       -28.0322
 119   2.0000      -1.019075       -27.7304
 120   2.0000      -1.010483       -27.4966
 121   2.0000      -1.003826       -27.3155
 122   2.0000      -1.001817       -27.2608
 123   2.0000      -0.998399       -27.1678
 124   2.0000      -0.986771       -26.8514
 125   2.0000      -0.979539       -26.6546
 126   2.0000      -0.967853       -26.3366
 127   2.0000      -0.962804       -26.1992
 128   2.0000      -0.949053       -25.8250
 129   2.0000      -0.939048       -25.5528
 130   2.0000      -0.937442       -25.5091
 131   2.0000      -0.917904       -24.9774
 132   2.0000      -0.914937       -24.8967
 133   2.0000      -0.908610       -24.7245
 134   2.0000      -0.902150       -24.5488
 135   2.0000      -0.890381       -24.2285
 136   2.0000      -0.889986       -24.2178
 137   2.0000      -0.886373       -24.1194
 138   2.0000      -0.874114       -23.7859
 139   2.0000      -0.869891       -23.6709
 140   2.0000      -0.854284       -23.2463
 141   2.0000      -0.853130       -23.2148
 142   2.0000      -0.850224       -23.1358
 143   2.0000      -0.842033       -22.9129
 144   2.0000      -0.839676       -22.8488
 145   2.0000      -0.833112       -22.6701
 146   2.0000      -0.832486       -22.6531
 147   2.0000      -0.824321       -22.4309
 148   2.0000      -0.818030       -22.2597
 149   2.0000      -0.808174       -21.9915
 150   2.0000      -0.804271       -21.8853
 151   2.0000      -0.789030       -21.4706
 152   2.0000      -0.778188       -21.1756
 153   2.0000      -0.774328       -21.0705
 154   2.0000      -0.769701       -20.9446
 155   2.0000      -0.761429       -20.7195
 156   2.0000      -0.743366       -20.2280
 157   2.0000      -0.729126       -19.8405
 158   2.0000      -0.720212       -19.5980
 159   2.0000      -0.719341       -19.5743
 160   2.0000      -0.709326       -19.3018
 161   2.0000      -0.706928       -19.2365
 162   2.0000      -0.704793       -19.1784
 163   2.0000      -0.699504       -19.0345
 164   2.0000      -0.696666       -18.9572
 165   2.0000      -0.686440       -18.6790
 166   2.0000      -0.683461       -18.5979
 167   2.0000      -0.682481       -18.5712
 168   2.0000      -0.674364       -18.3504
 169   2.0000      -0.669802       -18.2262
 170   2.0000      -0.662243       -18.0206
 171   2.0000      -0.657994       -17.9049
 172   2.0000      -0.653877       -17.7929
 173   2.0000      -0.648919       -17.6580
 174   2.0000      -0.641219       -17.4485
 175   2.0000      -0.640881       -17.4393
 176   2.0000      -0.635745       -17.2995
 177   2.0000      -0.633077       -17.2269
 178   2.0000      -0.627711       -17.0809
 179   2.0000      -0.622082       -16.9277
 180   2.0000      -0.621443       -16.9103
 181   2.0000      -0.617665       -16.8075
 182   2.0000      -0.613195       -16.6859
 183   2.0000      -0.610009       -16.5992
 184   2.0000      -0.604620       -16.4525
 185   2.0000      -0.602509       -16.3951
 186   2.0000      -0.599933       -16.3250
 187   2.0000      -0.595375       -16.2010
 188   2.0000      -0.590300       -16.0629
 189   2.0000      -0.587666       -15.9912
 190   2.0000      -0.580355       -15.7923
 191   2.0000      -0.579486       -15.7686
 192   2.0000      -0.572014       -15.5653
 193   2.0000      -0.570954       -15.5364
 194   2.0000      -0.565903       -15.3990
 195   2.0000      -0.563337       -15.3292
 196   2.0000      -0.559456       -15.2236
 197   2.0000      -0.557503       -15.1704
 198   2.0000      -0.555149       -15.1064
 199   2.0000      -0.552297       -15.0288
 200   2.0000      -0.548590       -14.9279
 201   2.0000      -0.544200       -14.8084
 202   2.0000      -0.543207       -14.7814
 203   2.0000      -0.539252       -14.6738
 204   2.0000      -0.536204       -14.5909
 205   2.0000      -0.530770       -14.4430
 206   2.0000      -0.530295       -14.4301
 207   2.0000      -0.529718       -14.4143
 208   2.0000      -0.528440       -14.3796
 209   2.0000      -0.526716       -14.3327
 210   2.0000      -0.521848       -14.2002
 211   2.0000      -0.521451       -14.1894
 212   2.0000      -0.519859       -14.1461
 213   2.0000      -0.516891       -14.0653
 214   2.0000      -0.513344       -13.9688
 215   2.0000      -0.510865       -13.9014
 216   2.0000      -0.508653       -13.8412
 217   2.0000      -0.507344       -13.8055
 218   2.0000      -0.506020       -13.7695
 219   2.0000      -0.503843       -13.7103
 220   2.0000      -0.503220       -13.6933
 221   2.0000      -0.500909       -13.6304
 222   2.0000      -0.497763       -13.5448
 223   2.0000      -0.495670       -13.4879
 224   2.0000      -0.493627       -13.4323
 225   2.0000      -0.489011       -13.3067
 226   2.0000      -0.484990       -13.1973
 227   2.0000      -0.482486       -13.1291
 228   2.0000      -0.481725       -13.1084
 229   2.0000      -0.479212       -13.0400
 230   2.0000      -0.478382       -13.0174
 231   2.0000      -0.476674       -12.9710
 232   2.0000      -0.473661       -12.8890
 233   2.0000      -0.470846       -12.8124
 234   2.0000      -0.469605       -12.7786
 235   2.0000      -0.466834       -12.7032
 236   2.0000      -0.463988       -12.6258
 237   2.0000      -0.460515       -12.5313
 238   2.0000      -0.460027       -12.5180
 239   2.0000      -0.457035       -12.4366
 240   2.0000      -0.456062       -12.4101
 241   2.0000      -0.455140       -12.3850
 242   2.0000      -0.454583       -12.3698
 243   2.0000      -0.451982       -12.2991
 244   2.0000      -0.450839       -12.2680
 245   2.0000      -0.449001       -12.2179
 246   2.0000      -0.447517       -12.1775
 247   2.0000      -0.445958       -12.1351
 248   2.0000      -0.438240       -11.9251
 249   2.0000      -0.437228       -11.8976
 250   2.0000      -0.435081       -11.8391
 251   2.0000      -0.433688       -11.8012
 252   2.0000      -0.430237       -11.7073
 253   2.0000      -0.426939       -11.6176
 254   2.0000      -0.425404       -11.5758
 255   2.0000      -0.422812       -11.5053
 256   2.0000      -0.422038       -11.4842
 257   2.0000      -0.418462       -11.3869
 258   2.0000      -0.415640       -11.3101
 259   2.0000      -0.407167       -11.0796
 260   2.0000      -0.399405       -10.8684
 261   2.0000      -0.393311       -10.7025
 262   2.0000      -0.392671       -10.6851
 263   2.0000      -0.389387       -10.5958
 264   2.0000      -0.386358       -10.5133
 265   2.0000      -0.383502       -10.4356
 266   2.0000      -0.382668       -10.4129
 267   2.0000      -0.380062       -10.3420
 268   2.0000      -0.375165       -10.2088
 269   2.0000      -0.372120       -10.1259
 270   2.0000      -0.371339       -10.1047
 271   2.0000      -0.366452        -9.9717
 272   2.0000      -0.354796        -9.6545
 273   2.0000      -0.352056        -9.5799
 274   2.0000      -0.347832        -9.4650
 275   2.0000      -0.344401        -9.3716
 276   2.0000      -0.344026        -9.3614
 277   2.0000      -0.341628        -9.2962
 278   2.0000      -0.337922        -9.1953
 279   2.0000      -0.334473        -9.1015
 280   2.0000      -0.329535        -8.9671
 281   2.0000      -0.322720        -8.7817
 282   2.0000      -0.322487        -8.7753
 283   2.0000      -0.314579        -8.5601
 284   2.0000      -0.307823        -8.3763
 285   2.0000      -0.297288        -8.0896
 286   2.0000      -0.288599        -7.8532
 287   2.0000      -0.282994        -7.7007
 288   2.0000      -0.265963        -7.2372
 289   2.0000      -0.215414        -5.8617
 290   0.0000      -0.096681        -2.6308
 291   0.0000      -0.092937        -2.5289
 292   0.0000      -0.073274        -1.9939
 293   0.0000      -0.066308        -1.8043
 294   0.0000      -0.031963        -0.8698

MULLIKEN ATOMIC CHARGES
-----------------------
   0 C :    0.292381
   1 C :   -0.331001
   2 C :   -0.186752
   3 N :    0.156849
   4 C :   -0.207519
   5 N :    0.167505
   6 C :    0.011329
   7 C :   -0.011117
   8 C :   -0.065016
   9 C :    0.096407
  10 C :   -0.088324
  11 C :   -0.018503
  12 S :    0.191188
  13 C :   -0.125176
  14 C :    0.047024
  15 Br:    0.031689
  16 C :    0.191324
  17 O :   -0.212645
  18 C :   -0.077920
  19 C :   -0.072395
  20 C :   -0.004899
  21 C :    0.043078
  22 C :    0.009653
  23 C :   -0.030428
  24 C :   -0.044201
  25 C :    0.171386
  26 N :   -0.221338
  27 C :    0.114902
  28 C :    0.133478
  29 O :   -0.182151
  30 C :    0.019202
  31 C :    0.051071
  32 C :    0.106537
  33 O :   -0.202767
  34 N :   -0.226335
  35 C :    0.119839
  36 C :    0.223716
  37 C :   -0.141464
  38 C :    0.101753
  39 C :   -0.027103
  40 C :   -0.037819
  41 C :   -0.026670
  42 C :   -0.009345
  43 C :    0.004443
  44 C :   -0.010027
  45 C :   -0.019025
  46 C :    0.038834
  47 C :    0.032328
  48 C :   -0.047627
  49 S :    0.061337
  50 C :   -0.036796
  51 C :    0.030820
  52 C :    0.037626
  53 C :   -0.025071
  54 S :    0.057736
  55 C :   -0.016187
  56 C :   -0.164610
  57 S :    0.135819
  58 C :   -0.072340
  59 C :    0.091789
  60 C :    0.187962
  61 O :   -0.176442
  62 C :    0.233226
  63 N :    0.275373
  64 O :   -0.244402
  65 O :   -0.232425
  66 C :   -0.088132
  67 C :   -0.066618
  68 S :    0.170968
  69 C :   -0.182115
  70 C :    0.200996
  71 O :   -0.199263
  72 O :   -0.203559
  73 C :    0.033067
  74 C :   -0.028632
  75 H :   -0.010288
  76 H :   -0.005458
  77 H :    0.014486
  78 H :    0.049875
  79 H :   -0.016325
  80 H :   -0.016666
  81 H :   -0.015885
  82 H :    0.036736
  83 H :    0.061288
  84 H :    0.057230
  85 H :    0.040575
  86 H :    0.063608
  87 H :    0.062636
  88 H :    0.036523
  89 H :    0.034847
  90 H :   -0.044288
  91 H :   -0.018580
  92 H :   -0.026402
  93 H :   -0.004959
  94 H :    0.008204
  95 H :   -0.011577
  96 H :   -0.007436
  97 H :   -0.009841
  98 H :   -0.010527
  99 H :   -0.007794
 100 H :    0.006774
 101 H :    0.024961
 102 H :    0.211118
 103 H :   -0.000749
 104 H :   -0.010560
Sum of atomic charges:   -0.0000000

LOEWDIN ATOMIC CHARGES
----------------------
   0 C :    0.074695
   1 C :   -0.134427
   2 C :   -0.018782
   3 N :   -0.045594
   4 C :   -0.026252
   5 N :   -0.043877
   6 C :   -0.020898
   7 C :   -0.060226
   8 C :    0.032312
   9 C :   -0.030917
  10 C :   -0.140556
  11 C :   -0.009903
  12 S :    0.435942
  13 C :   -0.269716
  14 C :   -0.062265
  15 Br:    0.143053
  16 C :    0.113070
  17 O :   -0.150807
  18 C :   -0.092959
  19 C :    0.086719
  20 C :   -0.072953
  21 C :    0.022919
  22 C :   -0.050907
  23 C :    0.003274
  24 C :   -0.047740
  25 C :    0.063299
  26 N :    0.000554
  27 C :    0.033039
  28 C :    0.085213
  29 O :   -0.175635
  30 C :   -0.023316
  31 C :   -0.023150
  32 C :    0.081403
  33 O :   -0.192699
  34 N :   -0.008526
  35 C :    0.034499
  36 C :    0.037508
  37 C :   -0.053463
  38 C :   -0.012519
  39 C :   -0.036396
  40 C :   -0.016624
  41 C :   -0.044467
  42 C :   -0.013462
  43 C :   -0.031685
  44 C :   -0.052446
  45 C :   -0.139885
  46 C :   -0.030322
  47 C :   -0.028823
  48 C :   -0.174285
  49 S :    0.368323
  50 C :   -0.179211
  51 C :   -0.033396
  52 C :   -0.030401
  53 C :   -0.150883
  54 S :    0.366591
  55 C :   -0.071387
  56 C :   -0.193115
  57 S :    0.457903
  58 C :   -0.190155
  59 C :   -0.080152
  60 C :    0.021918
  61 O :    0.008571
  62 C :    0.027758
  63 N :    0.271532
  64 O :   -0.206118
  65 O :   -0.193838
  66 C :   -0.013002
  67 C :   -0.172702
  68 S :    0.489247
  69 C :   -0.237927
  70 C :    0.051776
  71 O :   -0.187504
  72 O :   -0.039053
  73 C :   -0.036200
  74 C :   -0.068248
  75 H :    0.038956
  76 H :    0.041678
  77 H :    0.046130
  78 H :    0.047163
  79 H :    0.031081
  80 H :    0.028451
  81 H :    0.034975
  82 H :    0.027177
  83 H :    0.034480
  84 H :    0.042630
  85 H :    0.050326
  86 H :    0.060680
  87 H :    0.043268
  88 H :    0.028551
  89 H :    0.028164
  90 H :    0.027558
  91 H :    0.027947
  92 H :    0.029776
  93 H :    0.028804
  94 H :    0.020921
  95 H :    0.033486
  96 H :    0.035240
  97 H :    0.033421
  98 H :    0.033401
  99 H :    0.035597
 100 H :    0.047328
 101 H :    0.043760
 102 H :    0.067310
 103 H :    0.034678
 104 H :    0.025716

  Mayer bond orders larger than 0.100000
B(  0-C ,  1-C ) :   1.6634 B(  0-C ,  6-C ) :   1.0213 B(  0-C , 18-C ) :   1.0230
B(  1-C ,  2-C ) :   1.1346 B(  1-C ,  4-C ) :   1.1423 B(  2-C ,  3-N ) :   2.9766
B(  4-C ,  5-N ) :   2.9886 B(  6-C ,  7-C ) :   1.2494 B(  6-C , 11-C ) :   1.4130
B(  7-C ,  8-C ) :   1.3972 B(  7-C , 16-C ) :   0.9725 B(  8-C ,  9-C ) :   1.2745
B(  8-C , 75-H ) :   0.9953 B(  9-C , 10-C ) :   1.2925 B(  9-C , 14-C ) :   1.1705
B( 10-C , 11-C ) :   1.3290 B( 10-C , 12-S ) :   1.0932 B( 11-C , 76-H ) :   0.9803
B( 12-S , 13-C ) :   1.0820 B( 13-C , 14-C ) :   1.6142 B( 13-C , 15-Br) :   1.0236
B( 14-C , 77-H ) :   1.0000 B( 16-C , 17-O ) :   2.0013 B( 16-C , 18-C ) :   0.9857
B( 17-O ,102-H ) :   0.1238 B( 18-C , 19-C ) :   1.6643 B( 19-C , 20-C ) :   1.0600
B( 19-C , 78-H ) :   0.9359 B( 20-C , 21-C ) :   1.3167 B( 20-C , 25-C ) :   1.3482
B( 21-C , 22-C ) :   1.4322 B( 21-C , 79-H ) :   0.9870 B( 22-C , 23-C ) :   1.2804
B( 22-C , 80-H ) :   0.9909 B( 23-C , 24-C ) :   1.4692 B( 23-C , 81-H ) :   1.0080
B( 24-C , 25-C ) :   1.3227 B( 24-C , 30-C ) :   0.9428 B( 25-C , 26-N ) :   1.1082
B( 26-N , 27-C ) :   0.9567 B( 26-N , 28-C ) :   1.0957 B( 27-C , 82-H ) :   0.9604
B( 27-C , 83-H ) :   0.9675 B( 27-C , 84-H ) :   0.9482 B( 28-C , 29-O ) :   2.1846
B( 28-C , 30-C ) :   0.9265 B( 30-C , 31-C ) :   1.0504 B( 30-C , 85-H ) :   0.8833
B( 31-C , 32-C ) :   0.9027 B( 31-C , 41-C ) :   0.9774 B( 31-C , 86-H ) :   0.8594
B( 32-C , 33-O ) :   2.1146 B( 32-C , 34-N ) :   1.1548 B( 34-N , 35-C ) :   0.9630
B( 34-N , 36-C ) :   1.0448 B( 35-C , 87-H ) :   0.9582 B( 35-C , 88-H ) :   0.9718
B( 35-C , 89-H ) :   0.9729 B( 36-C , 37-C ) :   1.3585 B( 36-C , 41-C ) :   1.3578
B( 37-C , 38-C ) :   1.2788 B( 37-C , 90-H ) :   1.0147 B( 38-C , 39-C ) :   1.3869
B( 38-C , 42-C ) :   1.0216 B( 39-C , 40-C ) :   1.3320 B( 39-C , 91-H ) :   0.9919
B( 40-C , 41-C ) :   1.4244 B( 40-C , 92-H ) :   1.0079 B( 42-C , 43-C ) :   1.7252
B( 42-C , 93-H ) :   0.9769 B( 43-C , 44-C ) :   1.1268 B( 43-C , 94-H ) :   0.9611
B( 44-C , 45-C ) :   1.5999 B( 44-C , 95-H ) :   0.9834 B( 45-C , 46-C ) :   1.1320
B( 45-C , 49-S ) :   1.0262 B( 46-C , 47-C ) :   1.5998 B( 46-C , 96-H ) :   0.9984
B( 47-C , 48-C ) :   1.1837 B( 47-C , 97-H ) :   0.9941 B( 48-C , 49-S ) :   1.0494
B( 48-C , 50-C ) :   1.5094 B( 50-C , 51-C ) :   1.1904 B( 50-C , 54-S ) :   1.0387
B( 51-C , 52-C ) :   1.5841 B( 51-C , 98-H ) :   0.9935 B( 52-C , 53-C ) :   1.1516
B( 52-C , 99-H ) :   1.0005 B( 53-C , 54-S ) :   1.0421 B( 53-C , 55-C ) :   1.5328
B( 55-C , 56-C ) :   1.2073 B( 55-C ,100-H ) :   0.9747 B( 56-C , 57-S ) :   1.0807
B( 56-C , 58-C ) :   0.1045 B( 56-C , 60-C ) :   1.4154 B( 57-S , 58-C ) :   1.1340
B( 58-C , 59-C ) :   1.3384 B( 58-C , 67-C ) :   1.2004 B( 59-C , 60-C ) :   1.2474
B( 59-C , 66-C ) :   1.0888 B( 60-C , 61-O ) :   1.1352 B( 61-O , 62-C ) :   1.1261
B( 62-C , 63-N ) :   0.9174 B( 62-C , 66-C ) :   1.5661 B( 63-N , 64-O ) :   1.5328
B( 63-N , 65-O ) :   1.5094 B( 64-O , 65-O ) :   0.2810 B( 66-C ,101-H ) :   1.0159
B( 67-C , 68-S ) :   1.1439 B( 67-C , 69-C ) :   0.1018 B( 67-C , 74-C ) :   1.4574
B( 68-S , 69-C ) :   1.1273 B( 69-C , 70-C ) :   0.9478 B( 69-C , 73-C ) :   1.4889
B( 70-C , 71-O ) :   2.1762 B( 70-C , 72-O ) :   1.2435 B( 72-O ,102-H ) :   0.8627
B( 73-C , 74-C ) :   1.2983 B( 73-C ,103-H ) :   0.9840 B( 74-C ,104-H ) :   0.9959

-----------------------------------------------------------------------------
         ABSORPTION SPECTRUM VIA TRANSITION ELECTRIC DIPOLE MOMENTS
-----------------------------------------------------------------------------
State   Energy  Wavelength   fosc         T2         TX        TY        TZ
        (cm-1)    (nm)                  (au**2)     (au)      (au)      (au)
-----------------------------------------------------------------------------
   0   12453.4    803.0   0.728466065  19.25744   3.24604  -2.76334  -1.04145
   1   17435.0    573.6   0.002413519   0.04557   0.09452   0.12391  -0.14589
   2   18144.4    551.1   0.349311096   6.33791   1.76048   0.02613  -1.79943
   3   21099.9    473.9   0.000490963   0.00766   0.06053  -0.05716  -0.02700
   4   22169.0    451.1   0.450861433   6.69535  -1.05793  -1.18307   2.04364
   5   23152.4    431.9   0.394529817   5.60996  -0.41066   2.14483   0.91708
   6   25987.0    384.8   1.223666348  15.50182  -0.50503  -2.58519   2.92636
   7   26940.2    371.2   0.011913253   0.14558  -0.37579  -0.05922  -0.02923
   8   27250.7    367.0   0.002887935   0.03489  -0.09677  -0.15818   0.02239
   9   27760.9    360.2   0.128410651   1.52280  -0.77253   0.87383  -0.40303
  10   27952.8    357.7   0.259182582   3.05250   1.54522  -0.48998  -0.65170
  11   28779.6    347.5   0.350460869   4.00895   1.08820  -1.66607  -0.22130
  12   29386.7    340.3   0.050666444   0.56760   0.01870  -0.64738   0.38491
  13   29413.7    340.0   0.037398065   0.41858  -0.01292  -0.64672  -0.01269
  14   29723.4    336.4   0.053872005   0.59668   0.70554  -0.07917  -0.30433
  15   29935.5    334.1   0.001095092   0.01204   0.10918  -0.01081   0.00242
  16   30089.3    332.3   0.044724904   0.48934   0.59148   0.04080  -0.37126
  17   30159.7    331.6   0.020761554   0.22663  -0.46421  -0.00008   0.10553
  18   31048.0    322.1   0.072154804   0.76508   0.67605  -0.43184  -0.34863
  19   31062.8    321.9   0.035430617   0.37550  -0.55579   0.06460   0.24986
  20   31483.4    317.6   0.014681386   0.15352  -0.01890  -0.38717  -0.05708
  21   32716.8    305.7   0.574023221   5.77609   2.27555  -0.47074  -0.61349
  22   33070.3    302.4   0.056062023   0.55809   0.08075   0.59841  -0.43986
  23   34030.3    293.9   0.007283334   0.07046  -0.24118   0.03786   0.10421
  24   34516.9    289.7   0.019449161   0.18550   0.21692  -0.35306   0.11745
  25   34841.8    287.0   0.017343890   0.16388   0.20927   0.23577  -0.25397
  26   34988.5    285.8   0.011469521   0.10792   0.15130  -0.27037  -0.10921
  27   35091.6    285.0   0.000030490   0.00029  -0.01435   0.00115  -0.00887
  28   35461.6    282.0   0.360160892   3.34360  -0.18876   1.74897  -0.49907
  29   35558.4    281.2   0.207884891   1.92467  -0.69823   1.01057   0.64490
  30   35936.7    278.3   0.171031926   1.56680   1.01173  -0.56853  -0.46901
  31   36166.6    276.5   0.014569174   0.13262   0.03546  -0.14285   0.33310
  32   36215.3    276.1   0.010649591   0.09681   0.13542  -0.23185  -0.15721
  33   36455.7    274.3   0.005326072   0.04810   0.09864   0.00920  -0.19566
  34   36883.4    271.1   0.032792428   0.29270   0.04283  -0.53930   0.00392
  35   37007.3    270.2   0.005985361   0.05324   0.22221   0.05976   0.01727
  36   37050.9    269.9   0.035227362   0.31301  -0.22946   0.36227   0.35932
  37   37383.0    267.5   0.003058461   0.02693  -0.08488  -0.11274  -0.08379
  38   37550.2    266.3   0.138797131   1.21687   0.54851   0.92726  -0.23704
  39   37932.6    263.6   0.001436519   0.01247  -0.02015  -0.10750  -0.02247
  40   37972.4    263.3   0.048288243   0.41865  -0.61598   0.19492   0.03492
  41   38361.3    260.7   0.044922640   0.38552   0.01474  -0.44753   0.43014
  42   38591.8    259.1   0.017657238   0.15063  -0.02130  -0.38748   0.00599
  43   38878.8    257.2   0.002746301   0.02325  -0.08207  -0.12776   0.01398
  44   39234.3    254.9   0.003485804   0.02925   0.09844  -0.11052   0.08569
  45   39358.7    254.1   0.000068640   0.00057  -0.01737  -0.00918   0.01372
  46   39943.3    250.4   0.220327344   1.81593   1.11130  -0.37029  -0.66621
  47   40304.8    248.1   0.015567886   0.12716  -0.31886   0.05877   0.14844

FINAL SINGLE POINT ENERGY     -7588.022904627670

DIPOLE MOMENT
-------------
                                X             Y             Z
Electronic contribution:     87.23732    -147.62421     -18.00923
Nuclear contribution   :    -89.67099     150.87113      17.43716
                        -----------------------------------------
Total Dipole Moment    :     -2.43367       3.24692      -0.57207
                        -----------------------------------------
Magnitude (a.u.)       :      4.09787
Magnitude (Debye)      :     10.41595

Rotational constants in cm-1:     0.000688     0.000432     0.000280
Rotational constants in MHz :    20.633302    12.961996     8.408767

                             ****ORCA TERMINATED NORMALLY****
TOTAL RUN TIME: 0 days 0 hours 12 minutes 24 seconds 334 msec
