                         Program Version 4.2.0 -  RELEASE  -
|  1> # ORCA input file
|  2> # SCF done       -168.353242902942          0.000904839519
|  3> ! CAM-B3LYP def2-SVP def2/J RIJCOSX Grid4 TightSCF
|  4> %maxcore 5000
|  5> %tddft
|  6>     Mode sTDDFT
|  7>     Ethresh 5.0
|  8>     maxcore 5000
|  9> end
| 10>
| 11> %pal
| 12>   nprocs 6
| 13>   end
| 14> * xyz 0 1
| 15>    C       -7.93089        -0.19449        -3.91041
| 16>    C       -7.57106         1.05440        -4.36716
| 17>    C       -6.49244         1.29492        -5.24126
| 18>    N       -5.63202         1.56370        -5.95375
| 19>    C       -8.18596         2.27191        -4.02084
| 20>    N       -8.62077         3.31047        -3.78149
| 21>    C       -7.23865        -1.43500        -4.24277
| 22>    C       -7.81984        -2.49031        -3.50013
| 23>    C       -7.37768        -3.78669        -3.58152
| 24>    C       -6.31748        -4.06136        -4.45311
| 25>    C       -5.74751        -3.00275        -5.19766
| 26>    C       -6.18819        -1.68810        -5.10571
| 27>    S       -4.45138        -3.56128        -6.21285
| 28>    C       -4.69135        -5.18691        -5.62997
| 29>    C       -5.68908        -5.30785        -4.72272
| 30>   Br       -3.60211        -6.57155        -6.27466
| 31>    C       -8.90950        -1.95434        -2.65256
| 32>    O       -9.48555        -2.56082        -1.77737
| 33>    C       -9.02779        -0.52359        -3.02526
| 34>    C       -9.96663         0.38553        -2.60496
| 35>    C      -11.17295         0.15984        -1.90812
| 36>    C      -11.90554         1.20546        -1.35374
| 37>    O      -13.05204         0.99124        -0.64189
| 38>    C      -13.45013        -0.30868        -0.51847
| 39>    C      -12.71600        -1.37399        -1.11059
| 40>    C      -13.27016        -2.58726        -0.86951
| 41>    S      -14.70212        -2.43935         0.08303
| 42>    C      -14.54898        -0.72705         0.15570
| 43>    O      -11.59585        -1.14327        -1.84352
| 44>    C      -11.55406         2.58573        -1.44142
| 45>    C      -12.23168         3.56067        -0.78764
| 46>    C      -11.91016         4.94052        -0.95322
| 47>    C      -12.47970         5.96703        -0.29581
| 48>    C      -13.51146         5.80532         0.77922
| 49>    C      -12.08708         7.38065        -0.62697
| 50>    N      -13.15946         8.07821        -1.31379
| 51>    C      -14.13558         7.45740        -2.00529
| 52>    C      -15.00059         8.07512        -2.85238
| 53>    C      -16.09844         7.45674        -3.48838
| 54>    C      -16.67906         6.23909        -3.24678
| 55>    C      -17.81502         5.73309        -3.93036
| 56>    C      -18.29850         4.55568        -3.45258
| 57>    C      -17.57633         4.04111        -2.35020
| 58>    S      -16.22482         5.09434        -1.98168
| 59>    C      -17.86289         2.92364        -1.59906
| 60>    C      -18.95983         2.04128        -1.73228
| 61>    C      -19.03363         1.09510        -0.76160
| 62>    C      -18.00534         1.16173         0.22251
| 63>    S      -16.89079         2.45520        -0.21243
| 64>    C      -17.90947         0.30884         1.28404
| 65>    C      -16.99402         0.26764         2.37160
| 66>    S      -16.69726        -1.31327         3.07776
| 67>    C      -15.58899        -0.64691         4.20225
| 68>    C      -15.46928         0.70538         4.08169
| 69>    C      -16.27726         1.23828         3.04689
| 70>    C      -16.38301         2.71396         2.83168
| 71>    C      -15.91218         3.47060         4.06983
| 72>    C      -14.50860         2.98167         4.45358
| 73>    C      -13.91404         3.90085         5.50954
| 74>    O      -13.76830         3.61661         6.66072
| 75>    O      -13.56040         5.11790         5.04802
| 76>    C      -14.60368         1.54671         4.96877
| 77>    H       -7.83709        -4.56680        -2.99502
| 78>    H       -5.71712        -0.91760        -5.69249
| 79>    H       -5.97139        -6.23635        -4.26089
| 80>    H       -9.78533         1.41178        -2.87342
| 81>    H      -12.91717        -3.54415        -1.19083
| 82>    H      -15.26533        -0.12835         0.67728
| 83>    H      -10.72020         2.86687        -2.06407
| 84>    H      -13.05050         3.29063        -0.13832
| 85>    H      -11.14822         5.15455        -1.69193
| 86>    H      -14.25935         5.06527         0.50302
| 87>    H      -14.01461         6.74955         0.97046
| 88>    H      -13.02645         5.47802         1.70012
| 89>    H      -11.18126         7.37968        -1.24819
| 90>    H      -11.86577         7.93192         0.29538
| 91>    H      -13.00499         9.05892        -1.49950
| 92>    H      -14.20285         6.39544        -1.83305
| 93>    H      -14.84680         9.12339        -3.07464
| 94>    H      -16.58540         8.04345        -4.25795
| 95>    H      -18.25071         6.27458        -4.75223
| 96>    H      -19.16278         4.05221        -3.84689
| 97>    H      -19.67191         2.14335        -2.53159
| 98>    H      -19.80912         0.35250        -0.69539
| 99>    H      -18.61153        -0.51680         1.26641
|100>    H      -15.09232        -1.29052         4.90054
|101>    H      -17.41466         2.98032         2.59466
|102>    H      -15.76613         3.01011         1.97740
|103>    H      -16.59066         3.28408         4.90431
|104>    H      -15.92033         4.54398         3.86350
|105>    H      -13.86699         3.01344         3.56299
|106>    H      -13.75864         5.22315         4.10751
|107>    H      -15.02100         1.56713         5.97996
|108>    H      -13.60734         1.10587         5.04653
|109> *
|110>
|111>                          ****END OF INPUT****

CARTESIAN COORDINATES (ANGSTROEM)
---------------------------------
  C     -7.930890   -0.194490   -3.910410
  C     -7.571060    1.054400   -4.367160
  C     -6.492440    1.294920   -5.241260
  N     -5.632020    1.563700   -5.953750
  C     -8.185960    2.271910   -4.020840
  N     -8.620770    3.310470   -3.781490
  C     -7.238650   -1.435000   -4.242770
  C     -7.819840   -2.490310   -3.500130
  C     -7.377680   -3.786690   -3.581520
  C     -6.317480   -4.061360   -4.453110
  C     -5.747510   -3.002750   -5.197660
  C     -6.188190   -1.688100   -5.105710
  S     -4.451380   -3.561280   -6.212850
  C     -4.691350   -5.186910   -5.629970
  C     -5.689080   -5.307850   -4.722720
  Br    -3.602110   -6.571550   -6.274660
  C     -8.909500   -1.954340   -2.652560
  O     -9.485550   -2.560820   -1.777370
  C     -9.027790   -0.523590   -3.025260
  C     -9.966630    0.385530   -2.604960
  C    -11.172950    0.159840   -1.908120
  C    -11.905540    1.205460   -1.353740
  O    -13.052040    0.991240   -0.641890
  C    -13.450130   -0.308680   -0.518470
  C    -12.716000   -1.373990   -1.110590
  C    -13.270160   -2.587260   -0.869510
  S    -14.702120   -2.439350    0.083030
  C    -14.548980   -0.727050    0.155700
  O    -11.595850   -1.143270   -1.843520
  C    -11.554060    2.585730   -1.441420
  C    -12.231680    3.560670   -0.787640
  C    -11.910160    4.940520   -0.953220
  C    -12.479700    5.967030   -0.295810
  C    -13.511460    5.805320    0.779220
  C    -12.087080    7.380650   -0.626970
  N    -13.159460    8.078210   -1.313790
  C    -14.135580    7.457400   -2.005290
  C    -15.000590    8.075120   -2.852380
  C    -16.098440    7.456740   -3.488380
  C    -16.679060    6.239090   -3.246780
  C    -17.815020    5.733090   -3.930360
  C    -18.298500    4.555680   -3.452580
  C    -17.576330    4.041110   -2.350200
  S    -16.224820    5.094340   -1.981680
  C    -17.862890    2.923640   -1.599060
  C    -18.959830    2.041280   -1.732280
  C    -19.033630    1.095100   -0.761600
  C    -18.005340    1.161730    0.222510
  S    -16.890790    2.455200   -0.212430
  C    -17.909470    0.308840    1.284040
  C    -16.994020    0.267640    2.371600
  S    -16.697260   -1.313270    3.077760
  C    -15.588990   -0.646910    4.202250
  C    -15.469280    0.705380    4.081690
  C    -16.277260    1.238280    3.046890
  C    -16.383010    2.713960    2.831680
  C    -15.912180    3.470600    4.069830
  C    -14.508600    2.981670    4.453580
  C    -13.914040    3.900850    5.509540
  O    -13.768300    3.616610    6.660720
  O    -13.560400    5.117900    5.048020
  C    -14.603680    1.546710    4.968770
  H     -7.837090   -4.566800   -2.995020
  H     -5.717120   -0.917600   -5.692490
  H     -5.971390   -6.236350   -4.260890
  H     -9.785330    1.411780   -2.873420
  H    -12.917170   -3.544150   -1.190830
  H    -15.265330   -0.128350    0.677280
  H    -10.720200    2.866870   -2.064070
  H    -13.050500    3.290630   -0.138320
  H    -11.148220    5.154550   -1.691930
  H    -14.259350    5.065270    0.503020
  H    -14.014610    6.749550    0.970460
  H    -13.026450    5.478020    1.700120
  H    -11.181260    7.379680   -1.248190
  H    -11.865770    7.931920    0.295380
  H    -13.004990    9.058920   -1.499500
  H    -14.202850    6.395440   -1.833050
  H    -14.846800    9.123390   -3.074640
  H    -16.585400    8.043450   -4.257950
  H    -18.250710    6.274580   -4.752230
  H    -19.162780    4.052210   -3.846890
  H    -19.671910    2.143350   -2.531590
  H    -19.809120    0.352500   -0.695390
  H    -18.611530   -0.516800    1.266410
  H    -15.092320   -1.290520    4.900540
  H    -17.414660    2.980320    2.594660
  H    -15.766130    3.010110    1.977400
  H    -16.590660    3.284080    4.904310
  H    -15.920330    4.543980    3.863500
  H    -13.866990    3.013440    3.562990
  H    -13.758640    5.223150    4.107510
  H    -15.021000    1.567130    5.979960
  H    -13.607340    1.105870    5.046530

 Total Charge           Charge          ....    0
 Multiplicity           Mult            ....    1
 Number of Electrons    NEL             ....  496
 Basis Dimension        Dim             .... 1066

ORBITAL ENERGIES
----------------

  NO   OCC          E(Eh)            E(eV)
   0   2.0000    -482.882515    -13139.9012
   1   2.0000     -88.971188     -2421.0291
   2   2.0000     -88.951873     -2420.5035
   3   2.0000     -88.943336     -2420.2712
   4   2.0000     -88.940058     -2420.1820
   5   2.0000     -88.938227     -2420.1322
   6   2.0000     -62.560229     -1702.3504
   7   2.0000     -56.394177     -1534.5636
   8   2.0000     -56.391466     -1534.4898
   9   2.0000     -56.391432     -1534.4889
  10   2.0000     -19.290070      -524.9095
  11   2.0000     -19.268715      -524.3284
  12   2.0000     -19.257252      -524.0165
  13   2.0000     -19.203028      -522.5410
  14   2.0000     -19.195630      -522.3397
  15   2.0000     -14.446152      -393.0998
  16   2.0000     -14.419065      -392.3627
  17   2.0000     -14.409865      -392.1123
  18   2.0000     -10.393041      -282.8090
  19   2.0000     -10.374869      -282.3145
  20   2.0000     -10.357051      -281.8297
  21   2.0000     -10.356946      -281.8268
  22   2.0000     -10.355154      -281.7781
  23   2.0000     -10.338377      -281.3215
  24   2.0000     -10.335771      -281.2506
  25   2.0000     -10.335686      -281.2483
  26   2.0000     -10.335119      -281.2329
  27   2.0000     -10.323996      -280.9302
  28   2.0000     -10.323318      -280.9118
  29   2.0000     -10.320388      -280.8320
  30   2.0000     -10.318058      -280.7686
  31   2.0000     -10.315501      -280.6991
  32   2.0000     -10.313794      -280.6526
  33   2.0000     -10.304625      -280.4031
  34   2.0000     -10.303169      -280.3635
  35   2.0000     -10.302949      -280.3575
  36   2.0000     -10.302435      -280.3435
  37   2.0000     -10.301355      -280.3141
  38   2.0000     -10.300754      -280.2978
  39   2.0000     -10.295294      -280.1492
  40   2.0000     -10.294696      -280.1329
  41   2.0000     -10.294528      -280.1283
  42   2.0000     -10.294256      -280.1209
  43   2.0000     -10.293125      -280.0902
  44   2.0000     -10.292737      -280.0796
  45   2.0000     -10.292589      -280.0756
  46   2.0000     -10.289529      -279.9923
  47   2.0000     -10.288524      -279.9650
  48   2.0000     -10.287850      -279.9466
  49   2.0000     -10.286741      -279.9164
  50   2.0000     -10.285493      -279.8825
  51   2.0000     -10.284655      -279.8597
  52   2.0000     -10.283297      -279.8227
  53   2.0000     -10.280101      -279.7358
  54   2.0000     -10.279132      -279.7094
  55   2.0000     -10.278799      -279.7003
  56   2.0000     -10.278658      -279.6965
  57   2.0000     -10.278330      -279.6876
  58   2.0000     -10.274415      -279.5810
  59   2.0000     -10.272338      -279.5245
  60   2.0000     -10.271890      -279.5123
  61   2.0000     -10.269892      -279.4580
  62   2.0000     -10.269596      -279.4499
  63   2.0000     -10.268306      -279.4148
  64   2.0000     -10.267932      -279.4046
  65   2.0000     -10.256770      -279.1009
  66   2.0000      -8.789652      -239.1786
  67   2.0000      -8.067202      -219.5197
  68   2.0000      -8.047445      -218.9821
  69   2.0000      -8.039054      -218.7538
  70   2.0000      -8.035374      -218.6536
  71   2.0000      -8.033625      -218.6061
  72   2.0000      -6.625954      -180.3014
  73   2.0000      -6.611389      -179.9050
  74   2.0000      -6.611184      -179.8995
  75   2.0000      -6.036894      -164.2722
  76   2.0000      -6.032636      -164.1564
  77   2.0000      -6.028400      -164.0411
  78   2.0000      -6.016908      -163.7284
  79   2.0000      -6.012716      -163.6143
  80   2.0000      -6.009243      -163.5198
  81   2.0000      -6.008331      -163.4950
  82   2.0000      -6.005193      -163.4096
  83   2.0000      -6.004174      -163.3819
  84   2.0000      -6.003454      -163.3623
  85   2.0000      -6.001247      -163.3022
  86   2.0000      -6.001141      -163.2993
  87   2.0000      -5.999480      -163.2541
  88   2.0000      -5.996405      -163.1705
  89   2.0000      -5.994455      -163.1174
  90   2.0000      -2.741784       -74.6077
  91   2.0000      -2.737745       -74.4978
  92   2.0000      -2.737619       -74.4944
  93   2.0000      -2.726024       -74.1789
  94   2.0000      -2.726004       -74.1784
  95   2.0000      -1.211061       -32.9546
  96   2.0000      -1.178417       -32.0664
  97   2.0000      -1.170814       -31.8595
  98   2.0000      -1.117976       -30.4217
  99   2.0000      -1.094468       -29.7820
 100   2.0000      -1.045284       -28.4436
 101   2.0000      -1.019213       -27.7342
 102   2.0000      -1.011453       -27.5230
 103   2.0000      -0.992913       -27.0185
 104   2.0000      -0.986367       -26.8404
 105   2.0000      -0.985352       -26.8128
 106   2.0000      -0.982472       -26.7344
 107   2.0000      -0.978007       -26.6129
 108   2.0000      -0.961117       -26.1533
 109   2.0000      -0.942264       -25.6403
 110   2.0000      -0.936927       -25.4951
 111   2.0000      -0.922941       -25.1145
 112   2.0000      -0.921389       -25.0723
 113   2.0000      -0.904089       -24.6015
 114   2.0000      -0.898159       -24.4401
 115   2.0000      -0.890751       -24.2386
 116   2.0000      -0.881059       -23.9748
 117   2.0000      -0.875997       -23.8371
 118   2.0000      -0.869781       -23.6679
 119   2.0000      -0.853232       -23.2176
 120   2.0000      -0.843852       -22.9624
 121   2.0000      -0.837246       -22.7826
 122   2.0000      -0.829676       -22.5766
 123   2.0000      -0.825833       -22.4721
 124   2.0000      -0.823318       -22.4036
 125   2.0000      -0.822663       -22.3858
 126   2.0000      -0.813621       -22.1398
 127   2.0000      -0.812751       -22.1161
 128   2.0000      -0.803665       -21.8688
 129   2.0000      -0.792219       -21.5574
 130   2.0000      -0.779049       -21.1990
 131   2.0000      -0.766832       -20.8665
 132   2.0000      -0.754806       -20.5393
 133   2.0000      -0.752145       -20.4669
 134   2.0000      -0.734975       -19.9997
 135   2.0000      -0.727436       -19.7945
 136   2.0000      -0.719566       -19.5804
 137   2.0000      -0.703358       -19.1393
 138   2.0000      -0.701573       -19.0908
 139   2.0000      -0.695468       -18.9246
 140   2.0000      -0.693721       -18.8771
 141   2.0000      -0.687123       -18.6976
 142   2.0000      -0.681189       -18.5361
 143   2.0000      -0.678043       -18.4505
 144   2.0000      -0.670123       -18.2350
 145   2.0000      -0.667788       -18.1714
 146   2.0000      -0.658736       -17.9251
 147   2.0000      -0.650688       -17.7061
 148   2.0000      -0.647189       -17.6109
 149   2.0000      -0.631531       -17.1848
 150   2.0000      -0.628377       -17.0990
 151   2.0000      -0.619370       -16.8539
 152   2.0000      -0.619136       -16.8475
 153   2.0000      -0.615531       -16.7495
 154   2.0000      -0.605752       -16.4833
 155   2.0000      -0.605414       -16.4742
 156   2.0000      -0.596306       -16.2263
 157   2.0000      -0.594214       -16.1694
 158   2.0000      -0.593324       -16.1452
 159   2.0000      -0.590820       -16.0770
 160   2.0000      -0.583096       -15.8668
 161   2.0000      -0.580542       -15.7973
 162   2.0000      -0.572170       -15.5695
 163   2.0000      -0.567673       -15.4472
 164   2.0000      -0.565433       -15.3862
 165   2.0000      -0.554982       -15.1018
 166   2.0000      -0.550468       -14.9790
 167   2.0000      -0.548340       -14.9211
 168   2.0000      -0.541760       -14.7420
 169   2.0000      -0.540775       -14.7152
 170   2.0000      -0.536113       -14.5884
 171   2.0000      -0.534863       -14.5544
 172   2.0000      -0.533699       -14.5227
 173   2.0000      -0.529629       -14.4119
 174   2.0000      -0.524110       -14.2618
 175   2.0000      -0.521025       -14.1778
 176   2.0000      -0.520088       -14.1523
 177   2.0000      -0.518267       -14.1028
 178   2.0000      -0.515608       -14.0304
 179   2.0000      -0.513208       -13.9651
 180   2.0000      -0.509423       -13.8621
 181   2.0000      -0.507092       -13.7987
 182   2.0000      -0.504018       -13.7150
 183   2.0000      -0.503701       -13.7064
 184   2.0000      -0.501928       -13.6582
 185   2.0000      -0.496742       -13.5170
 186   2.0000      -0.495888       -13.4938
 187   2.0000      -0.494170       -13.4470
 188   2.0000      -0.488974       -13.3057
 189   2.0000      -0.488453       -13.2915
 190   2.0000      -0.486526       -13.2390
 191   2.0000      -0.484015       -13.1707
 192   2.0000      -0.483419       -13.1545
 193   2.0000      -0.477064       -12.9816
 194   2.0000      -0.474543       -12.9130
 195   2.0000      -0.473068       -12.8728
 196   2.0000      -0.472192       -12.8490
 197   2.0000      -0.469215       -12.7680
 198   2.0000      -0.466522       -12.6947
 199   2.0000      -0.465578       -12.6690
 200   2.0000      -0.463687       -12.6176
 201   2.0000      -0.459096       -12.4926
 202   2.0000      -0.455260       -12.3883
 203   2.0000      -0.453875       -12.3506
 204   2.0000      -0.452567       -12.3150
 205   2.0000      -0.451071       -12.2743
 206   2.0000      -0.444776       -12.1030
 207   2.0000      -0.442125       -12.0308
 208   2.0000      -0.441208       -12.0059
 209   2.0000      -0.435405       -11.8480
 210   2.0000      -0.433266       -11.7898
 211   2.0000      -0.430922       -11.7260
 212   2.0000      -0.427030       -11.6201
 213   2.0000      -0.426568       -11.6075
 214   2.0000      -0.425889       -11.5890
 215   2.0000      -0.423661       -11.5284
 216   2.0000      -0.422486       -11.4964
 217   2.0000      -0.422108       -11.4861
 218   2.0000      -0.416457       -11.3324
 219   2.0000      -0.414906       -11.2902
 220   2.0000      -0.412166       -11.2156
 221   2.0000      -0.409897       -11.1539
 222   2.0000      -0.407488       -11.0883
 223   2.0000      -0.405655       -11.0384
 224   2.0000      -0.403712       -10.9856
 225   2.0000      -0.398912       -10.8550
 226   2.0000      -0.389054       -10.5867
 227   2.0000      -0.386254       -10.5105
 228   2.0000      -0.385680       -10.4949
 229   2.0000      -0.383281       -10.4296
 230   2.0000      -0.378383       -10.2963
 231   2.0000      -0.371988       -10.1223
 232   2.0000      -0.357323        -9.7233
 233   2.0000      -0.345685        -9.4066
 234   2.0000      -0.341339        -9.2883
 235   2.0000      -0.330606        -8.9963
 236   2.0000      -0.328475        -8.9383
 237   2.0000      -0.324250        -8.8233
 238   2.0000      -0.316213        -8.6046
 239   2.0000      -0.309797        -8.4300
 240   2.0000      -0.302779        -8.2390
 241   2.0000      -0.299870        -8.1599
 242   2.0000      -0.296764        -8.0754
 243   2.0000      -0.293884        -7.9970
 244   2.0000      -0.289533        -7.8786
 245   2.0000      -0.259523        -7.0620
 246   2.0000      -0.251079        -6.8322
 247   2.0000      -0.199350        -5.4246
 248   0.0000      -0.094678        -2.5763
 249   0.0000      -0.058465        -1.5909
 250   0.0000      -0.056043        -1.5250
 251   0.0000      -0.022398        -0.6095
 252   0.0000       0.000933         0.0254

MULLIKEN ATOMIC CHARGES
-----------------------
   0 C :    0.310015
   1 C :   -0.364438
   2 C :   -0.186418
   3 N :    0.142112
   4 C :   -0.168060
   5 N :    0.127463
   6 C :    0.015427
   7 C :   -0.007743
   8 C :   -0.076446
   9 C :    0.119383
  10 C :   -0.092626
  11 C :   -0.020315
  12 S :    0.182341
  13 C :   -0.122764
  14 C :    0.038263
  15 Br:    0.020477
  16 C :    0.122850
  17 O :   -0.128717
  18 C :   -0.058245
  19 C :   -0.070918
  20 C :    0.176210
  21 C :    0.195779
  22 O :   -0.233336
  23 C :    0.201036
  24 C :    0.226543
  25 C :   -0.174263
  26 S :    0.123184
  27 C :   -0.134356
  28 O :   -0.225169
  29 C :   -0.068234
  30 C :    0.037671
  31 C :    0.035867
  32 C :   -0.294583
  33 C :    0.080415
  34 C :    0.271598
  35 N :   -0.179314
  36 C :    0.053667
  37 C :   -0.038785
  38 C :    0.002433
  39 C :   -0.036168
  40 C :    0.044404
  41 C :    0.008389
  42 C :   -0.022938
  43 S :    0.010904
  44 C :   -0.062051
  45 C :    0.038138
  46 C :    0.020146
  47 C :   -0.006516
  48 S :    0.035064
  49 C :   -0.038355
  50 C :   -0.217798
  51 S :    0.103331
  52 C :   -0.126764
  53 C :   -0.055633
  54 C :   -0.068788
  55 C :    0.170069
  56 C :    0.022719
  57 C :   -0.217988
  58 C :    0.159258
  59 O :   -0.171730
  60 O :   -0.162959
  61 C :    0.213933
  62 H :   -0.012347
  63 H :   -0.008191
  64 H :   -0.004676
  65 H :   -0.006347
  66 H :    0.027520
  67 H :    0.012295
  68 H :    0.014668
  69 H :    0.006593
  70 H :    0.001402
  71 H :    0.050956
  72 H :    0.026379
  73 H :    0.024587
  74 H :    0.016874
  75 H :    0.012340
  76 H :    0.122776
  77 H :    0.053124
  78 H :   -0.033200
  79 H :   -0.014054
  80 H :   -0.016830
  81 H :   -0.020286
  82 H :   -0.016051
  83 H :   -0.015269
  84 H :   -0.010516
  85 H :    0.010051
  86 H :    0.023268
  87 H :    0.020775
  88 H :    0.025584
  89 H :   -0.006752
  90 H :    0.011403
  91 H :    0.178557
  92 H :    0.033001
  93 H :    0.015691
Sum of atomic charges:   -0.0000000

LOEWDIN ATOMIC CHARGES
----------------------
   0 C :    0.081940
   1 C :   -0.155603
   2 C :   -0.018892
   3 N :   -0.061022
   4 C :   -0.012396
   5 N :   -0.073418
   6 C :   -0.023573
   7 C :   -0.046061
   8 C :    0.018047
   9 C :   -0.031851
  10 C :   -0.145965
  11 C :   -0.009966
  12 S :    0.429284
  13 C :   -0.271846
  14 C :   -0.070695
  15 Br:    0.134391
  16 C :    0.072776
  17 O :   -0.132684
  18 C :   -0.094012
  19 C :    0.047056
  20 C :    0.008382
  21 C :    0.079798
  22 O :   -0.028235
  23 C :   -0.019477
  24 C :   -0.007210
  25 C :   -0.205579
  26 S :    0.446617
  27 C :   -0.193138
  28 O :   -0.033806
  29 C :   -0.040551
  30 C :    0.014346
  31 C :   -0.035027
  32 C :   -0.028015
  33 C :   -0.055848
  34 C :    0.050476
  35 N :   -0.000256
  36 C :    0.048767
  37 C :   -0.138668
  38 C :   -0.025590
  39 C :   -0.181457
  40 C :   -0.018346
  41 C :   -0.062536
  42 C :   -0.164441
  43 S :    0.354570
  44 C :   -0.201228
  45 C :   -0.029932
  46 C :   -0.046769
  47 C :   -0.142522
  48 S :    0.370761
  49 C :   -0.106027
  50 C :   -0.186425
  51 S :    0.421324
  52 C :   -0.193249
  53 C :   -0.064362
  54 C :   -0.073165
  55 C :   -0.035388
  56 C :   -0.017306
  57 C :   -0.074358
  58 C :    0.082673
  59 O :   -0.148578
  60 O :   -0.037456
  61 C :   -0.012458
  62 H :    0.039809
  63 H :    0.040359
  64 H :    0.038371
  65 H :    0.043144
  66 H :    0.031280
  67 H :    0.025935
  68 H :    0.039259
  69 H :    0.029649
  70 H :    0.035614
  71 H :    0.033843
  72 H :    0.034326
  73 H :    0.033393
  74 H :    0.023810
  75 H :    0.028830
  76 H :    0.081064
  77 H :    0.016201
  78 H :    0.021432
  79 H :    0.035308
  80 H :    0.031995
  81 H :    0.028622
  82 H :    0.031216
  83 H :    0.031039
  84 H :    0.031714
  85 H :    0.021302
  86 H :    0.033731
  87 H :    0.014082
  88 H :    0.032291
  89 H :    0.016672
  90 H :    0.026671
  91 H :    0.085721
  92 H :    0.040578
  93 H :    0.036922

  Mayer bond orders larger than 0.100000
B(  0-C ,  1-C ) :   1.5910 B(  0-C ,  6-C ) :   1.0023 B(  0-C , 18-C ) :   1.1035
B(  1-C ,  2-C ) :   1.1484 B(  1-C ,  4-C ) :   1.1550 B(  2-C ,  3-N ) :   2.9645
B(  4-C ,  5-N ) :   2.9580 B(  6-C ,  7-C ) :   1.2754 B(  6-C , 11-C ) :   1.4057
B(  7-C ,  8-C ) :   1.4327 B(  7-C , 16-C ) :   0.9232 B(  8-C ,  9-C ) :   1.2417
B(  8-C , 62-H ) :   1.0164 B(  9-C , 10-C ) :   1.3081 B(  9-C , 14-C ) :   1.1639
B( 10-C , 11-C ) :   1.3346 B( 10-C , 12-S ) :   1.0820 B( 11-C , 63-H ) :   0.9794
B( 12-S , 13-C ) :   1.0871 B( 13-C , 14-C ) :   1.6170 B( 13-C , 15-Br) :   1.0164
B( 14-C , 64-H ) :   1.0009 B( 16-C , 17-O ) :   2.2805 B( 16-C , 18-C ) :   0.9201
B( 18-C , 19-C ) :   1.5389 B( 19-C , 20-C ) :   1.2514 B( 19-C , 65-H ) :   0.9158
B( 20-C , 21-C ) :   1.3524 B( 20-C , 28-O ) :   1.0986 B( 21-C , 22-O ) :   1.1263
B( 21-C , 29-C ) :   1.1460 B( 22-O , 23-C ) :   1.0206 B( 23-C , 24-C ) :   1.1991
B( 23-C , 27-C ) :   1.5863 B( 24-C , 25-C ) :   1.5758 B( 24-C , 28-O ) :   1.0471
B( 25-C , 26-S ) :   1.1367 B( 25-C , 66-H ) :   0.9693 B( 26-S , 27-C ) :   1.1573
B( 27-C , 67-H ) :   0.9718 B( 29-C , 30-C ) :   1.6748 B( 29-C , 68-H ) :   0.9592
B( 30-C , 31-C ) :   1.0988 B( 30-C , 69-H ) :   0.9740 B( 31-C , 32-C ) :   1.7386
B( 31-C , 70-H ) :   0.9822 B( 32-C , 33-C ) :   1.0604 B( 32-C , 34-C ) :   1.0600
B( 33-C , 71-H ) :   0.9414 B( 33-C , 72-H ) :   0.9485 B( 33-C , 73-H ) :   0.9434
B( 34-C , 35-N ) :   0.9789 B( 34-C , 74-H ) :   0.9366 B( 34-C , 75-H ) :   0.9222
B( 35-N , 36-C ) :   1.2541 B( 35-N , 76-H ) :   0.9407 B( 36-C , 37-C ) :   1.5595
B( 36-C , 77-H ) :   0.9381 B( 37-C , 38-C ) :   1.2167 B( 37-C , 78-H ) :   0.9656
B( 38-C , 39-C ) :   1.5878 B( 38-C , 79-H ) :   0.9607 B( 39-C , 40-C ) :   1.1551
B( 39-C , 43-S ) :   0.9982 B( 40-C , 41-C ) :   1.5924 B( 40-C , 80-H ) :   0.9969
B( 41-C , 42-C ) :   1.1794 B( 41-C , 81-H ) :   0.9924 B( 42-C , 43-S ) :   1.0451
B( 42-C , 44-C ) :   1.5302 B( 44-C , 45-C ) :   1.1757 B( 44-C , 48-S ) :   1.0205
B( 45-C , 46-C ) :   1.6086 B( 45-C , 82-H ) :   0.9919 B( 46-C , 47-C ) :   1.1226
B( 46-C , 83-H ) :   0.9981 B( 47-C , 48-S ) :   1.0279 B( 47-C , 49-C ) :   1.6551
B( 49-C , 50-C ) :   1.0918 B( 49-C , 84-H ) :   0.9449 B( 50-C , 51-S ) :   1.1328
B( 50-C , 54-C ) :   1.5038 B( 51-S , 52-C ) :   1.1394 B( 52-C , 53-C ) :   1.5823
B( 52-C , 85-H ) :   0.9713 B( 53-C , 54-C ) :   1.2918 B( 53-C , 61-C ) :   1.0027
B( 54-C , 55-C ) :   1.0525 B( 55-C , 56-C ) :   1.0824 B( 55-C , 86-H ) :   0.9172
B( 55-C , 87-H ) :   0.8915 B( 56-C , 57-C ) :   1.0208 B( 56-C , 88-H ) :   0.9389
B( 56-C , 89-H ) :   0.9363 B( 57-C , 58-C ) :   0.9126 B( 57-C , 61-C ) :   1.0464
B( 57-C , 90-H ) :   0.9118 B( 58-C , 59-O ) :   2.1957 B( 58-C , 60-O ) :   1.2161
B( 60-O , 91-H ) :   0.9549 B( 61-C , 92-H ) :   0.9067 B( 61-C , 93-H ) :   0.9219

-----------------------------------------------------------------------------
         ABSORPTION SPECTRUM VIA TRANSITION ELECTRIC DIPOLE MOMENTS
-----------------------------------------------------------------------------
State   Energy  Wavelength   fosc         T2         TX        TY        TZ
        (cm-1)    (nm)                  (au**2)     (au)      (au)      (au)
-----------------------------------------------------------------------------
   0    9935.0   1006.5   0.000162776   0.00539   0.07260  -0.00546   0.00966
   1   16588.2    602.8   0.958203135  19.01661  -2.11825  -2.53915   2.84295
   2   17046.4    586.6   0.585368574  11.30504   1.86625  -2.73104  -0.60296
   3   20426.4    489.6   0.000160635   0.00259  -0.00122  -0.04093  -0.03021
   4   23020.2    434.4   0.002789095   0.03989  -0.16333   0.03903   0.10810
   5   24103.4    414.9   0.025469872   0.34788   0.36042   0.31683  -0.34292
   6   25916.2    385.9   0.004627958   0.05879   0.13237  -0.14045   0.14677
   7   26069.0    383.6   0.076074999   0.96071  -0.89202  -0.06580   0.40086
   8   26133.2    382.7   0.054590482   0.68770  -0.51511  -0.24442   0.60218
   9   26527.6    377.0   0.068877808   0.85479   0.11701   0.89586  -0.19628
  10   27089.5    369.1   0.445345029   5.41218   0.87078  -2.13402  -0.31604
  11   28049.4    356.5   0.405574910   4.76017  -1.48949   1.43991   0.68429
  12   28238.1    354.1   0.002757872   0.03215  -0.11354   0.09534   0.10085
  13   29382.4    340.3   0.050014948   0.56039  -0.22146   0.70110  -0.14074
  14   29778.0    335.8   0.718030910   7.93823  -1.85551  -0.10598  -2.11757
  15   30687.5    325.9   0.038784320   0.41607  -0.18126   0.58627   0.19877
  16   31896.8    313.5   0.006843741   0.07064   0.06044   0.22310   0.13118
  17   32054.8    312.0   0.051779063   0.53179   0.61675  -0.18772   0.34084
  18   32467.8    308.0   0.411176584   4.16918   0.21631   1.99873   0.35705
  19   32966.2    303.3   0.048388371   0.48322   0.08426  -0.68159  -0.10751
  20   33416.6    299.3   0.378396787   3.72787  -0.76096   1.77048   0.11915
  21   33610.6    297.5   0.007168132   0.07021   0.09263  -0.24816  -0.00670
  22   33948.9    294.6   0.040453512   0.39229   0.46695   0.22643   0.35068
  23   34451.4    290.3   0.003685373   0.03522  -0.15506   0.03163  -0.10086
  24   34862.1    286.8   0.002053171   0.01939   0.11026   0.05045   0.06845
  25   35163.6    284.4   0.018290109   0.17124   0.28098   0.25636  -0.16299
  26   35222.2    283.9   0.071983579   0.67281  -0.63639  -0.46142   0.23433
  27   35331.6    283.0   0.017485252   0.16292  -0.30003  -0.15827  -0.21875
  28   35561.2    281.2   0.024142528   0.22350  -0.34566   0.01125  -0.32233
  29   35938.1    278.3   0.023781303   0.21785  -0.30353  -0.00020  -0.35456
  30   36107.9    276.9   0.048901577   0.44586  -0.43672   0.47917   0.15976
  31   37018.1    270.1   0.028174463   0.25056  -0.27046  -0.37199  -0.19758
  32   37187.3    268.9   0.081465307   0.72120  -0.00558   0.82214   0.21272
  33   37363.4    267.6   0.058949881   0.51941   0.11777  -0.70095  -0.11923
  34   38093.2    262.5   0.007046929   0.06090  -0.03050   0.24426  -0.01755
  35   38351.6    260.7   0.006499966   0.05580  -0.16860  -0.05333   0.15661
  36   38851.7    257.4   0.232369082   1.96899   1.01893   0.38493  -0.88465
  37   38933.4    256.8   0.000456820   0.00386   0.02627  -0.04703  -0.03100
  38   40077.6    249.5   0.004104533   0.03372   0.04938   0.09875  -0.14672
  39   40202.8    248.7   0.347509229   2.84568   0.69554   1.43863  -0.54060

FINAL SINGLE POINT ENERGY     -6949.924622252896

DIPOLE MOMENT
-------------
                                X             Y             Z
Electronic contribution:    137.22894    -138.08349     -87.51673
Nuclear contribution   :   -138.60469     138.67218      86.61491
                        -----------------------------------------
Total Dipole Moment    :     -1.37575       0.58869      -0.90181
                        -----------------------------------------
Magnitude (a.u.)       :      1.74715
Magnitude (Debye)      :      4.44089

Rotational constants in cm-1:     0.001447     0.000424     0.000384
Rotational constants in MHz :    43.367836    12.712454    11.511480

                             ****ORCA TERMINATED NORMALLY****
TOTAL RUN TIME: 0 days 0 hours 8 minutes 29 seconds 464 msec
