                         Program Version 4.2.0 -  RELEASE  -
|  1> # ORCA input file
|  2> # SCF done       -156.037645225069          0.000621687864
|  3> ! CAM-B3LYP def2-SVP def2/J RIJCOSX Grid4 TightSCF
|  4> %maxcore 5000
|  5> %tddft
|  6>     Mode sTDDFT
|  7>     Ethresh 5.0
|  8>     maxcore 5000
|  9> end
| 10>
| 11> %pal
| 12>   nprocs 6
| 13>   end
| 14> * xyz 0 1
| 15>    C        0.07842         4.55009        -5.37148
| 16>    C       -1.20750         4.09428        -5.52106
| 17>    C       -2.29130         4.83374        -6.02551
| 18>    N       -3.21693         5.38216        -6.42689
| 19>    C       -1.52772         2.77335        -5.14412
| 20>    N       -1.79586         1.70226        -4.83351
| 21>    N        0.56458         5.78086        -5.66937
| 22>    C       -0.22420         6.85366        -6.22435
| 23>    C        1.91723         5.98659        -5.40233
| 24>    O        2.48044         7.03880        -5.61273
| 25>    C        2.50761         4.78104        -4.84897
| 26>    S        1.32498         3.50543        -4.72074
| 27>    C        3.82056         4.69287        -4.46618
| 28>    C        4.40173         3.55176        -3.91723
| 29>    C        5.70412         3.45792        -3.46843
| 30>    C        6.72885         4.43372        -3.45497
| 31>    C        7.89133         4.00694        -2.88259
| 32>    C        7.84290         2.67459        -2.41906
| 33>    S        6.28022         1.97117        -2.75128
| 34>    C        8.82286         1.95766        -1.74988
| 35>    C       10.10797         2.38010        -1.34674
| 36>    C       10.79304         1.43833        -0.63851
| 37>    C       10.08954         0.22060        -0.45672
| 38>    S        8.52893         0.31599        -1.24314
| 39>    C       10.52556        -0.84465         0.29907
| 40>    C        9.86412        -2.06427         0.49627
| 41>    S       10.34692        -3.14013         1.80110
| 42>    C        9.10775        -4.32599         1.47645
| 43>    C        8.36984        -3.91814         0.36133
| 44>    C        8.79660        -2.66726        -0.16098
| 45>    O        8.07733        -2.33579        -1.24869
| 46>    C        7.18726        -3.34371        -1.42080
| 47>    N        6.28153        -3.24607        -2.50704
| 48>    O        5.50575        -4.17160        -2.64407
| 49>    O        6.34612        -2.26227        -3.20968
| 50>    C        7.30889        -4.33492        -0.48250
| 51>    C        8.91539        -5.45554         2.30021
| 52>    S        9.91134        -5.73902         3.69800
| 53>    C        9.00142        -7.14842         4.12704
| 54>    C        9.37200        -7.99242         5.27634
| 55>    O        9.04946        -9.14891         5.36093
| 56>    O       10.11624        -7.41274         6.22527
| 57>    C        7.98022        -7.38369         3.21958
| 58>    C        7.95075        -6.43667         2.18320
| 59>    C        7.00999        -8.45799         3.31116
| 60>    C        6.33792        -8.80032         4.42229
| 61>    C        6.36784        -8.11239         5.72507
| 62>    O        6.95565        -7.08826         5.99111
| 63>    N        5.57038        -8.77535         6.63425
| 64>    C        4.89988        -9.86841         6.17391
| 65>    C        4.04465       -10.67604         6.87295
| 66>    C        3.68979       -10.53766         8.22795
| 67>    N        3.35060       -10.47986         9.32296
| 68>    C        3.42016       -11.76298         6.22163
| 69>    N        2.90233       -12.64502         5.70430
| 70>    S        5.23081       -10.15720         4.48083
| 71>    C        5.48897        -8.29792         7.99416
| 72>    H       -0.64307         6.56800        -7.18957
| 73>    H        0.45062         7.70076        -6.35270
| 74>    H       -1.03481         7.12959        -5.54921
| 75>    H        4.40625         5.59118        -4.60499
| 76>    H        3.77780         2.67252        -3.81685
| 77>    H        6.58438         5.41903        -3.85923
| 78>    H        8.77298         4.61389        -2.78073
| 79>    H       10.48758         3.35905        -1.57707
| 80>    H       11.78079         1.57842        -0.23650
| 81>    H       11.45346        -0.71403         0.83947
| 82>    H        6.71119        -5.22115        -0.44383
| 83>    H       10.23798        -6.46342         6.08871
| 84>    H        7.22037        -6.45321         1.39716
| 85>    H        6.81110        -8.99704         2.39401
| 86>    H        6.13393        -7.42146         8.05880
| 87>    H        5.83803        -9.06011         8.69071
| 88>    H        4.46554        -8.01900         8.24634
| 89> *
| 90>
| 91>                          ****END OF INPUT****

CARTESIAN COORDINATES (ANGSTROEM)
---------------------------------
  C      0.078420    4.550090   -5.371480
  C     -1.207500    4.094280   -5.521060
  C     -2.291300    4.833740   -6.025510
  N     -3.216930    5.382160   -6.426890
  C     -1.527720    2.773350   -5.144120
  N     -1.795860    1.702260   -4.833510
  N      0.564580    5.780860   -5.669370
  C     -0.224200    6.853660   -6.224350
  C      1.917230    5.986590   -5.402330
  O      2.480440    7.038800   -5.612730
  C      2.507610    4.781040   -4.848970
  S      1.324980    3.505430   -4.720740
  C      3.820560    4.692870   -4.466180
  C      4.401730    3.551760   -3.917230
  C      5.704120    3.457920   -3.468430
  C      6.728850    4.433720   -3.454970
  C      7.891330    4.006940   -2.882590
  C      7.842900    2.674590   -2.419060
  S      6.280220    1.971170   -2.751280
  C      8.822860    1.957660   -1.749880
  C     10.107970    2.380100   -1.346740
  C     10.793040    1.438330   -0.638510
  C     10.089540    0.220600   -0.456720
  S      8.528930    0.315990   -1.243140
  C     10.525560   -0.844650    0.299070
  C      9.864120   -2.064270    0.496270
  S     10.346920   -3.140130    1.801100
  C      9.107750   -4.325990    1.476450
  C      8.369840   -3.918140    0.361330
  C      8.796600   -2.667260   -0.160980
  O      8.077330   -2.335790   -1.248690
  C      7.187260   -3.343710   -1.420800
  N      6.281530   -3.246070   -2.507040
  O      5.505750   -4.171600   -2.644070
  O      6.346120   -2.262270   -3.209680
  C      7.308890   -4.334920   -0.482500
  C      8.915390   -5.455540    2.300210
  S      9.911340   -5.739020    3.698000
  C      9.001420   -7.148420    4.127040
  C      9.372000   -7.992420    5.276340
  O      9.049460   -9.148910    5.360930
  O     10.116240   -7.412740    6.225270
  C      7.980220   -7.383690    3.219580
  C      7.950750   -6.436670    2.183200
  C      7.009990   -8.457990    3.311160
  C      6.337920   -8.800320    4.422290
  C      6.367840   -8.112390    5.725070
  O      6.955650   -7.088260    5.991110
  N      5.570380   -8.775350    6.634250
  C      4.899880   -9.868410    6.173910
  C      4.044650  -10.676040    6.872950
  C      3.689790  -10.537660    8.227950
  N      3.350600  -10.479860    9.322960
  C      3.420160  -11.762980    6.221630
  N      2.902330  -12.645020    5.704300
  S      5.230810  -10.157200    4.480830
  C      5.488970   -8.297920    7.994160
  H     -0.643070    6.568000   -7.189570
  H      0.450620    7.700760   -6.352700
  H     -1.034810    7.129590   -5.549210
  H      4.406250    5.591180   -4.604990
  H      3.777800    2.672520   -3.816850
  H      6.584380    5.419030   -3.859230
  H      8.772980    4.613890   -2.780730
  H     10.487580    3.359050   -1.577070
  H     11.780790    1.578420   -0.236500
  H     11.453460   -0.714030    0.839470
  H      6.711190   -5.221150   -0.443830
  H     10.237980   -6.463420    6.088710
  H      7.220370   -6.453210    1.397160
  H      6.811100   -8.997040    2.394010
  H      6.133930   -7.421460    8.058800
  H      5.838030   -9.060110    8.690710
  H      4.465540   -8.019000    8.246340

 Total Charge           Charge          ....    0
 Multiplicity           Mult            ....    1
 Number of Electrons    NEL             ....  440
 Basis Dimension        Dim             ....  907

ORBITAL ENERGIES
----------------

  NO   OCC          E(Eh)            E(eV)
   0   2.0000     -89.002101     -2421.8703
   1   2.0000     -89.001033     -2421.8412
   2   2.0000     -88.991129     -2421.5717
   3   2.0000     -88.978261     -2421.2216
   4   2.0000     -88.967719     -2420.9347
   5   2.0000     -88.967076     -2420.9172
   6   2.0000     -19.336400      -526.1702
   7   2.0000     -19.278075      -524.5831
   8   2.0000     -19.263708      -524.1922
   9   2.0000     -19.261600      -524.1348
  10   2.0000     -19.234957      -523.4098
  11   2.0000     -19.212407      -522.7962
  12   2.0000     -19.212245      -522.7918
  13   2.0000     -14.675715      -399.3465
  14   2.0000     -14.508298      -394.7909
  15   2.0000     -14.491483      -394.3333
  16   2.0000     -14.413829      -392.2202
  17   2.0000     -14.413035      -392.1986
  18   2.0000     -14.400777      -391.8651
  19   2.0000     -14.400328      -391.8528
  20   2.0000     -10.425457      -283.6911
  21   2.0000     -10.424419      -283.6629
  22   2.0000     -10.411924      -283.3228
  23   2.0000     -10.406829      -283.1842
  24   2.0000     -10.400540      -283.0131
  25   2.0000     -10.392833      -282.8034
  26   2.0000     -10.376586      -282.3613
  27   2.0000     -10.354562      -281.7619
  28   2.0000     -10.352151      -281.6963
  29   2.0000     -10.348661      -281.6014
  30   2.0000     -10.346678      -281.5474
  31   2.0000     -10.345345      -281.5111
  32   2.0000     -10.337385      -281.2945
  33   2.0000     -10.337083      -281.2863
  34   2.0000     -10.337036      -281.2851
  35   2.0000     -10.336939      -281.2824
  36   2.0000     -10.335461      -281.2422
  37   2.0000     -10.333121      -281.1785
  38   2.0000     -10.331519      -281.1349
  39   2.0000     -10.330428      -281.1052
  40   2.0000     -10.328325      -281.0480
  41   2.0000     -10.326685      -281.0034
  42   2.0000     -10.325278      -280.9651
  43   2.0000     -10.320342      -280.8308
  44   2.0000     -10.319724      -280.8140
  45   2.0000     -10.319086      -280.7966
  46   2.0000     -10.316209      -280.7183
  47   2.0000     -10.315170      -280.6900
  48   2.0000     -10.314830      -280.6808
  49   2.0000     -10.314645      -280.6758
  50   2.0000     -10.312394      -280.6145
  51   2.0000     -10.312116      -280.6069
  52   2.0000     -10.311483      -280.5897
  53   2.0000     -10.307585      -280.4836
  54   2.0000     -10.305883      -280.4373
  55   2.0000     -10.304393      -280.3968
  56   2.0000     -10.299017      -280.2505
  57   2.0000      -8.096929      -220.3286
  58   2.0000      -8.096699      -220.3224
  59   2.0000      -8.087454      -220.0708
  60   2.0000      -8.074191      -219.7099
  61   2.0000      -8.064139      -219.4364
  62   2.0000      -8.063674      -219.4237
  63   2.0000      -6.066394      -165.0750
  64   2.0000      -6.065963      -165.0632
  65   2.0000      -6.062256      -164.9624
  66   2.0000      -6.061798      -164.9499
  67   2.0000      -6.058897      -164.8710
  68   2.0000      -6.058764      -164.8674
  69   2.0000      -6.057392      -164.8300
  70   2.0000      -6.053438      -164.7224
  71   2.0000      -6.047592      -164.5633
  72   2.0000      -6.044057      -164.4672
  73   2.0000      -6.040033      -164.3576
  74   2.0000      -6.034679      -164.2120
  75   2.0000      -6.033850      -164.1894
  76   2.0000      -6.033402      -164.1772
  77   2.0000      -6.029651      -164.0752
  78   2.0000      -6.029217      -164.0633
  79   2.0000      -6.024989      -163.9483
  80   2.0000      -6.024641      -163.9388
  81   2.0000      -1.347572       -36.6693
  82   2.0000      -1.259748       -34.2795
  83   2.0000      -1.202009       -32.7083
  84   2.0000      -1.181967       -32.1630
  85   2.0000      -1.164260       -31.6811
  86   2.0000      -1.159163       -31.5424
  87   2.0000      -1.113618       -30.3031
  88   2.0000      -1.108886       -30.1743
  89   2.0000      -1.090585       -29.6763
  90   2.0000      -1.036960       -28.2171
  91   2.0000      -1.021695       -27.8017
  92   2.0000      -1.014560       -27.6076
  93   2.0000      -1.010043       -27.4847
  94   2.0000      -0.998859       -27.1803
  95   2.0000      -0.997037       -27.1307
  96   2.0000      -0.993199       -27.0263
  97   2.0000      -0.980742       -26.6873
  98   2.0000      -0.975699       -26.5501
  99   2.0000      -0.962522       -26.1916
 100   2.0000      -0.960632       -26.1401
 101   2.0000      -0.937856       -25.5204
 102   2.0000      -0.928799       -25.2739
 103   2.0000      -0.922808       -25.1109
 104   2.0000      -0.916885       -24.9497
 105   2.0000      -0.907669       -24.6989
 106   2.0000      -0.896862       -24.4049
 107   2.0000      -0.885039       -24.0831
 108   2.0000      -0.872096       -23.7309
 109   2.0000      -0.859873       -23.3983
 110   2.0000      -0.852577       -23.1998
 111   2.0000      -0.843692       -22.9580
 112   2.0000      -0.833531       -22.6815
 113   2.0000      -0.829347       -22.5677
 114   2.0000      -0.818204       -22.2645
 115   2.0000      -0.817853       -22.2549
 116   2.0000      -0.803517       -21.8648
 117   2.0000      -0.794371       -21.6159
 118   2.0000      -0.780531       -21.2393
 119   2.0000      -0.760049       -20.6820
 120   2.0000      -0.748441       -20.3661
 121   2.0000      -0.739071       -20.1112
 122   2.0000      -0.725879       -19.7522
 123   2.0000      -0.719262       -19.5721
 124   2.0000      -0.704610       -19.1734
 125   2.0000      -0.703530       -19.1440
 126   2.0000      -0.698047       -18.9948
 127   2.0000      -0.694304       -18.8930
 128   2.0000      -0.689622       -18.7656
 129   2.0000      -0.686683       -18.6856
 130   2.0000      -0.674044       -18.3417
 131   2.0000      -0.664766       -18.0892
 132   2.0000      -0.661815       -18.0089
 133   2.0000      -0.653026       -17.7697
 134   2.0000      -0.649521       -17.6744
 135   2.0000      -0.645324       -17.5601
 136   2.0000      -0.641083       -17.4447
 137   2.0000      -0.634995       -17.2791
 138   2.0000      -0.630224       -17.1493
 139   2.0000      -0.625617       -17.0239
 140   2.0000      -0.615744       -16.7552
 141   2.0000      -0.612514       -16.6673
 142   2.0000      -0.607776       -16.5384
 143   2.0000      -0.600841       -16.3497
 144   2.0000      -0.599880       -16.3236
 145   2.0000      -0.594507       -16.1774
 146   2.0000      -0.589943       -16.0532
 147   2.0000      -0.582558       -15.8522
 148   2.0000      -0.578882       -15.7522
 149   2.0000      -0.575610       -15.6631
 150   2.0000      -0.568953       -15.4820
 151   2.0000      -0.562503       -15.3065
 152   2.0000      -0.558515       -15.1980
 153   2.0000      -0.552091       -15.0231
 154   2.0000      -0.549846       -14.9621
 155   2.0000      -0.543498       -14.7893
 156   2.0000      -0.541840       -14.7442
 157   2.0000      -0.538215       -14.6456
 158   2.0000      -0.532549       -14.4914
 159   2.0000      -0.528821       -14.3899
 160   2.0000      -0.523726       -14.2513
 161   2.0000      -0.521007       -14.1773
 162   2.0000      -0.520100       -14.1526
 163   2.0000      -0.513151       -13.9635
 164   2.0000      -0.511962       -13.9312
 165   2.0000      -0.509326       -13.8595
 166   2.0000      -0.506769       -13.7899
 167   2.0000      -0.505613       -13.7584
 168   2.0000      -0.505096       -13.7444
 169   2.0000      -0.501453       -13.6452
 170   2.0000      -0.497124       -13.5274
 171   2.0000      -0.495341       -13.4789
 172   2.0000      -0.494650       -13.4601
 173   2.0000      -0.489374       -13.3165
 174   2.0000      -0.483614       -13.1598
 175   2.0000      -0.480863       -13.0849
 176   2.0000      -0.479183       -13.0392
 177   2.0000      -0.475731       -12.9453
 178   2.0000      -0.473096       -12.8736
 179   2.0000      -0.469786       -12.7835
 180   2.0000      -0.461158       -12.5487
 181   2.0000      -0.451974       -12.2988
 182   2.0000      -0.451289       -12.2802
 183   2.0000      -0.450816       -12.2673
 184   2.0000      -0.446749       -12.1567
 185   2.0000      -0.444607       -12.0984
 186   2.0000      -0.443286       -12.0624
 187   2.0000      -0.441859       -12.0236
 188   2.0000      -0.435650       -11.8546
 189   2.0000      -0.434903       -11.8343
 190   2.0000      -0.430544       -11.7157
 191   2.0000      -0.429454       -11.6860
 192   2.0000      -0.428131       -11.6500
 193   2.0000      -0.426265       -11.5993
 194   2.0000      -0.424407       -11.5487
 195   2.0000      -0.419046       -11.4028
 196   2.0000      -0.416637       -11.3373
 197   2.0000      -0.414287       -11.2733
 198   2.0000      -0.411843       -11.2068
 199   2.0000      -0.408953       -11.1282
 200   2.0000      -0.408789       -11.1237
 201   2.0000      -0.400848       -10.9076
 202   2.0000      -0.399616       -10.8741
 203   2.0000      -0.396804       -10.7976
 204   2.0000      -0.391237       -10.6461
 205   2.0000      -0.390673       -10.6307
 206   2.0000      -0.374757       -10.1976
 207   2.0000      -0.370472       -10.0811
 208   2.0000      -0.368213       -10.0196
 209   2.0000      -0.364398        -9.9158
 210   2.0000      -0.360170        -9.8007
 211   2.0000      -0.356534        -9.7018
 212   2.0000      -0.348634        -9.4868
 213   2.0000      -0.344981        -9.3874
 214   2.0000      -0.338500        -9.2111
 215   2.0000      -0.325027        -8.8444
 216   2.0000      -0.305007        -8.2997
 217   2.0000      -0.298333        -8.1181
 218   2.0000      -0.279169        -7.5966
 219   2.0000      -0.231263        -6.2930
 220   0.0000      -0.120724        -3.2851
 221   0.0000      -0.091777        -2.4974
 222   0.0000      -0.080840        -2.1998
 223   0.0000      -0.053690        -1.4610
 224   0.0000      -0.034372        -0.9353

MULLIKEN ATOMIC CHARGES
-----------------------
   0 C :    0.135661
   1 C :   -0.320201
   2 C :   -0.198356
   3 N :    0.166421
   4 C :   -0.213951
   5 N :    0.144244
   6 N :   -0.238002
   7 C :    0.116389
   8 C :    0.214367
   9 O :   -0.188024
  10 C :   -0.149120
  11 S :    0.137778
  12 C :    0.010250
  13 C :    0.016720
  14 C :   -0.038547
  15 C :    0.024701
  16 C :    0.032402
  17 C :   -0.059266
  18 S :    0.130847
  19 C :   -0.030862
  20 C :    0.036615
  21 C :    0.038212
  22 C :   -0.035397
  23 S :    0.113516
  24 C :    0.042938
  25 C :   -0.202346
  26 S :    0.170044
  27 C :   -0.090527
  28 C :    0.104011
  29 C :    0.189918
  30 O :   -0.181582
  31 C :    0.242352
  32 N :    0.276878
  33 O :   -0.240359
  34 O :   -0.220242
  35 C :   -0.101548
  36 C :   -0.034646
  37 S :    0.125985
  38 C :   -0.173818
  39 C :    0.186266
  40 O :   -0.188815
  41 O :   -0.145242
  42 C :    0.103869
  43 C :   -0.032274
  44 C :   -0.019104
  45 C :   -0.080654
  46 C :    0.232019
  47 O :   -0.191620
  48 N :   -0.233619
  49 C :    0.131143
  50 C :   -0.297823
  51 C :   -0.193737
  52 N :    0.175528
  53 C :   -0.218944
  54 N :    0.154090
  55 S :    0.165046
  56 C :    0.117273
  57 H :    0.062459
  58 H :    0.064747
  59 H :    0.063722
  60 H :    0.017597
  61 H :   -0.000116
  62 H :    0.001135
  63 H :   -0.003925
  64 H :   -0.006063
  65 H :   -0.004350
  66 H :   -0.010650
  67 H :    0.018155
  68 H :    0.181983
  69 H :   -0.028180
  70 H :    0.023716
  71 H :    0.065718
  72 H :    0.070829
  73 H :    0.066369
Sum of atomic charges:   -0.0000000

LOEWDIN ATOMIC CHARGES
----------------------
   0 C :   -0.028563
   1 C :   -0.214225
   2 C :   -0.034176
   3 N :   -0.065381
   4 C :   -0.041064
   5 N :   -0.054378
   6 N :   -0.007656
   7 C :    0.037778
   8 C :    0.065173
   9 O :   -0.180608
  10 C :   -0.228587
  11 S :    0.425068
  12 C :    0.012005
  13 C :   -0.079725
  14 C :   -0.116982
  15 C :   -0.039150
  16 C :   -0.010792
  17 C :   -0.182955
  18 S :    0.408364
  19 C :   -0.165525
  20 C :   -0.029363
  21 C :   -0.023042
  22 C :   -0.143455
  23 S :    0.415957
  24 C :   -0.073396
  25 C :   -0.191589
  26 S :    0.462608
  27 C :   -0.188540
  28 C :   -0.067632
  29 C :    0.014436
  30 O :    0.010261
  31 C :    0.033917
  32 N :    0.271302
  33 O :   -0.201331
  34 O :   -0.183352
  35 C :   -0.013914
  36 C :   -0.170765
  37 S :    0.446002
  38 C :   -0.215182
  39 C :    0.063382
  40 O :   -0.165584
  41 O :   -0.018979
  42 C :   -0.034294
  43 C :   -0.041182
  44 C :    0.014169
  45 C :   -0.180789
  46 C :    0.081505
  47 O :   -0.163156
  48 N :    0.002537
  49 C :   -0.027896
  50 C :   -0.200232
  51 C :   -0.033238
  52 N :   -0.053754
  53 C :   -0.040612
  54 N :   -0.041994
  55 S :    0.436413
  56 C :    0.040503
  57 H :    0.039808
  58 H :    0.042978
  59 H :    0.040010
  60 H :    0.044217
  61 H :    0.027221
  62 H :    0.037073
  63 H :    0.036338
  64 H :    0.034853
  65 H :    0.036551
  66 H :    0.038430
  67 H :    0.045163
  68 H :    0.084029
  69 H :    0.031842
  70 H :    0.044498
  71 H :    0.043587
  72 H :    0.043853
  73 H :    0.041208

  Mayer bond orders larger than 0.100000
B(  0-C ,  1-C ) :   1.5527 B(  0-C ,  6-N ) :   1.2129 B(  0-C , 11-S ) :   1.0859
B(  1-C ,  2-C ) :   1.1732 B(  1-C ,  4-C ) :   1.1500 B(  2-C ,  3-N ) :   3.0108
B(  4-C ,  5-N ) :   3.0331 B(  6-N ,  7-C ) :   0.9369 B(  6-N ,  8-C ) :   1.0338
B(  7-C , 57-H ) :   0.9695 B(  7-C , 58-H ) :   0.9438 B(  7-C , 59-H ) :   0.9692
B(  8-C ,  9-O ) :   2.1453 B(  8-C , 10-C ) :   0.9843 B( 10-C , 11-S ) :   0.9978
B( 10-C , 12-C ) :   1.6401 B( 12-C , 13-C ) :   1.2075 B( 12-C , 60-H ) :   0.9638
B( 13-C , 14-C ) :   1.5071 B( 13-C , 61-H ) :   0.9571 B( 14-C , 15-C ) :   1.1726
B( 14-C , 18-S ) :   1.0746 B( 15-C , 16-C ) :   1.5815 B( 15-C , 62-H ) :   0.9914
B( 16-C , 17-C ) :   1.2027 B( 16-C , 63-H ) :   0.9939 B( 17-C , 18-S ) :   1.0550
B( 17-C , 19-C ) :   1.4765 B( 19-C , 20-C ) :   1.1928 B( 19-C , 23-S ) :   1.0654
B( 20-C , 21-C ) :   1.5853 B( 20-C , 64-H ) :   0.9934 B( 21-C , 22-C ) :   1.1496
B( 21-C , 65-H ) :   0.9995 B( 22-C , 23-S ) :   1.0540 B( 22-C , 24-C ) :   1.5749
B( 24-C , 25-C ) :   1.1745 B( 24-C , 66-H ) :   0.9468 B( 25-C , 26-S ) :   1.1024
B( 25-C , 27-C ) :   0.1151 B( 25-C , 29-C ) :   1.4074 B( 26-S , 27-C ) :   1.1329
B( 27-C , 28-C ) :   1.4001 B( 27-C , 36-C ) :   1.1675 B( 28-C , 29-C ) :   1.2490
B( 28-C , 35-C ) :   1.0858 B( 29-C , 30-O ) :   1.1061 B( 30-O , 31-C ) :   1.1223
B( 31-C , 32-N ) :   0.9121 B( 31-C , 35-C ) :   1.5783 B( 32-N , 33-O ) :   1.5286
B( 32-N , 34-O ) :   1.5148 B( 33-O , 34-O ) :   0.2856 B( 35-C , 67-H ) :   1.0173
B( 36-C , 37-S ) :   1.1338 B( 36-C , 43-C ) :   1.4766 B( 37-S , 38-C ) :   1.1029
B( 38-C , 39-C ) :   0.9168 B( 38-C , 42-C ) :   1.5464 B( 39-C , 40-O ) :   2.1498
B( 39-C , 41-O ) :   1.2618 B( 41-O , 68-H ) :   0.9471 B( 42-C , 43-C ) :   1.2687
B( 42-C , 44-C ) :   1.0373 B( 43-C , 69-H ) :   1.0013 B( 44-C , 45-C ) :   1.8138
B( 44-C , 70-H ) :   0.9505 B( 45-C , 46-C ) :   0.9339 B( 45-C , 55-S ) :   1.0113
B( 46-C , 47-O ) :   2.1046 B( 46-C , 48-N ) :   1.0857 B( 48-N , 49-C ) :   1.1836
B( 48-N , 56-C ) :   0.9324 B( 49-C , 50-C ) :   1.5785 B( 49-C , 55-S ) :   1.0840
B( 50-C , 51-C ) :   1.1649 B( 50-C , 53-C ) :   1.1449 B( 51-C , 52-N ) :   3.0142
B( 53-C , 54-N ) :   3.0368 B( 56-C , 71-H ) :   0.9437 B( 56-C , 72-H ) :   0.9682
B( 56-C , 73-H ) :   0.9690

-----------------------------------------------------------------------------
         ABSORPTION SPECTRUM VIA TRANSITION ELECTRIC DIPOLE MOMENTS
-----------------------------------------------------------------------------
State   Energy  Wavelength   fosc         T2         TX        TY        TZ
        (cm-1)    (nm)                  (au**2)     (au)      (au)      (au)
-----------------------------------------------------------------------------
   0   11151.9    896.7   1.297938846  38.31619  -2.98947   4.34953  -3.23433
   1   15840.6    631.3   0.346381346   7.19878   2.20018  -1.17775   0.98533
   2   20659.0    484.1   0.084442225   1.34563  -0.82508  -0.75603   0.30545
   3   21213.7    471.4   0.193531061   3.00338  -1.18202  -1.13715   0.55955
   4   24292.1    411.7   0.660428784   8.95028  -2.45055  -1.61911   0.56880
   5   25846.2    386.9   0.208403786   2.65451  -1.47077  -0.38501  -0.58576
   6   26761.4    373.7   0.107410917   1.32134  -0.05459   0.58933  -0.98542
   7   27303.9    366.2   0.189840257   2.28897   1.16947   0.71245  -0.64322
   8   28592.7    349.7   0.169371361   1.95012  -0.36279  -0.79967   1.08583
   9   29372.7    340.5   0.041374175   0.46373  -0.52184  -0.29108   0.32662
  10   30052.1    332.8   0.090023933   0.98618  -0.39121   0.66759  -0.62247
  11   31402.1    318.5   0.135491020   1.42046   0.24400  -0.61303   0.99253
  12   32028.4    312.2   0.160620483   1.65098  -0.99696  -0.41200   0.69807
  13   32192.7    310.6   0.028385370   0.29028  -0.34090  -0.29439   0.29563
  14   32680.0    306.0   0.035956545   0.36222  -0.42341  -0.16295  -0.39546
  15   33211.8    301.1   0.065200058   0.64630  -0.61478  -0.44478   0.26554
  16   33429.3    299.1   0.062648987   0.61697  -0.23031   0.17006  -0.73144
  17   33896.3    295.0   0.073328147   0.71219   0.77130   0.33804  -0.05497
  18   34483.8    290.0   0.089139817   0.85100   0.43641  -0.21734   0.78314
  19   34795.8    287.4   0.004827163   0.04567   0.19887   0.00002   0.07824
  20   35220.8    283.9   0.007969077   0.07449  -0.07132   0.21667   0.14985
  21   35314.0    283.2   0.000148985   0.00139   0.02225  -0.01010  -0.02814
  22   35408.4    282.4   0.044404099   0.41285   0.59785   0.05865   0.22800
  23   36026.4    277.6   0.074523227   0.68100  -0.69528   0.24628  -0.37004
  24   36630.2    273.0   0.033895212   0.30463   0.38924   0.27902  -0.27436
  25   37002.7    270.3   0.023962629   0.21320  -0.29312  -0.34093  -0.10509
  26   37263.0    268.4   0.004236477   0.03743   0.12423  -0.03722   0.14356
  27   38119.2    262.3   0.054224767   0.46831   0.49858   0.23031   0.40826
  28   38667.0    258.6   0.073312781   0.62419   0.08777   0.73696  -0.27087
  29   39098.1    255.8   0.023471289   0.19763   0.30905   0.07846   0.30978
  30   39211.6    255.0   0.144038555   1.20932  -0.66031  -0.22872  -0.84912
  31   39716.5    251.8   0.011055534   0.09164  -0.26532  -0.08564  -0.11795
  32   39912.2    250.5   0.005277481   0.04353  -0.07970  -0.01273  -0.19240
  33   40024.0    249.9   0.199148357   1.63807   1.04420   0.62051  -0.40333
  34   40242.9    248.5   0.060929916   0.49845   0.58441   0.19267   0.34611

FINAL SINGLE POINT ENERGY     -4715.340092985090

DIPOLE MOMENT
-------------
                                X             Y             Z
Electronic contribution:      3.17173     -26.28896       4.58226
Nuclear contribution   :      3.38318      29.27624      -4.07361
                        -----------------------------------------
Total Dipole Moment    :      6.55492       2.98728       0.50865
                        -----------------------------------------
Magnitude (a.u.)       :      7.22146
Magnitude (Debye)      :     18.35550

Rotational constants in cm-1:     0.001636     0.000360     0.000309
Rotational constants in MHz :    49.044698    10.799819     9.251740

                             ****ORCA TERMINATED NORMALLY****
TOTAL RUN TIME: 0 days 0 hours 5 minutes 59 seconds 97 msec
