                         Program Version 4.2.0 -  RELEASE  -
|  1> # ORCA input file
|  2> # SCF done       -153.500202079979          0.000292178289
|  3> ! CAM-B3LYP def2-SVP def2/J RIJCOSX Grid4 TightSCF
|  4> %maxcore 5000
|  5> %tddft
|  6>     Mode sTDDFT
|  7>     Ethresh 5.0
|  8>     maxcore 5000
|  9> end
| 10>
| 11> %pal
| 12>   nprocs 6
| 13>   end
| 14> * xyz 0 1
| 15>    C       14.16259        -9.10517         7.54775
| 16>    C       13.01465        -8.62028         8.05071
| 17>    C       12.82120        -7.90148         9.27138
| 18>    C       11.53811        -7.52104         9.49906
| 19>    C       10.62592        -7.94002         8.50418
| 20>    S       11.45776        -8.80130         7.23146
| 21>    C        9.24783        -7.78215         8.49367
| 22>    C        8.43560        -7.03865         9.36057
| 23>    C        7.09485        -7.18243         9.10355
| 24>    C        6.78762        -8.06525         8.05562
| 25>    S        8.26652        -8.64631         7.33390
| 26>    C        5.48993        -8.52696         7.80311
| 27>    C        5.01704        -9.58189         7.05934
| 28>    C        5.63029       -10.41755         6.11094
| 29>    C        5.20446       -11.71948         5.82531
| 30>    C        5.97512       -12.37754         4.89334
| 31>    C        6.99639       -11.58764         4.36136
| 32>    S        6.96618        -9.99401         5.07236
| 33>    C        7.95726       -11.93991         3.40836
| 34>    C        8.25570       -13.21683         2.91936
| 35>    C        9.28820       -13.23383         2.01657
| 36>    C        9.81701       -11.96285         1.72533
| 37>    S        8.99865       -10.74396         2.67646
| 38>    C       10.82238       -11.70010         0.81317
| 39>    C       11.23595       -10.45476         0.33883
| 40>    S       10.38181        -8.96775         0.70510
| 41>    C       11.27404        -8.08813        -0.48736
| 42>    C       12.19663        -8.86531        -1.11085
| 43>    O       13.07509        -8.52079        -2.09865
| 44>    C       13.02334        -7.18624        -2.54344
| 45>    C       12.23019       -10.20555        -0.61855
| 46>    N       13.16732       -11.07870        -1.12299
| 47>    C       13.91600       -12.00195        -0.46839
| 48>    C       13.90705       -12.24165         0.87868
| 49>    C       14.80678       -13.09278         1.51750
| 50>    C       14.87092       -13.24427         2.89228
| 51>    C       15.88051       -13.87295         3.63835
| 52>    C       15.73224       -13.74994         4.99837
| 53>    C       14.57768       -13.05905         5.38070
| 54>    S       13.67269       -12.55293         3.97548
| 55>    C       14.15748       -12.72758         6.67324
| 56>    C       14.91590       -12.71442         7.84580
| 57>    C       14.23543       -12.21858         8.93567
| 58>    C       12.90727       -11.87362         8.67146
| 59>    S       12.53608       -12.16002         6.98699
| 60>    C       11.97213       -11.34929         9.56443
| 61>    C       10.63423       -11.20180         9.28535
| 62>    C        9.70280       -10.59691        10.12212
| 63>    C        8.31481       -10.53918         9.93096
| 64>    C        7.64506        -9.81148        10.87817
| 65>    C        8.48267        -9.25262        11.86053
| 66>    S       10.14417        -9.72800        11.57828
| 67>    C        8.13120        -8.40968        12.89871
| 68>    C        6.83892        -7.93640        13.22553
| 69>    C        6.80078        -7.09360        14.28809
| 70>    C        8.07617        -6.83627        14.88324
| 71>    S        9.31932        -7.73561        13.99823
| 72>    C        8.35461        -6.05279        15.93770
| 73>    H       15.09032        -8.97995         8.07736
| 74>    H       14.19343        -9.62148         6.60605
| 75>    H       13.64769        -7.69554         9.92784
| 76>    H       11.21142        -6.98143        10.37029
| 77>    H        8.83765        -6.41794        10.14123
| 78>    H        6.32351        -6.69655         9.67645
| 79>    H        4.74737        -8.03851         8.42555
| 80>    H        3.99654        -9.87583         7.28338
| 81>    H        4.37235       -12.16828         6.34000
| 82>    H        5.81119       -13.39471         4.58607
| 83>    H        7.73140       -14.09490         3.25170
| 84>    H        9.66848       -14.12319         1.54579
| 85>    H       11.29739       -12.56422         0.36758
| 86>    H       11.06045        -7.04849        -0.62517
| 87>    H       13.77851        -7.09966        -3.32256
| 88>    H       13.25281        -6.49021        -1.73110
| 89>    H       12.03906        -6.94555        -2.95677
| 90>    H       13.51100       -10.78877        -2.03094
| 91>    H       14.59803       -12.54889        -1.10548
| 92>    H       13.22438       -11.68969         1.50809
| 93>    H       15.55256       -13.60890         0.92685
| 94>    H       16.70498       -14.37499         3.16297
| 95>    H       16.41868       -14.15665         5.71958
| 96>    H       15.94569       -13.02382         7.86718
| 97>    H       14.66403       -12.10908         9.91649
| 98>    H       12.33593       -11.05902        10.54227
| 99>    H       10.25889       -11.57594         8.34036
|100>    H        7.84075       -11.03071         9.09925
|101>    H        6.58080        -9.65952        10.87795
|102>    H        5.97438        -8.23792        12.66052
|103>    H        5.90906        -6.63750        14.68017
|104>    H        7.57054        -5.52258        16.44840
|105>    H        9.35759        -5.93194        16.30304
|106> *
|107>
|108>                          ****END OF INPUT****

CARTESIAN COORDINATES (ANGSTROEM)
---------------------------------
  C     14.162590   -9.105170    7.547750
  C     13.014650   -8.620280    8.050710
  C     12.821200   -7.901480    9.271380
  C     11.538110   -7.521040    9.499060
  C     10.625920   -7.940020    8.504180
  S     11.457760   -8.801300    7.231460
  C      9.247830   -7.782150    8.493670
  C      8.435600   -7.038650    9.360570
  C      7.094850   -7.182430    9.103550
  C      6.787620   -8.065250    8.055620
  S      8.266520   -8.646310    7.333900
  C      5.489930   -8.526960    7.803110
  C      5.017040   -9.581890    7.059340
  C      5.630290  -10.417550    6.110940
  C      5.204460  -11.719480    5.825310
  C      5.975120  -12.377540    4.893340
  C      6.996390  -11.587640    4.361360
  S      6.966180   -9.994010    5.072360
  C      7.957260  -11.939910    3.408360
  C      8.255700  -13.216830    2.919360
  C      9.288200  -13.233830    2.016570
  C      9.817010  -11.962850    1.725330
  S      8.998650  -10.743960    2.676460
  C     10.822380  -11.700100    0.813170
  C     11.235950  -10.454760    0.338830
  S     10.381810   -8.967750    0.705100
  C     11.274040   -8.088130   -0.487360
  C     12.196630   -8.865310   -1.110850
  O     13.075090   -8.520790   -2.098650
  C     13.023340   -7.186240   -2.543440
  C     12.230190  -10.205550   -0.618550
  N     13.167320  -11.078700   -1.122990
  C     13.916000  -12.001950   -0.468390
  C     13.907050  -12.241650    0.878680
  C     14.806780  -13.092780    1.517500
  C     14.870920  -13.244270    2.892280
  C     15.880510  -13.872950    3.638350
  C     15.732240  -13.749940    4.998370
  C     14.577680  -13.059050    5.380700
  S     13.672690  -12.552930    3.975480
  C     14.157480  -12.727580    6.673240
  C     14.915900  -12.714420    7.845800
  C     14.235430  -12.218580    8.935670
  C     12.907270  -11.873620    8.671460
  S     12.536080  -12.160020    6.986990
  C     11.972130  -11.349290    9.564430
  C     10.634230  -11.201800    9.285350
  C      9.702800  -10.596910   10.122120
  C      8.314810  -10.539180    9.930960
  C      7.645060   -9.811480   10.878170
  C      8.482670   -9.252620   11.860530
  S     10.144170   -9.728000   11.578280
  C      8.131200   -8.409680   12.898710
  C      6.838920   -7.936400   13.225530
  C      6.800780   -7.093600   14.288090
  C      8.076170   -6.836270   14.883240
  S      9.319320   -7.735610   13.998230
  C      8.354610   -6.052790   15.937700
  H     15.090320   -8.979950    8.077360
  H     14.193430   -9.621480    6.606050
  H     13.647690   -7.695540    9.927840
  H     11.211420   -6.981430   10.370290
  H      8.837650   -6.417940   10.141230
  H      6.323510   -6.696550    9.676450
  H      4.747370   -8.038510    8.425550
  H      3.996540   -9.875830    7.283380
  H      4.372350  -12.168280    6.340000
  H      5.811190  -13.394710    4.586070
  H      7.731400  -14.094900    3.251700
  H      9.668480  -14.123190    1.545790
  H     11.297390  -12.564220    0.367580
  H     11.060450   -7.048490   -0.625170
  H     13.778510   -7.099660   -3.322560
  H     13.252810   -6.490210   -1.731100
  H     12.039060   -6.945550   -2.956770
  H     13.511000  -10.788770   -2.030940
  H     14.598030  -12.548890   -1.105480
  H     13.224380  -11.689690    1.508090
  H     15.552560  -13.608900    0.926850
  H     16.704980  -14.374990    3.162970
  H     16.418680  -14.156650    5.719580
  H     15.945690  -13.023820    7.867180
  H     14.664030  -12.109080    9.916490
  H     12.335930  -11.059020   10.542270
  H     10.258890  -11.575940    8.340360
  H      7.840750  -11.030710    9.099250
  H      6.580800   -9.659520   10.877950
  H      5.974380   -8.237920   12.660520
  H      5.909060   -6.637500   14.680170
  H      7.570540   -5.522580   16.448400
  H      9.357590   -5.931940   16.303040

 Total Charge           Charge          ....    0
 Multiplicity           Mult            ....    1
 Number of Electrons    NEL             ....  474
 Basis Dimension        Dim             .... 1013

ORBITAL ENERGIES
----------------

  NO   OCC          E(Eh)            E(eV)
   0   2.0000     -88.938346     -2420.1354
   1   2.0000     -88.936244     -2420.0782
   2   2.0000     -88.934434     -2420.0290
   3   2.0000     -88.933863     -2420.0135
   4   2.0000     -88.933435     -2420.0018
   5   2.0000     -88.931116     -2419.9387
   6   2.0000     -88.930758     -2419.9290
   7   2.0000     -88.923024     -2419.7185
   8   2.0000     -88.916894     -2419.5517
   9   2.0000     -19.253833      -523.9234
  10   2.0000     -14.459213      -393.4552
  11   2.0000     -10.328013      -281.0395
  12   2.0000     -10.327226      -281.0181
  13   2.0000     -10.316601      -280.7290
  14   2.0000     -10.304923      -280.4112
  15   2.0000     -10.301424      -280.3160
  16   2.0000     -10.298046      -280.2241
  17   2.0000     -10.296382      -280.1788
  18   2.0000     -10.293888      -280.1109
  19   2.0000     -10.293706      -280.1060
  20   2.0000     -10.293672      -280.1050
  21   2.0000     -10.292453      -280.0719
  22   2.0000     -10.290996      -280.0322
  23   2.0000     -10.290664      -280.0232
  24   2.0000     -10.290200      -280.0106
  25   2.0000     -10.288265      -279.9579
  26   2.0000     -10.287777      -279.9446
  27   2.0000     -10.287195      -279.9288
  28   2.0000     -10.286833      -279.9190
  29   2.0000     -10.284771      -279.8628
  30   2.0000     -10.280444      -279.7451
  31   2.0000     -10.278341      -279.6879
  32   2.0000     -10.277942      -279.6770
  33   2.0000     -10.277173      -279.6561
  34   2.0000     -10.274422      -279.5812
  35   2.0000     -10.273863      -279.5660
  36   2.0000     -10.272465      -279.5280
  37   2.0000     -10.271006      -279.4883
  38   2.0000     -10.269399      -279.4445
  39   2.0000     -10.268439      -279.4184
  40   2.0000     -10.268265      -279.4137
  41   2.0000     -10.268219      -279.4125
  42   2.0000     -10.268111      -279.4095
  43   2.0000     -10.267892      -279.4036
  44   2.0000     -10.267668      -279.3974
  45   2.0000     -10.266357      -279.3618
  46   2.0000     -10.266198      -279.3574
  47   2.0000     -10.266155      -279.3563
  48   2.0000     -10.263326      -279.2793
  49   2.0000     -10.262077      -279.2453
  50   2.0000     -10.261938      -279.2415
  51   2.0000     -10.259679      -279.1800
  52   2.0000     -10.258777      -279.1555
  53   2.0000     -10.258688      -279.1531
  54   2.0000     -10.258157      -279.1387
  55   2.0000     -10.258114      -279.1375
  56   2.0000     -10.255178      -279.0576
  57   2.0000     -10.244570      -278.7689
  58   2.0000      -8.033697      -218.6080
  59   2.0000      -8.032343      -218.5712
  60   2.0000      -8.029825      -218.5026
  61   2.0000      -8.029476      -218.4932
  62   2.0000      -8.029434      -218.4920
  63   2.0000      -8.026695      -218.4175
  64   2.0000      -8.026448      -218.4108
  65   2.0000      -8.018584      -218.1968
  66   2.0000      -8.013468      -218.0576
  67   2.0000      -6.003439      -163.3619
  68   2.0000      -6.001818      -163.3178
  69   2.0000      -5.999459      -163.2536
  70   2.0000      -5.999179      -163.2460
  71   2.0000      -5.999083      -163.2434
  72   2.0000      -5.999001      -163.2411
  73   2.0000      -5.997724      -163.2064
  74   2.0000      -5.996418      -163.1708
  75   2.0000      -5.995970      -163.1586
  76   2.0000      -5.995321      -163.1410
  77   2.0000      -5.995007      -163.1324
  78   2.0000      -5.994979      -163.1317
  79   2.0000      -5.994871      -163.1287
  80   2.0000      -5.993781      -163.0991
  81   2.0000      -5.992393      -163.0613
  82   2.0000      -5.991958      -163.0495
  83   2.0000      -5.991089      -163.0258
  84   2.0000      -5.990891      -163.0204
  85   2.0000      -5.990696      -163.0151
  86   2.0000      -5.988271      -162.9491
  87   2.0000      -5.987909      -162.9393
  88   2.0000      -5.987684      -162.9332
  89   2.0000      -5.984353      -162.8425
  90   2.0000      -5.983284      -162.8134
  91   2.0000      -5.979671      -162.7151
  92   2.0000      -5.979389      -162.7075
  93   2.0000      -5.974079      -162.5630
  94   2.0000      -1.154801       -31.4237
  95   2.0000      -1.053393       -28.6643
  96   2.0000      -0.982863       -26.7451
  97   2.0000      -0.980432       -26.6789
  98   2.0000      -0.978990       -26.6397
  99   2.0000      -0.968433       -26.3524
 100   2.0000      -0.965577       -26.2747
 101   2.0000      -0.958587       -26.0845
 102   2.0000      -0.957024       -26.0419
 103   2.0000      -0.953303       -25.9407
 104   2.0000      -0.945636       -25.7321
 105   2.0000      -0.893921       -24.3248
 106   2.0000      -0.888422       -24.1752
 107   2.0000      -0.879524       -23.9331
 108   2.0000      -0.872804       -23.7502
 109   2.0000      -0.857221       -23.3262
 110   2.0000      -0.853206       -23.2169
 111   2.0000      -0.842752       -22.9325
 112   2.0000      -0.836439       -22.7607
 113   2.0000      -0.832198       -22.6453
 114   2.0000      -0.831912       -22.6375
 115   2.0000      -0.821892       -22.3648
 116   2.0000      -0.820998       -22.3405
 117   2.0000      -0.819419       -22.2975
 118   2.0000      -0.811702       -22.0875
 119   2.0000      -0.810887       -22.0654
 120   2.0000      -0.808426       -21.9984
 121   2.0000      -0.802052       -21.8250
 122   2.0000      -0.798832       -21.7373
 123   2.0000      -0.793979       -21.6053
 124   2.0000      -0.783193       -21.3118
 125   2.0000      -0.771517       -20.9940
 126   2.0000      -0.767989       -20.8980
 127   2.0000      -0.749557       -20.3965
 128   2.0000      -0.741664       -20.1817
 129   2.0000      -0.725224       -19.7343
 130   2.0000      -0.717070       -19.5125
 131   2.0000      -0.696269       -18.9464
 132   2.0000      -0.688320       -18.7301
 133   2.0000      -0.676161       -18.3993
 134   2.0000      -0.672288       -18.2939
 135   2.0000      -0.666003       -18.1229
 136   2.0000      -0.659638       -17.9497
 137   2.0000      -0.655346       -17.8329
 138   2.0000      -0.652344       -17.7512
 139   2.0000      -0.638977       -17.3874
 140   2.0000      -0.628222       -17.0948
 141   2.0000      -0.626467       -17.0470
 142   2.0000      -0.620179       -16.8759
 143   2.0000      -0.615221       -16.7410
 144   2.0000      -0.612382       -16.6638
 145   2.0000      -0.608095       -16.5471
 146   2.0000      -0.607862       -16.5408
 147   2.0000      -0.601891       -16.3783
 148   2.0000      -0.601103       -16.3568
 149   2.0000      -0.598021       -16.2730
 150   2.0000      -0.597720       -16.2648
 151   2.0000      -0.587971       -15.9995
 152   2.0000      -0.586058       -15.9474
 153   2.0000      -0.585267       -15.9259
 154   2.0000      -0.574978       -15.6459
 155   2.0000      -0.572884       -15.5890
 156   2.0000      -0.572385       -15.5754
 157   2.0000      -0.563659       -15.3379
 158   2.0000      -0.558685       -15.2026
 159   2.0000      -0.553842       -15.0708
 160   2.0000      -0.547310       -14.8931
 161   2.0000      -0.539865       -14.6905
 162   2.0000      -0.536080       -14.5875
 163   2.0000      -0.529159       -14.3991
 164   2.0000      -0.528162       -14.3720
 165   2.0000      -0.516451       -14.0534
 166   2.0000      -0.513565       -13.9748
 167   2.0000      -0.506149       -13.7730
 168   2.0000      -0.499868       -13.6021
 169   2.0000      -0.499415       -13.5898
 170   2.0000      -0.497708       -13.5433
 171   2.0000      -0.495378       -13.4799
 172   2.0000      -0.492538       -13.4026
 173   2.0000      -0.486256       -13.2317
 174   2.0000      -0.483482       -13.1562
 175   2.0000      -0.482400       -13.1268
 176   2.0000      -0.481839       -13.1115
 177   2.0000      -0.479340       -13.0435
 178   2.0000      -0.477904       -13.0044
 179   2.0000      -0.476239       -12.9591
 180   2.0000      -0.472155       -12.8480
 181   2.0000      -0.471265       -12.8238
 182   2.0000      -0.468830       -12.7575
 183   2.0000      -0.466680       -12.6990
 184   2.0000      -0.465431       -12.6650
 185   2.0000      -0.461172       -12.5491
 186   2.0000      -0.460776       -12.5384
 187   2.0000      -0.460327       -12.5261
 188   2.0000      -0.458848       -12.4859
 189   2.0000      -0.457618       -12.4524
 190   2.0000      -0.449074       -12.2199
 191   2.0000      -0.447382       -12.1739
 192   2.0000      -0.446211       -12.1420
 193   2.0000      -0.445436       -12.1209
 194   2.0000      -0.441039       -12.0013
 195   2.0000      -0.438657       -11.9365
 196   2.0000      -0.435822       -11.8593
 197   2.0000      -0.433073       -11.7845
 198   2.0000      -0.430227       -11.7071
 199   2.0000      -0.427925       -11.6444
 200   2.0000      -0.423232       -11.5167
 201   2.0000      -0.421143       -11.4599
 202   2.0000      -0.420436       -11.4406
 203   2.0000      -0.413907       -11.2630
 204   2.0000      -0.410684       -11.1753
 205   2.0000      -0.407954       -11.1010
 206   2.0000      -0.406288       -11.0556
 207   2.0000      -0.403665       -10.9843
 208   2.0000      -0.400455       -10.8969
 209   2.0000      -0.398147       -10.8341
 210   2.0000      -0.393820       -10.7164
 211   2.0000      -0.385802       -10.4982
 212   2.0000      -0.385248       -10.4831
 213   2.0000      -0.382823       -10.4171
 214   2.0000      -0.374474       -10.1899
 215   2.0000      -0.373473       -10.1627
 216   2.0000      -0.372123       -10.1260
 217   2.0000      -0.362150        -9.8546
 218   2.0000      -0.348003        -9.4696
 219   2.0000      -0.337108        -9.1732
 220   2.0000      -0.328131        -8.9289
 221   2.0000      -0.319711        -8.6998
 222   2.0000      -0.317956        -8.6520
 223   2.0000      -0.313838        -8.5400
 224   2.0000      -0.313170        -8.5218
 225   2.0000      -0.308700        -8.4001
 226   2.0000      -0.307016        -8.3543
 227   2.0000      -0.304487        -8.2855
 228   2.0000      -0.302351        -8.2274
 229   2.0000      -0.293987        -7.9998
 230   2.0000      -0.280478        -7.6322
 231   2.0000      -0.271138        -7.3780
 232   2.0000      -0.257641        -7.0108
 233   2.0000      -0.236165        -6.4264
 234   2.0000      -0.215515        -5.8645
 235   2.0000      -0.173859        -4.7310
 236   2.0000      -0.163719        -4.4550
 237   0.0000      -0.087163        -2.3718
 238   0.0000      -0.075579        -2.0566
 239   0.0000      -0.031676        -0.8620
 240   0.0000      -0.019162        -0.5214
 241   0.0000       0.008903         0.2423

MULLIKEN ATOMIC CHARGES
-----------------------
   0 C :    0.007182
   1 C :   -0.068187
   2 C :    0.037849
   3 C :    0.060201
   4 C :   -0.058950
   5 S :    0.094576
   6 C :   -0.048495
   7 C :    0.057173
   8 C :    0.016411
   9 C :   -0.034281
  10 S :    0.071058
  11 C :   -0.003262
  12 C :   -0.018002
  13 C :   -0.069883
  14 C :    0.036714
  15 C :    0.007818
  16 C :   -0.054719
  17 S :    0.119069
  18 C :   -0.045117
  19 C :    0.024604
  20 C :    0.021728
  21 C :   -0.044614
  22 S :    0.083938
  23 C :   -0.037272
  24 C :   -0.152261
  25 S :    0.093977
  26 C :   -0.207382
  27 C :    0.240566
  28 O :   -0.338532
  29 C :    0.180757
  30 C :    0.040573
  31 N :    0.006385
  32 C :    0.032609
  33 C :   -0.048153
  34 C :    0.010659
  35 C :   -0.052790
  36 C :    0.034263
  37 C :    0.012388
  38 C :   -0.041806
  39 S :    0.084760
  40 C :   -0.071340
  41 C :    0.021524
  42 C :    0.012752
  43 C :   -0.022489
  44 S :    0.081067
  45 C :   -0.013495
  46 C :    0.009483
  47 C :   -0.051831
  48 C :    0.054209
  49 C :    0.021243
  50 C :   -0.045708
  51 S :    0.056252
  52 C :   -0.083434
  53 C :    0.025645
  54 C :    0.034449
  55 C :   -0.055336
  56 S :    0.051453
  57 C :   -0.047637
  58 H :    0.015561
  59 H :    0.030756
  60 H :   -0.015270
  61 H :   -0.007702
  62 H :   -0.009053
  63 H :   -0.019907
  64 H :   -0.018271
  65 H :   -0.005192
  66 H :   -0.019350
  67 H :   -0.020367
  68 H :   -0.020118
  69 H :   -0.020749
  70 H :   -0.003654
  71 H :    0.015080
  72 H :    0.036046
  73 H :    0.026712
  74 H :    0.025193
  75 H :    0.136601
  76 H :    0.003037
  77 H :    0.041452
  78 H :   -0.021305
  79 H :   -0.020277
  80 H :   -0.020236
  81 H :   -0.023073
  82 H :   -0.024052
  83 H :   -0.014468
  84 H :   -0.007770
  85 H :   -0.012874
  86 H :   -0.027118
  87 H :   -0.022638
  88 H :   -0.024267
  89 H :    0.008868
  90 H :    0.010042
Sum of atomic charges:   -0.0000000

LOEWDIN ATOMIC CHARGES
----------------------
   0 C :   -0.053389
   1 C :   -0.143637
   2 C :   -0.026401
   3 C :   -0.029772
   4 C :   -0.159730
   5 S :    0.392376
   6 C :   -0.187417
   7 C :   -0.027649
   8 C :   -0.043673
   9 C :   -0.154976
  10 S :    0.409887
  11 C :   -0.078724
  12 C :   -0.062790
  13 C :   -0.181200
  14 C :   -0.037476
  15 C :   -0.056659
  16 C :   -0.176100
  17 S :    0.410181
  18 C :   -0.194019
  19 C :   -0.038910
  20 C :   -0.050408
  21 C :   -0.150269
  22 S :    0.385540
  23 C :   -0.094461
  24 C :   -0.186125
  25 S :    0.409867
  26 C :   -0.249916
  27 C :    0.003222
  28 O :   -0.118853
  29 C :    0.080560
  30 C :   -0.055842
  31 N :    0.067180
  32 C :    0.024574
  33 C :   -0.101138
  34 C :   -0.026397
  35 C :   -0.176596
  36 C :   -0.033482
  37 C :   -0.056895
  38 C :   -0.170645
  39 S :    0.387581
  40 C :   -0.202199
  41 C :   -0.041107
  42 C :   -0.055155
  43 C :   -0.142330
  44 S :    0.392998
  45 C :   -0.080454
  46 C :   -0.053584
  47 C :   -0.169237
  48 C :   -0.034002
  49 C :   -0.048794
  50 C :   -0.172462
  51 S :    0.374871
  52 C :   -0.205278
  53 C :   -0.030047
  54 C :   -0.055529
  55 C :   -0.137500
  56 S :    0.331789
  57 C :   -0.104968
  58 H :    0.027498
  59 H :    0.026256
  60 H :    0.032574
  61 H :    0.030951
  62 H :    0.033202
  63 H :    0.028972
  64 H :    0.034069
  65 H :    0.036580
  66 H :    0.030196
  67 H :    0.028821
  68 H :    0.029794
  69 H :    0.029984
  70 H :    0.037993
  71 H :    0.020824
  72 H :    0.027619
  73 H :    0.017322
  74 H :    0.016460
  75 H :    0.091674
  76 H :    0.026739
  77 H :    0.028342
  78 H :    0.029409
  79 H :    0.029799
  80 H :    0.028795
  81 H :    0.027911
  82 H :    0.028878
  83 H :    0.024739
  84 H :    0.025194
  85 H :    0.029111
  86 H :    0.025805
  87 H :    0.028343
  88 H :    0.027747
  89 H :    0.023378
  90 H :    0.020592

  Mayer bond orders larger than 0.100000
B(  0-C ,  1-C ) :   1.8293 B(  0-C , 58-H ) :   0.9477 B(  0-C , 59-H ) :   0.9347
B(  1-C ,  2-C ) :   1.0971 B(  1-C ,  5-S ) :   1.0119 B(  2-C ,  3-C ) :   1.6002
B(  2-C , 60-H ) :   0.9964 B(  3-C ,  4-C ) :   1.2090 B(  3-C , 61-H ) :   0.9869
B(  4-C ,  5-S ) :   1.0739 B(  4-C ,  6-C ) :   1.4133 B(  6-C ,  7-C ) :   1.2676
B(  6-C , 10-S ) :   1.0551 B(  7-C ,  8-C ) :   1.4732 B(  7-C , 62-H ) :   0.9919
B(  8-C ,  9-C ) :   1.2506 B(  8-C , 63-H ) :   1.0016 B(  9-C , 10-S ) :   1.0743
B(  9-C , 11-C ) :   1.3645 B( 11-C , 12-C ) :   1.4366 B( 11-C , 64-H ) :   0.9508
B( 12-C , 13-C ) :   1.3321 B( 12-C , 65-H ) :   0.9538 B( 13-C , 14-C ) :   1.2773
B( 13-C , 17-S ) :   1.0675 B( 14-C , 15-C ) :   1.4551 B( 14-C , 66-H ) :   0.9992
B( 15-C , 16-C ) :   1.2960 B( 15-C , 67-H ) :   0.9942 B( 16-C , 17-S ) :   1.0874
B( 16-C , 18-C ) :   1.3464 B( 18-C , 19-C ) :   1.2821 B( 18-C , 22-S ) :   1.0592
B( 19-C , 20-C ) :   1.4871 B( 19-C , 68-H ) :   0.9941 B( 20-C , 21-C ) :   1.2156
B( 20-C , 69-H ) :   1.0006 B( 21-C , 22-S ) :   1.0615 B( 21-C , 23-C ) :   1.4692
B( 23-C , 24-C ) :   1.2523 B( 23-C , 70-H ) :   0.9692 B( 24-C , 25-S ) :   1.0851
B( 24-C , 30-C ) :   1.4057 B( 25-S , 26-C ) :   1.0786 B( 26-C , 27-C ) :   1.5183
B( 26-C , 71-H ) :   0.9798 B( 27-C , 28-O ) :   1.1299 B( 27-C , 30-C ) :   1.2527
B( 28-O , 29-C ) :   0.9585 B( 29-C , 72-H ) :   0.9811 B( 29-C , 73-H ) :   0.9696
B( 29-C , 74-H ) :   0.9699 B( 30-C , 31-N ) :   1.1565 B( 31-N , 32-C ) :   1.2204
B( 31-N , 75-H ) :   0.9053 B( 32-C , 33-C ) :   1.5236 B( 32-C , 76-H ) :   0.9691
B( 33-C , 34-C ) :   1.2619 B( 33-C , 77-H ) :   0.9563 B( 34-C , 35-C ) :   1.4638
B( 34-C , 78-H ) :   0.9820 B( 35-C , 36-C ) :   1.2199 B( 35-C , 39-S ) :   1.0356
B( 36-C , 37-C ) :   1.4882 B( 36-C , 79-H ) :   0.9980 B( 37-C , 38-C ) :   1.2778
B( 37-C , 80-H ) :   0.9972 B( 38-C , 39-S ) :   1.0838 B( 38-C , 40-C ) :   1.3461
B( 40-C , 41-C ) :   1.2950 B( 40-C , 44-S ) :   1.0549 B( 41-C , 42-C ) :   1.4543
B( 41-C , 81-H ) :   0.9962 B( 42-C , 43-C ) :   1.2465 B( 42-C , 82-H ) :   1.0033
B( 43-C , 44-S ) :   1.0618 B( 43-C , 45-C ) :   1.4158 B( 45-C , 46-C ) :   1.2863
B( 45-C , 83-H ) :   0.9727 B( 46-C , 47-C ) :   1.4681 B( 46-C , 84-H ) :   0.9681
B( 47-C , 48-C ) :   1.2039 B( 47-C , 51-S ) :   1.0288 B( 48-C , 49-C ) :   1.5292
B( 48-C , 85-H ) :   0.9983 B( 49-C , 50-C ) :   1.2110 B( 49-C , 86-H ) :   0.9887
B( 50-C , 51-S ) :   1.0557 B( 50-C , 52-C ) :   1.4962 B( 52-C , 53-C ) :   1.1894
B( 52-C , 56-S ) :   1.0281 B( 53-C , 54-C ) :   1.6161 B( 53-C , 87-H ) :   0.9931
B( 54-C , 55-C ) :   1.0965 B( 54-C , 88-H ) :   0.9936 B( 55-C , 56-S ) :   1.0101
B( 55-C , 57-C ) :   1.8411 B( 57-C , 89-H ) :   0.9503 B( 57-C , 90-H ) :   0.9419

-----------------------------------------------------------------------------
         ABSORPTION SPECTRUM VIA TRANSITION ELECTRIC DIPOLE MOMENTS
-----------------------------------------------------------------------------
State   Energy  Wavelength   fosc         T2         TX        TY        TZ
        (cm-1)    (nm)                  (au**2)     (au)      (au)      (au)
-----------------------------------------------------------------------------
   0    2098.8   4764.7   0.006217430   0.97527  -0.58929   0.41204  -0.67692
   1    5139.7   1945.6   0.013648512   0.87423   0.72896   0.56135  -0.16650
   2    7409.8   1349.6   0.351112553  15.59972   0.62345   0.78395   3.82053
   3    8891.0   1124.7   0.875091930  32.40237  -2.16489   2.28360   4.74350
   4   13023.2    767.9   0.127737144   3.22906  -1.39035   0.66497   0.92401
   5   13973.6    715.6   0.043414081   1.02281  -0.97089   0.21256   0.18711
   6   15681.6    637.7   0.149896013   3.14685  -1.47292   0.67373   0.72350
   7   16709.7    598.5   0.065321015   1.28694  -0.07936  -0.38785  -1.06312
   8   18062.1    553.6   0.440648047   8.03154  -2.65434   0.79069   0.60068
   9   20116.1    497.1   0.076805104   1.25696   0.31073   0.57133  -0.91323
  10   21001.5    476.2   0.935030356  14.65721  -3.59545  -0.03051   1.31492
  11   21480.5    465.5   0.389084990   5.96315  -1.70208  -1.20254   1.27278
  12   22762.7    439.3   0.062413941   0.90268   0.41523  -0.77523   0.35955
  13   23067.5    433.5   0.050002723   0.71362   0.82497  -0.16056  -0.08522
  14   23648.2    422.9   0.061963009   0.86260   0.56749   0.10704  -0.72739
  15   24554.7    407.3   0.032018958   0.42929   0.15807  -0.55569   0.30904
  16   25769.8    388.1   0.030163525   0.38534   0.52109   0.09323   0.32422
  17   26418.4    378.5   0.209210127   2.60707   0.25061  -1.10273  -1.15250
  18   27121.5    368.7   0.103042305   1.25077   0.00593   1.05666  -0.36634
  19   27555.4    362.9   0.063537381   0.75910  -0.22315  -0.46258   0.70379
  20   27856.8    359.0   0.057674554   0.68160   0.24685   0.51434  -0.59675
  21   28152.8    355.2   0.026187802   0.30623  -0.16993   0.31422  -0.42264
  22   28470.9    351.2   0.002660013   0.03076  -0.02746   0.03997  -0.16854
  23   28772.7    347.6   0.058193054   0.66584  -0.77167  -0.11001  -0.24137
  24   29420.0    339.9   0.072313680   0.80920   0.43823   0.08391   0.78110
  25   29598.7    337.9   0.039083291   0.43470   0.01130   0.30061   0.58670
  26   29899.0    334.5   0.012544948   0.13813   0.16536   0.16098  -0.29133
  27   30013.7    333.2   0.010517367   0.11536  -0.13895  -0.30968  -0.01241
  28   30090.9    332.3   0.018985403   0.20771   0.35362   0.25522   0.13239
  29   30451.2    328.4   0.013707477   0.14819   0.17467  -0.27609  -0.20361
  30   30754.5    325.2   0.094641227   1.01309  -0.43297   0.84915   0.32338
  31   31317.0    319.3   0.026091018   0.27428  -0.31844  -0.37377  -0.18212
  32   31535.7    317.1   0.101579058   1.06042  -0.54634   0.83871  -0.24186
  33   31894.5    313.5   0.071676036   0.73983  -0.79738   0.28707  -0.14701
  34   31904.6    313.4   0.120966318   1.24821  -0.53981   0.94500  -0.25254
  35   32135.2    311.2   0.003787010   0.03880   0.13711  -0.07990  -0.11668
  36   32299.2    309.6   0.121119948   1.23452  -0.54952   0.90356   0.34078
  37   32772.5    305.1   0.035308439   0.35469  -0.41671   0.30073  -0.30100
  38   32863.3    304.3   0.021785129   0.21824  -0.17411  -0.41772  -0.11589
  39   33040.6    302.7   0.145689294   1.45163  -1.03527   0.15018  -0.59773
  40   33343.0    299.9   0.004462919   0.04406   0.07915  -0.15021  -0.12344
  41   33933.2    294.7   0.068178872   0.66146   0.47913  -0.61548   0.23037
  42   34188.2    292.5   0.079166410   0.76232  -0.77936  -0.17150  -0.35428
  43   34351.1    291.1   0.020129696   0.19292  -0.10556   0.26389   0.33487
  44   34543.1    289.5   0.017209484   0.16401  -0.23625   0.04298  -0.32612
  45   34750.8    287.8   0.008255691   0.07821  -0.13180   0.21667  -0.11788
  46   34869.5    286.8   0.005130973   0.04844   0.13157   0.15041   0.09223
  47   35165.4    284.4   0.012421913   0.11629   0.04943   0.03289   0.33581
  48   35323.5    283.1   0.011032494   0.10282   0.03606   0.20676   0.24243
  49   35598.5    280.9   0.056554905   0.52302  -0.31022   0.49643   0.42466
  50   35707.1    280.1   0.025872308   0.23854  -0.03396  -0.23494   0.42683
  51   35875.9    278.7   0.008647041   0.07935   0.21543   0.12107  -0.13521
  52   36140.5    276.7   0.015794934   0.14388  -0.22737   0.21414   0.21524
  53   36387.9    274.8   0.005347664   0.04838  -0.21865  -0.01606  -0.01780
  54   36432.9    274.5   0.032762182   0.29604   0.36158  -0.36506   0.17898
  55   36704.7    272.4   0.054744175   0.49101  -0.47227   0.45393  -0.24885
  56   36979.2    270.4   0.011172464   0.09946   0.14659   0.27556   0.04521
  57   37206.6    268.8   0.045779948   0.40507   0.07154   0.06649   0.62891
  58   37627.5    265.8   0.019849500   0.17367  -0.21957   0.35295   0.02965
  59   37925.4    263.7   0.004721865   0.04099   0.19545   0.04079  -0.03352
  60   38073.6    262.6   0.086295452   0.74617   0.14643  -0.68960  -0.49919
  61   38437.2    260.2   0.023912444   0.20481   0.03569  -0.13882  -0.42926
  62   38736.2    258.2   0.026424639   0.22458   0.05150  -0.18795  -0.43197
  63   38996.4    256.4   0.020441568   0.17257  -0.05975  -0.40827   0.04808
  64   39198.9    255.1   0.021337738   0.17921  -0.05560  -0.41961   0.00610
  65   39246.7    254.8   0.022506017   0.18879   0.19108   0.39023   0.00028
  66   39386.5    253.9   0.008281218   0.06922  -0.07437  -0.25212  -0.01119
  67   39488.7    253.2   0.005469763   0.04560   0.18072   0.01377   0.11293
  68   40006.0    250.0   0.016056955   0.13213  -0.14878  -0.24985  -0.21811
  69   40145.0    249.1   0.084921560   0.69641  -0.03185   0.78336   0.28590
  70   40266.6    248.3   0.043951991   0.35934   0.28113  -0.52889  -0.02418

FINAL SINGLE POINT ENERGY     -5520.734749344841

DIPOLE MOMENT
-------------
                                X             Y             Z
Electronic contribution:     -7.37907      -3.67884       0.52091
Nuclear contribution   :      8.60961       3.68686      -3.14676
                        -----------------------------------------
Total Dipole Moment    :      1.23054       0.00802      -2.62585
                        -----------------------------------------
Magnitude (a.u.)       :      2.89989
Magnitude (Debye)      :      7.37094

Rotational constants in cm-1:     0.001862     0.000702     0.000606
Rotational constants in MHz :    55.817317    21.053424    18.159673

                             ****ORCA TERMINATED NORMALLY****
TOTAL RUN TIME: 0 days 0 hours 23 minutes 27 seconds 846 msec
