                         Program Version 4.2.0 -  RELEASE  -
|  1> # ORCA input file
|  2> # SCF done       -180.414761561549          0.000858556711
|  3> ! CAM-B3LYP def2-SVP def2/J RIJCOSX Grid4 TightSCF
|  4> %maxcore 5000
|  5> %tddft
|  6>     Mode sTDDFT
|  7>     Ethresh 5.0
|  8>     maxcore 5000
|  9> end
| 10>
| 11> %pal
| 12>   nprocs 6
| 13>   end
| 14> * xyz 0 1
| 15>    C       16.47780        -7.24123         4.66451
| 16>    C       17.60331        -7.87714         4.22031
| 17>    F       18.71367        -7.86391         4.97866
| 18>    C       17.65128        -8.55068         2.99157
| 19>    C       16.53307        -8.57340         2.20582
| 20>    C       15.34504        -7.93153         2.61315
| 21>    C       15.31582        -7.25384         3.86791
| 22>    C       14.13522        -6.60733         4.29948
| 23>    C       13.02521        -6.63135         3.49759
| 24>    C       13.06379        -7.29889         2.23842
| 25>    C       14.18823        -7.94038         1.80288
| 26>    C       11.76324        -7.14442         1.55814
| 27>    O       11.40939        -7.62352         0.50913
| 28>    C       10.98888        -6.19646         2.42185
| 29>    C       11.68927        -6.08429         3.69233
| 30>    C       11.13135        -5.72793         4.88364
| 31>    C        9.75145        -5.48470         5.06829
| 32>    N        8.64681        -5.39667         5.37195
| 33>    C       11.83385        -5.63905         6.10237
| 34>    N       12.34570        -5.51229         7.12247
| 35>    C        9.96699        -5.48913         1.90036
| 36>    C        9.35288        -4.28178         2.42222
| 37>    N        8.28253        -3.84577         1.76049
| 38>    C        7.73282        -2.72241         2.19209
| 39>    C        8.26054        -1.98812         3.23783
| 40>    C        9.40016        -2.50928         3.87497
| 41>    N        9.91500        -3.67186         3.45784
| 42>    C       10.07006        -1.89680         4.98871
| 43>    C        9.79210        -0.67121         5.49773
| 44>    C       10.45793        -0.10857         6.60415
| 45>    C       10.17062         1.12945         7.11347
| 46>    C       10.77314         1.76210         8.23385
| 47>    C       10.27945         2.99644         8.51541
| 48>    C        9.24807         3.41863         7.64204
| 49>    S        8.93811         2.18218         6.43591
| 50>    C        8.53838         4.59553         7.63835
| 51>    C        8.72696         5.74167         8.45299
| 52>    C        7.88590         6.76212         8.15189
| 53>    C        6.96521         6.47188         7.10221
| 54>    S        7.20455         4.84513         6.51869
| 55>    C        6.02153         7.28136         6.55355
| 56>    C        5.13317         6.80157         5.53725
| 57>    N        4.28817         7.67569         4.97467
| 58>    C        3.47178         7.20585         4.05574
| 59>    C        3.43393         5.86314         3.70097
| 60>    C        4.32701         5.00807         4.35828
| 61>    N        5.19294         5.50270         5.24210
| 62>    C        4.27678         3.57299         4.15396
| 63>    C        5.02445         2.73518         4.89506
| 64>    C        4.97257         1.31306         4.87818
| 65>    C        5.46153         0.53080         5.87486
| 66>    C        5.75831        -0.91635         5.66148
| 67>    O        5.35198        -1.60692         4.75600
| 68>    C        6.71685        -1.26904         6.72568
| 69>    C        7.41141        -2.43151         6.91034
| 70>    C        8.34035        -2.51471         7.97188
| 71>    C        8.52339        -1.39635         8.83581
| 72>    C        9.48114        -1.47512         9.86476
| 73>    C       10.22180        -2.61591        10.00564
| 74>    C       10.05245        -3.73019         9.17226
| 75>    C        9.11345        -3.67501         8.17971
| 76>    F       11.15071        -2.67967        10.97678
| 77>    C        7.76460        -0.22042         8.64479
| 78>    C        6.88510        -0.15255         7.59886
| 79>    C        6.00163         0.92150         7.16319
| 80>    C        5.63229         2.01244         7.90457
| 81>    C        4.51865         2.83216         7.61399
| 82>    N        3.57573         3.47268         7.48383
| 83>    C        6.27471         2.40113         9.09738
| 84>    N        6.80867         2.79713        10.03361
| 85>    H       16.47674        -6.73523         5.61728
| 86>    H       18.56793        -9.03450         2.69381
| 87>    H       16.54566        -9.08521         1.25539
| 88>    H       14.13831        -6.09605         5.24964
| 89>    H       14.19626        -8.44603         0.84894
| 90>    H        9.60473        -5.78649         0.92351
| 91>    H        6.84178        -2.40141         1.66943
| 92>    H        7.79999        -1.06970         3.55722
| 93>    H       10.86159        -2.48801         5.42947
| 94>    H        9.02000        -0.06074         5.04627
| 95>    H       11.23422        -0.68723         7.08605
| 96>    H       11.55313         1.27325         8.79055
| 97>    H       10.61145         3.61314         9.33097
| 98>    H        9.48217         5.78266         9.21762
| 99>    H        7.87925         7.71872         8.64376
|100>    H        5.90399         8.30298         6.87598
|101>    H        2.80988         7.93001         3.59746
|102>    H        2.73509         5.49018         2.97054
|103>    H        3.53608         3.20632         3.45669
|104>    H        5.72731         3.18573         5.57859
|105>    H        4.57503         0.80962         4.00411
|106>    H        7.27543        -3.27510         6.24973
|107>    H        9.63043        -0.63878        10.53006
|108>    H       10.66742        -4.60275         9.32472
|109>    H        8.95334        -4.52023         7.52918
|110>    H        7.91874         0.61166         9.31385
|111> *
|112>
|113>                          ****END OF INPUT****

CARTESIAN COORDINATES (ANGSTROEM)
---------------------------------
  C     16.477800   -7.241230    4.664510
  C     17.603310   -7.877140    4.220310
  F     18.713670   -7.863910    4.978660
  C     17.651280   -8.550680    2.991570
  C     16.533070   -8.573400    2.205820
  C     15.345040   -7.931530    2.613150
  C     15.315820   -7.253840    3.867910
  C     14.135220   -6.607330    4.299480
  C     13.025210   -6.631350    3.497590
  C     13.063790   -7.298890    2.238420
  C     14.188230   -7.940380    1.802880
  C     11.763240   -7.144420    1.558140
  O     11.409390   -7.623520    0.509130
  C     10.988880   -6.196460    2.421850
  C     11.689270   -6.084290    3.692330
  C     11.131350   -5.727930    4.883640
  C      9.751450   -5.484700    5.068290
  N      8.646810   -5.396670    5.371950
  C     11.833850   -5.639050    6.102370
  N     12.345700   -5.512290    7.122470
  C      9.966990   -5.489130    1.900360
  C      9.352880   -4.281780    2.422220
  N      8.282530   -3.845770    1.760490
  C      7.732820   -2.722410    2.192090
  C      8.260540   -1.988120    3.237830
  C      9.400160   -2.509280    3.874970
  N      9.915000   -3.671860    3.457840
  C     10.070060   -1.896800    4.988710
  C      9.792100   -0.671210    5.497730
  C     10.457930   -0.108570    6.604150
  C     10.170620    1.129450    7.113470
  C     10.773140    1.762100    8.233850
  C     10.279450    2.996440    8.515410
  C      9.248070    3.418630    7.642040
  S      8.938110    2.182180    6.435910
  C      8.538380    4.595530    7.638350
  C      8.726960    5.741670    8.452990
  C      7.885900    6.762120    8.151890
  C      6.965210    6.471880    7.102210
  S      7.204550    4.845130    6.518690
  C      6.021530    7.281360    6.553550
  C      5.133170    6.801570    5.537250
  N      4.288170    7.675690    4.974670
  C      3.471780    7.205850    4.055740
  C      3.433930    5.863140    3.700970
  C      4.327010    5.008070    4.358280
  N      5.192940    5.502700    5.242100
  C      4.276780    3.572990    4.153960
  C      5.024450    2.735180    4.895060
  C      4.972570    1.313060    4.878180
  C      5.461530    0.530800    5.874860
  C      5.758310   -0.916350    5.661480
  O      5.351980   -1.606920    4.756000
  C      6.716850   -1.269040    6.725680
  C      7.411410   -2.431510    6.910340
  C      8.340350   -2.514710    7.971880
  C      8.523390   -1.396350    8.835810
  C      9.481140   -1.475120    9.864760
  C     10.221800   -2.615910   10.005640
  C     10.052450   -3.730190    9.172260
  C      9.113450   -3.675010    8.179710
  F     11.150710   -2.679670   10.976780
  C      7.764600   -0.220420    8.644790
  C      6.885100   -0.152550    7.598860
  C      6.001630    0.921500    7.163190
  C      5.632290    2.012440    7.904570
  C      4.518650    2.832160    7.613990
  N      3.575730    3.472680    7.483830
  C      6.274710    2.401130    9.097380
  N      6.808670    2.797130   10.033610
  H     16.476740   -6.735230    5.617280
  H     18.567930   -9.034500    2.693810
  H     16.545660   -9.085210    1.255390
  H     14.138310   -6.096050    5.249640
  H     14.196260   -8.446030    0.848940
  H      9.604730   -5.786490    0.923510
  H      6.841780   -2.401410    1.669430
  H      7.799990   -1.069700    3.557220
  H     10.861590   -2.488010    5.429470
  H      9.020000   -0.060740    5.046270
  H     11.234220   -0.687230    7.086050
  H     11.553130    1.273250    8.790550
  H     10.611450    3.613140    9.330970
  H      9.482170    5.782660    9.217620
  H      7.879250    7.718720    8.643760
  H      5.903990    8.302980    6.875980
  H      2.809880    7.930010    3.597460
  H      2.735090    5.490180    2.970540
  H      3.536080    3.206320    3.456690
  H      5.727310    3.185730    5.578590
  H      4.575030    0.809620    4.004110
  H      7.275430   -3.275100    6.249730
  H      9.630430   -0.638780   10.530060
  H     10.667420   -4.602750    9.324720
  H      8.953340   -4.520230    7.529180
  H      7.918740    0.611660    9.313850

 Total Charge           Charge          ....    0
 Multiplicity           Mult            ....    1
 Number of Electrons    NEL             ....  484
 Basis Dimension        Dim             .... 1118

ORBITAL ENERGIES
----------------

  NO   OCC          E(Eh)            E(eV)
   0   2.0000     -88.954371     -2420.5715
   1   2.0000     -88.948293     -2420.4061
   2   2.0000     -24.789371      -674.5531
   3   2.0000     -24.779172      -674.2755
   4   2.0000     -19.219025      -522.9762
   5   2.0000     -19.214932      -522.8649
   6   2.0000     -14.426943      -392.5771
   7   2.0000     -14.419286      -392.3687
   8   2.0000     -14.415827      -392.2746
   9   2.0000     -14.415675      -392.2705
  10   2.0000     -14.414143      -392.2288
  11   2.0000     -14.412020      -392.1710
  12   2.0000     -14.408356      -392.0713
  13   2.0000     -14.407187      -392.0395
  14   2.0000     -10.373464      -282.2763
  15   2.0000     -10.370153      -282.1862
  16   2.0000     -10.365764      -282.0668
  17   2.0000     -10.362239      -281.9709
  18   2.0000     -10.349407      -281.6217
  19   2.0000     -10.348190      -281.5886
  20   2.0000     -10.343406      -281.4584
  21   2.0000     -10.342460      -281.4326
  22   2.0000     -10.342374      -281.4303
  23   2.0000     -10.337988      -281.3109
  24   2.0000     -10.334395      -281.2132
  25   2.0000     -10.332616      -281.1648
  26   2.0000     -10.328948      -281.0650
  27   2.0000     -10.326827      -281.0073
  28   2.0000     -10.321399      -280.8596
  29   2.0000     -10.320576      -280.8372
  30   2.0000     -10.319246      -280.8010
  31   2.0000     -10.317854      -280.7631
  32   2.0000     -10.317475      -280.7528
  33   2.0000     -10.315816      -280.7076
  34   2.0000     -10.312757      -280.6244
  35   2.0000     -10.311312      -280.5851
  36   2.0000     -10.310574      -280.5650
  37   2.0000     -10.310425      -280.5609
  38   2.0000     -10.309971      -280.5486
  39   2.0000     -10.307098      -280.4704
  40   2.0000     -10.305239      -280.4198
  41   2.0000     -10.304294      -280.3941
  42   2.0000     -10.304117      -280.3893
  43   2.0000     -10.302647      -280.3493
  44   2.0000     -10.301274      -280.3119
  45   2.0000     -10.300745      -280.2975
  46   2.0000     -10.299602      -280.2664
  47   2.0000     -10.298587      -280.2388
  48   2.0000     -10.298210      -280.2285
  49   2.0000     -10.298041      -280.2239
  50   2.0000     -10.296901      -280.1929
  51   2.0000     -10.294218      -280.1199
  52   2.0000     -10.293078      -280.0889
  53   2.0000     -10.292849      -280.0826
  54   2.0000     -10.292721      -280.0792
  55   2.0000     -10.292481      -280.0726
  56   2.0000     -10.291482      -280.0455
  57   2.0000     -10.290898      -280.0296
  58   2.0000     -10.290631      -280.0223
  59   2.0000     -10.290494      -280.0186
  60   2.0000     -10.289396      -279.9887
  61   2.0000     -10.289355      -279.9876
  62   2.0000     -10.286448      -279.9085
  63   2.0000     -10.284510      -279.8558
  64   2.0000     -10.283558      -279.8298
  65   2.0000     -10.283019      -279.8152
  66   2.0000     -10.282012      -279.7878
  67   2.0000     -10.281306      -279.7686
  68   2.0000     -10.278400      -279.6895
  69   2.0000     -10.273399      -279.5534
  70   2.0000      -8.049697      -219.0434
  71   2.0000      -8.041153      -218.8109
  72   2.0000      -6.019429      -163.7970
  73   2.0000      -6.015511      -163.6904
  74   2.0000      -6.011242      -163.5742
  75   2.0000      -6.010690      -163.5592
  76   2.0000      -6.006678      -163.4500
  77   2.0000      -6.002303      -163.3310
  78   2.0000      -1.304531       -35.4981
  79   2.0000      -1.294059       -35.2131
  80   2.0000      -1.134785       -30.8791
  81   2.0000      -1.130004       -30.7490
  82   2.0000      -1.088533       -29.6205
  83   2.0000      -1.084807       -29.5191
  84   2.0000      -1.025289       -27.8995
  85   2.0000      -1.016157       -27.6510
  86   2.0000      -1.006230       -27.3809
  87   2.0000      -1.002756       -27.2864
  88   2.0000      -1.000544       -27.2262
  89   2.0000      -0.995778       -27.0965
  90   2.0000      -0.990511       -26.9532
  91   2.0000      -0.985688       -26.8219
  92   2.0000      -0.984134       -26.7797
  93   2.0000      -0.980273       -26.6746
  94   2.0000      -0.976986       -26.5851
  95   2.0000      -0.970548       -26.4099
  96   2.0000      -0.934305       -25.4237
  97   2.0000      -0.930453       -25.3189
  98   2.0000      -0.922227       -25.0951
  99   2.0000      -0.918381       -24.9904
 100   2.0000      -0.909562       -24.7504
 101   2.0000      -0.904120       -24.6024
 102   2.0000      -0.895607       -24.3707
 103   2.0000      -0.889489       -24.2042
 104   2.0000      -0.884811       -24.0769
 105   2.0000      -0.877223       -23.8705
 106   2.0000      -0.871706       -23.7203
 107   2.0000      -0.858531       -23.3618
 108   2.0000      -0.851260       -23.1640
 109   2.0000      -0.843869       -22.9629
 110   2.0000      -0.840255       -22.8645
 111   2.0000      -0.837962       -22.8021
 112   2.0000      -0.826556       -22.4917
 113   2.0000      -0.823553       -22.4100
 114   2.0000      -0.804319       -21.8866
 115   2.0000      -0.799600       -21.7582
 116   2.0000      -0.794479       -21.6189
 117   2.0000      -0.769797       -20.9472
 118   2.0000      -0.766414       -20.8552
 119   2.0000      -0.760494       -20.6941
 120   2.0000      -0.750769       -20.4295
 121   2.0000      -0.746727       -20.3195
 122   2.0000      -0.736182       -20.0325
 123   2.0000      -0.723500       -19.6874
 124   2.0000      -0.717080       -19.5127
 125   2.0000      -0.713322       -19.4105
 126   2.0000      -0.709146       -19.2968
 127   2.0000      -0.702598       -19.1187
 128   2.0000      -0.698377       -19.0038
 129   2.0000      -0.691405       -18.8141
 130   2.0000      -0.684124       -18.6160
 131   2.0000      -0.682014       -18.5585
 132   2.0000      -0.678133       -18.4529
 133   2.0000      -0.665038       -18.0966
 134   2.0000      -0.661306       -17.9951
 135   2.0000      -0.650665       -17.7055
 136   2.0000      -0.643250       -17.5037
 137   2.0000      -0.636477       -17.3194
 138   2.0000      -0.635432       -17.2910
 139   2.0000      -0.632969       -17.2240
 140   2.0000      -0.630491       -17.1565
 141   2.0000      -0.624001       -16.9799
 142   2.0000      -0.621501       -16.9119
 143   2.0000      -0.620583       -16.8869
 144   2.0000      -0.616662       -16.7802
 145   2.0000      -0.610402       -16.6099
 146   2.0000      -0.605194       -16.4682
 147   2.0000      -0.596114       -16.2211
 148   2.0000      -0.591565       -16.0973
 149   2.0000      -0.588261       -16.0074
 150   2.0000      -0.583870       -15.8879
 151   2.0000      -0.572756       -15.5855
 152   2.0000      -0.570008       -15.5107
 153   2.0000      -0.568256       -15.4630
 154   2.0000      -0.562018       -15.2933
 155   2.0000      -0.559309       -15.2196
 156   2.0000      -0.557741       -15.1769
 157   2.0000      -0.556992       -15.1565
 158   2.0000      -0.552412       -15.0319
 159   2.0000      -0.550953       -14.9922
 160   2.0000      -0.550286       -14.9740
 161   2.0000      -0.542130       -14.7521
 162   2.0000      -0.541019       -14.7219
 163   2.0000      -0.540155       -14.6984
 164   2.0000      -0.538832       -14.6624
 165   2.0000      -0.535254       -14.5650
 166   2.0000      -0.532689       -14.4952
 167   2.0000      -0.530987       -14.4489
 168   2.0000      -0.529429       -14.4065
 169   2.0000      -0.527397       -14.3512
 170   2.0000      -0.526343       -14.3225
 171   2.0000      -0.520789       -14.1714
 172   2.0000      -0.517868       -14.0919
 173   2.0000      -0.514775       -14.0077
 174   2.0000      -0.514627       -14.0037
 175   2.0000      -0.512005       -13.9324
 176   2.0000      -0.506779       -13.7902
 177   2.0000      -0.505642       -13.7592
 178   2.0000      -0.504600       -13.7309
 179   2.0000      -0.501549       -13.6479
 180   2.0000      -0.499625       -13.5955
 181   2.0000      -0.496234       -13.5032
 182   2.0000      -0.492090       -13.3904
 183   2.0000      -0.491191       -13.3660
 184   2.0000      -0.489828       -13.3289
 185   2.0000      -0.486034       -13.2257
 186   2.0000      -0.484005       -13.1704
 187   2.0000      -0.483787       -13.1645
 188   2.0000      -0.479162       -13.0387
 189   2.0000      -0.477928       -13.0051
 190   2.0000      -0.469266       -12.7694
 191   2.0000      -0.467289       -12.7156
 192   2.0000      -0.464986       -12.6529
 193   2.0000      -0.464678       -12.6445
 194   2.0000      -0.461405       -12.5555
 195   2.0000      -0.460420       -12.5287
 196   2.0000      -0.458670       -12.4811
 197   2.0000      -0.454999       -12.3811
 198   2.0000      -0.453862       -12.3502
 199   2.0000      -0.450301       -12.2533
 200   2.0000      -0.448229       -12.1969
 201   2.0000      -0.445183       -12.1140
 202   2.0000      -0.444178       -12.0867
 203   2.0000      -0.441175       -12.0050
 204   2.0000      -0.439450       -11.9580
 205   2.0000      -0.436690       -11.8829
 206   2.0000      -0.433614       -11.7992
 207   2.0000      -0.432933       -11.7807
 208   2.0000      -0.431465       -11.7408
 209   2.0000      -0.428412       -11.6577
 210   2.0000      -0.427426       -11.6309
 211   2.0000      -0.425017       -11.5653
 212   2.0000      -0.421568       -11.4714
 213   2.0000      -0.418583       -11.3902
 214   2.0000      -0.412904       -11.2357
 215   2.0000      -0.409560       -11.1447
 216   2.0000      -0.407741       -11.0952
 217   2.0000      -0.402658       -10.9569
 218   2.0000      -0.400710       -10.9039
 219   2.0000      -0.392932       -10.6922
 220   2.0000      -0.385670       -10.4946
 221   2.0000      -0.382731       -10.4146
 222   2.0000      -0.378856       -10.3092
 223   2.0000      -0.374854       -10.2003
 224   2.0000      -0.369730       -10.0609
 225   2.0000      -0.364867        -9.9285
 226   2.0000      -0.361811        -9.8454
 227   2.0000      -0.349666        -9.5149
 228   2.0000      -0.341382        -9.2895
 229   2.0000      -0.338313        -9.2060
 230   2.0000      -0.332400        -9.0451
 231   2.0000      -0.330270        -8.9871
 232   2.0000      -0.329088        -8.9549
 233   2.0000      -0.322838        -8.7849
 234   2.0000      -0.318243        -8.6598
 235   2.0000      -0.313160        -8.5215
 236   2.0000      -0.308594        -8.3973
 237   2.0000      -0.304113        -8.2753
 238   2.0000      -0.299909        -8.1609
 239   2.0000      -0.289818        -7.8863
 240   2.0000      -0.287675        -7.8280
 241   2.0000      -0.227172        -6.1817
 242   0.0000      -0.096050        -2.6137
 243   0.0000      -0.094520        -2.5720
 244   0.0000      -0.089772        -2.4428
 245   0.0000      -0.057569        -1.5665
 246   0.0000      -0.056249        -1.5306

MULLIKEN ATOMIC CHARGES
-----------------------
   0 C :   -0.095476
   1 C :    0.301931
   2 F :   -0.189289
   3 C :   -0.027785
   4 C :   -0.006259
   5 C :    0.097170
   6 C :    0.103377
   7 C :   -0.088164
   8 C :    0.046011
   9 C :   -0.001243
  10 C :   -0.073408
  11 C :    0.142886
  12 O :   -0.127946
  13 C :   -0.086248
  14 C :    0.289839
  15 C :   -0.278042
  16 C :   -0.146958
  17 N :    0.130279
  18 C :   -0.201989
  19 N :    0.154461
  20 C :    0.086522
  21 C :   -0.068480
  22 N :   -0.062997
  23 C :    0.091346
  24 C :   -0.024442
  25 C :    0.075795
  26 N :   -0.119047
  27 C :    0.009768
  28 C :    0.037969
  29 C :    0.001096
  30 C :   -0.018505
  31 C :    0.027986
  32 C :    0.049665
  33 C :   -0.058607
  34 S :    0.050380
  35 C :   -0.006049
  36 C :    0.039362
  37 C :    0.048153
  38 C :    0.035535
  39 S :    0.062125
  40 C :   -0.001617
  41 C :    0.001776
  42 N :   -0.070530
  43 C :    0.083986
  44 C :   -0.049665
  45 C :    0.080610
  46 N :   -0.144802
  47 C :    0.017945
  48 C :    0.033014
  49 C :    0.043977
  50 C :   -0.112270
  51 C :    0.136800
  52 O :   -0.144135
  53 C :   -0.002089
  54 C :   -0.080005
  55 C :    0.099395
  56 C :    0.110588
  57 C :   -0.121471
  58 C :    0.305587
  59 C :   -0.025713
  60 C :   -0.016552
  61 F :   -0.192105
  62 C :   -0.076054
  63 C :    0.045118
  64 C :    0.301120
  65 C :   -0.344590
  66 C :   -0.207483
  67 N :    0.169035
  68 C :   -0.162862
  69 N :    0.141544
  70 H :   -0.003766
  71 H :    0.004875
  72 H :   -0.007509
  73 H :   -0.006042
  74 H :   -0.009963
  75 H :    0.022629
  76 H :    0.010643
  77 H :   -0.002963
  78 H :   -0.017232
  79 H :    0.002173
  80 H :   -0.007706
  81 H :   -0.006115
  82 H :   -0.005140
  83 H :   -0.010146
  84 H :   -0.007500
  85 H :   -0.012408
  86 H :    0.008555
  87 H :   -0.005034
  88 H :   -0.011014
  89 H :    0.054896
  90 H :    0.011982
  91 H :    0.000857
  92 H :   -0.012420
  93 H :    0.009276
  94 H :   -0.007132
  95 H :   -0.013069
Sum of atomic charges:   -0.0000000

LOEWDIN ATOMIC CHARGES
----------------------
   0 C :   -0.042854
   1 C :    0.094222
   2 F :   -0.063494
   3 C :   -0.035764
   4 C :    0.006025
   5 C :   -0.018174
   6 C :    0.004447
   7 C :    0.009483
   8 C :   -0.015810
   9 C :   -0.060783
  10 C :    0.037280
  11 C :    0.085161
  12 O :   -0.130118
  13 C :   -0.062222
  14 C :    0.074619
  15 C :   -0.117747
  16 C :    0.001778
  17 N :   -0.066801
  18 C :   -0.014637
  19 N :   -0.055703
  20 C :    0.066282
  21 C :    0.012529
  22 N :   -0.079943
  23 C :    0.058128
  24 C :   -0.037357
  25 C :    0.040209
  26 N :   -0.074872
  27 C :   -0.043004
  28 C :    0.002428
  29 C :   -0.059524
  30 C :   -0.128483
  31 C :   -0.037427
  32 C :   -0.013291
  33 C :   -0.173038
  34 S :    0.381516
  35 C :   -0.176068
  36 C :   -0.016250
  37 C :   -0.023414
  38 C :   -0.116192
  39 S :    0.434699
  40 C :   -0.068688
  41 C :    0.032723
  42 N :   -0.087076
  43 C :    0.053857
  44 C :   -0.064453
  45 C :    0.040939
  46 N :   -0.105507
  47 C :    0.004182
  48 C :   -0.000208
  49 C :    0.062603
  50 C :   -0.072011
  51 C :    0.079651
  52 O :   -0.144188
  53 C :   -0.072855
  54 C :    0.047212
  55 C :   -0.017000
  56 C :    0.004367
  57 C :   -0.053050
  58 C :    0.092603
  59 C :   -0.034803
  60 C :    0.009571
  61 F :   -0.066434
  62 C :    0.010774
  63 C :   -0.025536
  64 C :    0.064152
  65 C :   -0.132748
  66 C :   -0.024730
  67 N :   -0.048095
  68 C :   -0.012530
  69 N :   -0.054977
  70 H :    0.042777
  71 H :    0.042498
  72 H :    0.036522
  73 H :    0.038616
  74 H :    0.040622
  75 H :    0.052456
  76 H :    0.030771
  77 H :    0.031408
  78 H :    0.032024
  79 H :    0.018786
  80 H :    0.036225
  81 H :    0.035916
  82 H :    0.036908
  83 H :    0.032737
  84 H :    0.036268
  85 H :    0.038849
  86 H :    0.027442
  87 H :    0.033451
  88 H :    0.032732
  89 H :    0.020142
  90 H :    0.043628
  91 H :    0.042342
  92 H :    0.038622
  93 H :    0.043387
  94 H :    0.035341
  95 H :    0.035946

  Mayer bond orders larger than 0.100000
B(  0-C ,  1-C ) :   1.4433 B(  0-C ,  6-C ) :   1.2003 B(  0-C , 70-H ) :   1.0056
B(  1-C ,  2-F ) :   1.0895 B(  1-C ,  3-C ) :   1.2535 B(  3-C ,  4-C ) :   1.4641
B(  3-C , 71-H ) :   0.9925 B(  4-C ,  5-C ) :   1.2322 B(  4-C , 72-H ) :   0.9966
B(  5-C ,  6-C ) :   1.2548 B(  5-C , 10-C ) :   1.1985 B(  6-C ,  7-C ) :   1.2090
B(  7-C ,  8-C ) :   1.4557 B(  7-C , 73-H ) :   0.9944 B(  8-C ,  9-C ) :   1.2150
B(  8-C , 14-C ) :   1.0069 B(  9-C , 10-C ) :   1.4677 B(  9-C , 11-C ) :   0.9160
B( 10-C , 74-H ) :   1.0143 B( 11-C , 12-O ) :   2.2926 B( 11-C , 13-C ) :   0.9200
B( 13-C , 14-C ) :   1.0073 B( 13-C , 20-C ) :   1.6817 B( 14-C , 15-C ) :   1.6929
B( 15-C , 16-C ) :   1.1469 B( 15-C , 18-C ) :   1.1561 B( 16-C , 17-N ) :   2.8785
B( 18-C , 19-N ) :   2.9441 B( 20-C , 21-C ) :   1.0118 B( 20-C , 75-H ) :   0.9563
B( 21-C , 22-N ) :   1.5416 B( 21-C , 26-N ) :   1.4792 B( 22-N , 23-C ) :   1.5136
B( 23-C , 24-C ) :   1.4078 B( 23-C , 76-H ) :   0.9766 B( 24-C , 25-C ) :   1.3322
B( 24-C , 77-H ) :   0.9622 B( 25-C , 26-N ) :   1.4278 B( 25-C , 27-C ) :   1.0737
B( 27-C , 28-C ) :   1.6312 B( 27-C , 78-H ) :   0.9905 B( 28-C , 29-C ) :   1.1628
B( 28-C , 79-H ) :   0.9528 B( 29-C , 30-C ) :   1.5636 B( 29-C , 80-H ) :   0.9857
B( 30-C , 31-C ) :   1.1300 B( 30-C , 34-S ) :   1.0398 B( 31-C , 32-C ) :   1.5895
B( 31-C , 81-H ) :   1.0020 B( 32-C , 33-C ) :   1.1755 B( 32-C , 82-H ) :   0.9939
B( 33-C , 34-S ) :   1.0337 B( 33-C , 35-C ) :   1.5440 B( 35-C , 36-C ) :   1.1636
B( 35-C , 39-S ) :   0.9860 B( 36-C , 37-C ) :   1.6238 B( 36-C , 83-H ) :   0.9943
B( 37-C , 38-C ) :   1.1143 B( 37-C , 84-H ) :   0.9989 B( 38-C , 39-S ) :   1.0541
B( 38-C , 40-C ) :   1.5832 B( 40-C , 41-C ) :   1.0889 B( 40-C , 85-H ) :   0.9808
B( 41-C , 42-N ) :   1.4849 B( 41-C , 46-N ) :   1.4382 B( 42-N , 43-C ) :   1.5753
B( 43-C , 44-C ) :   1.3449 B( 43-C , 86-H ) :   0.9784 B( 44-C , 45-C ) :   1.3496
B( 44-C , 87-H ) :   0.9760 B( 45-C , 46-N ) :   1.4799 B( 45-C , 47-C ) :   1.0600
B( 47-C , 48-C ) :   1.7234 B( 47-C , 88-H ) :   0.9819 B( 48-C , 49-C ) :   1.0853
B( 48-C , 89-H ) :   0.9399 B( 49-C , 50-C ) :   1.6712 B( 49-C , 90-H ) :   0.9646
B( 50-C , 51-C ) :   0.9275 B( 50-C , 64-C ) :   1.0202 B( 51-C , 52-O ) :   2.2551
B( 51-C , 53-C ) :   0.9256 B( 53-C , 54-C ) :   1.4292 B( 53-C , 63-C ) :   1.2134
B( 54-C , 55-C ) :   1.1943 B( 54-C , 91-H ) :   1.0155 B( 55-C , 56-C ) :   1.2535
B( 55-C , 60-C ) :   1.2406 B( 56-C , 57-C ) :   1.1984 B( 56-C , 62-C ) :   1.1993
B( 57-C , 58-C ) :   1.4291 B( 57-C , 92-H ) :   1.0086 B( 58-C , 59-C ) :   1.2478
B( 58-C , 61-F ) :   1.0873 B( 59-C , 60-C ) :   1.4515 B( 59-C , 93-H ) :   0.9921
B( 60-C , 94-H ) :   0.9889 B( 62-C , 63-C ) :   1.4648 B( 62-C , 95-H ) :   0.9928
B( 63-C , 64-C ) :   1.0094 B( 64-C , 65-C ) :   1.6458 B( 65-C , 66-C ) :   1.1488
B( 65-C , 68-C ) :   1.1457 B( 66-C , 67-N ) :   3.0123 B( 68-C , 69-N ) :   2.9511

-----------------------------------------------------------------------------
         ABSORPTION SPECTRUM VIA TRANSITION ELECTRIC DIPOLE MOMENTS
-----------------------------------------------------------------------------
State   Energy  Wavelength   fosc         T2         TX        TY        TZ
        (cm-1)    (nm)                  (au**2)     (au)      (au)      (au)
-----------------------------------------------------------------------------
   0   11180.8    894.4   0.002619572   0.07713  -0.00868  -0.09912   0.25929
   1   15598.3    641.1   0.935863868  19.75204  -2.04328   3.86983   0.77556
   2   16115.5    620.5   0.003691447   0.07541  -0.18712   0.16424  -0.11585
   3   19730.6    506.8   0.041784544   0.69719   0.48724  -0.62952  -0.25199
   4   24065.8    415.5   0.078865902   1.07886  -0.12035   1.03168   0.00180
   5   24729.5    404.4   0.028480025   0.37914  -0.40489  -0.46236  -0.03780
   6   25153.3    397.6   0.026637372   0.34864  -0.32277   0.14008  -0.47416
   7   25263.6    395.8   0.025445044   0.33158   0.44453  -0.16585  -0.32628
   8   25870.7    386.5   0.005032126   0.06404   0.02606  -0.15509   0.19825
   9   26339.8    379.7   0.001917478   0.02397  -0.01021  -0.13069   0.08235
  10   26470.5    377.8   0.078465566   0.97587   0.40842  -0.86036   0.26239
  11   27199.2    367.7   0.077163281   0.93397   0.49289  -0.82967   0.05170
  12   27380.6    365.2   0.013090914   0.15740   0.24589   0.23942   0.19904
  13   27757.7    360.3   0.154552894   1.83303  -0.19858  -1.33477  -0.10941
  14   27798.8    359.7   0.071751220   0.84973  -0.11726   0.89582   0.18297
  15   27822.5    359.4   0.070415381   0.83320  -0.13404   0.85280   0.29659
  16   28234.6    354.2   0.035652883   0.41571  -0.31888   0.55795  -0.05204
  17   28602.7    349.6   0.204014397   2.34817   0.62522  -0.45769   1.32204
  18   29036.2    344.4   0.059755702   0.67751  -0.01967  -0.28592   0.77160
  19   29242.7    342.0   0.049755519   0.56014  -0.44413   0.60207   0.02004
  20   29719.2    336.5   0.007792797   0.08632  -0.13315  -0.00139  -0.26191
  21   30026.5    333.0   0.375156936   4.11323  -1.22853   0.06116  -1.61251
  22   30226.3    330.8   0.099686262   1.08574   0.88670  -0.40050  -0.37296
  23   30896.2    323.7   0.007720689   0.08227   0.02731  -0.24871  -0.14024
  24   31726.8    315.2   0.003941039   0.04089  -0.00457  -0.10206   0.17452
  25   31959.8    312.9   0.338635944   3.48823   1.07364  -1.50675  -0.25540
  26   32088.0    311.6   0.145068776   1.48835   0.65789  -0.90462   0.48703
  27   32460.2    308.1   0.004415069   0.04478   0.20525  -0.05144  -0.00170
  28   32493.4    307.8   0.011287665   0.11436  -0.01329   0.22089  -0.25572
  29   32626.4    306.5   0.114845300   1.15883  -0.87245   0.57523  -0.25840
  30   32928.1    303.7   0.413619600   4.13532   0.89048  -1.82817   0.01228
  31   33018.8    302.9   0.557891176   5.56242  -1.48513   0.82896  -1.63390
  32   33392.1    299.5   0.337343175   3.32586  -1.08516   1.46562   0.01585
  33   33879.4    295.2   0.187862118   1.82549   1.18543  -0.40273  -0.50799
  34   33961.0    294.5   0.090717139   0.87940   0.85969  -0.33267   0.17222
  35   34124.3    293.0   0.105258608   1.01548   0.43076  -0.90008   0.14062
  36   34319.0    291.4   0.003883062   0.03725   0.08074   0.12284   0.12506
  37   34342.1    291.2   0.005425824   0.05201  -0.15857  -0.06626   0.14993
  38   34669.0    288.4   0.104411856   0.99148   0.14742  -0.51356   0.84024
  39   34822.9    287.2   0.129708056   1.22625   0.99019  -0.49571  -0.00582
  40   35004.5    285.7   0.685373163   6.44583   2.23083  -1.09346  -0.52303
  41   35476.6    281.9   0.035207619   0.32672   0.44379   0.31748   0.17023
  42   35725.1    279.9   0.199355399   1.83709   0.71451  -1.05764   0.45603
  43   36500.3    274.0   0.204772139   1.84693   0.01426   1.17841   0.67682
  44   36571.3    273.4   0.007783343   0.07007  -0.19046   0.13865  -0.12069
  45   36955.0    270.6   0.060894033   0.54247  -0.32966   0.65856   0.00979
  46   37174.6    269.0   0.002683843   0.02377   0.05507   0.08115   0.11895
  47   37386.0    267.5   0.006214505   0.05472   0.03700  -0.09461  -0.21072
  48   37643.3    265.7   0.025729632   0.22502  -0.29630   0.36605   0.05686
  49   37682.1    265.4   0.044073765   0.38505   0.04179  -0.31294  -0.53420
  50   37819.9    264.4   0.022224803   0.19346  -0.15946   0.36831   0.17995
  51   37955.1    263.5   0.009491000   0.08232   0.00228  -0.28422   0.03916
  52   38269.6    261.3   0.123590736   1.06318  -0.90585   0.44075   0.21993
  53   38337.3    260.8   0.022786801   0.19568   0.43998  -0.03232  -0.03242
  54   38645.2    258.8   0.008537248   0.07273  -0.11004  -0.24138  -0.04850
  55   38861.0    257.3   0.029091004   0.24645   0.10562  -0.09906   0.47485
  56   39047.6    256.1   0.056276399   0.47447   0.15746  -0.66542   0.08299
  57   39147.3    255.4   0.010294362   0.08657   0.19347  -0.19182  -0.11112
  58   39573.5    252.7   0.020197248   0.16802  -0.40509   0.06258  -0.00200
  59   39734.9    251.7   0.000772501   0.00640  -0.05736   0.02084  -0.05173
  60   39825.4    251.1   0.005329202   0.04405   0.09316  -0.04173   0.18340
  61   39955.7    250.3   0.011777750   0.09704   0.10165   0.14423   0.25673
  62   40166.6    249.0   0.066570906   0.54563   0.32677   0.09890   0.65503
  63   40208.0    248.7   0.077114347   0.63139  -0.19572  -0.22777  -0.73567

FINAL SINGLE POINT ENERGY     -3730.085260710068

DIPOLE MOMENT
-------------
                                X             Y             Z
Electronic contribution:      8.06023     -16.11407       5.88244
Nuclear contribution   :     -5.97519      16.80134      -7.14675
                        -----------------------------------------
Total Dipole Moment    :      2.08504       0.68727      -1.26431
                        -----------------------------------------
Magnitude (a.u.)       :      2.53342
Magnitude (Debye)      :      6.43944

Rotational constants in cm-1:     0.002174     0.000483     0.000452
Rotational constants in MHz :    65.160438    14.481078    13.541119

                             ****ORCA TERMINATED NORMALLY****
TOTAL RUN TIME: 0 days 0 hours 11 minutes 33 seconds 311 msec
