                         Program Version 4.2.0 -  RELEASE  -
|  1> # ORCA input file
|  2> # SCF done       -168.457752690999          0.000570255186
|  3> ! CAM-B3LYP def2-SVP def2/J RIJCOSX Grid4 TightSCF
|  4> %maxcore 5000
|  5> %tddft
|  6>     Mode sTDDFT
|  7>     Ethresh 5.0
|  8>     maxcore 5000
|  9> end
| 10>
| 11> %pal
| 12>   nprocs 6
| 13>   end
| 14> * xyz 0 1
| 15>    C       -1.29158        13.12048        -4.80826
| 16>    C       -0.31130        14.04900        -4.60157
| 17>    C        0.05439        15.02805        -5.55230
| 18>    N        0.38813        15.84735        -6.28280
| 19>    C        0.51593        14.13875        -3.45847
| 20>    N        1.25502        14.27872        -2.59211
| 21>    C       -2.05131        12.95220        -6.03771
| 22>    C       -2.77956        11.74183        -5.95513
| 23>    C       -3.58021        11.28472        -6.97453
| 24>    C       -3.67674        12.06849        -8.12784
| 25>    C       -2.95543        13.28599        -8.19754
| 26>    C       -2.13978        13.74246        -7.17083
| 27>    S       -3.22640        14.10236        -9.70723
| 28>    C       -4.28624        12.81505       -10.21810
| 29>    C       -4.43249        11.82398        -9.30663
| 30>   Br       -5.10200        12.90228       -11.90386
| 31>    C       -2.53254        11.09176        -4.65140
| 32>    O       -2.94311        10.00410        -4.33061
| 33>    C       -1.69589        12.06014        -3.87963
| 34>    C       -1.45233        12.09849        -2.55153
| 35>    C       -1.80259        11.16522        -1.49465
| 36>    N       -1.57753        11.65101        -0.26526
| 37>    C       -1.82875        10.84212         0.74915
| 38>    C       -2.30581         9.55605         0.57325
| 39>    C       -2.53630         9.13498        -0.74962
| 40>    N       -2.26583         9.96188        -1.76648
| 41>    C       -3.05453         7.82886        -1.05451
| 42>    C       -3.35253         7.49509        -2.33613
| 43>    C       -3.83468         6.28204        -2.86991
| 44>    C       -3.78097         5.97680        -4.23343
| 45>    C       -3.33385         6.74684        -5.32987
| 46>    C       -3.32766         6.18311        -6.57005
| 47>    C       -3.74930         4.84368        -6.77491
| 48>    C       -4.20444         4.07573        -5.74666
| 49>    C       -4.24213         4.62234        -4.44327
| 50>    C       -4.61736         4.07606        -3.21721
| 51>    C       -4.42200         5.11214        -2.19866
| 52>    C       -4.87243         5.04623        -0.93878
| 53>    C       -5.11631         2.75124        -2.99763
| 54>    N       -5.21839         2.28756        -1.74011
| 55>    C       -5.60724         1.04089        -1.57989
| 56>    C       -5.90312         0.19719        -2.64117
| 57>    C       -5.81822         0.77050        -3.91418
| 58>    N       -5.44914         2.03460        -4.07597
| 59>    C       -6.08445         0.07153        -5.15888
| 60>    C       -6.05523        -1.26000        -5.33438
| 61>    C       -6.26179        -1.90975        -6.59197
| 62>    C       -6.01764        -1.46134        -7.84749
| 63>    C       -5.32260        -0.29999        -8.37927
| 64>    C       -4.25519         0.35131        -7.82236
| 65>    C       -3.58909         1.42953        -8.43987
| 66>    N       -3.03634         2.32615        -8.89612
| 67>    C       -3.64750        -0.01826        -6.60389
| 68>    N       -3.08355        -0.30227        -5.64625
| 69>    C       -5.80125        -0.10315        -9.74368
| 70>    C       -6.55569        -1.23877       -10.13411
| 71>    C       -6.65113        -2.17343        -8.99766
| 72>    O       -7.17071        -3.26380        -8.97102
| 73>    C       -7.09662        -1.36944       -11.39077
| 74>    C       -6.89517        -0.32625       -12.29998
| 75>    C       -6.15897         0.81333       -11.89346
| 76>    C       -5.60493         0.94252       -10.62639
| 77>    S       -6.04421         1.98778       -13.16794
| 78>    C       -6.96672         0.94508       -14.21833
| 79>    C       -7.34538        -0.22184       -13.64450
| 80>   Br       -7.34410         1.49741       -15.96997
| 81>    H       -4.11721        10.35339        -6.88251
| 82>    H       -1.61389        14.67715        -7.27029
| 83>    H       -5.04831        10.95620        -9.45703
| 84>    H       -0.94130        12.96400        -2.14671
| 85>    H       -1.63510        11.24927         1.73378
| 86>    H       -2.49759         8.90342         1.40986
| 87>    H       -3.15603         7.14699        -0.22385
| 88>    H       -3.14189         8.26958        -3.06146
| 89>    H       -3.00747         7.76336        -5.17410
| 90>    H       -2.98698         6.75013        -7.42442
| 91>    H       -3.69165         4.43236        -7.77229
| 92>    H       -4.52473         3.05760        -5.89370
| 93>    H       -4.80750         5.88093        -0.26329
| 94>    H       -5.32426         4.13842        -0.57653
| 95>    H       -5.68297         0.70158        -0.55341
| 96>    H       -6.21147        -0.82225        -2.48560
| 97>    H       -6.26985         0.72948        -5.99767
| 98>    H       -5.91921        -1.91368        -4.48333
| 99>    H       -6.72700        -2.89081        -6.54941
|100>    H       -7.65720        -2.24952       -11.66394
|101>    H       -5.05827         1.83172       -10.36027
|102>    H       -7.91854        -0.97914       -14.14731
|103> *
|104>
|105>                          ****END OF INPUT****

CARTESIAN COORDINATES (ANGSTROEM)
---------------------------------
  C     -1.291580   13.120480   -4.808260
  C     -0.311300   14.049000   -4.601570
  C      0.054390   15.028050   -5.552300
  N      0.388130   15.847350   -6.282800
  C      0.515930   14.138750   -3.458470
  N      1.255020   14.278720   -2.592110
  C     -2.051310   12.952200   -6.037710
  C     -2.779560   11.741830   -5.955130
  C     -3.580210   11.284720   -6.974530
  C     -3.676740   12.068490   -8.127840
  C     -2.955430   13.285990   -8.197540
  C     -2.139780   13.742460   -7.170830
  S     -3.226400   14.102360   -9.707230
  C     -4.286240   12.815050  -10.218100
  C     -4.432490   11.823980   -9.306630
  Br    -5.102000   12.902280  -11.903860
  C     -2.532540   11.091760   -4.651400
  O     -2.943110   10.004100   -4.330610
  C     -1.695890   12.060140   -3.879630
  C     -1.452330   12.098490   -2.551530
  C     -1.802590   11.165220   -1.494650
  N     -1.577530   11.651010   -0.265260
  C     -1.828750   10.842120    0.749150
  C     -2.305810    9.556050    0.573250
  C     -2.536300    9.134980   -0.749620
  N     -2.265830    9.961880   -1.766480
  C     -3.054530    7.828860   -1.054510
  C     -3.352530    7.495090   -2.336130
  C     -3.834680    6.282040   -2.869910
  C     -3.780970    5.976800   -4.233430
  C     -3.333850    6.746840   -5.329870
  C     -3.327660    6.183110   -6.570050
  C     -3.749300    4.843680   -6.774910
  C     -4.204440    4.075730   -5.746660
  C     -4.242130    4.622340   -4.443270
  C     -4.617360    4.076060   -3.217210
  C     -4.422000    5.112140   -2.198660
  C     -4.872430    5.046230   -0.938780
  C     -5.116310    2.751240   -2.997630
  N     -5.218390    2.287560   -1.740110
  C     -5.607240    1.040890   -1.579890
  C     -5.903120    0.197190   -2.641170
  C     -5.818220    0.770500   -3.914180
  N     -5.449140    2.034600   -4.075970
  C     -6.084450    0.071530   -5.158880
  C     -6.055230   -1.260000   -5.334380
  C     -6.261790   -1.909750   -6.591970
  C     -6.017640   -1.461340   -7.847490
  C     -5.322600   -0.299990   -8.379270
  C     -4.255190    0.351310   -7.822360
  C     -3.589090    1.429530   -8.439870
  N     -3.036340    2.326150   -8.896120
  C     -3.647500   -0.018260   -6.603890
  N     -3.083550   -0.302270   -5.646250
  C     -5.801250   -0.103150   -9.743680
  C     -6.555690   -1.238770  -10.134110
  C     -6.651130   -2.173430   -8.997660
  O     -7.170710   -3.263800   -8.971020
  C     -7.096620   -1.369440  -11.390770
  C     -6.895170   -0.326250  -12.299980
  C     -6.158970    0.813330  -11.893460
  C     -5.604930    0.942520  -10.626390
  S     -6.044210    1.987780  -13.167940
  C     -6.966720    0.945080  -14.218330
  C     -7.345380   -0.221840  -13.644500
  Br    -7.344100    1.497410  -15.969970
  H     -4.117210   10.353390   -6.882510
  H     -1.613890   14.677150   -7.270290
  H     -5.048310   10.956200   -9.457030
  H     -0.941300   12.964000   -2.146710
  H     -1.635100   11.249270    1.733780
  H     -2.497590    8.903420    1.409860
  H     -3.156030    7.146990   -0.223850
  H     -3.141890    8.269580   -3.061460
  H     -3.007470    7.763360   -5.174100
  H     -2.986980    6.750130   -7.424420
  H     -3.691650    4.432360   -7.772290
  H     -4.524730    3.057600   -5.893700
  H     -4.807500    5.880930   -0.263290
  H     -5.324260    4.138420   -0.576530
  H     -5.682970    0.701580   -0.553410
  H     -6.211470   -0.822250   -2.485600
  H     -6.269850    0.729480   -5.997670
  H     -5.919210   -1.913680   -4.483330
  H     -6.727000   -2.890810   -6.549410
  H     -7.657200   -2.249520  -11.663940
  H     -5.058270    1.831720  -10.360270
  H     -7.918540   -0.979140  -14.147310

 Total Charge           Charge          ....    0
 Multiplicity           Mult            ....    1
 Number of Electrons    NEL             ....  508
 Basis Dimension        Dim             .... 1078

ORBITAL ENERGIES
----------------

  NO   OCC          E(Eh)            E(eV)
   0   2.0000    -482.891306    -13140.1405
   1   2.0000    -482.887364    -13140.0332
   2   2.0000     -88.982715     -2421.3428
   3   2.0000     -88.977309     -2421.1957
   4   2.0000     -62.569025     -1702.5897
   5   2.0000     -62.565098     -1702.4829
   6   2.0000     -56.402983     -1534.8032
   7   2.0000     -56.400253     -1534.7289
   8   2.0000     -56.400223     -1534.7281
   9   2.0000     -56.399050     -1534.6962
  10   2.0000     -56.396328     -1534.6221
  11   2.0000     -56.396300     -1534.6213
  12   2.0000     -19.223330      -523.0934
  13   2.0000     -19.218020      -522.9489
  14   2.0000     -14.426636      -392.5687
  15   2.0000     -14.420678      -392.4066
  16   2.0000     -14.417742      -392.3267
  17   2.0000     -14.414336      -392.2340
  18   2.0000     -14.406356      -392.0169
  19   2.0000     -14.405864      -392.0035
  20   2.0000     -14.405777      -392.0011
  21   2.0000     -14.401084      -391.8734
  22   2.0000     -10.374097      -282.2935
  23   2.0000     -10.371855      -282.2325
  24   2.0000     -10.365595      -282.0622
  25   2.0000     -10.361041      -281.9383
  26   2.0000     -10.352451      -281.7045
  27   2.0000     -10.351653      -281.6828
  28   2.0000     -10.346721      -281.5486
  29   2.0000     -10.343523      -281.4616
  30   2.0000     -10.343324      -281.4561
  31   2.0000     -10.341997      -281.4200
  32   2.0000     -10.333645      -281.1928
  33   2.0000     -10.331124      -281.1242
  34   2.0000     -10.329346      -281.0758
  35   2.0000     -10.328200      -281.0446
  36   2.0000     -10.322885      -280.9000
  37   2.0000     -10.322728      -280.8957
  38   2.0000     -10.321533      -280.8632
  39   2.0000     -10.321148      -280.8527
  40   2.0000     -10.319953      -280.8202
  41   2.0000     -10.317398      -280.7507
  42   2.0000     -10.316472      -280.7255
  43   2.0000     -10.316204      -280.7182
  44   2.0000     -10.315042      -280.6866
  45   2.0000     -10.313741      -280.6512
  46   2.0000     -10.310707      -280.5686
  47   2.0000     -10.310225      -280.5555
  48   2.0000     -10.309099      -280.5248
  49   2.0000     -10.309090      -280.5246
  50   2.0000     -10.307961      -280.4939
  51   2.0000     -10.307683      -280.4863
  52   2.0000     -10.306618      -280.4573
  53   2.0000     -10.303105      -280.3617
  54   2.0000     -10.302888      -280.3558
  55   2.0000     -10.302643      -280.3492
  56   2.0000     -10.301421      -280.3159
  57   2.0000     -10.301106      -280.3073
  58   2.0000     -10.298510      -280.2367
  59   2.0000     -10.294147      -280.1180
  60   2.0000     -10.285862      -279.8925
  61   2.0000     -10.284304      -279.8501
  62   2.0000     -10.283902      -279.8392
  63   2.0000     -10.280133      -279.7366
  64   2.0000     -10.272541      -279.5300
  65   2.0000     -10.271318      -279.4968
  66   2.0000     -10.269617      -279.4505
  67   2.0000     -10.268815      -279.4287
  68   2.0000     -10.264128      -279.3011
  69   2.0000     -10.264009      -279.2979
  70   2.0000     -10.263794      -279.2920
  71   2.0000     -10.261229      -279.2222
  72   2.0000     -10.260887      -279.2129
  73   2.0000     -10.254501      -279.0392
  74   2.0000      -8.798466      -239.4184
  75   2.0000      -8.794544      -239.3117
  76   2.0000      -8.078587      -219.8295
  77   2.0000      -8.073348      -219.6870
  78   2.0000      -6.634782      -180.5416
  79   2.0000      -6.630875      -180.4353
  80   2.0000      -6.620194      -180.1446
  81   2.0000      -6.619984      -180.1389
  82   2.0000      -6.616278      -180.0381
  83   2.0000      -6.616048      -180.0318
  84   2.0000      -6.048286      -164.5822
  85   2.0000      -6.043999      -164.4656
  86   2.0000      -6.043051      -164.4398
  87   2.0000      -6.039854      -164.3528
  88   2.0000      -6.038761      -164.3230
  89   2.0000      -6.034533      -164.2080
  90   2.0000      -2.750674       -74.8496
  91   2.0000      -2.746696       -74.7414
  92   2.0000      -2.746551       -74.7374
  93   2.0000      -2.746390       -74.7331
  94   2.0000      -2.742650       -74.6313
  95   2.0000      -2.742521       -74.6278
  96   2.0000      -2.734788       -74.4174
  97   2.0000      -2.734785       -74.4173
  98   2.0000      -2.730894       -74.3114
  99   2.0000      -2.730870       -74.3107
 100   2.0000      -1.139032       -30.9946
 101   2.0000      -1.136146       -30.9161
 102   2.0000      -1.080680       -29.4068
 103   2.0000      -1.079465       -29.3737
 104   2.0000      -1.031118       -28.0582
 105   2.0000      -1.024914       -27.8893
 106   2.0000      -1.021115       -27.7860
 107   2.0000      -1.014637       -27.6097
 108   2.0000      -1.002599       -27.2821
 109   2.0000      -0.997085       -27.1321
 110   2.0000      -0.994366       -27.0581
 111   2.0000      -0.991049       -26.9678
 112   2.0000      -0.981619       -26.7112
 113   2.0000      -0.978135       -26.6164
 114   2.0000      -0.974208       -26.5095
 115   2.0000      -0.951836       -25.9008
 116   2.0000      -0.945075       -25.7168
 117   2.0000      -0.928238       -25.2586
 118   2.0000      -0.916134       -24.9293
 119   2.0000      -0.915027       -24.8992
 120   2.0000      -0.911398       -24.8004
 121   2.0000      -0.910363       -24.7722
 122   2.0000      -0.900062       -24.4919
 123   2.0000      -0.893571       -24.3153
 124   2.0000      -0.888168       -24.1683
 125   2.0000      -0.885975       -24.1086
 126   2.0000      -0.880416       -23.9573
 127   2.0000      -0.863712       -23.5028
 128   2.0000      -0.845522       -23.0078
 129   2.0000      -0.840914       -22.8824
 130   2.0000      -0.837634       -22.7932
 131   2.0000      -0.834154       -22.6985
 132   2.0000      -0.831393       -22.6233
 133   2.0000      -0.830071       -22.5874
 134   2.0000      -0.791486       -21.5374
 135   2.0000      -0.788634       -21.4598
 136   2.0000      -0.783104       -21.3094
 137   2.0000      -0.769411       -20.9367
 138   2.0000      -0.763669       -20.7805
 139   2.0000      -0.761103       -20.7107
 140   2.0000      -0.743693       -20.2369
 141   2.0000      -0.739760       -20.1299
 142   2.0000      -0.735352       -20.0099
 143   2.0000      -0.723714       -19.6932
 144   2.0000      -0.714338       -19.4381
 145   2.0000      -0.700703       -19.0671
 146   2.0000      -0.696046       -18.9404
 147   2.0000      -0.695025       -18.9126
 148   2.0000      -0.689775       -18.7697
 149   2.0000      -0.675832       -18.3903
 150   2.0000      -0.670583       -18.2475
 151   2.0000      -0.665430       -18.1073
 152   2.0000      -0.658878       -17.9290
 153   2.0000      -0.657141       -17.8817
 154   2.0000      -0.648607       -17.6495
 155   2.0000      -0.642064       -17.4714
 156   2.0000      -0.631956       -17.1964
 157   2.0000      -0.629521       -17.1301
 158   2.0000      -0.626857       -17.0576
 159   2.0000      -0.620081       -16.8733
 160   2.0000      -0.611351       -16.6357
 161   2.0000      -0.610196       -16.6043
 162   2.0000      -0.602405       -16.3923
 163   2.0000      -0.600670       -16.3451
 164   2.0000      -0.590278       -16.0623
 165   2.0000      -0.586489       -15.9592
 166   2.0000      -0.584705       -15.9106
 167   2.0000      -0.580600       -15.7989
 168   2.0000      -0.570502       -15.5242
 169   2.0000      -0.565278       -15.3820
 170   2.0000      -0.558303       -15.1922
 171   2.0000      -0.551587       -15.0094
 172   2.0000      -0.548527       -14.9262
 173   2.0000      -0.547590       -14.9007
 174   2.0000      -0.544786       -14.8244
 175   2.0000      -0.543706       -14.7950
 176   2.0000      -0.542476       -14.7615
 177   2.0000      -0.540744       -14.7144
 178   2.0000      -0.539259       -14.6740
 179   2.0000      -0.534205       -14.5365
 180   2.0000      -0.527802       -14.3622
 181   2.0000      -0.526926       -14.3384
 182   2.0000      -0.525044       -14.2872
 183   2.0000      -0.522007       -14.2045
 184   2.0000      -0.519206       -14.1283
 185   2.0000      -0.515174       -14.0186
 186   2.0000      -0.514641       -14.0041
 187   2.0000      -0.513798       -13.9812
 188   2.0000      -0.509921       -13.8757
 189   2.0000      -0.508138       -13.8271
 190   2.0000      -0.506616       -13.7857
 191   2.0000      -0.504347       -13.7240
 192   2.0000      -0.501266       -13.6402
 193   2.0000      -0.495775       -13.4907
 194   2.0000      -0.492703       -13.4071
 195   2.0000      -0.492157       -13.3923
 196   2.0000      -0.490070       -13.3355
 197   2.0000      -0.484199       -13.1757
 198   2.0000      -0.480540       -13.0762
 199   2.0000      -0.478607       -13.0236
 200   2.0000      -0.477900       -13.0043
 201   2.0000      -0.473511       -12.8849
 202   2.0000      -0.469801       -12.7839
 203   2.0000      -0.465344       -12.6627
 204   2.0000      -0.462499       -12.5852
 205   2.0000      -0.460518       -12.5313
 206   2.0000      -0.458590       -12.4789
 207   2.0000      -0.453993       -12.3538
 208   2.0000      -0.452017       -12.3000
 209   2.0000      -0.451393       -12.2830
 210   2.0000      -0.449856       -12.2412
 211   2.0000      -0.449270       -12.2253
 212   2.0000      -0.448859       -12.2141
 213   2.0000      -0.444012       -12.0822
 214   2.0000      -0.443485       -12.0678
 215   2.0000      -0.440068       -11.9749
 216   2.0000      -0.435947       -11.8627
 217   2.0000      -0.431623       -11.7451
 218   2.0000      -0.428480       -11.6595
 219   2.0000      -0.427816       -11.6415
 220   2.0000      -0.423988       -11.5373
 221   2.0000      -0.423160       -11.5148
 222   2.0000      -0.417546       -11.3620
 223   2.0000      -0.413654       -11.2561
 224   2.0000      -0.409206       -11.1351
 225   2.0000      -0.408299       -11.1104
 226   2.0000      -0.407683       -11.0936
 227   2.0000      -0.401016       -10.9122
 228   2.0000      -0.400387       -10.8951
 229   2.0000      -0.395206       -10.7541
 230   2.0000      -0.392297       -10.6749
 231   2.0000      -0.386959       -10.5297
 232   2.0000      -0.385388       -10.4869
 233   2.0000      -0.381072       -10.3695
 234   2.0000      -0.380536       -10.3549
 235   2.0000      -0.378376       -10.2961
 236   2.0000      -0.376636       -10.2488
 237   2.0000      -0.365178        -9.9370
 238   2.0000      -0.362633        -9.8677
 239   2.0000      -0.360126        -9.7995
 240   2.0000      -0.345103        -9.3907
 241   2.0000      -0.342849        -9.3294
 242   2.0000      -0.337906        -9.1949
 243   2.0000      -0.322602        -8.7784
 244   2.0000      -0.321973        -8.7613
 245   2.0000      -0.320877        -8.7315
 246   2.0000      -0.317235        -8.6324
 247   2.0000      -0.313678        -8.5356
 248   2.0000      -0.307381        -8.3643
 249   2.0000      -0.305645        -8.3170
 250   2.0000      -0.303964        -8.2713
 251   2.0000      -0.300425        -8.1750
 252   2.0000      -0.294874        -8.0239
 253   2.0000      -0.227245        -6.1836
 254   0.0000      -0.098575        -2.6824
 255   0.0000      -0.090512        -2.4630
 256   0.0000      -0.085761        -2.3337
 257   0.0000      -0.065799        -1.7905
 258   0.0000      -0.058937        -1.6037

MULLIKEN ATOMIC CHARGES
-----------------------
   0 C :    0.285829
   1 C :   -0.331976
   2 C :   -0.188190
   3 N :    0.153446
   4 C :   -0.199715
   5 N :    0.177083
   6 C :    0.020101
   7 C :   -0.009940
   8 C :   -0.077671
   9 C :    0.121254
  10 C :   -0.091254
  11 C :   -0.018076
  12 S :    0.188402
  13 C :   -0.123061
  14 C :    0.038686
  15 Br:    0.025661
  16 C :    0.156961
  17 O :   -0.095170
  18 C :   -0.026193
  19 C :    0.028379
  20 C :   -0.122766
  21 N :   -0.073943
  22 C :    0.081758
  23 C :   -0.037299
  24 C :    0.054238
  25 N :   -0.014845
  26 C :   -0.046195
  27 C :   -0.003662
  28 C :    0.105948
  29 C :    0.024708
  30 C :   -0.001792
  31 C :    0.026697
  32 C :    0.046246
  33 C :    0.008220
  34 C :    0.010915
  35 C :    0.134203
  36 C :   -0.021704
  37 C :    0.012342
  38 C :   -0.125284
  39 N :   -0.085359
  40 C :    0.087680
  41 C :   -0.050527
  42 C :    0.047975
  43 N :   -0.073768
  44 C :    0.059542
  45 C :    0.013715
  46 C :    0.043508
  47 C :   -0.108572
  48 C :    0.264542
  49 C :   -0.345461
  50 C :   -0.143732
  51 N :    0.143981
  52 C :   -0.187229
  53 N :    0.180504
  54 C :   -0.000384
  55 C :    0.005052
  56 C :    0.130216
  57 O :   -0.138068
  58 C :   -0.069781
  59 C :    0.112835
  60 C :   -0.089636
  61 C :   -0.018435
  62 S :    0.187757
  63 C :   -0.126099
  64 C :    0.044013
  65 Br:    0.028790
  66 H :   -0.008954
  67 H :   -0.005118
  68 H :   -0.001734
  69 H :    0.025180
  70 H :    0.007315
  71 H :   -0.006163
  72 H :   -0.033785
  73 H :    0.018091
  74 H :   -0.028986
  75 H :   -0.020765
  76 H :   -0.013865
  77 H :   -0.042183
  78 H :    0.019407
  79 H :    0.039900
  80 H :    0.001998
  81 H :   -0.010318
  82 H :    0.019786
  83 H :    0.014179
  84 H :    0.031564
  85 H :   -0.006675
  86 H :   -0.003883
  87 H :   -0.000394
Sum of atomic charges:   -0.0000000

LOEWDIN ATOMIC CHARGES
----------------------
   0 C :    0.074695
   1 C :   -0.126948
   2 C :   -0.016377
   3 N :   -0.047425
   4 C :   -0.027296
   5 N :   -0.035078
   6 C :   -0.021829
   7 C :   -0.050782
   8 C :    0.021582
   9 C :   -0.030659
  10 C :   -0.142319
  11 C :   -0.008935
  12 S :    0.433541
  13 C :   -0.270317
  14 C :   -0.070310
  15 Br:    0.138633
  16 C :    0.089960
  17 O :   -0.105082
  18 C :   -0.062833
  19 C :    0.066563
  20 C :    0.007085
  21 N :   -0.089750
  22 C :    0.045055
  23 C :   -0.052842
  24 C :    0.041565
  25 N :   -0.060851
  26 C :   -0.068016
  27 C :    0.032434
  28 C :   -0.019469
  29 C :   -0.000181
  30 C :   -0.013986
  31 C :   -0.021813
  32 C :   -0.008775
  33 C :   -0.021030
  34 C :    0.016174
  35 C :   -0.055794
  36 C :   -0.010024
  37 C :    0.064675
  38 C :    0.045266
  39 N :   -0.089144
  40 C :    0.051536
  41 C :   -0.069679
  42 C :    0.031558
  43 N :   -0.079188
  44 C :    0.027279
  45 C :   -0.022529
  46 C :    0.068442
  47 C :   -0.080842
  48 C :    0.067544
  49 C :   -0.133639
  50 C :   -0.008024
  51 N :   -0.048057
  52 C :   -0.017541
  53 N :   -0.034319
  54 C :   -0.018439
  55 C :   -0.053238
  56 C :    0.084550
  57 O :   -0.136768
  58 C :    0.024821
  59 C :   -0.031916
  60 C :   -0.141874
  61 C :   -0.011913
  62 S :    0.434044
  63 C :   -0.270285
  64 C :   -0.069612
  65 Br:    0.140584
  66 H :    0.041214
  67 H :    0.041187
  68 H :    0.039429
  69 H :    0.050706
  70 H :    0.027386
  71 H :    0.033157
  72 H :    0.019233
  73 H :    0.040151
  74 H :    0.028237
  75 H :    0.026202
  76 H :    0.025508
  77 H :    0.019851
  78 H :    0.024459
  79 H :    0.028920
  80 H :    0.025215
  81 H :    0.030571
  82 H :    0.037667
  83 H :    0.037502
  84 H :    0.048589
  85 H :    0.042558
  86 H :    0.040511
  87 H :    0.039885

  Mayer bond orders larger than 0.100000
B(  0-C ,  1-C ) :   1.6667 B(  0-C ,  6-C ) :   1.0085 B(  0-C , 18-C ) :   1.0353
B(  1-C ,  2-C ) :   1.1382 B(  1-C ,  4-C ) :   1.1316 B(  2-C ,  3-N ) :   2.9784
B(  4-C ,  5-N ) :   3.0036 B(  6-C ,  7-C ) :   1.2746 B(  6-C , 11-C ) :   1.3984
B(  7-C ,  8-C ) :   1.4162 B(  7-C , 16-C ) :   0.9414 B(  8-C ,  9-C ) :   1.2532
B(  8-C , 66-H ) :   1.0174 B(  9-C , 10-C ) :   1.2981 B(  9-C , 14-C ) :   1.1636
B( 10-C , 11-C ) :   1.3413 B( 10-C , 12-S ) :   1.0859 B( 11-C , 67-H ) :   0.9813
B( 12-S , 13-C ) :   1.0857 B( 13-C , 14-C ) :   1.6179 B( 13-C , 15-Br) :   1.0196
B( 14-C , 68-H ) :   1.0005 B( 16-C , 17-O ) :   2.1825 B( 16-C , 18-C ) :   0.9157
B( 18-C , 19-C ) :   1.6538 B( 19-C , 20-C ) :   1.0265 B( 19-C , 69-H ) :   0.9390
B( 20-C , 21-N ) :   1.5338 B( 20-C , 25-N ) :   1.5946 B( 21-N , 22-C ) :   1.5345
B( 22-C , 23-C ) :   1.3860 B( 22-C , 70-H ) :   0.9798 B( 23-C , 24-C ) :   1.2995
B( 23-C , 71-H ) :   0.9755 B( 24-C , 25-N ) :   1.4920 B( 24-C , 26-C ) :   1.0998
B( 26-C , 27-C ) :   1.6237 B( 26-C , 72-H ) :   0.9746 B( 27-C , 28-C ) :   1.1523
B( 27-C , 73-H ) :   0.9471 B( 28-C , 29-C ) :   1.3906 B( 28-C , 36-C ) :   1.0079
B( 29-C , 30-C ) :   1.1847 B( 29-C , 34-C ) :   1.1196 B( 30-C , 31-C ) :   1.5768
B( 30-C , 74-H ) :   0.9824 B( 31-C , 32-C ) :   1.1582 B( 31-C , 75-H ) :   0.9848
B( 32-C , 33-C ) :   1.5559 B( 32-C , 76-H ) :   0.9737 B( 33-C , 34-C ) :   1.1923
B( 33-C , 77-H ) :   0.9796 B( 34-C , 35-C ) :   1.4219 B( 35-C , 36-C ) :   1.0526
B( 35-C , 38-C ) :   1.0086 B( 36-C , 37-C ) :   1.8801 B( 37-C , 78-H ) :   0.9316
B( 37-C , 79-H ) :   0.8975 B( 38-C , 39-N ) :   1.5193 B( 38-C , 43-N ) :   1.5400
B( 39-N , 40-C ) :   1.5516 B( 40-C , 41-C ) :   1.3676 B( 40-C , 80-H ) :   0.9766
B( 41-C , 42-C ) :   1.3575 B( 41-C , 81-H ) :   0.9686 B( 42-C , 43-N ) :   1.5041
B( 42-C , 44-C ) :   1.0460 B( 44-C , 45-C ) :   1.7384 B( 44-C , 82-H ) :   0.9624
B( 45-C , 46-C ) :   1.0997 B( 45-C , 83-H ) :   0.9499 B( 46-C , 47-C ) :   1.7386
B( 46-C , 84-H ) :   0.9258 B( 47-C , 48-C ) :   1.0110 B( 47-C , 56-C ) :   0.9335
B( 48-C , 49-C ) :   1.6662 B( 48-C , 54-C ) :   1.0185 B( 49-C , 50-C ) :   1.1400
B( 49-C , 52-C ) :   1.1659 B( 50-C , 51-N ) :   2.9049 B( 52-C , 53-N ) :   2.9829
B( 54-C , 55-C ) :   1.2740 B( 54-C , 61-C ) :   1.4102 B( 55-C , 56-C ) :   0.9219
B( 55-C , 58-C ) :   1.4215 B( 56-C , 57-O ) :   2.2700 B( 58-C , 59-C ) :   1.2550
B( 58-C , 85-H ) :   1.0160 B( 59-C , 60-C ) :   1.3033 B( 59-C , 64-C ) :   1.1649
B( 60-C , 61-C ) :   1.3334 B( 60-C , 62-S ) :   1.0859 B( 61-C , 86-H ) :   0.9822
B( 62-S , 63-C ) :   1.0870 B( 63-C , 64-C ) :   1.6178 B( 63-C , 65-Br) :   1.0224
B( 64-C , 87-H ) :   0.9997

-----------------------------------------------------------------------------
         ABSORPTION SPECTRUM VIA TRANSITION ELECTRIC DIPOLE MOMENTS
-----------------------------------------------------------------------------
State   Energy  Wavelength   fosc         T2         TX        TY        TZ
        (cm-1)    (nm)                  (au**2)     (au)      (au)      (au)
-----------------------------------------------------------------------------
   0   13072.6    765.0   0.300613237   7.57043  -0.92068  -2.52342  -0.59594
   1   13776.0    725.9   0.034910788   0.83428  -0.26655  -0.71390  -0.50357
   2   16183.9    617.9   0.008773830   0.17848   0.04558   0.03748   0.41832
   3   21969.4    455.2   0.003142494   0.04709  -0.08398  -0.17284  -0.10083
   4   22146.6    451.5   0.004739988   0.07046   0.05115   0.19299  -0.17493
   5   22769.8    439.2   0.001679399   0.02428   0.11687   0.08163  -0.06293
   6   26034.7    384.1   0.233600568   2.95391   0.35101  -0.57241  -1.58210
   7   27070.2    369.4   0.251710886   3.06116  -0.96572  -0.18980  -1.44655
   8   27315.2    366.1   0.229232066   2.76278  -0.49576  -1.44141   0.66283
   9   27701.8    361.0   0.016475536   0.19580  -0.14527   0.11164   0.40278
  10   27800.2    359.7   0.266317541   3.15376  -1.18657  -0.42916  -1.24965
  11   28298.7    353.4   0.025869317   0.30095   0.25617   0.47039  -0.11856
  12   29135.6    343.2   0.008063677   0.09111  -0.13137   0.13109  -0.23806
  13   29213.9    342.3   0.010028618   0.11301   0.18527   0.28017   0.01396
  14   29415.4    340.0   0.048761105   0.54573   0.20967   0.68620  -0.17576
  15   29429.7    339.8   0.392329540   4.38875  -0.52987  -2.02623  -0.04867
  16   29950.8    333.9   0.019287182   0.21200  -0.13543  -0.40572   0.17044
  17   30056.3    332.7   0.002026941   0.02220   0.14259  -0.02988   0.03128
  18   30449.6    328.4   0.011660089   0.12607  -0.14600   0.11597  -0.30216
  19   30776.3    324.9   0.096989100   1.03749  -0.16240  -0.52928  -0.85497
  20   31086.4    321.7   0.106675651   1.12972   0.20706   0.35398   0.98058
  21   31338.8    319.1   0.010778123   0.11322   0.08938   0.32096   0.04714
  22   31805.7    314.4   0.308618271   3.19442  -0.34400  -0.70887  -1.60424
  23   32719.5    305.6   0.082220382   0.82727   0.06898   0.52699  -0.73810
  24   32741.1    305.4   0.007282501   0.07323  -0.03947  -0.16222  -0.21296
  25   33066.9    302.4   0.088569377   0.88179  -0.49677   0.09423  -0.79129
  26   33340.1    299.9   0.067470629   0.66623   0.19856  -0.14496   0.77832
  27   33463.8    298.8   1.153606585  11.34903   1.92091   1.08146   2.54747
  28   33596.2    297.7   0.054423033   0.53330  -0.39650  -0.53819   0.29400
  29   33826.3    295.6   0.146493470   1.42574   0.88483   0.35032   0.72117
  30   33839.1    295.5   0.100980946   0.98242   0.63324   0.76165   0.03630
  31   34099.2    293.3   0.022715677   0.21931   0.05133  -0.10208   0.45415
  32   35050.2    285.3   0.715084308   6.71649   0.28904   0.38703  -2.54620
  33   35129.4    284.7   0.062171328   0.58263  -0.06419  -0.16658   0.74213
  34   35421.0    282.3   0.005263662   0.04892  -0.11707   0.18292  -0.04190
  35   35793.5    279.4   0.008479478   0.07799   0.14486  -0.02132   0.23781
  36   36198.9    276.3   0.035663557   0.32434   0.06731  -0.05252   0.56308
  37   36401.9    274.7   0.003109855   0.02812  -0.08855  -0.06923   0.12446
  38   36573.6    273.4   0.198967356   1.79097  -0.26646  -0.45627   1.22955
  39   36755.7    272.1   0.140121836   1.25504  -0.02072   0.11591  -1.11408
  40   37168.3    269.0   0.311491839   2.75899  -0.24711   0.38940  -1.59571
  41   37335.8    267.8   0.012778781   0.11268  -0.10780   0.05551   0.31301
  42   37522.4    266.5   0.005364732   0.04707   0.06934   0.16802  -0.11845
  43   38059.3    262.7   0.019335170   0.16725   0.11076   0.19603  -0.34140
  44   38194.0    261.8   0.001667841   0.01438  -0.02478   0.11629  -0.01543
  45   38310.4    261.0   0.000599888   0.00515   0.03316   0.05445  -0.03302
  46   38388.4    260.5   0.001741513   0.01493  -0.07525   0.08235  -0.04991
  47   38435.9    260.2   0.067201646   0.57560   0.11020   0.66024  -0.35712
  48   38650.3    258.7   0.006314087   0.05378   0.15618   0.15802  -0.06649
  49   39156.8    255.4   0.338138444   2.84291  -0.09214  -0.96138   1.38209
  50   39482.4    253.3   0.040101584   0.33437   0.02238   0.31165  -0.48657
  51   39694.3    251.9   0.044685394   0.37061  -0.28573  -0.52221  -0.12754
  52   39780.2    251.4   0.003739283   0.03095  -0.02027  -0.01654   0.17396
  53   39786.7    251.3   0.005337605   0.04417  -0.04784  -0.19895   0.04793
  54   40248.7    248.5   0.029316609   0.23979  -0.23428  -0.40762   0.13694

FINAL SINGLE POINT ENERGY     -8523.884957554637

DIPOLE MOMENT
-------------
                                X             Y             Z
Electronic contribution:    -36.23415      40.12631    -172.87117
Nuclear contribution   :     32.62964     -42.59210     171.87406
                        -----------------------------------------
Total Dipole Moment    :     -3.60451      -2.46579      -0.99711
                        -----------------------------------------
Magnitude (a.u.)       :      4.47960
Magnitude (Debye)      :     11.38624

Rotational constants in cm-1:     0.000877     0.000415     0.000291
Rotational constants in MHz :    26.284816    12.436165     8.711926

                             ****ORCA TERMINATED NORMALLY****
TOTAL RUN TIME: 0 days 0 hours 10 minutes 20 seconds 79 msec
