                         Program Version 4.2.0 -  RELEASE  -
|  1> # ORCA input file
|  2> # SCF done       -191.176245125663          0.000577946369
|  3> ! CAM-B3LYP def2-SVP def2/J RIJCOSX Grid4 TightSCF
|  4> %maxcore 5000
|  5> %tddft
|  6>     Mode sTDDFT
|  7>     Ethresh 5.0
|  8>     maxcore 5000
|  9> end
| 10>
| 11> %pal
| 12>   nprocs 6
| 13>   end
| 14> * xyz 0 1
| 15>    C      -10.29013         2.96548         4.21410
| 16>    C      -11.19407         3.86213         4.70721
| 17>    C      -12.16967         3.55283         5.68092
| 18>    N      -12.98238         3.35859         6.46703
| 19>    C      -11.29125         5.21370         4.30716
| 20>    N      -11.43534         6.31871         4.03456
| 21>    C      -10.17112         1.56538         4.59351
| 22>    C       -9.15823         0.95186         3.81286
| 23>    C       -8.82048        -0.37370         3.94735
| 24>    C       -9.50811        -1.13080         4.90040
| 25>    C      -10.51685        -0.50993         5.67816
| 26>    C      -10.86183         0.82741         5.54035
| 27>    S      -11.23944        -1.62701         6.79554
| 28>    C      -10.19313        -2.89403         6.21221
| 29>    C       -9.34479        -2.50336         5.23085
| 30>   Br      -10.31880        -4.61135         6.95256
| 31>    C       -8.58179         1.94123         2.88480
| 32>    O       -7.76404         1.74540         2.01822
| 33>    C       -9.26565         3.23218         3.20499
| 34>    C       -8.92458         4.39175         2.62472
| 35>    C       -7.78520         4.46930         1.69276
| 36>    N       -6.57430         4.38646         2.23740
| 37>    C       -5.55310         4.41400         1.39577
| 38>    C       -5.71537         4.51853         0.02777
| 39>    C       -7.02926         4.65116        -0.44579
| 40>    N       -8.05695         4.64003         0.41440
| 41>    C       -7.38572         4.81272        -1.83135
| 42>    C       -6.54405         4.64313        -2.87935
| 43>    C       -6.92533         4.79276        -4.22932
| 44>    C       -6.08891         4.54463        -5.28389
| 45>    C       -6.38340         4.66920        -6.66778
| 46>    C       -5.35876         4.32546        -7.49202
| 47>    C       -4.19132         3.90256        -6.81068
| 48>    S       -4.43649         3.97696        -5.08167
| 49>    C       -3.00309         3.45798        -7.35024
| 50>    C       -2.65020         3.32257        -8.71339
| 51>    C       -1.40213         2.82142        -8.91081
| 52>    C       -0.69236         2.52916        -7.71526
| 53>    S       -1.67933         2.93521        -6.32632
| 54>    C        0.56791         1.99581        -7.64540
| 55>    C        1.29902         1.68406        -6.48755
| 56>    C        2.57732         1.11239        -6.47410
| 57>    C        3.25819         0.82227        -7.66283
| 58>    N        3.78370         0.61407        -8.66210
| 59>    C        3.06858         0.90766        -5.16185
| 60>    C        2.15637         1.34337        -4.20583
| 61>    S        0.69849         1.97769        -4.86551
| 62>    S        2.68075         1.18197        -2.55931
| 63>    C        4.16168         0.51081        -3.15176
| 64>    C        4.24869         0.40642        -4.53931
| 65>    C        5.49186        -0.14387        -4.93559
| 66>    C        5.83565        -0.51177        -6.24538
| 67>    N        6.14510        -0.86191        -7.29299
| 68>    C        6.32479        -0.41491        -3.85355
| 69>    S        5.55559        -0.05373        -2.32633
| 70>    C        7.63206        -0.97125        -3.84941
| 71>    C        8.59169        -0.90972        -4.80500
| 72>    C        8.75744        -0.11361        -6.00682
| 73>    C        8.30732         1.16158        -6.21519
| 74>    C        8.64553         1.93727        -7.34490
| 75>    N        8.90419         2.61681        -8.23183
| 76>    C        7.52338         1.87895        -5.29104
| 77>    N        6.90304         2.50366        -4.55411
| 78>    C        9.71327        -0.81451        -6.85286
| 79>    C       10.31730        -1.85508        -6.10124
| 80>    C        9.71585        -1.89653        -4.75740
| 81>    O       10.01279        -2.59928        -3.82133
| 82>    C       11.28786        -2.67399        -6.62717
| 83>    C       11.66606        -2.46470        -7.95732
| 84>    C       11.03768        -1.43797        -8.70513
| 85>    C       10.06400        -0.60288        -8.17197
| 86>    S       11.64153        -1.37094       -10.33092
| 87>    C       12.72082        -2.69717        -9.98965
| 88>    C       12.63250        -3.17116        -8.72381
| 89>   Br       13.86042        -3.33250       -11.33477
| 90>    H       -8.04640        -0.81078         3.33629
| 91>    H      -11.63607         1.25355         6.15627
| 92>    H       -8.63271        -3.15525         4.75869
| 93>    H       -9.44774         5.31683         2.82077
| 94>    H       -4.57281         4.34761         1.85035
| 95>    H       -4.86679         4.52133        -0.63486
| 96>    H       -8.42548         5.05290        -2.00485
| 97>    H       -5.51451         4.35649        -2.70634
| 98>    H       -7.93488         5.11343        -4.44788
| 99>    H       -7.34777         5.00827        -7.00252
|100>    H       -5.40671         4.35709        -8.56564
|101>    H       -3.32539         3.59512        -9.50433
|102>    H       -0.95904         2.64460        -9.87463
|103>    H        1.06630         1.78016        -8.58234
|104>    H        7.88756        -1.56860        -2.97867
|105>    H       11.73865        -3.45372        -6.03355
|106>    H        9.59776         0.15583        -8.77819
|107>    H       13.22294        -3.98534        -8.34504
|108> *
|109>
|110>                          ****END OF INPUT****

CARTESIAN COORDINATES (ANGSTROEM)
---------------------------------
  C    -10.290130    2.965480    4.214100
  C    -11.194070    3.862130    4.707210
  C    -12.169670    3.552830    5.680920
  N    -12.982380    3.358590    6.467030
  C    -11.291250    5.213700    4.307160
  N    -11.435340    6.318710    4.034560
  C    -10.171120    1.565380    4.593510
  C     -9.158230    0.951860    3.812860
  C     -8.820480   -0.373700    3.947350
  C     -9.508110   -1.130800    4.900400
  C    -10.516850   -0.509930    5.678160
  C    -10.861830    0.827410    5.540350
  S    -11.239440   -1.627010    6.795540
  C    -10.193130   -2.894030    6.212210
  C     -9.344790   -2.503360    5.230850
  Br   -10.318800   -4.611350    6.952560
  C     -8.581790    1.941230    2.884800
  O     -7.764040    1.745400    2.018220
  C     -9.265650    3.232180    3.204990
  C     -8.924580    4.391750    2.624720
  C     -7.785200    4.469300    1.692760
  N     -6.574300    4.386460    2.237400
  C     -5.553100    4.414000    1.395770
  C     -5.715370    4.518530    0.027770
  C     -7.029260    4.651160   -0.445790
  N     -8.056950    4.640030    0.414400
  C     -7.385720    4.812720   -1.831350
  C     -6.544050    4.643130   -2.879350
  C     -6.925330    4.792760   -4.229320
  C     -6.088910    4.544630   -5.283890
  C     -6.383400    4.669200   -6.667780
  C     -5.358760    4.325460   -7.492020
  C     -4.191320    3.902560   -6.810680
  S     -4.436490    3.976960   -5.081670
  C     -3.003090    3.457980   -7.350240
  C     -2.650200    3.322570   -8.713390
  C     -1.402130    2.821420   -8.910810
  C     -0.692360    2.529160   -7.715260
  S     -1.679330    2.935210   -6.326320
  C      0.567910    1.995810   -7.645400
  C      1.299020    1.684060   -6.487550
  C      2.577320    1.112390   -6.474100
  C      3.258190    0.822270   -7.662830
  N      3.783700    0.614070   -8.662100
  C      3.068580    0.907660   -5.161850
  C      2.156370    1.343370   -4.205830
  S      0.698490    1.977690   -4.865510
  S      2.680750    1.181970   -2.559310
  C      4.161680    0.510810   -3.151760
  C      4.248690    0.406420   -4.539310
  C      5.491860   -0.143870   -4.935590
  C      5.835650   -0.511770   -6.245380
  N      6.145100   -0.861910   -7.292990
  C      6.324790   -0.414910   -3.853550
  S      5.555590   -0.053730   -2.326330
  C      7.632060   -0.971250   -3.849410
  C      8.591690   -0.909720   -4.805000
  C      8.757440   -0.113610   -6.006820
  C      8.307320    1.161580   -6.215190
  C      8.645530    1.937270   -7.344900
  N      8.904190    2.616810   -8.231830
  C      7.523380    1.878950   -5.291040
  N      6.903040    2.503660   -4.554110
  C      9.713270   -0.814510   -6.852860
  C     10.317300   -1.855080   -6.101240
  C      9.715850   -1.896530   -4.757400
  O     10.012790   -2.599280   -3.821330
  C     11.287860   -2.673990   -6.627170
  C     11.666060   -2.464700   -7.957320
  C     11.037680   -1.437970   -8.705130
  C     10.064000   -0.602880   -8.171970
  S     11.641530   -1.370940  -10.330920
  C     12.720820   -2.697170   -9.989650
  C     12.632500   -3.171160   -8.723810
  Br    13.860420   -3.332500  -11.334770
  H     -8.046400   -0.810780    3.336290
  H    -11.636070    1.253550    6.156270
  H     -8.632710   -3.155250    4.758690
  H     -9.447740    5.316830    2.820770
  H     -4.572810    4.347610    1.850350
  H     -4.866790    4.521330   -0.634860
  H     -8.425480    5.052900   -2.004850
  H     -5.514510    4.356490   -2.706340
  H     -7.934880    5.113430   -4.447880
  H     -7.347770    5.008270   -7.002520
  H     -5.406710    4.357090   -8.565640
  H     -3.325390    3.595120   -9.504330
  H     -0.959040    2.644600   -9.874630
  H      1.066300    1.780160   -8.582340
  H      7.887560   -1.568600   -2.978670
  H     11.738650   -3.453720   -6.033550
  H      9.597760    0.155830   -8.778190
  H     13.222940   -3.985340   -8.345040

 Total Charge           Charge          ....    0
 Multiplicity           Mult            ....    1
 Number of Electrons    NEL             ....  608
 Basis Dimension        Dim             .... 1204

ORBITAL ENERGIES
----------------

  NO   OCC          E(Eh)            E(eV)
   0   2.0000    -482.889802    -13140.0995
   1   2.0000    -482.884154    -13139.9458
   2   2.0000     -88.993403     -2421.6336
   3   2.0000     -88.991471     -2421.5810
   4   2.0000     -88.986834     -2421.4548
   5   2.0000     -88.980272     -2421.2763
   6   2.0000     -88.974094     -2421.1082
   7   2.0000     -88.962253     -2420.7860
   8   2.0000     -88.959631     -2420.7146
   9   2.0000     -62.567542     -1702.5494
  10   2.0000     -62.561891     -1702.3956
  11   2.0000     -56.401497     -1534.7628
  12   2.0000     -56.398768     -1534.6885
  13   2.0000     -56.398740     -1534.6877
  14   2.0000     -56.395842     -1534.6089
  15   2.0000     -56.393124     -1534.5349
  16   2.0000     -56.393091     -1534.5340
  17   2.0000     -19.221890      -523.0542
  18   2.0000     -19.220836      -523.0255
  19   2.0000     -14.421854      -392.4386
  20   2.0000     -14.421112      -392.4184
  21   2.0000     -14.418615      -392.3505
  22   2.0000     -14.417255      -392.3135
  23   2.0000     -14.413671      -392.2159
  24   2.0000     -14.409570      -392.1043
  25   2.0000     -14.406959      -392.0333
  26   2.0000     -14.402029      -391.8991
  27   2.0000     -10.371502      -282.2229
  28   2.0000     -10.371463      -282.2219
  29   2.0000     -10.364131      -282.0223
  30   2.0000     -10.357539      -281.8430
  31   2.0000     -10.350801      -281.6596
  32   2.0000     -10.347642      -281.5737
  33   2.0000     -10.347608      -281.5727
  34   2.0000     -10.346481      -281.5421
  35   2.0000     -10.345075      -281.5038
  36   2.0000     -10.342774      -281.4412
  37   2.0000     -10.342328      -281.4291
  38   2.0000     -10.338355      -281.3209
  39   2.0000     -10.336132      -281.2604
  40   2.0000     -10.335416      -281.2410
  41   2.0000     -10.331335      -281.1299
  42   2.0000     -10.330149      -281.0976
  43   2.0000     -10.328762      -281.0599
  44   2.0000     -10.326968      -281.0111
  45   2.0000     -10.326133      -280.9884
  46   2.0000     -10.325210      -280.9632
  47   2.0000     -10.325141      -280.9614
  48   2.0000     -10.323992      -280.9301
  49   2.0000     -10.323764      -280.9239
  50   2.0000     -10.322930      -280.9012
  51   2.0000     -10.319648      -280.8119
  52   2.0000     -10.319586      -280.8102
  53   2.0000     -10.318662      -280.7851
  54   2.0000     -10.315719      -280.7050
  55   2.0000     -10.315563      -280.7007
  56   2.0000     -10.315344      -280.6948
  57   2.0000     -10.315055      -280.6869
  58   2.0000     -10.314635      -280.6755
  59   2.0000     -10.313585      -280.6469
  60   2.0000     -10.311882      -280.6006
  61   2.0000     -10.311410      -280.5877
  62   2.0000     -10.309575      -280.5378
  63   2.0000     -10.308372      -280.5051
  64   2.0000     -10.306940      -280.4661
  65   2.0000     -10.306368      -280.4505
  66   2.0000     -10.304996      -280.4132
  67   2.0000     -10.304400      -280.3970
  68   2.0000     -10.304128      -280.3896
  69   2.0000     -10.302057      -280.3332
  70   2.0000     -10.301934      -280.3299
  71   2.0000     -10.301804      -280.3263
  72   2.0000     -10.301476      -280.3174
  73   2.0000     -10.301376      -280.3147
  74   2.0000     -10.298128      -280.2263
  75   2.0000     -10.297820      -280.2179
  76   2.0000     -10.297774      -280.2167
  77   2.0000     -10.295433      -280.1530
  78   2.0000     -10.294899      -280.1385
  79   2.0000     -10.294062      -280.1157
  80   2.0000     -10.293972      -280.1132
  81   2.0000     -10.286310      -279.9047
  82   2.0000     -10.283774      -279.8357
  83   2.0000      -8.796992      -239.3783
  84   2.0000      -8.791338      -239.2245
  85   2.0000      -8.088733      -220.1056
  86   2.0000      -8.086575      -220.0469
  87   2.0000      -8.081649      -219.9129
  88   2.0000      -8.076349      -219.7686
  89   2.0000      -8.070155      -219.6001
  90   2.0000      -8.058520      -219.2835
  91   2.0000      -8.056008      -219.2151
  92   2.0000      -6.633337      -180.5023
  93   2.0000      -6.627660      -180.3478
  94   2.0000      -6.618715      -180.1044
  95   2.0000      -6.618493      -180.0983
  96   2.0000      -6.613070      -179.9508
  97   2.0000      -6.612858      -179.9450
  98   2.0000      -6.058270      -164.8539
  99   2.0000      -6.056568      -164.8076
 100   2.0000      -6.054032      -164.7386
 101   2.0000      -6.052292      -164.6912
 102   2.0000      -6.051272      -164.6635
 103   2.0000      -6.050389      -164.6395
 104   2.0000      -6.047382      -164.5576
 105   2.0000      -6.046964      -164.5462
 106   2.0000      -6.046030      -164.5209
 107   2.0000      -6.043253      -164.4453
 108   2.0000      -6.041767      -164.4048
 109   2.0000      -6.039843      -164.3525
 110   2.0000      -6.037539      -164.2898
 111   2.0000      -6.035541      -164.2354
 112   2.0000      -6.031375      -164.1220
 113   2.0000      -6.028299      -164.0383
 114   2.0000      -6.025700      -163.9676
 115   2.0000      -6.024193      -163.9266
 116   2.0000      -6.021806      -163.8617
 117   2.0000      -6.019364      -163.7952
 118   2.0000      -6.016841      -163.7266
 119   2.0000      -2.749168       -74.8087
 120   2.0000      -2.745119       -74.6985
 121   2.0000      -2.744943       -74.6937
 122   2.0000      -2.743490       -74.6541
 123   2.0000      -2.739440       -74.5440
 124   2.0000      -2.739310       -74.5404
 125   2.0000      -2.733331       -74.3777
 126   2.0000      -2.733306       -74.3770
 127   2.0000      -2.727697       -74.2244
 128   2.0000      -2.727675       -74.2238
 129   2.0000      -1.138038       -30.9676
 130   2.0000      -1.136517       -30.9262
 131   2.0000      -1.083493       -29.4833
 132   2.0000      -1.046782       -28.4844
 133   2.0000      -1.028165       -27.9778
 134   2.0000      -1.024883       -27.8885
 135   2.0000      -1.018804       -27.7231
 136   2.0000      -1.016873       -27.6705
 137   2.0000      -1.012389       -27.5485
 138   2.0000      -1.008757       -27.4497
 139   2.0000      -0.999893       -27.2085
 140   2.0000      -0.999129       -27.1877
 141   2.0000      -0.994595       -27.0643
 142   2.0000      -0.994464       -27.0607
 143   2.0000      -0.990332       -26.9483
 144   2.0000      -0.988614       -26.9015
 145   2.0000      -0.982639       -26.7390
 146   2.0000      -0.980791       -26.6887
 147   2.0000      -0.956445       -26.0262
 148   2.0000      -0.948223       -25.8025
 149   2.0000      -0.941523       -25.6201
 150   2.0000      -0.926834       -25.2204
 151   2.0000      -0.914431       -24.8829
 152   2.0000      -0.912722       -24.8364
 153   2.0000      -0.909196       -24.7405
 154   2.0000      -0.905012       -24.6266
 155   2.0000      -0.903483       -24.5850
 156   2.0000      -0.892193       -24.2778
 157   2.0000      -0.891397       -24.2561
 158   2.0000      -0.885522       -24.0963
 159   2.0000      -0.883451       -24.0399
 160   2.0000      -0.875297       -23.8180
 161   2.0000      -0.866126       -23.5685
 162   2.0000      -0.860994       -23.4289
 163   2.0000      -0.856675       -23.3113
 164   2.0000      -0.843483       -22.9523
 165   2.0000      -0.838838       -22.8259
 166   2.0000      -0.834325       -22.7031
 167   2.0000      -0.829380       -22.5686
 168   2.0000      -0.824745       -22.4425
 169   2.0000      -0.813607       -22.1394
 170   2.0000      -0.795402       -21.6440
 171   2.0000      -0.785296       -21.3690
 172   2.0000      -0.775444       -21.1009
 173   2.0000      -0.765065       -20.8185
 174   2.0000      -0.763204       -20.7678
 175   2.0000      -0.755139       -20.5484
 176   2.0000      -0.738210       -20.0877
 177   2.0000      -0.732367       -19.9287
 178   2.0000      -0.721465       -19.6321
 179   2.0000      -0.710351       -19.3296
 180   2.0000      -0.704647       -19.1744
 181   2.0000      -0.703114       -19.1327
 182   2.0000      -0.696456       -18.9515
 183   2.0000      -0.695811       -18.9340
 184   2.0000      -0.691254       -18.8100
 185   2.0000      -0.684124       -18.6160
 186   2.0000      -0.680300       -18.5119
 187   2.0000      -0.671410       -18.2700
 188   2.0000      -0.664780       -18.0896
 189   2.0000      -0.662868       -18.0375
 190   2.0000      -0.656065       -17.8524
 191   2.0000      -0.650247       -17.6941
 192   2.0000      -0.646505       -17.5923
 193   2.0000      -0.638147       -17.3649
 194   2.0000      -0.634133       -17.2556
 195   2.0000      -0.629864       -17.1395
 196   2.0000      -0.628059       -17.0903
 197   2.0000      -0.624996       -17.0070
 198   2.0000      -0.612249       -16.6601
 199   2.0000      -0.608818       -16.5668
 200   2.0000      -0.606809       -16.5121
 201   2.0000      -0.606152       -16.4942
 202   2.0000      -0.601081       -16.3563
 203   2.0000      -0.599128       -16.3031
 204   2.0000      -0.593552       -16.1514
 205   2.0000      -0.581509       -15.8237
 206   2.0000      -0.575002       -15.6466
 207   2.0000      -0.567026       -15.4296
 208   2.0000      -0.557997       -15.1839
 209   2.0000      -0.554941       -15.1007
 210   2.0000      -0.551661       -15.0114
 211   2.0000      -0.547418       -14.8960
 212   2.0000      -0.545931       -14.8555
 213   2.0000      -0.545213       -14.8360
 214   2.0000      -0.544393       -14.8137
 215   2.0000      -0.541231       -14.7276
 216   2.0000      -0.537560       -14.6278
 217   2.0000      -0.536894       -14.6096
 218   2.0000      -0.533732       -14.5236
 219   2.0000      -0.531529       -14.4636
 220   2.0000      -0.527494       -14.3538
 221   2.0000      -0.526437       -14.3251
 222   2.0000      -0.521960       -14.2033
 223   2.0000      -0.518557       -14.1106
 224   2.0000      -0.515768       -14.0348
 225   2.0000      -0.514307       -13.9950
 226   2.0000      -0.513425       -13.9710
 227   2.0000      -0.511578       -13.9207
 228   2.0000      -0.510282       -13.8855
 229   2.0000      -0.508371       -13.8335
 230   2.0000      -0.507265       -13.8034
 231   2.0000      -0.504332       -13.7236
 232   2.0000      -0.501954       -13.6589
 233   2.0000      -0.498530       -13.5657
 234   2.0000      -0.497204       -13.5296
 235   2.0000      -0.495268       -13.4769
 236   2.0000      -0.494683       -13.4610
 237   2.0000      -0.491987       -13.3876
 238   2.0000      -0.488795       -13.3008
 239   2.0000      -0.484695       -13.1892
 240   2.0000      -0.484357       -13.1800
 241   2.0000      -0.479565       -13.0496
 242   2.0000      -0.474250       -12.9050
 243   2.0000      -0.473300       -12.8792
 244   2.0000      -0.471117       -12.8198
 245   2.0000      -0.463501       -12.6125
 246   2.0000      -0.462779       -12.5929
 247   2.0000      -0.461731       -12.5643
 248   2.0000      -0.459850       -12.5132
 249   2.0000      -0.457536       -12.4502
 250   2.0000      -0.455346       -12.3906
 251   2.0000      -0.453976       -12.3533
 252   2.0000      -0.452417       -12.3109
 253   2.0000      -0.450778       -12.2663
 254   2.0000      -0.449031       -12.2188
 255   2.0000      -0.448656       -12.2086
 256   2.0000      -0.444395       -12.0926
 257   2.0000      -0.443930       -12.0800
 258   2.0000      -0.443149       -12.0587
 259   2.0000      -0.442373       -12.0376
 260   2.0000      -0.439652       -11.9636
 261   2.0000      -0.435433       -11.8487
 262   2.0000      -0.434697       -11.8287
 263   2.0000      -0.432668       -11.7735
 264   2.0000      -0.431791       -11.7496
 265   2.0000      -0.431697       -11.7471
 266   2.0000      -0.429250       -11.6805
 267   2.0000      -0.427603       -11.6357
 268   2.0000      -0.426413       -11.6033
 269   2.0000      -0.425727       -11.5846
 270   2.0000      -0.421227       -11.4622
 271   2.0000      -0.419151       -11.4057
 272   2.0000      -0.415363       -11.3026
 273   2.0000      -0.410529       -11.1711
 274   2.0000      -0.409901       -11.1540
 275   2.0000      -0.407394       -11.0858
 276   2.0000      -0.397232       -10.8092
 277   2.0000      -0.393156       -10.6983
 278   2.0000      -0.391096       -10.6423
 279   2.0000      -0.387331       -10.5398
 280   2.0000      -0.380748       -10.3607
 281   2.0000      -0.379716       -10.3326
 282   2.0000      -0.379140       -10.3169
 283   2.0000      -0.378777       -10.3071
 284   2.0000      -0.378114       -10.2890
 285   2.0000      -0.373620       -10.1667
 286   2.0000      -0.370022       -10.0688
 287   2.0000      -0.361984        -9.8501
 288   2.0000      -0.353760        -9.6263
 289   2.0000      -0.349337        -9.5059
 290   2.0000      -0.341268        -9.2864
 291   2.0000      -0.339233        -9.2310
 292   2.0000      -0.337828        -9.1928
 293   2.0000      -0.333246        -9.0681
 294   2.0000      -0.328001        -8.9253
 295   2.0000      -0.322859        -8.7854
 296   2.0000      -0.320214        -8.7135
 297   2.0000      -0.317138        -8.6298
 298   2.0000      -0.313560        -8.5324
 299   2.0000      -0.298354        -8.1186
 300   2.0000      -0.293036        -7.9739
 301   2.0000      -0.288304        -7.8451
 302   2.0000      -0.284949        -7.7539
 303   2.0000      -0.227917        -6.2019
 304   0.0000      -0.098624        -2.6837
 305   0.0000      -0.095519        -2.5992
 306   0.0000      -0.088722        -2.4143
 307   0.0000      -0.060412        -1.6439
 308   0.0000      -0.056097        -1.5265

MULLIKEN ATOMIC CHARGES
-----------------------
   0 C :    0.319381
   1 C :   -0.339228
   2 C :   -0.187730
   3 N :    0.156171
   4 C :   -0.190264
   5 N :    0.167432
   6 C :    0.010994
   7 C :   -0.012058
   8 C :   -0.066143
   9 C :    0.118658
  10 C :   -0.087506
  11 C :   -0.019892
  12 S :    0.190251
  13 C :   -0.122453
  14 C :    0.038103
  15 Br:    0.028565
  16 C :    0.156193
  17 O :   -0.132418
  18 C :   -0.061473
  19 C :    0.016672
  20 C :   -0.038162
  21 N :   -0.083861
  22 C :    0.082717
  23 C :   -0.042131
  24 C :    0.046532
  25 N :   -0.064883
  26 C :    0.031089
  27 C :    0.025261
  28 C :   -0.008218
  29 C :   -0.016532
  30 C :    0.047017
  31 C :    0.028771
  32 C :   -0.041972
  33 S :    0.070699
  34 C :   -0.036677
  35 C :    0.040969
  36 C :    0.030336
  37 C :   -0.021525
  38 S :    0.061899
  39 C :   -0.050736
  40 C :   -0.067036
  41 C :   -0.028868
  42 C :   -0.318882
  43 N :    0.195086
  44 C :    0.170755
  45 C :   -0.226247
  46 S :    0.145824
  47 S :    0.196675
  48 C :   -0.211247
  49 C :    0.139712
  50 C :   -0.007073
  51 C :   -0.321607
  52 N :    0.235231
  53 C :   -0.131903
  54 S :    0.199621
  55 C :    0.046188
  56 C :   -0.106245
  57 C :    0.261904
  58 C :   -0.305238
  59 C :   -0.181976
  60 N :    0.166423
  61 C :   -0.190943
  62 N :    0.164351
  63 C :    0.001202
  64 C :    0.008179
  65 C :    0.130498
  66 O :   -0.138445
  67 C :   -0.071336
  68 C :    0.109716
  69 C :   -0.085731
  70 C :   -0.004233
  71 S :    0.191895
  72 C :   -0.126480
  73 C :    0.042959
  74 Br:    0.024275
  75 H :   -0.008763
  76 H :   -0.005235
  77 H :   -0.001687
  78 H :    0.052185
  79 H :    0.004207
  80 H :   -0.006525
  81 H :   -0.007768
  82 H :    0.005909
  83 H :   -0.006775
  84 H :   -0.004453
  85 H :   -0.004947
  86 H :   -0.007287
  87 H :    0.000223
  88 H :    0.016620
  89 H :    0.028318
  90 H :   -0.008307
  91 H :    0.006804
  92 H :   -0.003376
Sum of atomic charges:   -0.0000000

LOEWDIN ATOMIC CHARGES
----------------------
   0 C :    0.075905
   1 C :   -0.127084
   2 C :   -0.017278
   3 N :   -0.045807
   4 C :   -0.019410
   5 N :   -0.040421
   6 C :   -0.021507
   7 C :   -0.050586
   8 C :    0.024096
   9 C :   -0.029899
  10 C :   -0.142369
  11 C :   -0.007684
  12 S :    0.435145
  13 C :   -0.269620
  14 C :   -0.070178
  15 Br:    0.140906
  16 C :    0.088446
  17 O :   -0.125294
  18 C :   -0.067719
  19 C :    0.085958
  20 C :    0.021823
  21 N :   -0.088445
  22 C :    0.053885
  23 C :   -0.054954
  24 C :    0.037770
  25 N :   -0.085215
  26 C :   -0.021114
  27 C :   -0.010582
  28 C :   -0.047450
  29 C :   -0.136017
  30 C :   -0.024361
  31 C :   -0.025893
  32 C :   -0.168275
  33 S :    0.372042
  34 C :   -0.178311
  35 C :   -0.026256
  36 C :   -0.027556
  37 C :   -0.138685
  38 S :    0.367643
  39 C :   -0.076364
  40 C :   -0.127944
  41 C :   -0.106134
  42 C :   -0.041754
  43 N :   -0.042999
  44 C :   -0.057513
  45 C :   -0.336103
  46 S :    0.443621
  47 S :    0.431599
  48 C :   -0.318677
  49 C :   -0.056642
  50 C :   -0.077821
  51 C :   -0.032105
  52 N :   -0.025479
  53 C :   -0.146472
  54 S :    0.477622
  55 C :    0.028306
  56 C :   -0.064606
  57 C :    0.070396
  58 C :   -0.123775
  59 C :   -0.016582
  60 N :   -0.042217
  61 C :   -0.015765
  62 N :   -0.045788
  63 C :   -0.011136
  64 C :   -0.054069
  65 C :    0.087181
  66 O :   -0.136529
  67 C :    0.023932
  68 C :   -0.032377
  69 C :   -0.140145
  70 C :   -0.001888
  71 S :    0.438039
  72 C :   -0.271594
  73 C :   -0.070183
  74 Br:    0.137989
  75 H :    0.041931
  76 H :    0.041548
  77 H :    0.039564
  78 H :    0.051783
  79 H :    0.026632
  80 H :    0.031898
  81 H :    0.036150
  82 H :    0.021382
  83 H :    0.036990
  84 H :    0.037170
  85 H :    0.035154
  86 H :    0.035045
  87 H :    0.038785
  88 H :    0.050698
  89 H :    0.048221
  90 H :    0.041657
  91 H :    0.044886
  92 H :    0.038834

  Mayer bond orders larger than 0.100000
B(  0-C ,  1-C ) :   1.6727 B(  0-C ,  6-C ) :   1.0178 B(  0-C , 18-C ) :   1.0096
B(  1-C ,  2-C ) :   1.1332 B(  1-C ,  4-C ) :   1.1454 B(  2-C ,  3-N ) :   2.9751
B(  4-C ,  5-N ) :   2.9793 B(  6-C ,  7-C ) :   1.2738 B(  6-C , 11-C ) :   1.3964
B(  7-C ,  8-C ) :   1.4172 B(  7-C , 16-C ) :   0.9437 B(  8-C ,  9-C ) :   1.2514
B(  8-C , 75-H ) :   1.0177 B(  9-C , 10-C ) :   1.2968 B(  9-C , 14-C ) :   1.1629
B( 10-C , 11-C ) :   1.3411 B( 10-C , 12-S ) :   1.0865 B( 11-C , 76-H ) :   0.9811
B( 12-S , 13-C ) :   1.0868 B( 13-C , 14-C ) :   1.6161 B( 13-C , 15-Br) :   1.0215
B( 14-C , 77-H ) :   1.0008 B( 16-C , 17-O ) :   2.2360 B( 16-C , 18-C ) :   0.9137
B( 18-C , 19-C ) :   1.8734 B( 19-C , 20-C ) :   0.9179 B( 19-C , 78-H ) :   0.9305
B( 20-C , 21-N ) :   1.4983 B( 20-C , 25-N ) :   1.5311 B( 21-N , 22-C ) :   1.5261
B( 22-C , 23-C ) :   1.4004 B( 22-C , 79-H ) :   0.9790 B( 23-C , 24-C ) :   1.3490
B( 23-C , 80-H ) :   0.9664 B( 24-C , 25-N ) :   1.4736 B( 24-C , 26-C ) :   1.0647
B( 26-C , 27-C ) :   1.6507 B( 26-C , 81-H ) :   0.9856 B( 27-C , 28-C ) :   1.1441
B( 27-C , 82-H ) :   0.9597 B( 28-C , 29-C ) :   1.5803 B( 28-C , 83-H ) :   0.9863
B( 29-C , 30-C ) :   1.1300 B( 29-C , 33-S ) :   1.0300 B( 30-C , 31-C ) :   1.6037
B( 30-C , 84-H ) :   0.9988 B( 31-C , 32-C ) :   1.1772 B( 31-C , 85-H ) :   0.9947
B( 32-C , 33-S ) :   1.0500 B( 32-C , 34-C ) :   1.5247 B( 34-C , 35-C ) :   1.1794
B( 34-C , 38-S ) :   1.0363 B( 35-C , 36-C ) :   1.5966 B( 35-C , 86-H ) :   0.9928
B( 36-C , 37-C ) :   1.1398 B( 36-C , 87-H ) :   1.0014 B( 37-C , 38-S ) :   1.0411
B( 37-C , 39-C ) :   1.5578 B( 39-C , 40-C ) :   1.2225 B( 39-C , 88-H ) :   0.9618
B( 40-C , 41-C ) :   1.4451 B( 40-C , 46-S ) :   1.1005 B( 41-C , 42-C ) :   1.1882
B( 41-C , 44-C ) :   1.2686 B( 42-C , 43-N ) :   2.9721 B( 44-C , 45-C ) :   1.4061
B( 44-C , 49-C ) :   1.0613 B( 45-C , 46-S ) :   1.0928 B( 45-C , 47-S ) :   1.0749
B( 47-S , 48-C ) :   1.0942 B( 48-C , 49-C ) :   1.3939 B( 48-C , 54-S ) :   1.1065
B( 49-C , 50-C ) :   1.2881 B( 50-C , 51-C ) :   1.1899 B( 50-C , 53-C ) :   1.4668
B( 51-C , 52-N ) :   2.9624 B( 53-C , 54-S ) :   1.1332 B( 53-C , 55-C ) :   1.0994
B( 55-C , 56-C ) :   1.7327 B( 55-C , 89-H ) :   0.9235 B( 56-C , 57-C ) :   1.0156
B( 56-C , 65-C ) :   0.9307 B( 57-C , 58-C ) :   1.6616 B( 57-C , 63-C ) :   1.0185
B( 58-C , 59-C ) :   1.1338 B( 58-C , 61-C ) :   1.1705 B( 59-C , 60-N ) :   3.0001
B( 61-C , 62-N ) :   2.9936 B( 63-C , 64-C ) :   1.2721 B( 63-C , 70-C ) :   1.4174
B( 64-C , 65-C ) :   0.9249 B( 64-C , 67-C ) :   1.4165 B( 65-C , 66-O ) :   2.2705
B( 67-C , 68-C ) :   1.2561 B( 67-C , 90-H ) :   1.0169 B( 68-C , 69-C ) :   1.3028
B( 68-C , 73-C ) :   1.1640 B( 69-C , 70-C ) :   1.3286 B( 69-C , 71-S ) :   1.0859
B( 70-C , 91-H ) :   0.9835 B( 71-S , 72-C ) :   1.0890 B( 72-C , 73-C ) :   1.6164
B( 72-C , 74-Br) :   1.0192 B( 73-C , 92-H ) :   1.0011

-----------------------------------------------------------------------------
         ABSORPTION SPECTRUM VIA TRANSITION ELECTRIC DIPOLE MOMENTS
-----------------------------------------------------------------------------
State   Energy  Wavelength   fosc         T2         TX        TY        TZ
        (cm-1)    (nm)                  (au**2)     (au)      (au)      (au)
-----------------------------------------------------------------------------
   0   14950.0    668.9   1.551669490  34.16907  -5.10968   1.72116   2.25784
   1   17474.1    572.3   0.040796521   0.76860  -0.54545   0.23554   0.64468
   2   20820.5    480.3   0.004967088   0.07854   0.27392  -0.04091  -0.04279
   3   23793.6    420.3   0.227769006   3.15145   1.75563  -0.26284  -0.01114
   4   23852.4    419.2   0.171635659   2.36892   1.47486   0.09645  -0.42943
   5   25638.5    390.0   0.162683559   2.08894   0.93101  -0.96026  -0.54778
   6   26787.3    373.3   0.033589882   0.41281   0.34634  -0.22787   0.49086
   7   26837.7    372.6   0.009527706   0.11687   0.11495  -0.04777   0.31840
   8   27748.8    360.4   0.913727458  10.84047   0.76465  -0.75957   3.11108
   9   28206.5    354.5   0.127174177   1.48431  -0.37203   0.45295  -1.06806
  10   28519.7    350.6   0.078418068   0.90520  -0.20216  -0.05260   0.92821
  11   28726.9    348.1   0.414574551   4.75105  -0.34593   2.12615  -0.33299
  12   28884.1    346.2   0.008586760   0.09787  -0.15887   0.26085  -0.06774
  13   29725.0    336.4   0.012266740   0.13586  -0.21461   0.12780   0.27105
  14   30107.8    332.1   0.016924163   0.18506   0.34250  -0.25170  -0.06633
  15   30555.4    327.3   0.080544605   0.86781  -0.17122  -0.89317   0.20182
  16   30884.9    323.8   0.052858717   0.56344  -0.60725   0.34781   0.27151
  17   31413.1    318.3   0.000566794   0.00594   0.00353  -0.06937  -0.03341
  18   31787.7    314.6   0.074522185   0.77179  -0.75666   0.41243   0.17077
  19   31891.4    313.6   0.008619723   0.08898   0.18729  -0.08192  -0.21724
  20   32073.7    311.8   0.027573275   0.28302  -0.00841   0.10961  -0.52051
  21   32221.2    310.4   0.001393348   0.01424   0.00150   0.09696  -0.06952
  22   32608.5    306.7   0.801146337   8.08828   2.02565  -1.71873  -1.01538
  23   32839.1    304.5   0.306344506   3.07111  -0.45454   0.49111   1.61966
  24   32989.5    303.1   0.036392737   0.36317   0.35485   0.45256  -0.18012
  25   33508.6    298.4   0.002985398   0.02933   0.16864  -0.02016  -0.02203
  26   34075.9    293.5   0.006906215   0.06672   0.08285  -0.03059   0.24274
  27   34395.9    290.7   0.061004889   0.58389   0.16724  -0.52263   0.53177
  28   34496.4    289.9   0.458205553   4.37283  -0.76936   1.93803   0.15791
  29   34526.6    289.6   0.033036235   0.31500  -0.03654   0.53653  -0.16062
  30   34725.1    288.0   0.020087778   0.19044   0.41311  -0.11550  -0.08026
  31   35142.8    284.6   0.033048835   0.30960   0.24238  -0.46362  -0.18948
  32   35700.8    280.1   0.057794536   0.53295  -0.56355   0.27966   0.37034
  33   35858.6    278.9   0.025727185   0.23620  -0.07410   0.03557  -0.47900
  34   35967.4    278.0   0.015847300   0.14505   0.34219  -0.16612   0.01905
  35   36740.5    272.2   0.005956395   0.05337  -0.18747   0.10616   0.08341
  36   37207.6    268.8   0.087975219   0.77840  -0.73932   0.39776   0.27130
  37   37373.7    267.6   0.005052406   0.04450   0.17380  -0.00699  -0.11938
  38   37638.3    265.7   0.054620584   0.47775  -0.24790  -0.40943   0.49866
  39   37810.0    264.5   0.084418603   0.73503   0.60707   0.24191  -0.55495
  40   37955.1    263.5   0.023707893   0.20564  -0.38938  -0.01321   0.23204
  41   38435.3    260.2   0.012253006   0.10495  -0.29819   0.02402  -0.12434
  42   38583.5    259.2   0.252035041   2.15048  -0.08585   0.91603  -1.14192
  43   39032.4    256.2   0.000843488   0.00711   0.04402  -0.06996   0.01682
  44   39080.0    255.9   0.013088589   0.11026   0.17110  -0.18219  -0.21862
  45   39278.6    254.6   0.005449922   0.04568  -0.01664  -0.14526   0.15589
  46   39497.5    253.2   0.025171970   0.20981  -0.32222  -0.15284   0.28744
  47   39589.5    252.6   0.078587879   0.65351  -0.53591  -0.12278   0.59265
  48   39892.0    250.7   0.071915277   0.59349  -0.10331   0.55008  -0.52936
  49   40015.0    249.9   0.001000126   0.00823  -0.00648  -0.08473  -0.03174
  50   40126.1    249.2   0.000182548   0.00150  -0.02319   0.02855  -0.01203

FINAL SINGLE POINT ENERGY    -10664.045686196501

DIPOLE MOMENT
-------------
                                X             Y             Z
Electronic contribution:     73.02325    -109.39799      19.87340
Nuclear contribution   :    -73.40322     107.33844     -20.50411
                        -----------------------------------------
Total Dipole Moment    :     -0.37997      -2.05956      -0.63070
                        -----------------------------------------
Magnitude (a.u.)       :      2.18722
Magnitude (Debye)      :      5.55948

Rotational constants in cm-1:     0.000935     0.000134     0.000122
Rotational constants in MHz :    28.033565     4.010392     3.667122

                             ****ORCA TERMINATED NORMALLY****
TOTAL RUN TIME: 0 days 0 hours 9 minutes 27 seconds 397 msec
