                         Program Version 4.2.0 -  RELEASE  -
|  1> # ORCA input file
|  2> # SCF done       -197.566728215831          0.000995916323
|  3> ! CAM-B3LYP def2-SVP def2/J RIJCOSX Grid4 TightSCF
|  4> %maxcore 5000
|  5> %tddft
|  6>     Mode sTDDFT
|  7>     Ethresh 5.0
|  8>     maxcore 5000
|  9> end
| 10>
| 11> %pal
| 12>   nprocs 6
| 13>   end
| 14> * xyz 0 1
| 15>    C       -4.66703         4.46191         7.61112
| 16>    C       -4.78344         3.42208         8.49728
| 17>    C       -4.01657         3.29220         9.67279
| 18>    N       -3.41951         3.13728        10.64090
| 19>    C       -5.68515         2.35041         8.33777
| 20>    N       -6.40515         1.46122         8.24297
| 21>    C       -3.74642         5.59049         7.73170
| 22>    C       -3.91690         6.44576         6.61163
| 23>    C       -3.19032         7.59952         6.44183
| 24>    C       -2.25019         7.92846         7.42400
| 25>    C       -2.08719         7.07100         8.53811
| 26>    C       -2.82203         5.90261         8.70905
| 27>    S       -0.87661         7.66689         9.63087
| 28>    C       -0.60855         9.04152         8.59191
| 29>    C       -1.38528         9.05488         7.48213
| 30>   Br        0.66926        10.32849         9.06869
| 31>    C       -4.95787         5.88557         5.74432
| 32>    O       -5.37636         6.34851         4.68447
| 33>    C       -5.41601         4.65466         6.39155
| 34>    C       -6.42093         3.88935         5.84591
| 35>    N       -6.99031         4.26963         4.69707
| 36>    C       -8.01135         3.67656         4.03551
| 37>    S       -8.77196         2.23047         4.62011
| 38>    C       -9.86292         2.29341         3.27252
| 39>    N      -10.82615         1.27743         3.16479
| 40>    O      -11.58533         1.32078         2.21637
| 41>    O      -10.82431         0.42805         4.03661
| 42>    C       -9.65576         3.35494         2.43720
| 43>    C       -8.58246         4.17434         2.85057
| 44>    C       -8.11365         5.34359         2.17861
| 45>    C       -8.75679         5.97246         1.15791
| 46>    C       -8.24447         7.12498         0.53624
| 47>    C       -8.90252         7.85897        -0.41595
| 48>    C       -8.43206         9.03751        -1.04967
| 49>    C       -9.31827         9.60331        -1.91139
| 50>    C      -10.54592         8.90629        -2.01045
| 51>    S      -10.51886         7.48244        -0.99144
| 52>    C      -11.65820         9.27017        -2.73924
| 53>    C      -11.83351        10.43198        -3.52818
| 54>    C      -13.07630        10.56486        -4.06053
| 55>    C      -13.96455         9.50794        -3.72788
| 56>    S      -13.12664         8.31467        -2.73293
| 57>    C      -15.27957         9.41832        -4.07350
| 58>    N      -16.07994         8.38477        -3.69671
| 59>    C      -17.40840         8.21662        -3.90401
| 60>    S      -18.22768         7.03830        -2.91962
| 61>    C      -19.74324         7.52148        -3.62067
| 62>    N      -20.88344         6.83770        -3.18030
| 63>    O      -21.96267         7.17979        -3.61913
| 64>    O      -20.69262         5.94646        -2.36831
| 65>    C      -19.62254         8.52035        -4.54423
| 66>    C      -18.28470         8.92769        -4.74198
| 67>    C      -17.90287         9.88415        -5.74156
| 68>    C      -18.69831        10.90035        -6.15344
| 69>    C      -18.29951        11.79658        -7.17229
| 70>    C      -19.00030        12.82841        -7.72054
| 71>    C      -20.38325        13.24500        -7.61896
| 72>    C      -21.47361        12.44733        -7.38424
| 73>    C      -22.80165        12.92362        -7.36115
| 74>    N      -23.89603        13.26629        -7.31674
| 75>    C      -21.42197        11.04643        -7.23400
| 76>    N      -21.44102         9.90225        -7.13973
| 77>    C      -20.44282        14.64420        -8.03518
| 78>    C      -19.18930        15.01096        -8.58824
| 79>    C      -18.25892        13.87229        -8.47843
| 80>    O      -17.11290        13.80707        -8.86370
| 81>    C      -18.94633        16.26035        -9.10501
| 82>    C      -19.98458        17.19677        -9.06469
| 83>    C      -21.22725        16.82669        -8.49602
| 84>    C      -21.47606        15.56039        -7.98036
| 85>    S      -22.36402        18.13954        -8.53494
| 86>    C      -21.17308        19.15305        -9.30716
| 87>    C      -19.98417        18.54189        -9.52471
| 88>   Br      -21.61086        20.92155        -9.75163
| 89>    H       -3.34232         8.23021         5.57991
| 90>    H       -2.66133         5.28361         9.57585
| 91>    H       -1.35066         9.82687         6.73522
| 92>    H       -6.78587         2.98323         6.31140
| 93>    H       -6.59223         5.14904         4.31503
| 94>    H      -10.25101         3.51485         1.55731
| 95>    H       -7.17972         5.77046         2.51943
| 96>    H       -9.71292         5.60836         0.80781
| 97>    H       -7.26789         7.47633         0.84265
| 98>    H       -7.45332         9.42975        -0.83755
| 99>    H       -9.12887        10.50120        -2.47131
|100>    H      -11.03946        11.14249        -3.66751
|101>    H      -13.39332        11.38804        -4.67512
|102>    H      -15.73655        10.21922        -4.63041
|103>    H      -15.64240         7.70364        -3.08373
|104>    H      -20.45884         8.89691        -5.10813
|105>    H      -16.94715         9.74017        -6.22880
|106>    H      -19.63923        11.06724        -5.65323
|107>    H      -17.27379        11.71566        -7.52036
|108>    H      -17.98510        16.50810        -9.52738
|109>    H      -22.43687        15.32827        -7.55165
|110>    H      -19.14051        19.01854        -9.98969
|111> *
|112>
|113>                          ****END OF INPUT****

CARTESIAN COORDINATES (ANGSTROEM)
---------------------------------
  C     -4.667030    4.461910    7.611120
  C     -4.783440    3.422080    8.497280
  C     -4.016570    3.292200    9.672790
  N     -3.419510    3.137280   10.640900
  C     -5.685150    2.350410    8.337770
  N     -6.405150    1.461220    8.242970
  C     -3.746420    5.590490    7.731700
  C     -3.916900    6.445760    6.611630
  C     -3.190320    7.599520    6.441830
  C     -2.250190    7.928460    7.424000
  C     -2.087190    7.071000    8.538110
  C     -2.822030    5.902610    8.709050
  S     -0.876610    7.666890    9.630870
  C     -0.608550    9.041520    8.591910
  C     -1.385280    9.054880    7.482130
  Br     0.669260   10.328490    9.068690
  C     -4.957870    5.885570    5.744320
  O     -5.376360    6.348510    4.684470
  C     -5.416010    4.654660    6.391550
  C     -6.420930    3.889350    5.845910
  N     -6.990310    4.269630    4.697070
  C     -8.011350    3.676560    4.035510
  S     -8.771960    2.230470    4.620110
  C     -9.862920    2.293410    3.272520
  N    -10.826150    1.277430    3.164790
  O    -11.585330    1.320780    2.216370
  O    -10.824310    0.428050    4.036610
  C     -9.655760    3.354940    2.437200
  C     -8.582460    4.174340    2.850570
  C     -8.113650    5.343590    2.178610
  C     -8.756790    5.972460    1.157910
  C     -8.244470    7.124980    0.536240
  C     -8.902520    7.858970   -0.415950
  C     -8.432060    9.037510   -1.049670
  C     -9.318270    9.603310   -1.911390
  C    -10.545920    8.906290   -2.010450
  S    -10.518860    7.482440   -0.991440
  C    -11.658200    9.270170   -2.739240
  C    -11.833510   10.431980   -3.528180
  C    -13.076300   10.564860   -4.060530
  C    -13.964550    9.507940   -3.727880
  S    -13.126640    8.314670   -2.732930
  C    -15.279570    9.418320   -4.073500
  N    -16.079940    8.384770   -3.696710
  C    -17.408400    8.216620   -3.904010
  S    -18.227680    7.038300   -2.919620
  C    -19.743240    7.521480   -3.620670
  N    -20.883440    6.837700   -3.180300
  O    -21.962670    7.179790   -3.619130
  O    -20.692620    5.946460   -2.368310
  C    -19.622540    8.520350   -4.544230
  C    -18.284700    8.927690   -4.741980
  C    -17.902870    9.884150   -5.741560
  C    -18.698310   10.900350   -6.153440
  C    -18.299510   11.796580   -7.172290
  C    -19.000300   12.828410   -7.720540
  C    -20.383250   13.245000   -7.618960
  C    -21.473610   12.447330   -7.384240
  C    -22.801650   12.923620   -7.361150
  N    -23.896030   13.266290   -7.316740
  C    -21.421970   11.046430   -7.234000
  N    -21.441020    9.902250   -7.139730
  C    -20.442820   14.644200   -8.035180
  C    -19.189300   15.010960   -8.588240
  C    -18.258920   13.872290   -8.478430
  O    -17.112900   13.807070   -8.863700
  C    -18.946330   16.260350   -9.105010
  C    -19.984580   17.196770   -9.064690
  C    -21.227250   16.826690   -8.496020
  C    -21.476060   15.560390   -7.980360
  S    -22.364020   18.139540   -8.534940
  C    -21.173080   19.153050   -9.307160
  C    -19.984170   18.541890   -9.524710
  Br   -21.610860   20.921550   -9.751630
  H     -3.342320    8.230210    5.579910
  H     -2.661330    5.283610    9.575850
  H     -1.350660    9.826870    6.735220
  H     -6.785870    2.983230    6.311400
  H     -6.592230    5.149040    4.315030
  H    -10.251010    3.514850    1.557310
  H     -7.179720    5.770460    2.519430
  H     -9.712920    5.608360    0.807810
  H     -7.267890    7.476330    0.842650
  H     -7.453320    9.429750   -0.837550
  H     -9.128870   10.501200   -2.471310
  H    -11.039460   11.142490   -3.667510
  H    -13.393320   11.388040   -4.675120
  H    -15.736550   10.219220   -4.630410
  H    -15.642400    7.703640   -3.083730
  H    -20.458840    8.896910   -5.108130
  H    -16.947150    9.740170   -6.228800
  H    -19.639230   11.067240   -5.653230
  H    -17.273790   11.715660   -7.520360
  H    -17.985100   16.508100   -9.527380
  H    -22.436870   15.328270   -7.551650
  H    -19.140510   19.018540   -9.989690

 Total Charge           Charge          ....    0
 Multiplicity           Mult            ....    1
 Number of Electrons    NEL             ....  604
 Basis Dimension        Dim             .... 1206

ORBITAL ENERGIES
----------------

  NO   OCC          E(Eh)            E(eV)
   0   2.0000    -482.891900    -13140.1566
   1   2.0000    -482.889491    -13140.0911
   2   2.0000     -88.992322     -2421.6042
   3   2.0000     -88.988658     -2421.5045
   4   2.0000     -88.983395     -2421.3613
   5   2.0000     -88.980269     -2421.2762
   6   2.0000     -88.963545     -2420.8211
   7   2.0000     -88.954835     -2420.5841
   8   2.0000     -62.569622     -1702.6060
   9   2.0000     -62.567200     -1702.5401
  10   2.0000     -56.403582     -1534.8195
  11   2.0000     -56.401154     -1534.7534
  12   2.0000     -56.400848     -1534.7451
  13   2.0000     -56.400818     -1534.7443
  14   2.0000     -56.398430     -1534.6793
  15   2.0000     -56.398399     -1534.6785
  16   2.0000     -19.242037      -523.6025
  17   2.0000     -19.241233      -523.5806
  18   2.0000     -19.238994      -523.5196
  19   2.0000     -19.235102      -523.4137
  20   2.0000     -19.234819      -523.4060
  21   2.0000     -19.220022      -523.0034
  22   2.0000     -14.653318      -398.7370
  23   2.0000     -14.646843      -398.5609
  24   2.0000     -14.503235      -394.6531
  25   2.0000     -14.499946      -394.5636
  26   2.0000     -14.423470      -392.4826
  27   2.0000     -14.423059      -392.4714
  28   2.0000     -14.420681      -392.4067
  29   2.0000     -14.419295      -392.3690
  30   2.0000     -10.385365      -282.6002
  31   2.0000     -10.382967      -282.5349
  32   2.0000     -10.374264      -282.2981
  33   2.0000     -10.373203      -282.2692
  34   2.0000     -10.370634      -282.1993
  35   2.0000     -10.366074      -282.0752
  36   2.0000     -10.363417      -282.0029
  37   2.0000     -10.351056      -281.6665
  38   2.0000     -10.350740      -281.6580
  39   2.0000     -10.350233      -281.6442
  40   2.0000     -10.349030      -281.6114
  41   2.0000     -10.347217      -281.5621
  42   2.0000     -10.346812      -281.5511
  43   2.0000     -10.343554      -281.4624
  44   2.0000     -10.333634      -281.1925
  45   2.0000     -10.330784      -281.1149
  46   2.0000     -10.326909      -281.0095
  47   2.0000     -10.326405      -280.9958
  48   2.0000     -10.325787      -280.9790
  49   2.0000     -10.324277      -280.9379
  50   2.0000     -10.323068      -280.9050
  51   2.0000     -10.322445      -280.8880
  52   2.0000     -10.321422      -280.8602
  53   2.0000     -10.320718      -280.8410
  54   2.0000     -10.320279      -280.8291
  55   2.0000     -10.318259      -280.7741
  56   2.0000     -10.317282      -280.7475
  57   2.0000     -10.315697      -280.7044
  58   2.0000     -10.314295      -280.6662
  59   2.0000     -10.314152      -280.6623
  60   2.0000     -10.313909      -280.6557
  61   2.0000     -10.312485      -280.6170
  62   2.0000     -10.311951      -280.6025
  63   2.0000     -10.310847      -280.5724
  64   2.0000     -10.310560      -280.5646
  65   2.0000     -10.310177      -280.5542
  66   2.0000     -10.308592      -280.5110
  67   2.0000     -10.306504      -280.4542
  68   2.0000     -10.304287      -280.3939
  69   2.0000     -10.303903      -280.3835
  70   2.0000     -10.303684      -280.3775
  71   2.0000     -10.303148      -280.3629
  72   2.0000     -10.301569      -280.3199
  73   2.0000     -10.301129      -280.3080
  74   2.0000     -10.300255      -280.2842
  75   2.0000     -10.299701      -280.2691
  76   2.0000     -10.299238      -280.2565
  77   2.0000     -10.298044      -280.2240
  78   2.0000     -10.295113      -280.1443
  79   2.0000     -10.294188      -280.1191
  80   2.0000     -10.293029      -280.0875
  81   2.0000     -10.287520      -279.9377
  82   2.0000      -8.799064      -239.4347
  83   2.0000      -8.796636      -239.3686
  84   2.0000      -8.087471      -220.0713
  85   2.0000      -8.084545      -219.9917
  86   2.0000      -8.079351      -219.8503
  87   2.0000      -8.076188      -219.7643
  88   2.0000      -8.059987      -219.3234
  89   2.0000      -8.051194      -219.0841
  90   2.0000      -6.635418      -180.5589
  91   2.0000      -6.632936      -180.4914
  92   2.0000      -6.620781      -180.1606
  93   2.0000      -6.620562      -180.1547
  94   2.0000      -6.618369      -180.0950
  95   2.0000      -6.618163      -180.0894
  96   2.0000      -6.057122      -164.8227
  97   2.0000      -6.054393      -164.7484
  98   2.0000      -6.052776      -164.7044
  99   2.0000      -6.049824      -164.6241
 100   2.0000      -6.049005      -164.6018
 101   2.0000      -6.048938      -164.6000
 102   2.0000      -6.045873      -164.5166
 103   2.0000      -6.045730      -164.5127
 104   2.0000      -6.044748      -164.4860
 105   2.0000      -6.041595      -164.4002
 106   2.0000      -6.040619      -164.3736
 107   2.0000      -6.037444      -164.2872
 108   2.0000      -6.029853      -164.0807
 109   2.0000      -6.025892      -163.9728
 110   2.0000      -6.020929      -163.8378
 111   2.0000      -6.020596      -163.8287
 112   2.0000      -6.017031      -163.7318
 113   2.0000      -6.011982      -163.5944
 114   2.0000      -2.751232       -74.8648
 115   2.0000      -2.748848       -74.8000
 116   2.0000      -2.747174       -74.7544
 117   2.0000      -2.747048       -74.7510
 118   2.0000      -2.744714       -74.6875
 119   2.0000      -2.744538       -74.6827
 120   2.0000      -2.735398       -74.4340
 121   2.0000      -2.735360       -74.4329
 122   2.0000      -2.732974       -74.3680
 123   2.0000      -2.732964       -74.3677
 124   2.0000      -1.323553       -36.0157
 125   2.0000      -1.316607       -35.8267
 126   2.0000      -1.153300       -31.3829
 127   2.0000      -1.142893       -31.0997
 128   2.0000      -1.136126       -30.9156
 129   2.0000      -1.134803       -30.8796
 130   2.0000      -1.107455       -30.1354
 131   2.0000      -1.106377       -30.1061
 132   2.0000      -1.031099       -28.0576
 133   2.0000      -1.028388       -27.9839
 134   2.0000      -1.020344       -27.7650
 135   2.0000      -1.019109       -27.7314
 136   2.0000      -1.013473       -27.5780
 137   2.0000      -1.012925       -27.5631
 138   2.0000      -1.004715       -27.3397
 139   2.0000      -1.000847       -27.2344
 140   2.0000      -1.000783       -27.2327
 141   2.0000      -0.997208       -27.1354
 142   2.0000      -0.994954       -27.0741
 143   2.0000      -0.984311       -26.7845
 144   2.0000      -0.950877       -25.8747
 145   2.0000      -0.949795       -25.8452
 146   2.0000      -0.936641       -25.4873
 147   2.0000      -0.931355       -25.3435
 148   2.0000      -0.916747       -24.9460
 149   2.0000      -0.914230       -24.8775
 150   2.0000      -0.913749       -24.8644
 151   2.0000      -0.907981       -24.7074
 152   2.0000      -0.900172       -24.4949
 153   2.0000      -0.894296       -24.3350
 154   2.0000      -0.891934       -24.2708
 155   2.0000      -0.891128       -24.2488
 156   2.0000      -0.882427       -24.0121
 157   2.0000      -0.874163       -23.7872
 158   2.0000      -0.866495       -23.5785
 159   2.0000      -0.856891       -23.3172
 160   2.0000      -0.856055       -23.2944
 161   2.0000      -0.840112       -22.8606
 162   2.0000      -0.837912       -22.8007
 163   2.0000      -0.836250       -22.7555
 164   2.0000      -0.834084       -22.6966
 165   2.0000      -0.830290       -22.5934
 166   2.0000      -0.806064       -21.9341
 167   2.0000      -0.798021       -21.7153
 168   2.0000      -0.789698       -21.4888
 169   2.0000      -0.774133       -21.0652
 170   2.0000      -0.770881       -20.9767
 171   2.0000      -0.765545       -20.8315
 172   2.0000      -0.760333       -20.6897
 173   2.0000      -0.746901       -20.3242
 174   2.0000      -0.735811       -20.0224
 175   2.0000      -0.724258       -19.7081
 176   2.0000      -0.718819       -19.5601
 177   2.0000      -0.708279       -19.2732
 178   2.0000      -0.703981       -19.1563
 179   2.0000      -0.698181       -18.9985
 180   2.0000      -0.695659       -18.9299
 181   2.0000      -0.687650       -18.7119
 182   2.0000      -0.685331       -18.6488
 183   2.0000      -0.674872       -18.3642
 184   2.0000      -0.670156       -18.2359
 185   2.0000      -0.667894       -18.1743
 186   2.0000      -0.662392       -18.0246
 187   2.0000      -0.657744       -17.8981
 188   2.0000      -0.656143       -17.8546
 189   2.0000      -0.643240       -17.5034
 190   2.0000      -0.641556       -17.4576
 191   2.0000      -0.638427       -17.3725
 192   2.0000      -0.637244       -17.3403
 193   2.0000      -0.634766       -17.2729
 194   2.0000      -0.630955       -17.1691
 195   2.0000      -0.628698       -17.1077
 196   2.0000      -0.628296       -17.0968
 197   2.0000      -0.627562       -17.0768
 198   2.0000      -0.625410       -17.0183
 199   2.0000      -0.614547       -16.7227
 200   2.0000      -0.609121       -16.5750
 201   2.0000      -0.604638       -16.4530
 202   2.0000      -0.602705       -16.4004
 203   2.0000      -0.599858       -16.3230
 204   2.0000      -0.594837       -16.1863
 205   2.0000      -0.588348       -16.0098
 206   2.0000      -0.587414       -15.9844
 207   2.0000      -0.586585       -15.9618
 208   2.0000      -0.574281       -15.6270
 209   2.0000      -0.569703       -15.5024
 210   2.0000      -0.568162       -15.4605
 211   2.0000      -0.563657       -15.3379
 212   2.0000      -0.560321       -15.2471
 213   2.0000      -0.556420       -15.1410
 214   2.0000      -0.554746       -15.0954
 215   2.0000      -0.553114       -15.0510
 216   2.0000      -0.551082       -14.9957
 217   2.0000      -0.547357       -14.8943
 218   2.0000      -0.544933       -14.8284
 219   2.0000      -0.543187       -14.7809
 220   2.0000      -0.540693       -14.7130
 221   2.0000      -0.540113       -14.6972
 222   2.0000      -0.533951       -14.5295
 223   2.0000      -0.531314       -14.4578
 224   2.0000      -0.527183       -14.3454
 225   2.0000      -0.525073       -14.2880
 226   2.0000      -0.519433       -14.1345
 227   2.0000      -0.517519       -14.0824
 228   2.0000      -0.516072       -14.0430
 229   2.0000      -0.513093       -13.9620
 230   2.0000      -0.511037       -13.9060
 231   2.0000      -0.508071       -13.8253
 232   2.0000      -0.507056       -13.7977
 233   2.0000      -0.504558       -13.7297
 234   2.0000      -0.504358       -13.7243
 235   2.0000      -0.503669       -13.7055
 236   2.0000      -0.501246       -13.6396
 237   2.0000      -0.497732       -13.5440
 238   2.0000      -0.494634       -13.4597
 239   2.0000      -0.485484       -13.2107
 240   2.0000      -0.485267       -13.2048
 241   2.0000      -0.484440       -13.1823
 242   2.0000      -0.482453       -13.1282
 243   2.0000      -0.479202       -13.0397
 244   2.0000      -0.473954       -12.8969
 245   2.0000      -0.468910       -12.7597
 246   2.0000      -0.467824       -12.7301
 247   2.0000      -0.466874       -12.7043
 248   2.0000      -0.464622       -12.6430
 249   2.0000      -0.461201       -12.5499
 250   2.0000      -0.456929       -12.4337
 251   2.0000      -0.456459       -12.4209
 252   2.0000      -0.456431       -12.4201
 253   2.0000      -0.454041       -12.3551
 254   2.0000      -0.451849       -12.2954
 255   2.0000      -0.450516       -12.2592
 256   2.0000      -0.449947       -12.2437
 257   2.0000      -0.449311       -12.2264
 258   2.0000      -0.448212       -12.1965
 259   2.0000      -0.446820       -12.1586
 260   2.0000      -0.445492       -12.1225
 261   2.0000      -0.441019       -12.0007
 262   2.0000      -0.438216       -11.9245
 263   2.0000      -0.433446       -11.7947
 264   2.0000      -0.433187       -11.7876
 265   2.0000      -0.432085       -11.7576
 266   2.0000      -0.427503       -11.6329
 267   2.0000      -0.424235       -11.5440
 268   2.0000      -0.419432       -11.4133
 269   2.0000      -0.416316       -11.3285
 270   2.0000      -0.415347       -11.3022
 271   2.0000      -0.413311       -11.2468
 272   2.0000      -0.405808       -11.0426
 273   2.0000      -0.396418       -10.7871
 274   2.0000      -0.392001       -10.6669
 275   2.0000      -0.390578       -10.6282
 276   2.0000      -0.388604       -10.5744
 277   2.0000      -0.382606       -10.4112
 278   2.0000      -0.381385       -10.3780
 279   2.0000      -0.380864       -10.3638
 280   2.0000      -0.378745       -10.3062
 281   2.0000      -0.378224       -10.2920
 282   2.0000      -0.377579       -10.2745
 283   2.0000      -0.371705       -10.1146
 284   2.0000      -0.370604       -10.0847
 285   2.0000      -0.363442        -9.8898
 286   2.0000      -0.361908        -9.8480
 287   2.0000      -0.356869        -9.7109
 288   2.0000      -0.354261        -9.6399
 289   2.0000      -0.353124        -9.6090
 290   2.0000      -0.345738        -9.4080
 291   2.0000      -0.341517        -9.2932
 292   2.0000      -0.336956        -9.1690
 293   2.0000      -0.326930        -8.8962
 294   2.0000      -0.325519        -8.8578
 295   2.0000      -0.320256        -8.7146
 296   2.0000      -0.308789        -8.4026
 297   2.0000      -0.301635        -8.2079
 298   2.0000      -0.299199        -8.1416
 299   2.0000      -0.289526        -7.8784
 300   2.0000      -0.271352        -7.3839
 301   2.0000      -0.219864        -5.9828
 302   0.0000      -0.101438        -2.7603
 303   0.0000      -0.094488        -2.5712
 304   0.0000      -0.081529        -2.2185
 305   0.0000      -0.073323        -1.9952
 306   0.0000      -0.063709        -1.7336

MULLIKEN ATOMIC CHARGES
-----------------------
   0 C :    0.328070
   1 C :   -0.342230
   2 C :   -0.185037
   3 N :    0.150601
   4 C :   -0.195346
   5 N :    0.145772
   6 C :    0.007199
   7 C :   -0.003195
   8 C :   -0.069036
   9 C :    0.116612
  10 C :   -0.091656
  11 C :   -0.019050
  12 S :    0.193066
  13 C :   -0.125374
  14 C :    0.037775
  15 Br:    0.027862
  16 C :    0.164502
  17 O :   -0.227376
  18 C :   -0.132700
  19 C :    0.030619
  20 N :   -0.004916
  21 C :   -0.123691
  22 S :    0.179201
  23 C :    0.003054
  24 N :    0.273781
  25 O :   -0.244309
  26 O :   -0.253770
  27 C :    0.004561
  28 C :    0.149482
  29 C :   -0.060476
  30 C :    0.011991
  31 C :   -0.020990
  32 C :   -0.012685
  33 C :    0.037394
  34 C :    0.028026
  35 C :   -0.047561
  36 S :    0.067858
  37 C :   -0.050368
  38 C :    0.025920
  39 C :    0.037386
  40 C :   -0.044500
  41 S :    0.052219
  42 C :    0.019150
  43 N :   -0.006672
  44 C :   -0.093946
  45 S :    0.170957
  46 C :   -0.008770
  47 N :    0.277627
  48 O :   -0.236449
  49 O :   -0.268792
  50 C :    0.024030
  51 C :    0.067191
  52 C :   -0.028684
  53 C :    0.009277
  54 C :    0.020839
  55 C :   -0.107935
  56 C :    0.287544
  57 C :   -0.337562
  58 C :   -0.177470
  59 N :    0.154144
  60 C :   -0.182041
  61 N :    0.155949
  62 C :    0.002134
  63 C :   -0.003490
  64 C :    0.139791
  65 O :   -0.147818
  66 C :   -0.069959
  67 C :    0.113568
  68 C :   -0.091548
  69 C :   -0.017181
  70 S :    0.189232
  71 C :   -0.126142
  72 C :    0.043007
  73 Br:    0.026927
  74 H :   -0.011052
  75 H :   -0.005144
  76 H :   -0.001596
  77 H :    0.046658
  78 H :    0.184317
  79 H :    0.013359
  80 H :   -0.006921
  81 H :   -0.000626
  82 H :   -0.012605
  83 H :   -0.011642
  84 H :   -0.011785
  85 H :   -0.009224
  86 H :   -0.006285
  87 H :    0.015333
  88 H :    0.145869
  89 H :    0.013811
  90 H :    0.022606
  91 H :    0.022631
  92 H :    0.010820
  93 H :   -0.009742
  94 H :   -0.001898
  95 H :   -0.002475
Sum of atomic charges:   -0.0000000

LOEWDIN ATOMIC CHARGES
----------------------
   0 C :    0.078236
   1 C :   -0.148048
   2 C :   -0.019909
   3 N :   -0.053137
   4 C :   -0.020571
   5 N :   -0.052116
   6 C :   -0.017592
   7 C :   -0.051659
   8 C :    0.023550
   9 C :   -0.034207
  10 C :   -0.143720
  11 C :   -0.006975
  12 S :    0.438957
  13 C :   -0.271284
  14 C :   -0.070554
  15 Br:    0.139835
  16 C :    0.096791
  17 O :   -0.180915
  18 C :   -0.147410
  19 C :    0.111503
  20 N :    0.082875
  21 C :   -0.119256
  22 S :    0.470481
  23 C :   -0.197906
  24 N :    0.272669
  25 O :   -0.211307
  26 O :   -0.220451
  27 C :    0.002856
  28 C :   -0.081806
  29 C :   -0.036903
  30 C :   -0.017134
  31 C :   -0.061538
  32 C :   -0.139154
  33 C :   -0.034557
  34 C :   -0.027285
  35 C :   -0.183765
  36 S :    0.362546
  37 C :   -0.170831
  38 C :   -0.037784
  39 C :   -0.027438
  40 C :   -0.183870
  41 S :    0.343209
  42 C :   -0.007825
  43 N :    0.050688
  44 C :   -0.090394
  45 S :    0.452449
  46 C :   -0.207658
  47 N :    0.272763
  48 O :   -0.204128
  49 O :   -0.234724
  50 C :    0.017173
  51 C :   -0.118704
  52 C :    0.024821
  53 C :   -0.034816
  54 C :    0.065384
  55 C :   -0.096009
  56 C :    0.073009
  57 C :   -0.140088
  58 C :   -0.019663
  59 N :   -0.046979
  60 C :   -0.013203
  61 N :   -0.049299
  62 C :   -0.018928
  63 C :   -0.052861
  64 C :    0.082788
  65 O :   -0.147404
  66 C :    0.022897
  67 C :   -0.032762
  68 C :   -0.143056
  69 C :   -0.010772
  70 S :    0.435077
  71 C :   -0.270727
  72 C :   -0.070419
  73 Br:    0.139071
  74 H :    0.040915
  75 H :    0.042190
  76 H :    0.039077
  77 H :    0.036767
  78 H :    0.084396
  79 H :    0.045716
  80 H :    0.030177
  81 H :    0.022807
  82 H :    0.034634
  83 H :    0.034283
  84 H :    0.032601
  85 H :    0.034089
  86 H :    0.035470
  87 H :    0.037377
  88 H :    0.087598
  89 H :    0.047584
  90 H :    0.035029
  91 H :    0.034684
  92 H :    0.042440
  93 H :    0.041420
  94 H :    0.041476
  95 H :    0.039140

  Mayer bond orders larger than 0.100000
B(  0-C ,  1-C ) :   1.6275 B(  0-C ,  6-C ) :   1.0022 B(  0-C , 18-C ) :   1.0990
B(  1-C ,  2-C ) :   1.1432 B(  1-C ,  4-C ) :   1.1473 B(  2-C ,  3-N ) :   2.9685
B(  4-C ,  5-N ) :   2.9554 B(  6-C ,  7-C ) :   1.2719 B(  6-C , 11-C ) :   1.4299
B(  7-C ,  8-C ) :   1.4204 B(  7-C , 16-C ) :   0.9852 B(  8-C ,  9-C ) :   1.2441
B(  8-C , 74-H ) :   1.0180 B(  9-C , 10-C ) :   1.3086 B(  9-C , 14-C ) :   1.1637
B( 10-C , 11-C ) :   1.3181 B( 10-C , 12-S ) :   1.0909 B( 11-C , 75-H ) :   0.9801
B( 12-S , 13-C ) :   1.0893 B( 13-C , 14-C ) :   1.6160 B( 13-C , 15-Br) :   1.0209
B( 14-C , 76-H ) :   1.0000 B( 16-C , 17-O ) :   2.0214 B( 16-C , 18-C ) :   1.0117
B( 17-O , 78-H ) :   0.1459 B( 18-C , 19-C ) :   1.4426 B( 19-C , 20-N ) :   1.3471
B( 19-C , 77-H ) :   0.9318 B( 20-N , 21-C ) :   1.1951 B( 20-N , 78-H ) :   0.8200
B( 21-C , 22-S ) :   1.1295 B( 21-C , 28-C ) :   1.3634 B( 22-S , 23-C ) :   1.0830
B( 23-C , 24-N ) :   0.9607 B( 23-C , 27-C ) :   1.5120 B( 24-N , 25-O ) :   1.5373
B( 24-N , 26-O ) :   1.5192 B( 25-O , 26-O ) :   0.2636 B( 27-C , 28-C ) :   1.2100
B( 27-C , 79-H ) :   1.0000 B( 28-C , 29-C ) :   1.0679 B( 29-C , 30-C ) :   1.6703
B( 29-C , 80-H ) :   0.9770 B( 30-C , 31-C ) :   1.1478 B( 30-C , 81-H ) :   0.9726
B( 31-C , 32-C ) :   1.5661 B( 31-C , 82-H ) :   0.9849 B( 32-C , 33-C ) :   1.1363
B( 32-C , 36-S ) :   1.0323 B( 33-C , 34-C ) :   1.5982 B( 33-C , 83-H ) :   0.9998
B( 34-C , 35-C ) :   1.1816 B( 34-C , 84-H ) :   0.9939 B( 35-C , 36-S ) :   1.0368
B( 35-C , 37-C ) :   1.5300 B( 37-C , 38-C ) :   1.1798 B( 37-C , 41-S ) :   1.0422
B( 38-C , 39-C ) :   1.6221 B( 38-C , 85-H ) :   0.9919 B( 39-C , 40-C ) :   1.1448
B( 39-C , 86-H ) :   0.9944 B( 40-C , 41-S ) :   1.0057 B( 40-C , 42-C ) :   1.6189
B( 42-C , 43-N ) :   1.1466 B( 42-C , 87-H ) :   0.9522 B( 43-N , 44-C ) :   1.2255
B( 43-N , 88-H ) :   0.9001 B( 44-C , 45-S ) :   1.1424 B( 44-C , 51-C ) :   1.3436
B( 45-S , 46-C ) :   1.0651 B( 46-C , 47-N ) :   0.9663 B( 46-C , 50-C ) :   1.5051
B( 47-N , 48-O ) :   1.5433 B( 47-N , 49-O ) :   1.5038 B( 48-O , 49-O ) :   0.2599
B( 50-C , 51-C ) :   1.2355 B( 50-C , 89-H ) :   0.9876 B( 51-C , 52-C ) :   1.0600
B( 52-C , 53-C ) :   1.6727 B( 52-C , 90-H ) :   0.9683 B( 53-C , 54-C ) :   1.1350
B( 53-C , 91-H ) :   0.9650 B( 54-C , 55-C ) :   1.6144 B( 54-C , 92-H ) :   0.9489
B( 55-C , 56-C ) :   1.0366 B( 55-C , 64-C ) :   0.9436 B( 56-C , 57-C ) :   1.6406
B( 56-C , 62-C ) :   1.0133 B( 57-C , 58-C ) :   1.1251 B( 57-C , 60-C ) :   1.1705
B( 58-C , 59-N ) :   2.9845 B( 60-C , 61-N ) :   2.9454 B( 62-C , 63-C ) :   1.2740
B( 62-C , 69-C ) :   1.4138 B( 63-C , 64-C ) :   0.9257 B( 63-C , 66-C ) :   1.4270
B( 64-C , 65-O ) :   2.2562 B( 66-C , 67-C ) :   1.2504 B( 66-C , 93-H ) :   1.0160
B( 67-C , 68-C ) :   1.3062 B( 67-C , 72-C ) :   1.1657 B( 68-C , 69-C ) :   1.3283
B( 68-C , 70-S ) :   1.0868 B( 69-C , 94-H ) :   0.9810 B( 70-S , 71-C ) :   1.0879
B( 71-C , 72-C ) :   1.6170 B( 71-C , 73-Br) :   1.0212 B( 72-C , 95-H ) :   0.9994

-----------------------------------------------------------------------------
         ABSORPTION SPECTRUM VIA TRANSITION ELECTRIC DIPOLE MOMENTS
-----------------------------------------------------------------------------
State   Energy  Wavelength   fosc         T2         TX        TY        TZ
        (cm-1)    (nm)                  (au**2)     (au)      (au)      (au)
-----------------------------------------------------------------------------
   0   13163.4    759.7   1.714780348  42.88594  -4.72239   2.31144  -3.90413
   1   15580.8    641.8   0.242865771   5.13161   1.48275   0.07008   1.71118
   2   18007.8    555.3   0.308489068   5.63969   1.99826  -0.83178   0.97713
   3   19736.3    506.7   0.017687031   0.29503  -0.12038   0.48551  -0.21170
   4   22813.3    438.3   0.169188302   2.44150  -0.24538  -1.45061   0.52632
   5   23462.7    426.2   0.045447986   0.63769  -0.30049  -0.72669  -0.13900
   6   23630.8    423.2   0.135209447   1.88366  -0.86607  -0.03418   1.06415
   7   24416.4    409.6   0.646343616   8.71480   1.87806  -0.63030   2.18870
   8   26150.7    382.4   0.007766105   0.09777   0.14693  -0.19359   0.19673
   9   26830.3    372.7   0.236723426   2.90463  -0.83060  -1.43383   0.39859
  10   27541.9    363.1   0.197630758   2.36231  -0.17827  -1.50697   0.24409
  11   27888.4    358.6   0.326545343   3.85474   1.25589   1.50581  -0.10011
  12   29411.6    340.0   0.093635183   1.04809  -0.24774   0.98928  -0.08960
  13   29616.3    337.7   0.420197430   4.67088  -1.49219  -1.55487  -0.16316
  14   29830.9    335.2   0.217106287   2.39597   1.16659   0.99308   0.22102
  15   30153.1    331.6   0.028059248   0.30635   0.13528   0.53567  -0.03331
  16   30216.0    331.0   0.032378642   0.35277   0.45226   0.37578  -0.08379
  17   30321.0    329.8   0.061992318   0.67309   0.74308   0.31164  -0.15427
  18   30623.9    326.5   0.003421778   0.03678  -0.18743  -0.03340   0.02318
  19   30880.9    323.8   0.008572831   0.09139  -0.06138  -0.06601  -0.28856
  20   31938.0    313.1   0.661170080   6.81523  -0.81311  -2.32766   0.85795
  21   32497.6    307.7   0.079327117   0.80361   0.71207   0.36900   0.40051
  22   32848.9    304.4   0.148054684   1.48380   0.55037   1.01371  -0.39151
  23   33473.8    298.7   0.456164153   4.48634  -0.44543  -1.96014   0.66768
  24   33571.5    297.9   0.364041557   3.56990   0.04415  -1.66584   0.89047
  25   33964.3    294.4   0.071034058   0.68853   0.47809   0.67193  -0.09202
  26   33967.2    294.4   0.033536055   0.32503  -0.35831  -0.44176   0.03873
  27   34139.2    292.9   0.331890950   3.20050   0.45893   1.55638  -0.75337
  28   34496.4    289.9   0.062837765   0.59968  -0.72367  -0.26926   0.05908
  29   34798.3    287.4   0.051629906   0.48845  -0.57938  -0.33292   0.20476
  30   35153.4    284.5   0.397279980   3.72053  -0.79543  -1.66870   0.55069
  31   35494.1    281.7   0.056616961   0.52513   0.00814   0.49125  -0.53267
  32   35516.1    281.6   0.000972653   0.00902   0.00601  -0.04124   0.08532
  33   36058.1    277.3   0.029357433   0.26803   0.47724   0.04333   0.19597
  34   36663.8    272.7   0.031330433   0.28132  -0.00355   0.40116  -0.34696
  35   36698.9    272.5   0.002175708   0.01952  -0.04941  -0.11823   0.05566
  36   36875.3    271.2   0.023433077   0.20920  -0.41454  -0.17782   0.07577
  37   37353.1    267.7   0.038543230   0.33970  -0.05643   0.51385  -0.26921
  38   37498.3    266.7   0.001780963   0.01564   0.04153  -0.08114   0.08560
  39   37650.9    265.6   0.014604845   0.12770  -0.03234  -0.34354   0.09293
  40   38058.6    262.8   0.013384675   0.11578   0.07590   0.23680   0.23226
  41   38135.1    262.2   0.039201362   0.33842  -0.39275   0.29714  -0.30963
  42   38388.7    260.5   0.191647382   1.64352   0.87739   0.20935   0.91097
  43   38886.5    257.2   0.006037295   0.05111   0.15987   0.02138  -0.15841
  44   38996.4    256.4   0.029086811   0.24555   0.43449  -0.17527  -0.16140
  45   39246.0    254.8   0.010989609   0.09219  -0.29640   0.01516   0.06406
  46   39574.1    252.7   0.056729849   0.47193  -0.24931   0.44310  -0.46199
  47   40232.7    248.6   0.076294125   0.62429   0.07994   0.48394  -0.61944

FINAL SINGLE POINT ENERGY    -10416.570811070584

DIPOLE MOMENT
-------------
                                X             Y             Z
Electronic contribution:     30.15233     121.79603      21.56697
Nuclear contribution   :    -25.55472    -116.14329     -23.25123
                        -----------------------------------------
Total Dipole Moment    :      4.59761       5.65274      -1.68426
                        -----------------------------------------
Magnitude (a.u.)       :      7.47851
Magnitude (Debye)      :     19.00887

Rotational constants in cm-1:     0.000847     0.000120     0.000108
Rotational constants in MHz :    25.393943     3.611992     3.242027

                             ****ORCA TERMINATED NORMALLY****
TOTAL RUN TIME: 0 days 0 hours 18 minutes 4 seconds 471 msec
