                         Program Version 4.2.0 -  RELEASE  -
|  1> # ORCA input file
|  2> # SCF done       -198.233802944324          0.000555325304
|  3> ! CAM-B3LYP def2-SVP def2/J RIJCOSX Grid4 TightSCF
|  4> %maxcore 5000
|  5> %tddft
|  6>     Mode sTDDFT
|  7>     Ethresh 5.0
|  8>     maxcore 5000
|  9> end
| 10>
| 11> %pal
| 12>   nprocs 6
| 13>   end
| 14> * xyz 0 1
| 15>    C       -5.04341         2.04189         6.93849
| 16>    C       -4.71069         1.88826         8.26302
| 17>    C       -3.65332         1.07818         8.72277
| 18>    N       -2.80387         0.43987         9.15892
| 19>    C       -5.38482         2.48298         9.34872
| 20>    N       -5.88679         2.90881        10.29058
| 21>    C       -4.40785         1.34121         5.82416
| 22>    C       -5.08940         1.68611         4.63209
| 23>    C       -4.74107         1.17929         3.40550
| 24>    C       -3.66612         0.28387         3.35174
| 25>    C       -2.98740        -0.04970         4.54576
| 26>    C       -3.34057         0.46554         5.78835
| 27>    S       -1.68661        -1.16534         4.25171
| 28>    C       -2.07217        -1.17048         2.55180
| 29>    C       -3.11784        -0.37782         2.21859
| 30>   Br       -1.05830        -2.22321         1.37503
| 31>    C       -6.16180         2.64838         4.95294
| 32>    O       -6.88181         3.22014         4.14750
| 33>    C       -6.12185         2.83877         6.40209
| 34>    C       -6.86781         3.76205         7.11833
| 35>    C       -8.05803         4.40861         6.79779
| 36>    C       -9.07351         4.07245         5.91517
| 37>    C      -10.28402         4.80886         5.80930
| 38>    C      -11.22036         4.24147         5.00060
| 39>    C      -10.79510         3.01772         4.43704
| 40>    S       -9.16192         2.64724         4.93327
| 41>    C      -11.49386         2.18768         3.57690
| 42>    C      -12.81803         2.33211         3.10818
| 43>    C      -13.21848         1.32989         2.27681
| 44>    C      -12.23335         0.33994         2.03602
| 45>    S      -10.77332         0.74021         2.92070
| 46>    C      -12.40819        -0.76326         1.23345
| 47>    C      -11.48488        -1.77138         0.92981
| 48>    C      -10.15619        -1.93883         1.30125
| 49>    C       -9.58425        -3.08520         0.77229
| 50>   Cl       -7.95401        -3.52044         1.07269
| 51>    C      -10.43801        -3.85645        -0.02391
| 52>    S      -11.99900        -3.09018        -0.09791
| 53>    C      -10.15819        -5.06474        -0.68731
| 54>    C      -11.01764        -5.83959        -1.47413
| 55>   Cl      -12.64701        -5.40161        -1.77236
| 56>    C      -10.45138        -6.99239        -1.99481
| 57>    C       -9.12001        -7.15856        -1.63175
| 58>    S       -8.59655        -5.83070        -0.62007
| 59>    C       -8.20023        -8.16902        -1.93647
| 60>    C       -8.39710        -9.30197        -2.69211
| 61>    C       -7.41109       -10.28600        -2.94890
| 62>    C       -7.84028       -11.32755        -3.71607
| 63>    C       -9.19143       -11.22400        -4.10984
| 64>    S       -9.89634        -9.75832        -3.47634
| 65>    C       -9.92739       -12.11289        -4.87727
| 66>    C       -9.49520       -13.32835        -5.44701
| 67>    C      -10.46987       -13.98510        -6.14057
| 68>    C      -11.71520       -13.31845        -6.15631
| 69>    S      -11.61144       -11.82850        -5.25141
| 70>    C      -12.87707       -13.76001        -6.76014
| 71>    C      -14.06354       -13.03505        -6.76796
| 72>    C      -15.28789       -13.41719        -7.27237
| 73>    C      -15.80543       -14.69684        -7.67033
| 74>    C      -15.40812       -15.93196        -7.21048
| 75>    C      -15.99085       -17.14686        -7.61910
| 76>    N      -16.41374       -18.16916        -7.92869
| 77>    C      -14.45432       -16.13285        -6.19381
| 78>    N      -13.72102       -16.36123        -5.33952
| 79>    C      -16.99499       -14.45230        -8.48666
| 80>    C      -17.31165       -13.07237        -8.42209
| 81>    C      -16.28992       -12.38074        -7.60694
| 82>    O      -16.25329       -11.20638        -7.30819
| 83>    C      -18.40261       -12.53486        -9.05850
| 84>    C      -19.21481       -13.39781        -9.80339
| 85>    C      -18.88279       -14.77059        -9.87190
| 86>    C      -17.78223       -15.31684        -9.22062
| 87>    S      -20.01272       -15.65350       -10.85351
| 88>    C      -20.90644       -14.18596       -11.15052
| 89>    C      -20.38639       -13.09049       -10.54882
| 90>   Br      -22.44020       -14.23886       -12.22960
| 91>    H       -5.28043         1.46056         2.51463
| 92>    H       -2.78888         0.18149         6.66875
| 93>    H       -3.48817        -0.26228         1.21624
| 94>    H       -6.45640         4.05331         8.07782
| 95>    H       -8.29000         5.26812         7.41714
| 96>    H      -10.41974         5.73673         6.33648
| 97>    H      -12.18497         4.66833         4.79361
| 98>    H      -13.43633         3.16210         3.39786
| 99>    H      -14.19208         1.26876         1.82377
|100>    H      -13.38444        -0.86779         0.77696
|101>    H       -9.61505        -1.25559         1.92755
|102>    H      -10.99785        -7.67723        -2.61462
|103>    H       -7.20866        -8.04394        -1.52007
|104>    H       -6.41462       -10.19236        -2.55511
|105>    H       -7.22481       -12.16026        -4.00379
|106>    H       -8.48821       -13.68697        -5.33317
|107>    H      -10.33542       -14.93038        -6.63502
|108>    H      -12.82373       -14.71116        -7.26965
|109>    H      -14.02080       -12.00857        -6.41443
|110>    H      -18.62471       -11.48180        -8.98551
|111>    H      -17.56750       -16.36913        -9.30601
|112>    H      -20.80902       -12.10539       -10.62614
|113> *
|114>
|115>                          ****END OF INPUT****

CARTESIAN COORDINATES (ANGSTROEM)
---------------------------------
  C     -5.043410    2.041890    6.938490
  C     -4.710690    1.888260    8.263020
  C     -3.653320    1.078180    8.722770
  N     -2.803870    0.439870    9.158920
  C     -5.384820    2.482980    9.348720
  N     -5.886790    2.908810   10.290580
  C     -4.407850    1.341210    5.824160
  C     -5.089400    1.686110    4.632090
  C     -4.741070    1.179290    3.405500
  C     -3.666120    0.283870    3.351740
  C     -2.987400   -0.049700    4.545760
  C     -3.340570    0.465540    5.788350
  S     -1.686610   -1.165340    4.251710
  C     -2.072170   -1.170480    2.551800
  C     -3.117840   -0.377820    2.218590
  Br    -1.058300   -2.223210    1.375030
  C     -6.161800    2.648380    4.952940
  O     -6.881810    3.220140    4.147500
  C     -6.121850    2.838770    6.402090
  C     -6.867810    3.762050    7.118330
  C     -8.058030    4.408610    6.797790
  C     -9.073510    4.072450    5.915170
  C    -10.284020    4.808860    5.809300
  C    -11.220360    4.241470    5.000600
  C    -10.795100    3.017720    4.437040
  S     -9.161920    2.647240    4.933270
  C    -11.493860    2.187680    3.576900
  C    -12.818030    2.332110    3.108180
  C    -13.218480    1.329890    2.276810
  C    -12.233350    0.339940    2.036020
  S    -10.773320    0.740210    2.920700
  C    -12.408190   -0.763260    1.233450
  C    -11.484880   -1.771380    0.929810
  C    -10.156190   -1.938830    1.301250
  C     -9.584250   -3.085200    0.772290
  Cl    -7.954010   -3.520440    1.072690
  C    -10.438010   -3.856450   -0.023910
  S    -11.999000   -3.090180   -0.097910
  C    -10.158190   -5.064740   -0.687310
  C    -11.017640   -5.839590   -1.474130
  Cl   -12.647010   -5.401610   -1.772360
  C    -10.451380   -6.992390   -1.994810
  C     -9.120010   -7.158560   -1.631750
  S     -8.596550   -5.830700   -0.620070
  C     -8.200230   -8.169020   -1.936470
  C     -8.397100   -9.301970   -2.692110
  C     -7.411090  -10.286000   -2.948900
  C     -7.840280  -11.327550   -3.716070
  C     -9.191430  -11.224000   -4.109840
  S     -9.896340   -9.758320   -3.476340
  C     -9.927390  -12.112890   -4.877270
  C     -9.495200  -13.328350   -5.447010
  C    -10.469870  -13.985100   -6.140570
  C    -11.715200  -13.318450   -6.156310
  S    -11.611440  -11.828500   -5.251410
  C    -12.877070  -13.760010   -6.760140
  C    -14.063540  -13.035050   -6.767960
  C    -15.287890  -13.417190   -7.272370
  C    -15.805430  -14.696840   -7.670330
  C    -15.408120  -15.931960   -7.210480
  C    -15.990850  -17.146860   -7.619100
  N    -16.413740  -18.169160   -7.928690
  C    -14.454320  -16.132850   -6.193810
  N    -13.721020  -16.361230   -5.339520
  C    -16.994990  -14.452300   -8.486660
  C    -17.311650  -13.072370   -8.422090
  C    -16.289920  -12.380740   -7.606940
  O    -16.253290  -11.206380   -7.308190
  C    -18.402610  -12.534860   -9.058500
  C    -19.214810  -13.397810   -9.803390
  C    -18.882790  -14.770590   -9.871900
  C    -17.782230  -15.316840   -9.220620
  S    -20.012720  -15.653500  -10.853510
  C    -20.906440  -14.185960  -11.150520
  C    -20.386390  -13.090490  -10.548820
  Br   -22.440200  -14.238860  -12.229600
  H     -5.280430    1.460560    2.514630
  H     -2.788880    0.181490    6.668750
  H     -3.488170   -0.262280    1.216240
  H     -6.456400    4.053310    8.077820
  H     -8.290000    5.268120    7.417140
  H    -10.419740    5.736730    6.336480
  H    -12.184970    4.668330    4.793610
  H    -13.436330    3.162100    3.397860
  H    -14.192080    1.268760    1.823770
  H    -13.384440   -0.867790    0.776960
  H     -9.615050   -1.255590    1.927550
  H    -10.997850   -7.677230   -2.614620
  H     -7.208660   -8.043940   -1.520070
  H     -6.414620  -10.192360   -2.555110
  H     -7.224810  -12.160260   -4.003790
  H     -8.488210  -13.686970   -5.333170
  H    -10.335420  -14.930380   -6.635020
  H    -12.823730  -14.711160   -7.269650
  H    -14.020800  -12.008570   -6.414430
  H    -18.624710  -11.481800   -8.985510
  H    -17.567500  -16.369130   -9.306010
  H    -20.809020  -12.105390  -10.626140

 Total Charge           Charge          ....    0
 Multiplicity           Mult            ....    1
 Number of Electrons    NEL             ....  646
 Basis Dimension        Dim             .... 1250

ORBITAL ENERGIES
----------------

  NO   OCC          E(Eh)            E(eV)
   0   2.0000    -482.881167    -13139.8646
   1   2.0000    -482.880005    -13139.8330
   2   2.0000    -101.612246     -2765.0098
   3   2.0000    -101.612028     -2765.0039
   4   2.0000     -88.980584     -2421.2848
   5   2.0000     -88.980008     -2421.2691
   6   2.0000     -88.972433     -2421.0630
   7   2.0000     -88.972060     -2421.0528
   8   2.0000     -88.968352     -2420.9519
   9   2.0000     -88.967572     -2420.9307
  10   2.0000     -88.965843     -2420.8837
  11   2.0000     -88.963405     -2420.8173
  12   2.0000     -62.558844     -1702.3127
  13   2.0000     -62.557716     -1702.2820
  14   2.0000     -56.392776     -1534.5254
  15   2.0000     -56.391657     -1534.4950
  16   2.0000     -56.390095     -1534.4525
  17   2.0000     -56.390062     -1534.4516
  18   2.0000     -56.388960     -1534.4216
  19   2.0000     -56.388922     -1534.4206
  20   2.0000     -19.202328      -522.5219
  21   2.0000     -19.201735      -522.5058
  22   2.0000     -14.405022      -391.9806
  23   2.0000     -14.402876      -391.9222
  24   2.0000     -14.402151      -391.9025
  25   2.0000     -14.401557      -391.8863
  26   2.0000     -10.353109      -281.7224
  27   2.0000     -10.351698      -281.6840
  28   2.0000     -10.351609      -281.6816
  29   2.0000     -10.349777      -281.6318
  30   2.0000     -10.349640      -281.6280
  31   2.0000     -10.347251      -281.5630
  32   2.0000     -10.341461      -281.4055
  33   2.0000     -10.340366      -281.3757
  34   2.0000     -10.339759      -281.3591
  35   2.0000     -10.338669      -281.3295
  36   2.0000     -10.332844      -281.1710
  37   2.0000     -10.332272      -281.1554
  38   2.0000     -10.332233      -281.1543
  39   2.0000     -10.330245      -281.1003
  40   2.0000     -10.329950      -281.0922
  41   2.0000     -10.329709      -281.0857
  42   2.0000     -10.326927      -281.0100
  43   2.0000     -10.326833      -281.0074
  44   2.0000     -10.326680      -281.0032
  45   2.0000     -10.326285      -280.9925
  46   2.0000     -10.326131      -280.9883
  47   2.0000     -10.322099      -280.8786
  48   2.0000     -10.317769      -280.7608
  49   2.0000     -10.317406      -280.7509
  50   2.0000     -10.315609      -280.7020
  51   2.0000     -10.314990      -280.6852
  52   2.0000     -10.312526      -280.6181
  53   2.0000     -10.310963      -280.5756
  54   2.0000     -10.310058      -280.5509
  55   2.0000     -10.308560      -280.5102
  56   2.0000     -10.308075      -280.4970
  57   2.0000     -10.307796      -280.4894
  58   2.0000     -10.306260      -280.4476
  59   2.0000     -10.305939      -280.4389
  60   2.0000     -10.305348      -280.4228
  61   2.0000     -10.304428      -280.3977
  62   2.0000     -10.303088      -280.3613
  63   2.0000     -10.301912      -280.3293
  64   2.0000     -10.301442      -280.3165
  65   2.0000     -10.298941      -280.2484
  66   2.0000     -10.298847      -280.2459
  67   2.0000     -10.298789      -280.2443
  68   2.0000     -10.297831      -280.2182
  69   2.0000     -10.297593      -280.2118
  70   2.0000     -10.296250      -280.1752
  71   2.0000     -10.295253      -280.1481
  72   2.0000     -10.294403      -280.1249
  73   2.0000     -10.293428      -280.0984
  74   2.0000     -10.292355      -280.0692
  75   2.0000     -10.290003      -280.0052
  76   2.0000     -10.289973      -280.0044
  77   2.0000     -10.289544      -279.9927
  78   2.0000     -10.287592      -279.9396
  79   2.0000     -10.283903      -279.8392
  80   2.0000     -10.282745      -279.8077
  81   2.0000     -10.282026      -279.7882
  82   2.0000     -10.279964      -279.7321
  83   2.0000     -10.278898      -279.7030
  84   2.0000      -9.567048      -260.3326
  85   2.0000      -9.566845      -260.3271
  86   2.0000      -8.788245      -239.1403
  87   2.0000      -8.787132      -239.1100
  88   2.0000      -8.075481      -219.7450
  89   2.0000      -8.074910      -219.7295
  90   2.0000      -8.068418      -219.5528
  91   2.0000      -8.068098      -219.5441
  92   2.0000      -8.064359      -219.4424
  93   2.0000      -8.063576      -219.4211
  94   2.0000      -8.062223      -219.3842
  95   2.0000      -8.058367      -219.2793
  96   2.0000      -7.337136      -199.6536
  97   2.0000      -7.336929      -199.6480
  98   2.0000      -7.327124      -199.3812
  99   2.0000      -7.327051      -199.3792
 100   2.0000      -7.326922      -199.3757
 101   2.0000      -7.326846      -199.3736
 102   2.0000      -6.624436      -180.2601
 103   2.0000      -6.623390      -180.2316
 104   2.0000      -6.610021      -179.8678
 105   2.0000      -6.609858      -179.8634
 106   2.0000      -6.608867      -179.8364
 107   2.0000      -6.608718      -179.8324
 108   2.0000      -6.044971      -164.4920
 109   2.0000      -6.044402      -164.4765
 110   2.0000      -6.040726      -164.3765
 111   2.0000      -6.040170      -164.3614
 112   2.0000      -6.038127      -164.3058
 113   2.0000      -6.037807      -164.2971
 114   2.0000      -6.037174      -164.2799
 115   2.0000      -6.036589      -164.2639
 116   2.0000      -6.034043      -164.1946
 117   2.0000      -6.033987      -164.1931
 118   2.0000      -6.033642      -164.1837
 119   2.0000      -6.033259      -164.1733
 120   2.0000      -6.031839      -164.1347
 121   2.0000      -6.029792      -164.0790
 122   2.0000      -6.029494      -164.0709
 123   2.0000      -6.029166      -164.0619
 124   2.0000      -6.029009      -164.0577
 125   2.0000      -6.027883      -164.0270
 126   2.0000      -6.027809      -164.0250
 127   2.0000      -6.025582      -163.9644
 128   2.0000      -6.024793      -163.9430
 129   2.0000      -6.023477      -163.9071
 130   2.0000      -6.023300      -163.9023
 131   2.0000      -6.020105      -163.8154
 132   2.0000      -2.740372       -74.5693
 133   2.0000      -2.739293       -74.5400
 134   2.0000      -2.736237       -74.4568
 135   2.0000      -2.736151       -74.4545
 136   2.0000      -2.735185       -74.4282
 137   2.0000      -2.735051       -74.4245
 138   2.0000      -2.724676       -74.1422
 139   2.0000      -2.724666       -74.1419
 140   2.0000      -2.723538       -74.1112
 141   2.0000      -2.723509       -74.1105
 142   2.0000      -1.116679       -30.3864
 143   2.0000      -1.115455       -30.3531
 144   2.0000      -1.039072       -28.2746
 145   2.0000      -1.020345       -27.7650
 146   2.0000      -1.017805       -27.6959
 147   2.0000      -1.013805       -27.5870
 148   2.0000      -1.013429       -27.5768
 149   2.0000      -1.012009       -27.5382
 150   2.0000      -1.003344       -27.3024
 151   2.0000      -1.001444       -27.2507
 152   2.0000      -0.996291       -27.1105
 153   2.0000      -0.992010       -26.9940
 154   2.0000      -0.982857       -26.7449
 155   2.0000      -0.980772       -26.6882
 156   2.0000      -0.979238       -26.6464
 157   2.0000      -0.977086       -26.5879
 158   2.0000      -0.973452       -26.4890
 159   2.0000      -0.964141       -26.2356
 160   2.0000      -0.935369       -25.4527
 161   2.0000      -0.933134       -25.3919
 162   2.0000      -0.922670       -25.1071
 163   2.0000      -0.916179       -24.9305
 164   2.0000      -0.906288       -24.6613
 165   2.0000      -0.899595       -24.4792
 166   2.0000      -0.898844       -24.4588
 167   2.0000      -0.896711       -24.4008
 168   2.0000      -0.883176       -24.0324
 169   2.0000      -0.877246       -23.8711
 170   2.0000      -0.875829       -23.8325
 171   2.0000      -0.874221       -23.7888
 172   2.0000      -0.868863       -23.6430
 173   2.0000      -0.865473       -23.5507
 174   2.0000      -0.863406       -23.4945
 175   2.0000      -0.847371       -23.0581
 176   2.0000      -0.845736       -23.0136
 177   2.0000      -0.844461       -22.9789
 178   2.0000      -0.841274       -22.8922
 179   2.0000      -0.837413       -22.7872
 180   2.0000      -0.827636       -22.5211
 181   2.0000      -0.821048       -22.3418
 182   2.0000      -0.819629       -22.3032
 183   2.0000      -0.815432       -22.1890
 184   2.0000      -0.798641       -21.7321
 185   2.0000      -0.785976       -21.3875
 186   2.0000      -0.769692       -20.9444
 187   2.0000      -0.760624       -20.6976
 188   2.0000      -0.750462       -20.4211
 189   2.0000      -0.746938       -20.3252
 190   2.0000      -0.736770       -20.0485
 191   2.0000      -0.731553       -19.9066
 192   2.0000      -0.712113       -19.3776
 193   2.0000      -0.707468       -19.2512
 194   2.0000      -0.693337       -18.8666
 195   2.0000      -0.689635       -18.7659
 196   2.0000      -0.687252       -18.7011
 197   2.0000      -0.685298       -18.6479
 198   2.0000      -0.679726       -18.4963
 199   2.0000      -0.677411       -18.4333
 200   2.0000      -0.673984       -18.3400
 201   2.0000      -0.664757       -18.0890
 202   2.0000      -0.659515       -17.9463
 203   2.0000      -0.653639       -17.7864
 204   2.0000      -0.648428       -17.6446
 205   2.0000      -0.647556       -17.6209
 206   2.0000      -0.645944       -17.5770
 207   2.0000      -0.644081       -17.5263
 208   2.0000      -0.636508       -17.3203
 209   2.0000      -0.635234       -17.2856
 210   2.0000      -0.629515       -17.1300
 211   2.0000      -0.624179       -16.9848
 212   2.0000      -0.621495       -16.9118
 213   2.0000      -0.613910       -16.7053
 214   2.0000      -0.610578       -16.6147
 215   2.0000      -0.601880       -16.3780
 216   2.0000      -0.596265       -16.2252
 217   2.0000      -0.590526       -16.0690
 218   2.0000      -0.588400       -16.0112
 219   2.0000      -0.586760       -15.9665
 220   2.0000      -0.584896       -15.9158
 221   2.0000      -0.574490       -15.6327
 222   2.0000      -0.570299       -15.5186
 223   2.0000      -0.568836       -15.4788
 224   2.0000      -0.552870       -15.0444
 225   2.0000      -0.549334       -14.9481
 226   2.0000      -0.548266       -14.9191
 227   2.0000      -0.544630       -14.8201
 228   2.0000      -0.540266       -14.7014
 229   2.0000      -0.539573       -14.6825
 230   2.0000      -0.537376       -14.6228
 231   2.0000      -0.534734       -14.5509
 232   2.0000      -0.532865       -14.5000
 233   2.0000      -0.531346       -14.4587
 234   2.0000      -0.529098       -14.3975
 235   2.0000      -0.525567       -14.3014
 236   2.0000      -0.524953       -14.2847
 237   2.0000      -0.522609       -14.2209
 238   2.0000      -0.520560       -14.1651
 239   2.0000      -0.519700       -14.1417
 240   2.0000      -0.518699       -14.1145
 241   2.0000      -0.515631       -14.0310
 242   2.0000      -0.513076       -13.9615
 243   2.0000      -0.510140       -13.8816
 244   2.0000      -0.507252       -13.8030
 245   2.0000      -0.506239       -13.7755
 246   2.0000      -0.503471       -13.7001
 247   2.0000      -0.501414       -13.6442
 248   2.0000      -0.499754       -13.5990
 249   2.0000      -0.499125       -13.5819
 250   2.0000      -0.496736       -13.5169
 251   2.0000      -0.493584       -13.4311
 252   2.0000      -0.490846       -13.3566
 253   2.0000      -0.488990       -13.3061
 254   2.0000      -0.487120       -13.2552
 255   2.0000      -0.485468       -13.2102
 256   2.0000      -0.484629       -13.1874
 257   2.0000      -0.482286       -13.1237
 258   2.0000      -0.479363       -13.0441
 259   2.0000      -0.476890       -12.9768
 260   2.0000      -0.475086       -12.9278
 261   2.0000      -0.471473       -12.8294
 262   2.0000      -0.468741       -12.7551
 263   2.0000      -0.465145       -12.6572
 264   2.0000      -0.463204       -12.6044
 265   2.0000      -0.461348       -12.5539
 266   2.0000      -0.455572       -12.3967
 267   2.0000      -0.452244       -12.3062
 268   2.0000      -0.451562       -12.2876
 269   2.0000      -0.450807       -12.2671
 270   2.0000      -0.448438       -12.2026
 271   2.0000      -0.447557       -12.1786
 272   2.0000      -0.443632       -12.0719
 273   2.0000      -0.442470       -12.0402
 274   2.0000      -0.441569       -12.0157
 275   2.0000      -0.438752       -11.9391
 276   2.0000      -0.437875       -11.9152
 277   2.0000      -0.437496       -11.9049
 278   2.0000      -0.436357       -11.8739
 279   2.0000      -0.433690       -11.8013
 280   2.0000      -0.431880       -11.7520
 281   2.0000      -0.431159       -11.7324
 282   2.0000      -0.429144       -11.6776
 283   2.0000      -0.425319       -11.5735
 284   2.0000      -0.419974       -11.4281
 285   2.0000      -0.418721       -11.3940
 286   2.0000      -0.414920       -11.2906
 287   2.0000      -0.414014       -11.2659
 288   2.0000      -0.412264       -11.2183
 289   2.0000      -0.410661       -11.1747
 290   2.0000      -0.408539       -11.1169
 291   2.0000      -0.404192       -10.9986
 292   2.0000      -0.399359       -10.8671
 293   2.0000      -0.397600       -10.8192
 294   2.0000      -0.395643       -10.7660
 295   2.0000      -0.394667       -10.7394
 296   2.0000      -0.389480       -10.5983
 297   2.0000      -0.382119       -10.3980
 298   2.0000      -0.381328       -10.3765
 299   2.0000      -0.378559       -10.3011
 300   2.0000      -0.373571       -10.1654
 301   2.0000      -0.370697       -10.0872
 302   2.0000      -0.369542       -10.0558
 303   2.0000      -0.364898        -9.9294
 304   2.0000      -0.359377        -9.7791
 305   2.0000      -0.356137        -9.6910
 306   2.0000      -0.351604        -9.5676
 307   2.0000      -0.345811        -9.4100
 308   2.0000      -0.342292        -9.3142
 309   2.0000      -0.341212        -9.2848
 310   2.0000      -0.337774        -9.1913
 311   2.0000      -0.332034        -9.0351
 312   2.0000      -0.327769        -8.9191
 313   2.0000      -0.321682        -8.7534
 314   2.0000      -0.314178        -8.5492
 315   2.0000      -0.307120        -8.3572
 316   2.0000      -0.303124        -8.2484
 317   2.0000      -0.298774        -8.1301
 318   2.0000      -0.286439        -7.7944
 319   2.0000      -0.284746        -7.7483
 320   2.0000      -0.276762        -7.5311
 321   2.0000      -0.241066        -6.5597
 322   2.0000      -0.224392        -6.1060
 323   0.0000      -0.122969        -3.3462
 324   0.0000      -0.107337        -2.9208
 325   0.0000      -0.069587        -1.8936
 326   0.0000      -0.061735        -1.6799
 327   0.0000      -0.049364        -1.3433

MULLIKEN ATOMIC CHARGES
-----------------------
   0 C :    0.306328
   1 C :   -0.353179
   2 C :   -0.187472
   3 N :    0.137263
   4 C :   -0.208716
   5 N :    0.156199
   6 C :    0.010396
   7 C :   -0.002567
   8 C :   -0.081462
   9 C :    0.117358
  10 C :   -0.093494
  11 C :   -0.022229
  12 S :    0.178329
  13 C :   -0.123935
  14 C :    0.035814
  15 Br:    0.011176
  16 C :    0.114031
  17 O :   -0.181731
  18 C :   -0.092442
  19 C :   -0.009446
  20 C :   -0.009841
  21 C :    0.000941
  22 C :    0.026004
  23 C :    0.042682
  24 C :   -0.067736
  25 S :    0.172850
  26 C :   -0.018619
  27 C :    0.025840
  28 C :    0.050441
  29 C :   -0.044698
  30 S :    0.086548
  31 C :    0.066628
  32 C :   -0.089470
  33 C :    0.013668
  34 C :    0.053071
  35 Cl:   -0.054037
  36 C :   -0.087674
  37 S :    0.156990
  38 C :   -0.089645
  39 C :    0.054520
  40 Cl:   -0.052389
  41 C :    0.011656
  42 C :   -0.087121
  43 S :    0.156728
  44 C :    0.063660
  45 C :   -0.043025
  46 C :    0.047801
  47 C :    0.025533
  48 C :   -0.022346
  49 S :    0.081706
  50 C :   -0.053253
  51 C :    0.038701
  52 C :    0.041595
  53 C :   -0.017762
  54 S :    0.110752
  55 C :    0.001229
  56 C :    0.019946
  57 C :   -0.126371
  58 C :    0.284556
  59 C :   -0.348007
  60 C :   -0.181429
  61 N :    0.145090
  62 C :   -0.221334
  63 N :    0.160085
  64 C :    0.006155
  65 C :   -0.004829
  66 C :    0.138620
  67 O :   -0.154191
  68 C :   -0.076319
  69 C :    0.113623
  70 C :   -0.089784
  71 C :   -0.025539
  72 S :    0.180474
  73 C :   -0.123454
  74 C :    0.037490
  75 Br:    0.016564
  76 H :   -0.019424
  77 H :   -0.010173
  78 H :   -0.008792
  79 H :    0.024483
  80 H :   -0.004284
  81 H :   -0.005440
  82 H :   -0.009897
  83 H :   -0.003460
  84 H :   -0.001168
  85 H :   -0.005324
  86 H :    0.000491
  87 H :    0.000503
  88 H :   -0.006256
  89 H :   -0.001584
  90 H :   -0.003934
  91 H :   -0.003204
  92 H :    0.002973
  93 H :    0.010670
  94 H :    0.015150
  95 H :   -0.013076
  96 H :   -0.005803
  97 H :   -0.005948
Sum of atomic charges:    0.0000000

LOEWDIN ATOMIC CHARGES
----------------------
   0 C :    0.076745
   1 C :   -0.149781
   2 C :   -0.018089
   3 N :   -0.064559
   4 C :   -0.024484
   5 N :   -0.060279
   6 C :   -0.020751
   7 C :   -0.044852
   8 C :    0.011830
   9 C :   -0.036056
  10 C :   -0.148373
  11 C :   -0.012179
  12 S :    0.426571
  13 C :   -0.275805
  14 C :   -0.072187
  15 Br:    0.127178
  16 C :    0.052970
  17 O :   -0.180835
  18 C :   -0.117434
  19 C :    0.042121
  20 C :   -0.075842
  21 C :   -0.109240
  22 C :   -0.034454
  23 C :   -0.023110
  24 C :   -0.193802
  25 S :    0.485484
  26 C :   -0.142630
  27 C :   -0.039206
  28 C :   -0.008731
  29 C :   -0.152501
  30 S :    0.406744
  31 C :   -0.047628
  32 C :   -0.175659
  33 C :   -0.067528
  34 C :   -0.165130
  35 Cl:    0.165393
  36 C :   -0.202960
  37 S :    0.454278
  38 C :   -0.206218
  39 C :   -0.163323
  40 Cl:    0.167291
  41 C :   -0.070228
  42 C :   -0.172823
  43 S :    0.453435
  44 C :   -0.052909
  45 C :   -0.149900
  46 C :   -0.012839
  47 C :   -0.037854
  48 C :   -0.152788
  49 S :    0.403708
  50 C :   -0.185740
  51 C :   -0.008596
  52 C :   -0.031049
  53 C :   -0.102265
  54 S :    0.403627
  55 C :   -0.064200
  56 C :    0.050149
  57 C :   -0.103472
  58 C :    0.068053
  59 C :   -0.152230
  60 C :   -0.020404
  61 N :   -0.062475
  62 C :   -0.024281
  63 N :   -0.061216
  64 C :   -0.016189
  65 C :   -0.051152
  66 C :    0.078582
  67 O :   -0.155330
  68 C :    0.018791
  69 C :   -0.036344
  70 C :   -0.144782
  71 C :   -0.015694
  72 S :    0.428246
  73 C :   -0.274597
  74 C :   -0.070670
  75 Br:    0.131183
  76 H :    0.037171
  77 H :    0.039891
  78 H :    0.036536
  79 H :    0.046851
  80 H :    0.039540
  81 H :    0.035978
  82 H :    0.033134
  83 H :    0.036203
  84 H :    0.038544
  85 H :    0.038718
  86 H :    0.023785
  87 H :    0.023535
  88 H :    0.038397
  89 H :    0.038377
  90 H :    0.035876
  91 H :    0.036430
  92 H :    0.040928
  93 H :    0.038875
  94 H :    0.034942
  95 H :    0.039724
  96 H :    0.040076
  97 H :    0.037764

  Mayer bond orders larger than 0.100000
B(  0-C ,  1-C ) :   1.6056 B(  0-C ,  6-C ) :   0.9913 B(  0-C , 18-C ) :   1.1096
B(  1-C ,  2-C ) :   1.1467 B(  1-C ,  4-C ) :   1.1460 B(  2-C ,  3-N ) :   2.9643
B(  4-C ,  5-N ) :   2.9930 B(  6-C ,  7-C ) :   1.2779 B(  6-C , 11-C ) :   1.4218
B(  7-C ,  8-C ) :   1.4331 B(  7-C , 16-C ) :   0.9290 B(  8-C ,  9-C ) :   1.2359
B(  8-C , 76-H ) :   1.0167 B(  9-C , 10-C ) :   1.3213 B(  9-C , 14-C ) :   1.1600
B( 10-C , 11-C ) :   1.3177 B( 10-C , 12-S ) :   1.0800 B( 11-C , 77-H ) :   0.9802
B( 12-S , 13-C ) :   1.0874 B( 13-C , 14-C ) :   1.6192 B( 13-C , 15-Br) :   1.0116
B( 14-C , 78-H ) :   1.0005 B( 16-C , 17-O ) :   2.1447 B( 16-C , 18-C ) :   1.0168
B( 18-C , 19-C ) :   1.4134 B( 19-C , 20-C ) :   1.3698 B( 19-C , 79-H ) :   0.9375
B( 20-C , 21-C ) :   1.4374 B( 20-C , 80-H ) :   0.9500 B( 21-C , 22-C ) :   1.1733
B( 21-C , 25-S ) :   1.1326 B( 22-C , 23-C ) :   1.5672 B( 22-C , 81-H ) :   0.9983
B( 23-C , 24-C ) :   1.1914 B( 23-C , 82-H ) :   0.9930 B( 24-C , 25-S ) :   1.0691
B( 24-C , 26-C ) :   1.4691 B( 26-C , 27-C ) :   1.1979 B( 26-C , 30-S ) :   1.0736
B( 27-C , 28-C ) :   1.5745 B( 27-C , 83-H ) :   0.9940 B( 28-C , 29-C ) :   1.1551
B( 28-C , 84-H ) :   0.9991 B( 29-C , 30-S ) :   1.0358 B( 29-C , 31-C ) :   1.5815
B( 31-C , 32-C ) :   1.1888 B( 31-C , 85-H ) :   0.9508 B( 32-C , 33-C ) :   1.4050
B( 32-C , 37-S ) :   1.0861 B( 33-C , 34-C ) :   1.3327 B( 33-C , 86-H ) :   0.9858
B( 34-C , 35-Cl) :   1.0448 B( 34-C , 36-C ) :   1.4187 B( 36-C , 37-S ) :   1.1356
B( 36-C , 38-C ) :   1.2160 B( 38-C , 39-C ) :   1.4192 B( 38-C , 43-S ) :   1.1322
B( 39-C , 40-Cl) :   1.0464 B( 39-C , 41-C ) :   1.3327 B( 41-C , 42-C ) :   1.4046
B( 41-C , 87-H ) :   0.9855 B( 42-C , 43-S ) :   1.0881 B( 42-C , 44-C ) :   1.1882
B( 44-C , 45-C ) :   1.5812 B( 44-C , 88-H ) :   0.9509 B( 45-C , 46-C ) :   1.1555
B( 45-C , 49-S ) :   1.0381 B( 46-C , 47-C ) :   1.5762 B( 46-C , 89-H ) :   0.9991
B( 47-C , 48-C ) :   1.2000 B( 47-C , 90-H ) :   0.9934 B( 48-C , 49-S ) :   1.0672
B( 48-C , 50-C ) :   1.4699 B( 50-C , 51-C ) :   1.2143 B( 50-C , 54-S ) :   1.0467
B( 51-C , 52-C ) :   1.5498 B( 51-C , 91-H ) :   0.9945 B( 52-C , 53-C ) :   1.1782
B( 52-C , 92-H ) :   1.0005 B( 53-C , 54-S ) :   1.0813 B( 53-C , 55-C ) :   1.5062
B( 55-C , 56-C ) :   1.2156 B( 55-C , 93-H ) :   0.9615 B( 56-C , 57-C ) :   1.5363
B( 56-C , 94-H ) :   0.9391 B( 57-C , 58-C ) :   1.0872 B( 57-C , 66-C ) :   0.9630
B( 58-C , 59-C ) :   1.6015 B( 58-C , 64-C ) :   1.0038 B( 59-C , 60-C ) :   1.1351
B( 59-C , 62-C ) :   1.1688 B( 60-C , 61-N ) :   2.9782 B( 62-C , 63-N ) :   3.0116
B( 64-C , 65-C ) :   1.2753 B( 64-C , 71-C ) :   1.4223 B( 65-C , 66-C ) :   0.9193
B( 65-C , 68-C ) :   1.4330 B( 66-C , 67-O ) :   2.2486 B( 68-C , 69-C ) :   1.2437
B( 68-C , 95-H ) :   1.0165 B( 69-C , 70-C ) :   1.3160 B( 69-C , 74-C ) :   1.1622
B( 70-C , 71-C ) :   1.3182 B( 70-C , 72-S ) :   1.0837 B( 71-C , 96-H ) :   0.9818
B( 72-S , 73-C ) :   1.0855 B( 73-C , 74-C ) :   1.6200 B( 73-C , 75-Br) :   1.0144
B( 74-C , 97-H ) :   1.0004

-----------------------------------------------------------------------------
         ABSORPTION SPECTRUM VIA TRANSITION ELECTRIC DIPOLE MOMENTS
-----------------------------------------------------------------------------
State   Energy  Wavelength   fosc         T2         TX        TY        TZ
        (cm-1)    (nm)                  (au**2)     (au)      (au)      (au)
-----------------------------------------------------------------------------
   0    9661.5   1035.0   2.373370988  80.87178   3.70696   6.29400   5.24554
   1   13132.3    761.5   0.038134590   0.95599  -0.13853  -0.96786  -0.00699
   2   15804.5    632.7   0.006197183   0.12909   0.21630  -0.28686  -0.00382
   3   19025.6    525.6   0.755932547  13.08035   3.36467  -1.28093   0.34435
   4   20615.1    485.1   0.070822880   1.13100   1.01106   0.09569   0.31559
   5   21780.5    459.1   0.066917708   1.01146  -0.39876   0.92296  -0.02451
   6   22039.3    453.7   0.216524958   3.23434   1.14271  -1.35110  -0.32106
   7   22501.7    444.4   0.045011713   0.65854  -0.62481   0.22869   0.46461
   8   23569.8    424.3   0.012054169   0.16837   0.08235   0.25573  -0.31014
   9   23909.1    418.3   0.078789054   1.08487   0.29041  -0.22128  -0.97548
  10   24554.2    407.3   0.165529296   2.21934   0.80927  -1.18977  -0.38581
  11   25330.3    394.8   0.690956474   8.98020  -2.56404   1.55053   0.04234
  12   26615.8    375.7   0.063565402   0.78624   0.15151  -0.63065  -0.60463
  13   26931.0    371.3   0.047731869   0.58349  -0.52991   0.54999  -0.01382
  14   26951.2    371.0   0.003158557   0.03858  -0.15947  -0.02346  -0.11225
  15   27853.7    359.0   0.011147475   0.13176  -0.04554  -0.35327  -0.06988
  16   28129.4    355.5   0.007110098   0.08321  -0.17670   0.09286  -0.20824
  17   28511.9    350.7   0.034618740   0.39972   0.21907  -0.43564  -0.40243
  18   29158.6    343.0   0.014577389   0.16458   0.23277   0.02345   0.33144
  19   29532.8    338.6   0.042439726   0.47309   0.33864  -0.17100  -0.57374
  20   29814.6    335.4   0.010443330   0.11531  -0.06329   0.31352   0.11408
  21   29999.7    333.3   0.028657048   0.31448   0.05965  -0.45722  -0.31917
  22   30497.2    327.9   0.095108819   1.02668   0.87335   0.05830   0.51044
  23   31142.2    321.1   0.066805941   0.70622  -0.15585   0.08946  -0.82093
  24   31313.8    319.3   0.009170124   0.09641   0.04281  -0.22070  -0.21417
  25   31463.3    317.8   0.016045265   0.16789  -0.28675   0.29010   0.03878
  26   31629.6    316.2   0.333222816   3.46830  -0.12440  -0.44367  -1.80443
  27   32026.5    312.2   0.164802149   1.69406  -1.11604   0.65071   0.15843
  28   32390.2    308.7   0.024089831   0.24485   0.40907  -0.22149  -0.16868
  29   32569.7    307.0   0.389993612   3.94202   1.55288  -1.22736   0.15555
  30   32638.6    306.4   0.175731280   1.77253  -1.10996   0.64427   0.35418
  31   32825.5    304.6   0.041828419   0.41950  -0.22486   0.04612  -0.60565
  32   33102.5    302.1   0.113667665   1.13045   0.51736  -0.49745  -0.78444
  33   33202.1    301.2   0.150898978   1.49622   0.76300   0.11828   0.94872
  34   33401.0    299.4   0.034658721   0.34161   0.27621  -0.03570   0.51385
  35   33902.8    295.0   0.077946680   0.75690   0.23510   0.16487   0.82125
  36   34276.3    291.7   0.013988842   0.13436  -0.05262   0.08776  -0.35198
  37   34547.4    289.5   0.029924554   0.28516  -0.27926  -0.40915  -0.19943
  38   34792.9    287.4   0.025053345   0.23706   0.47196  -0.07897   0.08985
  39   35120.6    284.7   0.085200184   0.79865  -0.34418  -0.41054  -0.71530
  40   35310.5    283.2   0.015556724   0.14504   0.26195  -0.14624   0.23460
  41   35390.9    282.6   0.146278285   1.36071   0.44926  -0.63523   0.86911
  42   35854.8    278.9   0.027659551   0.25396   0.25034   0.01784   0.43701
  43   35912.9    278.5   0.007584406   0.06953  -0.01184   0.00843  -0.26328
  44   36032.9    277.5   0.025990716   0.23746   0.30626   0.02276   0.37835
  45   36169.4    276.5   0.164265488   1.49514   0.61488  -1.05608  -0.04196
  46   36349.0    275.1   0.005346204   0.04842   0.03737   0.08039   0.20140
  47   37105.8    269.5   0.031162573   0.27648   0.05119   0.07536   0.51786
  48   37299.2    268.1   0.007187200   0.06344   0.14123   0.17849   0.10785
  49   37430.7    267.2   0.036816967   0.32381   0.38860  -0.40208   0.10553
  50   37500.3    266.7   0.002220382   0.01949  -0.03456  -0.06899   0.11635
  51   37925.4    263.7   0.008093956   0.07026  -0.21802   0.11877   0.09285
  52   37965.3    263.4   0.016857162   0.14618   0.03341  -0.08115  -0.37212
  53   38259.2    261.4   0.051343328   0.44180  -0.47729   0.23383  -0.39915
  54   38518.1    259.6   0.096958610   0.82870   0.31730   0.10667   0.84654
  55   38612.1    259.0   0.062787563   0.53534  -0.07875   0.71717   0.12163
  56   38791.0    257.8   0.093303943   0.79185   0.47816   0.39018   0.64108
  57   39151.1    255.4   0.039387358   0.33120   0.21578   0.49864   0.18973
  58   39540.5    252.9   0.274472431   2.28524   0.72315  -1.07606   0.77742
  59   39614.5    252.4   0.013888369   0.11542   0.19339   0.11059  -0.25649
  60   40011.9    249.9   0.082724102   0.68064  -0.26693   0.71751   0.30751

FINAL SINGLE POINT ENERGY    -11842.026804371850

DIPOLE MOMENT
-------------
                                X             Y             Z
Electronic contribution:    -20.42243     -55.94985     -84.80119
Nuclear contribution   :     19.63644      58.01067      81.82141
                        -----------------------------------------
Total Dipole Moment    :     -0.78599       2.06081      -2.97977
                        -----------------------------------------
Magnitude (a.u.)       :      3.70726
Magnitude (Debye)      :      9.42311

Rotational constants in cm-1:     0.000971     0.000123     0.000112
Rotational constants in MHz :    29.105546     3.692579     3.354059

                             ****ORCA TERMINATED NORMALLY****
TOTAL RUN TIME: 0 days 0 hours 10 minutes 22 seconds 786 msec
