                         Program Version 4.2.0 -  RELEASE  -
|  1> # ORCA input file
|  2> # SCF done       -216.356299611856          0.000467550602
|  3> ! CAM-B3LYP def2-SVP def2/J RIJCOSX Grid4 TightSCF
|  4> %maxcore 5000
|  5> %tddft
|  6>     Mode sTDDFT
|  7>     Ethresh 5.0
|  8>     maxcore 5000
|  9> end
| 10>
| 11> %pal
| 12>   nprocs 6
| 13>   end
| 14> * xyz 0 1
| 15>    C      -13.25809        -2.09850        -3.60604
| 16>    C      -14.46671        -2.71597        -3.76595
| 17>    F      -15.49158        -2.05640        -4.32056
| 18>    C      -14.65172        -4.05033        -3.35001
| 19>    F      -15.84815        -4.62850        -3.51771
| 20>    C      -13.62483        -4.74864        -2.77923
| 21>    C      -12.36783        -4.13927        -2.59823
| 22>    C      -12.17874        -2.79075        -3.02041
| 23>    C      -10.92520        -2.15976        -2.85289
| 24>    C       -9.89256        -2.85649        -2.28130
| 25>    C      -10.09328        -4.19910        -1.85497
| 26>    C      -11.29267        -4.83472        -2.00265
| 27>    C       -8.85049        -4.72544        -1.26543
| 28>    O       -8.70390        -5.79535        -0.71955
| 29>    C       -7.86703        -3.60745        -1.35369
| 30>    C       -8.51292        -2.47872        -1.99733
| 31>    C       -7.91028        -1.30357        -2.35903
| 32>    C       -6.54919        -0.99945        -2.14216
| 33>    N       -5.45109        -0.69396        -2.00580
| 34>    C       -8.57331        -0.24543        -3.01650
| 35>    N       -9.06217         0.65148        -3.53946
| 36>    C       -6.65602        -3.60274        -0.73110
| 37>    C       -5.96742        -4.76098        -0.28212
| 38>    C       -5.91665        -6.01708        -0.87702
| 39>    C       -6.50961        -6.26712        -2.12848
| 40>    N       -6.95161        -6.41220        -3.17554
| 41>    C       -5.10003        -6.92165        -0.16048
| 42>    C       -4.53751        -6.31980         0.96805
| 43>    S       -4.95682        -4.66517         1.14544
| 44>    S       -3.54453        -7.35431         1.93951
| 45>    C       -3.88264        -8.63224         0.82018
| 46>    C       -4.70474        -8.28865        -0.25088
| 47>    C       -4.91568        -9.39038        -1.11372
| 48>    C       -5.69634        -9.40524        -2.27840
| 49>    N       -6.32838        -9.49279        -3.23173
| 50>    C       -4.24760       -10.54213        -0.68281
| 51>    S       -3.37777       -10.27724         0.81689
| 52>    C       -4.24116       -11.77437        -1.35657
| 53>    C       -3.57617       -12.91341        -0.99168
| 54>    C       -3.60248       -14.14677        -1.69457
| 55>    C       -2.87649       -15.13906        -1.11689
| 56>    C       -2.21555       -14.74944         0.07206
| 57>    S       -2.56532       -13.06722         0.43480
| 58>    C       -1.39927       -15.51472         0.87348
| 59>    C       -1.09214       -16.89069         0.73740
| 60>    C       -0.21648       -17.35994         1.66142
| 61>    C        0.26061       -16.37134         2.56433
| 62>    S       -0.55301       -14.83815         2.25142
| 63>    C        1.27026       -16.53656         3.46288
| 64>    N        1.84024       -15.53035         4.17020
| 65>    C        2.99002       -15.61634         4.87520
| 66>    S        3.56241       -17.15430         5.44728
| 67>    C        4.84865       -16.34656         6.29339
| 68>    N        5.75056       -17.14784         7.00133
| 69>    O        6.65813       -16.59579         7.59408
| 70>    O        5.55087       -18.35092         6.96491
| 71>    C        4.82855       -14.98863         6.14417
| 72>    C        3.79229       -14.54033         5.29826
| 73>    C        3.65896       -13.15275         4.95430
| 74>    C        3.10421       -12.60509         3.84497
| 75>    C        2.71229       -13.29307         2.66330
| 76>    C        1.80812       -12.86599         1.73950
| 77>    C        1.64293       -13.53530         0.42214
| 78>    O        2.11718       -14.59736         0.08731
| 79>    C        0.78850       -12.62514        -0.37165
| 80>    C        0.31785       -12.76608        -1.64499
| 81>    C       -0.49136       -11.74581        -2.19616
| 82>    C       -0.73772       -10.56194        -1.44222
| 83>    C       -1.51156        -9.53331        -2.01366
| 84>    C       -2.05537        -9.68623        -3.25838
| 85>    C       -1.83768       -10.87068        -3.99094
| 86>    C       -1.06315       -11.87353        -3.47623
| 87>    F       -2.38970       -11.00635        -5.20093
| 88>    F       -2.80144        -8.70999        -3.78445
| 89>    C       -0.25408       -10.44969        -0.11981
| 90>    C        0.45188       -11.48833         0.42042
| 91>    C        0.89419       -11.74612         1.78339
| 92>    C        0.29838       -11.24518         2.91437
| 93>    C        0.43005       -11.91613         4.14448
| 94>    N        0.48770       -12.54876         5.10154
| 95>    C       -0.61708       -10.17676         2.90681
| 96>    N       -1.34769        -9.29161         2.93339
| 97>    H      -13.13316        -1.07774        -3.93222
| 98>    H      -13.78149        -5.76923        -2.46700
| 99>    H      -10.81474        -1.13778        -3.17795
|100>    H      -11.41438        -5.85563        -1.67459
|101>    H       -6.16779        -2.65854        -0.52242
|102>    H       -4.83254       -11.81615        -2.26278
|103>    H       -4.16878       -14.25148        -2.60274
|104>    H       -2.78843       -16.13412        -1.51351
|105>    H       -1.52843       -17.48862        -0.04148
|106>    H        0.13975       -18.37296         1.70796
|107>    H        1.71524       -17.51430         3.58389
|108>    H        1.43276       -14.60211         4.08010
|109>    H        5.56168       -14.34629         6.59808
|110>    H        4.06045       -12.47675         5.69741
|111>    H        2.98299       -11.52860         3.83424
|112>    H        3.22906       -14.21652         2.42458
|113>    H        0.54557       -13.64996        -2.22135
|114>    H       -1.68755        -8.62082        -1.46506
|115>    H       -0.89653       -12.76754        -4.05659
|116>    H       -0.46535        -9.55413         0.44267
|117> *
|118>
|119>                          ****END OF INPUT****

CARTESIAN COORDINATES (ANGSTROEM)
---------------------------------
  C    -13.258090   -2.098500   -3.606040
  C    -14.466710   -2.715970   -3.765950
  F    -15.491580   -2.056400   -4.320560
  C    -14.651720   -4.050330   -3.350010
  F    -15.848150   -4.628500   -3.517710
  C    -13.624830   -4.748640   -2.779230
  C    -12.367830   -4.139270   -2.598230
  C    -12.178740   -2.790750   -3.020410
  C    -10.925200   -2.159760   -2.852890
  C     -9.892560   -2.856490   -2.281300
  C    -10.093280   -4.199100   -1.854970
  C    -11.292670   -4.834720   -2.002650
  C     -8.850490   -4.725440   -1.265430
  O     -8.703900   -5.795350   -0.719550
  C     -7.867030   -3.607450   -1.353690
  C     -8.512920   -2.478720   -1.997330
  C     -7.910280   -1.303570   -2.359030
  C     -6.549190   -0.999450   -2.142160
  N     -5.451090   -0.693960   -2.005800
  C     -8.573310   -0.245430   -3.016500
  N     -9.062170    0.651480   -3.539460
  C     -6.656020   -3.602740   -0.731100
  C     -5.967420   -4.760980   -0.282120
  C     -5.916650   -6.017080   -0.877020
  C     -6.509610   -6.267120   -2.128480
  N     -6.951610   -6.412200   -3.175540
  C     -5.100030   -6.921650   -0.160480
  C     -4.537510   -6.319800    0.968050
  S     -4.956820   -4.665170    1.145440
  S     -3.544530   -7.354310    1.939510
  C     -3.882640   -8.632240    0.820180
  C     -4.704740   -8.288650   -0.250880
  C     -4.915680   -9.390380   -1.113720
  C     -5.696340   -9.405240   -2.278400
  N     -6.328380   -9.492790   -3.231730
  C     -4.247600  -10.542130   -0.682810
  S     -3.377770  -10.277240    0.816890
  C     -4.241160  -11.774370   -1.356570
  C     -3.576170  -12.913410   -0.991680
  C     -3.602480  -14.146770   -1.694570
  C     -2.876490  -15.139060   -1.116890
  C     -2.215550  -14.749440    0.072060
  S     -2.565320  -13.067220    0.434800
  C     -1.399270  -15.514720    0.873480
  C     -1.092140  -16.890690    0.737400
  C     -0.216480  -17.359940    1.661420
  C      0.260610  -16.371340    2.564330
  S     -0.553010  -14.838150    2.251420
  C      1.270260  -16.536560    3.462880
  N      1.840240  -15.530350    4.170200
  C      2.990020  -15.616340    4.875200
  S      3.562410  -17.154300    5.447280
  C      4.848650  -16.346560    6.293390
  N      5.750560  -17.147840    7.001330
  O      6.658130  -16.595790    7.594080
  O      5.550870  -18.350920    6.964910
  C      4.828550  -14.988630    6.144170
  C      3.792290  -14.540330    5.298260
  C      3.658960  -13.152750    4.954300
  C      3.104210  -12.605090    3.844970
  C      2.712290  -13.293070    2.663300
  C      1.808120  -12.865990    1.739500
  C      1.642930  -13.535300    0.422140
  O      2.117180  -14.597360    0.087310
  C      0.788500  -12.625140   -0.371650
  C      0.317850  -12.766080   -1.644990
  C     -0.491360  -11.745810   -2.196160
  C     -0.737720  -10.561940   -1.442220
  C     -1.511560   -9.533310   -2.013660
  C     -2.055370   -9.686230   -3.258380
  C     -1.837680  -10.870680   -3.990940
  C     -1.063150  -11.873530   -3.476230
  F     -2.389700  -11.006350   -5.200930
  F     -2.801440   -8.709990   -3.784450
  C     -0.254080  -10.449690   -0.119810
  C      0.451880  -11.488330    0.420420
  C      0.894190  -11.746120    1.783390
  C      0.298380  -11.245180    2.914370
  C      0.430050  -11.916130    4.144480
  N      0.487700  -12.548760    5.101540
  C     -0.617080  -10.176760    2.906810
  N     -1.347690   -9.291610    2.933390
  H    -13.133160   -1.077740   -3.932220
  H    -13.781490   -5.769230   -2.467000
  H    -10.814740   -1.137780   -3.177950
  H    -11.414380   -5.855630   -1.674590
  H     -6.167790   -2.658540   -0.522420
  H     -4.832540  -11.816150   -2.262780
  H     -4.168780  -14.251480   -2.602740
  H     -2.788430  -16.134120   -1.513510
  H     -1.528430  -17.488620   -0.041480
  H      0.139750  -18.372960    1.707960
  H      1.715240  -17.514300    3.583890
  H      1.432760  -14.602110    4.080100
  H      5.561680  -14.346290    6.598080
  H      4.060450  -12.476750    5.697410
  H      2.982990  -11.528600    3.834240
  H      3.229060  -14.216520    2.424580
  H      0.545570  -13.649960   -2.221350
  H     -1.687550   -8.620820   -1.465060
  H     -0.896530  -12.767540   -4.056590
  H     -0.465350   -9.554130    0.442670

 Total Charge           Charge          ....    0
 Multiplicity           Mult            ....    1
 Number of Electrons    NEL             ....  600
 Basis Dimension        Dim             .... 1272

ORBITAL ENERGIES
----------------

  NO   OCC          E(Eh)            E(eV)
   0   2.0000     -88.997423     -2421.7430
   1   2.0000     -88.991247     -2421.5749
   2   2.0000     -88.988045     -2421.4878
   3   2.0000     -88.986331     -2421.4412
   4   2.0000     -88.972501     -2421.0648
   5   2.0000     -88.966216     -2420.8938
   6   2.0000     -24.802647      -674.9143
   7   2.0000     -24.801937      -674.8950
   8   2.0000     -24.797201      -674.7661
   9   2.0000     -24.796454      -674.7458
  10   2.0000     -19.244404      -523.6669
  11   2.0000     -19.243856      -523.6520
  12   2.0000     -19.228588      -523.2365
  13   2.0000     -19.218305      -522.9567
  14   2.0000     -14.656159      -398.8144
  15   2.0000     -14.500347      -394.5745
  16   2.0000     -14.442971      -393.0132
  17   2.0000     -14.438455      -392.8903
  18   2.0000     -14.419111      -392.3640
  19   2.0000     -14.418521      -392.3479
  20   2.0000     -14.405724      -391.9997
  21   2.0000     -14.399227      -391.8229
  22   2.0000     -10.387418      -282.6560
  23   2.0000     -10.387080      -282.6468
  24   2.0000     -10.385853      -282.6134
  25   2.0000     -10.380550      -282.4691
  26   2.0000     -10.380507      -282.4679
  27   2.0000     -10.379936      -282.4524
  28   2.0000     -10.370352      -282.1916
  29   2.0000     -10.364041      -282.0199
  30   2.0000     -10.361044      -281.9383
  31   2.0000     -10.354807      -281.7686
  32   2.0000     -10.352272      -281.6996
  33   2.0000     -10.347289      -281.5640
  34   2.0000     -10.347071      -281.5581
  35   2.0000     -10.344755      -281.4951
  36   2.0000     -10.344420      -281.4860
  37   2.0000     -10.342599      -281.4364
  38   2.0000     -10.336683      -281.2755
  39   2.0000     -10.336355      -281.2665
  40   2.0000     -10.335086      -281.2320
  41   2.0000     -10.334199      -281.2079
  42   2.0000     -10.332977      -281.1746
  43   2.0000     -10.329436      -281.0782
  44   2.0000     -10.328682      -281.0577
  45   2.0000     -10.328570      -281.0547
  46   2.0000     -10.328493      -281.0526
  47   2.0000     -10.325232      -280.9638
  48   2.0000     -10.322336      -280.8850
  49   2.0000     -10.321613      -280.8654
  50   2.0000     -10.321470      -280.8615
  51   2.0000     -10.320827      -280.8440
  52   2.0000     -10.318087      -280.7694
  53   2.0000     -10.317983      -280.7666
  54   2.0000     -10.317422      -280.7513
  55   2.0000     -10.317008      -280.7401
  56   2.0000     -10.315309      -280.6938
  57   2.0000     -10.314933      -280.6836
  58   2.0000     -10.313820      -280.6533
  59   2.0000     -10.312966      -280.6301
  60   2.0000     -10.312036      -280.6048
  61   2.0000     -10.310985      -280.5762
  62   2.0000     -10.309918      -280.5471
  63   2.0000     -10.309552      -280.5372
  64   2.0000     -10.309041      -280.5233
  65   2.0000     -10.308346      -280.5044
  66   2.0000     -10.307765      -280.4885
  67   2.0000     -10.306730      -280.4604
  68   2.0000     -10.306240      -280.4471
  69   2.0000     -10.305677      -280.4317
  70   2.0000     -10.305102      -280.4161
  71   2.0000     -10.304965      -280.4124
  72   2.0000     -10.304223      -280.3922
  73   2.0000     -10.302780      -280.3529
  74   2.0000     -10.302398      -280.3425
  75   2.0000     -10.301343      -280.3138
  76   2.0000     -10.299794      -280.2716
  77   2.0000     -10.299399      -280.2609
  78   2.0000     -10.299183      -280.2550
  79   2.0000     -10.298936      -280.2483
  80   2.0000     -10.296780      -280.1896
  81   2.0000     -10.292828      -280.0821
  82   2.0000      -8.092840      -220.2174
  83   2.0000      -8.086618      -220.0481
  84   2.0000      -8.082391      -219.9330
  85   2.0000      -8.079858      -219.8641
  86   2.0000      -8.067393      -219.5249
  87   2.0000      -8.061455      -219.3633
  88   2.0000      -6.062528      -164.9698
  89   2.0000      -6.058118      -164.8498
  90   2.0000      -6.056152      -164.7963
  91   2.0000      -6.054240      -164.7442
  92   2.0000      -6.052385      -164.6938
  93   2.0000      -6.051938      -164.6816
  94   2.0000      -6.049525      -164.6160
  95   2.0000      -6.048261      -164.5816
  96   2.0000      -6.047987      -164.5741
  97   2.0000      -6.045217      -164.4987
  98   2.0000      -6.043325      -164.4472
  99   2.0000      -6.041543      -164.3988
 100   2.0000      -6.037271      -164.2825
 101   2.0000      -6.033317      -164.1749
 102   2.0000      -6.031275      -164.1193
 103   2.0000      -6.028201      -164.0357
 104   2.0000      -6.027266      -164.0102
 105   2.0000      -6.022330      -163.8759
 106   2.0000      -1.325609       -36.0717
 107   2.0000      -1.325290       -36.0630
 108   2.0000      -1.319925       -35.9170
 109   2.0000      -1.310928       -35.6722
 110   2.0000      -1.305041       -35.5120
 111   2.0000      -1.144741       -31.1500
 112   2.0000      -1.142683       -31.0940
 113   2.0000      -1.135183       -30.8899
 114   2.0000      -1.110678       -30.2231
 115   2.0000      -1.044225       -28.4148
 116   2.0000      -1.041877       -28.3509
 117   2.0000      -1.022422       -27.8215
 118   2.0000      -1.021139       -27.7866
 119   2.0000      -1.020294       -27.7636
 120   2.0000      -1.018242       -27.7078
 121   2.0000      -1.013672       -27.5834
 122   2.0000      -1.008849       -27.4522
 123   2.0000      -1.004977       -27.3468
 124   2.0000      -0.997284       -27.1375
 125   2.0000      -0.993859       -27.0443
 126   2.0000      -0.991085       -26.9688
 127   2.0000      -0.988769       -26.9058
 128   2.0000      -0.982575       -26.7372
 129   2.0000      -0.978786       -26.6341
 130   2.0000      -0.953696       -25.9514
 131   2.0000      -0.950395       -25.8616
 132   2.0000      -0.939797       -25.5732
 133   2.0000      -0.932098       -25.3637
 134   2.0000      -0.919410       -25.0184
 135   2.0000      -0.911021       -24.7901
 136   2.0000      -0.907088       -24.6831
 137   2.0000      -0.901494       -24.5309
 138   2.0000      -0.901110       -24.5205
 139   2.0000      -0.894990       -24.3539
 140   2.0000      -0.892182       -24.2775
 141   2.0000      -0.885492       -24.0955
 142   2.0000      -0.881187       -23.9783
 143   2.0000      -0.871702       -23.7202
 144   2.0000      -0.868707       -23.6387
 145   2.0000      -0.864507       -23.5244
 146   2.0000      -0.851739       -23.1770
 147   2.0000      -0.849036       -23.1034
 148   2.0000      -0.843035       -22.9402
 149   2.0000      -0.840186       -22.8626
 150   2.0000      -0.834045       -22.6955
 151   2.0000      -0.825739       -22.4695
 152   2.0000      -0.810457       -22.0537
 153   2.0000      -0.806812       -21.9545
 154   2.0000      -0.788619       -21.4594
 155   2.0000      -0.779012       -21.1980
 156   2.0000      -0.772030       -21.0080
 157   2.0000      -0.768393       -20.9090
 158   2.0000      -0.755976       -20.5712
 159   2.0000      -0.746870       -20.3234
 160   2.0000      -0.738668       -20.1002
 161   2.0000      -0.734299       -19.9813
 162   2.0000      -0.728835       -19.8326
 163   2.0000      -0.724891       -19.7253
 164   2.0000      -0.719826       -19.5875
 165   2.0000      -0.713544       -19.4165
 166   2.0000      -0.709612       -19.3095
 167   2.0000      -0.703976       -19.1562
 168   2.0000      -0.699133       -19.0244
 169   2.0000      -0.694978       -18.9113
 170   2.0000      -0.693309       -18.8659
 171   2.0000      -0.685846       -18.6628
 172   2.0000      -0.674696       -18.3594
 173   2.0000      -0.669046       -18.2057
 174   2.0000      -0.664791       -18.0899
 175   2.0000      -0.660359       -17.9693
 176   2.0000      -0.657070       -17.8798
 177   2.0000      -0.651967       -17.7409
 178   2.0000      -0.650381       -17.6978
 179   2.0000      -0.648138       -17.6367
 180   2.0000      -0.644936       -17.5496
 181   2.0000      -0.644292       -17.5321
 182   2.0000      -0.641282       -17.4502
 183   2.0000      -0.637444       -17.3457
 184   2.0000      -0.636535       -17.3210
 185   2.0000      -0.633032       -17.2257
 186   2.0000      -0.630466       -17.1558
 187   2.0000      -0.620877       -16.8949
 188   2.0000      -0.614471       -16.7206
 189   2.0000      -0.613267       -16.6878
 190   2.0000      -0.608109       -16.5475
 191   2.0000      -0.601494       -16.3675
 192   2.0000      -0.596908       -16.2427
 193   2.0000      -0.594239       -16.1701
 194   2.0000      -0.593438       -16.1483
 195   2.0000      -0.591109       -16.0849
 196   2.0000      -0.588199       -16.0057
 197   2.0000      -0.585710       -15.9380
 198   2.0000      -0.584270       -15.8988
 199   2.0000      -0.577414       -15.7122
 200   2.0000      -0.571658       -15.5556
 201   2.0000      -0.565216       -15.3803
 202   2.0000      -0.563979       -15.3467
 203   2.0000      -0.560780       -15.2596
 204   2.0000      -0.556925       -15.1547
 205   2.0000      -0.554726       -15.0949
 206   2.0000      -0.552971       -15.0471
 207   2.0000      -0.552070       -15.0226
 208   2.0000      -0.551976       -15.0200
 209   2.0000      -0.545897       -14.8546
 210   2.0000      -0.545252       -14.8371
 211   2.0000      -0.543901       -14.8003
 212   2.0000      -0.543259       -14.7828
 213   2.0000      -0.539224       -14.6730
 214   2.0000      -0.536904       -14.6099
 215   2.0000      -0.536286       -14.5931
 216   2.0000      -0.534541       -14.5456
 217   2.0000      -0.530966       -14.4483
 218   2.0000      -0.528236       -14.3740
 219   2.0000      -0.526152       -14.3173
 220   2.0000      -0.524732       -14.2787
 221   2.0000      -0.523464       -14.2442
 222   2.0000      -0.521331       -14.1861
 223   2.0000      -0.517690       -14.0871
 224   2.0000      -0.514815       -14.0088
 225   2.0000      -0.514135       -13.9903
 226   2.0000      -0.513060       -13.9611
 227   2.0000      -0.511628       -13.9221
 228   2.0000      -0.508856       -13.8467
 229   2.0000      -0.504889       -13.7387
 230   2.0000      -0.503192       -13.6926
 231   2.0000      -0.501800       -13.6547
 232   2.0000      -0.499878       -13.6024
 233   2.0000      -0.499291       -13.5864
 234   2.0000      -0.495041       -13.4708
 235   2.0000      -0.493400       -13.4261
 236   2.0000      -0.487739       -13.2720
 237   2.0000      -0.485973       -13.2240
 238   2.0000      -0.484992       -13.1973
 239   2.0000      -0.482748       -13.1362
 240   2.0000      -0.481136       -13.0924
 241   2.0000      -0.474909       -12.9229
 242   2.0000      -0.474737       -12.9183
 243   2.0000      -0.471139       -12.8203
 244   2.0000      -0.470302       -12.7976
 245   2.0000      -0.470070       -12.7913
 246   2.0000      -0.465953       -12.6792
 247   2.0000      -0.463640       -12.6163
 248   2.0000      -0.462948       -12.5975
 249   2.0000      -0.459665       -12.5081
 250   2.0000      -0.457576       -12.4513
 251   2.0000      -0.456345       -12.4178
 252   2.0000      -0.455044       -12.3824
 253   2.0000      -0.452205       -12.3051
 254   2.0000      -0.451044       -12.2735
 255   2.0000      -0.448752       -12.2112
 256   2.0000      -0.446984       -12.1631
 257   2.0000      -0.445981       -12.1358
 258   2.0000      -0.445429       -12.1208
 259   2.0000      -0.440736       -11.9930
 260   2.0000      -0.437601       -11.9077
 261   2.0000      -0.435076       -11.8390
 262   2.0000      -0.434425       -11.8213
 263   2.0000      -0.433088       -11.7849
 264   2.0000      -0.430471       -11.7137
 265   2.0000      -0.427383       -11.6297
 266   2.0000      -0.426322       -11.6008
 267   2.0000      -0.425768       -11.5857
 268   2.0000      -0.422993       -11.5102
 269   2.0000      -0.419626       -11.4186
 270   2.0000      -0.415572       -11.3083
 271   2.0000      -0.413151       -11.2424
 272   2.0000      -0.410377       -11.1669
 273   2.0000      -0.403521       -10.9804
 274   2.0000      -0.396752       -10.7962
 275   2.0000      -0.393183       -10.6991
 276   2.0000      -0.391692       -10.6585
 277   2.0000      -0.387590       -10.5469
 278   2.0000      -0.386037       -10.5046
 279   2.0000      -0.383613       -10.4386
 280   2.0000      -0.383187       -10.4271
 281   2.0000      -0.374273       -10.1845
 282   2.0000      -0.372993       -10.1497
 283   2.0000      -0.366524        -9.9736
 284   2.0000      -0.362367        -9.8605
 285   2.0000      -0.357099        -9.7171
 286   2.0000      -0.349109        -9.4997
 287   2.0000      -0.346613        -9.4318
 288   2.0000      -0.344640        -9.3781
 289   2.0000      -0.342938        -9.3318
 290   2.0000      -0.334094        -9.0912
 291   2.0000      -0.325142        -8.8476
 292   2.0000      -0.318142        -8.6571
 293   2.0000      -0.316717        -8.6183
 294   2.0000      -0.309979        -8.4349
 295   2.0000      -0.301902        -8.2152
 296   2.0000      -0.300217        -8.1693
 297   2.0000      -0.285347        -7.7647
 298   2.0000      -0.280370        -7.6292
 299   2.0000      -0.228797        -6.2259
 300   0.0000      -0.110244        -2.9999
 301   0.0000      -0.101917        -2.7733
 302   0.0000      -0.092445        -2.5156
 303   0.0000      -0.070709        -1.9241
 304   0.0000      -0.062283        -1.6948

MULLIKEN ATOMIC CHARGES
-----------------------
   0 C :   -0.105207
   1 C :    0.240800
   2 F :   -0.170614
   3 C :    0.238741
   4 F :   -0.171116
   5 C :   -0.102263
   6 C :    0.115999
   7 C :    0.115698
   8 C :   -0.085175
   9 C :    0.055986
  10 C :   -0.006404
  11 C :   -0.071295
  12 C :    0.154300
  13 O :   -0.134531
  14 C :   -0.089037
  15 C :    0.304279
  16 C :   -0.337893
  17 C :   -0.203258
  18 N :    0.167093
  19 C :   -0.181716
  20 N :    0.154004
  21 C :    0.006319
  22 C :   -0.131687
  23 C :    0.065226
  24 C :   -0.337059
  25 N :    0.227536
  26 C :    0.115740
  27 C :   -0.219821
  28 S :    0.189813
  29 S :    0.222440
  30 C :   -0.239542
  31 C :    0.175063
  32 C :   -0.030412
  33 C :   -0.323919
  34 N :    0.211141
  35 C :   -0.081775
  36 S :    0.129307
  37 C :   -0.059242
  38 C :   -0.019638
  39 C :    0.031341
  40 C :    0.032424
  41 C :   -0.035625
  42 S :    0.049141
  43 C :   -0.034631
  44 C :    0.025877
  45 C :    0.059452
  46 C :   -0.031616
  47 S :    0.037176
  48 C :    0.039532
  49 N :   -0.035727
  50 C :   -0.117099
  51 S :    0.163661
  52 C :    0.003791
  53 N :    0.278292
  54 O :   -0.247480
  55 O :   -0.264691
  56 C :    0.010261
  57 C :    0.090395
  58 C :    0.034012
  59 C :   -0.006769
  60 C :   -0.074434
  61 C :   -0.091950
  62 C :    0.172395
  63 O :   -0.137443
  64 C :    0.004664
  65 C :   -0.087389
  66 C :    0.134863
  67 C :    0.094775
  68 C :   -0.085574
  69 C :    0.239858
  70 C :    0.244648
  71 C :   -0.110948
  72 F :   -0.163931
  73 F :   -0.160140
  74 C :   -0.076172
  75 C :    0.063634
  76 C :    0.239231
  77 C :   -0.324262
  78 C :   -0.158832
  79 N :    0.124367
  80 C :   -0.122664
  81 N :    0.120614
  82 H :    0.006534
  83 H :    0.001547
  84 H :   -0.006541
  85 H :   -0.006097
  86 H :    0.036047
  87 H :    0.015141
  88 H :   -0.002756
  89 H :   -0.009768
  90 H :   -0.009088
  91 H :   -0.004305
  92 H :    0.027868
  93 H :    0.173426
  94 H :    0.014996
  95 H :    0.014831
  96 H :    0.019307
  97 H :    0.032134
  98 H :   -0.010926
  99 H :    0.004977
 100 H :   -0.003360
 101 H :   -0.008873
Sum of atomic charges:   -0.0000000

LOEWDIN ATOMIC CHARGES
----------------------
   0 C :   -0.029227
   1 C :    0.067165
   2 F :   -0.048271
   3 C :    0.068116
   4 F :   -0.048550
   5 C :   -0.031456
   6 C :   -0.007078
   7 C :   -0.005267
   8 C :    0.018385
   9 C :   -0.021906
  10 C :   -0.048149
  11 C :    0.036388
  12 C :    0.088552
  13 O :   -0.125945
  14 C :   -0.074914
  15 C :    0.075126
  16 C :   -0.130903
  17 C :   -0.022854
  18 N :   -0.046548
  19 C :   -0.016962
  20 N :   -0.047963
  21 C :    0.042280
  22 C :   -0.151989
  23 C :   -0.053153
  24 C :   -0.032616
  25 N :   -0.025141
  26 C :   -0.063546
  27 C :   -0.323330
  28 S :    0.465965
  29 S :    0.458353
  30 C :   -0.339098
  31 C :   -0.061198
  32 C :   -0.109896
  33 C :   -0.043940
  34 N :   -0.041082
  35 C :   -0.134156
  36 S :    0.467623
  37 C :   -0.086715
  38 C :   -0.137362
  39 C :   -0.036039
  40 C :   -0.025811
  41 C :   -0.190208
  42 S :    0.371376
  43 C :   -0.158202
  44 C :   -0.040784
  45 C :   -0.010304
  46 C :   -0.181849
  47 S :    0.387984
  48 C :    0.004448
  49 N :    0.060581
  50 C :   -0.089884
  51 S :    0.461261
  52 C :   -0.209695
  53 N :    0.273581
  54 O :   -0.213627
  55 O :   -0.230803
  56 C :    0.012067
  57 C :   -0.112534
  58 C :    0.030381
  59 C :   -0.055455
  60 C :    0.037353
  61 C :   -0.094368
  62 C :    0.074142
  63 O :   -0.141474
  64 C :   -0.057133
  65 C :    0.033442
  66 C :   -0.006958
  67 C :   -0.010143
  68 C :   -0.029555
  69 C :    0.070466
  70 C :    0.069796
  71 C :   -0.033031
  72 F :   -0.042878
  73 F :   -0.036216
  74 C :    0.008137
  75 C :   -0.028636
  76 C :    0.078717
  77 C :   -0.146043
  78 C :   -0.010263
  79 N :   -0.063642
  80 C :   -0.000081
  81 N :   -0.076344
  82 H :    0.047546
  83 H :    0.045731
  84 H :    0.039841
  85 H :    0.042527
  86 H :    0.046563
  87 H :    0.048982
  88 H :    0.037923
  89 H :    0.034444
  90 H :    0.034797
  91 H :    0.037779
  92 H :    0.033046
  93 H :    0.090993
  94 H :    0.048650
  95 H :    0.043533
  96 H :    0.039825
  97 H :    0.044830
  98 H :    0.040502
  99 H :    0.044835
 100 H :    0.043780
 101 H :    0.033360

  Mayer bond orders larger than 0.100000
B(  0-C ,  1-C ) :   1.4427 B(  0-C ,  5-C ) :   0.1085 B(  0-C ,  7-C ) :   1.1879
B(  0-C , 82-H ) :   1.0057 B(  1-C ,  2-F ) :   1.1352 B(  1-C ,  3-C ) :   1.1909
B(  3-C ,  4-F ) :   1.1340 B(  3-C ,  5-C ) :   1.4442 B(  5-C ,  6-C ) :   1.1920
B(  5-C , 83-H ) :   1.0061 B(  6-C ,  7-C ) :   1.2557 B(  6-C , 11-C ) :   1.1901
B(  7-C ,  8-C ) :   1.2202 B(  8-C ,  9-C ) :   1.4444 B(  8-C , 84-H ) :   0.9890
B(  9-C , 10-C ) :   1.2216 B(  9-C , 15-C ) :   0.9952 B( 10-C , 11-C ) :   1.4748
B( 10-C , 12-C ) :   0.9431 B( 11-C , 85-H ) :   1.0152 B( 12-C , 13-O ) :   2.2251
B( 12-C , 14-C ) :   0.9257 B( 14-C , 15-C ) :   1.0627 B( 14-C , 21-C ) :   1.6500
B( 15-C , 16-C ) :   1.6518 B( 16-C , 17-C ) :   1.1435 B( 16-C , 19-C ) :   1.1428
B( 17-C , 18-N ) :   2.9907 B( 19-C , 20-N ) :   2.9665 B( 21-C , 22-C ) :   1.1489
B( 21-C , 86-H ) :   0.9272 B( 22-C , 23-C ) :   1.4754 B( 22-C , 28-S ) :   1.1126
B( 23-C , 24-C ) :   1.1623 B( 23-C , 26-C ) :   1.3041 B( 24-C , 25-N ) :   2.9941
B( 26-C , 27-C ) :   1.3663 B( 26-C , 31-C ) :   1.0504 B( 27-C , 28-S ) :   1.1166
B( 27-C , 29-S ) :   1.0828 B( 29-S , 30-C ) :   1.0840 B( 30-C , 31-C ) :   1.3938
B( 30-C , 36-S ) :   1.0985 B( 31-C , 32-C ) :   1.2712 B( 32-C , 33-C ) :   1.1844
B( 32-C , 35-C ) :   1.4430 B( 33-C , 34-N ) :   2.9770 B( 35-C , 36-S ) :   1.0905
B( 35-C , 37-C ) :   1.2172 B( 37-C , 38-C ) :   1.5561 B( 37-C , 87-H ) :   0.9621
B( 38-C , 39-C ) :   1.1337 B( 38-C , 42-S ) :   1.0415 B( 39-C , 40-C ) :   1.5899
B( 39-C , 88-H ) :   1.0028 B( 40-C , 41-C ) :   1.1773 B( 40-C , 89-H ) :   0.9938
B( 41-C , 42-S ) :   1.0240 B( 41-C , 43-C ) :   1.5297 B( 43-C , 44-C ) :   1.1770
B( 43-C , 47-S ) :   1.0474 B( 44-C , 45-C ) :   1.6243 B( 44-C , 90-H ) :   0.9905
B( 45-C , 46-C ) :   1.1412 B( 45-C , 91-H ) :   0.9920 B( 46-C , 47-S ) :   1.0098
B( 46-C , 48-C ) :   1.6163 B( 48-C , 49-N ) :   1.1515 B( 48-C , 92-H ) :   0.9536
B( 49-N , 50-C ) :   1.2513 B( 49-N , 93-H ) :   0.8760 B( 50-C , 51-S ) :   1.1440
B( 50-C , 57-C ) :   1.3355 B( 51-S , 52-C ) :   1.0598 B( 52-C , 53-N ) :   0.9714
B( 52-C , 56-C ) :   1.5085 B( 53-N , 54-O ) :   1.5363 B( 53-N , 55-O ) :   1.5083
B( 54-O , 55-O ) :   0.2587 B( 56-C , 57-C ) :   1.2089 B( 56-C , 94-H ) :   1.0055
B( 57-C , 58-C ) :   1.0991 B( 58-C , 59-C ) :   1.7153 B( 58-C , 95-H ) :   0.9606
B( 59-C , 60-C ) :   1.1062 B( 59-C , 96-H ) :   0.9454 B( 60-C , 61-C ) :   1.6472
B( 60-C , 97-H ) :   0.9458 B( 61-C , 62-C ) :   0.9223 B( 61-C , 76-C ) :   1.0409
B( 62-C , 63-O ) :   2.2771 B( 62-C , 64-C ) :   0.9212 B( 64-C , 65-C ) :   1.4653
B( 64-C , 75-C ) :   1.2202 B( 65-C , 66-C ) :   1.1866 B( 65-C , 98-H ) :   1.0201
B( 66-C , 67-C ) :   1.2634 B( 66-C , 71-C ) :   1.1889 B( 67-C , 68-C ) :   1.1941
B( 67-C , 74-C ) :   1.2094 B( 68-C , 69-C ) :   1.4372 B( 68-C , 71-C ) :   0.1062
B( 68-C , 99-H ) :   1.0060 B( 69-C , 70-C ) :   1.1868 B( 69-C , 73-F ) :   1.1366
B( 70-C , 71-C ) :   1.4371 B( 70-C , 72-F ) :   1.1423 B( 71-C ,100-H ) :   1.0072
B( 74-C , 75-C ) :   1.4395 B( 74-C ,101-H ) :   0.9943 B( 75-C , 76-C ) :   1.0081
B( 76-C , 77-C ) :   1.6264 B( 77-C , 78-C ) :   1.1771 B( 77-C , 80-C ) :   1.1333
B( 78-C , 79-N ) :   2.8968 B( 80-C , 81-N ) :   2.9456

-----------------------------------------------------------------------------
         ABSORPTION SPECTRUM VIA TRANSITION ELECTRIC DIPOLE MOMENTS
-----------------------------------------------------------------------------
State   Energy  Wavelength   fosc         T2         TX        TY        TZ
        (cm-1)    (nm)                  (au**2)     (au)      (au)      (au)
-----------------------------------------------------------------------------
   0    8578.5   1165.7   0.016889068   0.64814   0.78430   0.00141   0.18169
   1   14989.0    667.2   0.982573214  21.58085  -3.17943   2.74837  -1.97952
   2   16514.0    605.5   0.184667250   3.68140   0.95451  -1.46836   0.78374
   3   16942.0    590.2   0.035615931   0.69208  -0.52350   0.19298  -0.61707
   4   19685.3    508.0   0.617108967  10.32038  -1.61458   2.38905  -1.41631
   5   21969.4    455.2   0.412722689   6.18466   1.31487  -2.01850   0.61760
   6   23218.2    430.7   0.040249424   0.57070  -0.33550  -0.58847  -0.33442
   7   23787.3    420.4   0.076488890   1.05859   0.54936  -0.74541   0.44850
   8   24203.6    413.2   0.109562686   1.49025  -0.85646   0.38720  -0.77897
   9   25445.1    393.0   0.216187541   2.79706   1.06626  -0.86852   0.95175
  10   26052.8    383.8   0.261219547   3.30086   0.85040   1.18216   1.08636
  11   26288.9    380.4   0.063675656   0.79740   0.82232   0.21002   0.27765
  12   26415.1    378.6   0.053387109   0.66537   0.48314  -0.44278   0.48568
  13   26637.3    375.4   0.157624138   1.94809  -0.72486   0.24342  -1.16765
  14   27028.9    370.0   0.145999168   1.77827  -1.10694   0.56683  -0.48131
  15   27732.2    360.6   0.036751037   0.43627   0.62516  -0.20625   0.05396
  16   28094.1    355.9   0.049126443   0.57567   0.15935  -0.39044  -0.63075
  17   28360.9    352.6   0.027463335   0.31879  -0.27972  -0.48999   0.02152
  18   28466.1    351.3   0.013421055   0.15522  -0.34527   0.07732  -0.17328
  19   28669.8    348.8   0.033696618   0.38693  -0.43559  -0.44386   0.01345
  20   29087.9    343.8   0.028991571   0.32812  -0.17322  -0.23217   0.49418
  21   29504.2    338.9   0.008210653   0.09162   0.21153   0.19407  -0.09594
  22   30043.9    332.8   0.002938364   0.03220  -0.00968   0.09086   0.15443
  23   30132.6    331.9   0.067114187   0.73325   0.70852  -0.41416   0.24438
  24   30270.2    330.4   0.199593978   2.17074   1.42445   0.37136   0.06149
  25   30604.9    326.7   0.054256802   0.58363  -0.42884  -0.18930  -0.60324
  26   31195.9    320.6   0.080483528   0.84935   0.05396  -0.79582   0.46164
  27   31823.6    314.2   0.185634281   1.92037   0.22392  -0.16942  -1.35703
  28   31882.8    313.6   0.381690129   3.94121   1.56433   0.17110   1.21029
  29   32807.7    304.8   0.323852219   3.24972   1.07780  -0.83479   1.17949
  30   33043.6    302.6   0.090750345   0.90414   0.73094  -0.32254   0.51559
  31   33090.5    302.2   0.115792189   1.15200   0.10861   0.20810  -1.04733
  32   33143.3    301.7   0.097617736   0.96963   0.76748  -0.06539   0.61347
  33   33322.2    300.1   0.019169121   0.18938   0.03457   0.21317  -0.37782
  34   33571.1    297.9   0.025017445   0.24533  -0.38467  -0.21827  -0.22298
  35   33602.1    297.6   0.086163689   0.84418  -0.29386   0.52376  -0.69534
  36   33632.8    297.3   0.530280390   5.19061   2.09052   0.82245   0.37938
  37   33903.9    295.0   0.048011111   0.46619  -0.54044   0.27692  -0.31215
  38   33930.7    294.7   0.151393337   1.46889  -0.05806   0.02160  -1.21039
  39   34141.0    292.9   0.047533108   0.45835  -0.09038  -0.32452  -0.58725
  40   34561.8    289.3   0.024089155   0.22946  -0.42685  -0.17759  -0.12539
  41   34773.7    287.6   0.162795185   1.54123   0.18168   0.19465   1.21257
  42   34907.6    286.5   0.017569020   0.16569   0.15925  -0.26717   0.26259
  43   35394.7    282.5   0.024408355   0.22703  -0.26664  -0.25551  -0.30107
  44   35766.1    279.6   0.041413796   0.38120  -0.52606   0.11921  -0.30040
  45   35853.8    278.9   0.006555408   0.06019  -0.13646  -0.08594   0.18489
  46   36078.0    277.2   0.010621468   0.09692   0.18542  -0.22068   0.11765
  47   36488.4    274.1   0.041802968   0.37716  -0.26634   0.03083  -0.55252
  48   36941.9    270.7   0.003939621   0.03511   0.17230   0.07026  -0.02199
  49   36990.6    270.3   0.062160386   0.55322   0.43215   0.28009   0.53667
  50   37118.8    269.4   0.015093857   0.13387   0.28558   0.08370  -0.21286
  51   37166.3    269.1   0.002589988   0.02294  -0.12144  -0.08920   0.01542
  52   37358.4    267.7   0.075472528   0.66508  -0.68277  -0.43255  -0.10867
  53   37435.4    267.1   0.093284126   0.82035  -0.17724   0.83584   0.30052
  54   37506.6    266.6   0.004558478   0.04001  -0.19914   0.01123   0.01508
  55   37829.4    264.3   0.014980542   0.13037   0.32237  -0.13691   0.08777
  56   38071.6    262.7   0.004925786   0.04259   0.04286  -0.03208   0.19932
  57   38201.8    261.8   0.020154954   0.17369   0.09357   0.06377   0.40108
  58   38318.5    261.0   0.012880891   0.11067  -0.03862   0.29361   0.15155
  59   38516.5    259.6   0.001708720   0.01460  -0.03358  -0.10642   0.04639
  60   38638.1    258.8   0.011427719   0.09737  -0.09785  -0.23090  -0.18568
  61   38789.1    257.8   0.125107916   1.06182   0.58367  -0.72082   0.44896
  62   38996.7    256.4   0.052241471   0.44102  -0.44201   0.30296  -0.39225
  63   39194.1    255.1   0.125089472   1.05069   0.43622  -0.90756   0.19170
  64   39520.1    253.0   0.348412330   2.90236  -1.00824   1.36392  -0.15975
  65   39758.0    251.5   0.023354645   0.19339   0.39697  -0.13796   0.12948
  66   39763.3    251.5   0.274680521   2.27416   0.11122  -1.23241   0.86194
  67   40152.7    249.0   0.008862395   0.07266   0.03360  -0.26745   0.00257

FINAL SINGLE POINT ENERGY     -5820.618322179474

DIPOLE MOMENT
-------------
                                X             Y             Z
Electronic contribution:    -34.64200      36.48476     -13.78314
Nuclear contribution   :     35.86054     -39.09279      14.74849
                        -----------------------------------------
Total Dipole Moment    :      1.21854      -2.60803       0.96535
                        -----------------------------------------
Magnitude (a.u.)       :      3.03621
Magnitude (Debye)      :      7.71743

Rotational constants in cm-1:     0.001844     0.000242     0.000233
Rotational constants in MHz :    55.284219     7.240669     6.998389

                             ****ORCA TERMINATED NORMALLY****
TOTAL RUN TIME: 0 days 0 hours 14 minutes 23 seconds 771 msec
