                         Program Version 4.2.0 -  RELEASE  -
|  1> # ORCA input file
|  2> # SCF done       -158.865707631298          0.000769833643
|  3> ! CAM-B3LYP def2-SVP def2/J RIJCOSX Grid4 TightSCF
|  4> %maxcore 5000
|  5> %tddft
|  6>     Mode sTDDFT
|  7>     Ethresh 5.0
|  8>     maxcore 5000
|  9> end
| 10>
| 11> %pal
| 12>   nprocs 6
| 13>   end
| 14> * xyz 0 1
| 15>    C        8.16329       -10.28065        -7.77114
| 16>    C        7.89085        -9.50007        -6.71748
| 17>    C        6.60576        -9.03382        -6.27865
| 18>    C        6.63994        -8.26264        -5.17081
| 19>    C        7.94582        -8.05345        -4.64100
| 20>    S        9.13821        -8.87978        -5.62298
| 21>    C        8.28478        -7.33137        -3.52355
| 22>    C        7.42204        -6.64022        -2.63654
| 23>    C        8.06260        -6.03921        -1.60244
| 24>    C        9.47458        -6.21417        -1.59971
| 25>    S        9.95327        -7.16832        -2.99252
| 26>    C       10.31833        -5.73704        -0.63280
| 27>    C       11.72425        -5.84334        -0.57778
| 28>    S       12.63512        -6.34614        -1.99547
| 29>    C       14.11934        -6.05717        -1.24264
| 30>    C       13.96774        -5.60026         0.04414
| 31>    N       15.08488        -5.21648         0.80555
| 32>    O       16.18805        -5.50754         0.40148
| 33>    O       14.89309        -4.59132         1.85283
| 34>    C       12.59676        -5.50063         0.46188
| 35>    N       12.32664        -5.15139         1.75099
| 36>    C       11.15713        -5.00233         2.44496
| 37>    C       11.16532        -4.40898         3.65390
| 38>    N       10.03296        -4.12656         4.39129
| 39>    C        9.95036        -3.19617         5.37980
| 40>    S        8.66560        -3.36841         6.54261
| 41>    C        9.29611        -2.01782         7.43543
| 42>    N        8.60757        -1.62155         8.57772
| 43>    O        9.04836        -0.67774         9.21222
| 44>    O        7.60128        -2.25654         8.86093
| 45>    C       10.42174        -1.48292         6.86587
| 46>    C       10.79916        -2.11700         5.66990
| 47>    C       11.91793        -1.65164         4.87468
| 48>    C       11.95667        -1.67152         3.52908
| 49>    C       13.11406        -1.42297         2.73264
| 50>    S       14.59394        -0.79989         3.41446
| 51>    C       15.42434        -1.00164         1.95154
| 52>    C       14.63730        -1.55999         0.97668
| 53>    N       15.21486        -2.04630        -0.22338
| 54>    O       16.25541        -1.54889        -0.59951
| 55>    O       14.64706        -2.97744        -0.77554
| 56>    C       13.28554        -1.77225         1.39607
| 57>    N       12.28028        -2.29368         0.62224
| 58>    C       12.10377        -2.13261        -0.73178
| 59>    C       12.66931        -1.16133        -1.48439
| 60>    C       12.51641        -1.05891        -2.88189
| 61>    C       13.09861        -0.07985        -3.63680
| 62>    C       13.02814         0.07129        -5.04763
| 63>    C       13.72533         1.12879        -5.53459
| 64>    C       14.38868         1.89329        -4.53982
| 65>    S       14.09085         1.20547        -2.95525
| 66>    C       15.16282         3.01342        -4.71669
| 67>    C       15.48970         3.65271        -5.94594
| 68>    C       16.27650         4.74274        -5.81639
| 69>    C       16.63593         5.05847        -4.46316
| 70>    S       15.90492         3.86709        -3.37596
| 71>    C       17.39536         6.07442        -4.03280
| 72>    H        7.37377       -10.63681        -8.40907
| 73>    H        9.16813       -10.57509        -8.01263
| 74>    H        5.71333        -9.30147        -6.81609
| 75>    H        5.77180        -7.83061        -4.70537
| 76>    H        6.35772        -6.61366        -2.78560
| 77>    H        7.56923        -5.47479        -0.83011
| 78>    H        9.83573        -5.18107         0.15752
| 79>    H       15.04880        -6.18620        -1.75982
| 80>    H       13.16911        -4.83488         2.24104
| 81>    H       10.25183        -5.39804         2.01444
| 82>    H       12.09206        -4.06894         4.08608
| 83>    H        9.20386        -4.67752         4.21595
| 84>    H       10.93239        -0.63488         7.28528
| 85>    H       12.76353        -1.26604         5.42771
| 86>    H       11.06910        -1.97096         2.98724
| 87>    H       16.46702        -0.76909         1.86238
| 88>    H       11.52380        -2.73073         1.12763
| 89>    H       11.43775        -2.85798        -1.17809
| 90>    H       13.28563        -0.40719        -1.01115
| 91>    H       11.92630        -1.80965        -3.38952
| 92>    H       12.46615        -0.61951        -5.65161
| 93>    H       13.78554         1.38562        -6.57709
| 94>    H       15.12916         3.27381        -6.88629
| 95>    H       16.62728         5.34959        -6.63207
| 96>    H       17.82022         6.77504        -4.72940
| 97>    H       17.60493         6.22173        -2.98923
| 98> *
| 99>
|100>                          ****END OF INPUT****

CARTESIAN COORDINATES (ANGSTROEM)
---------------------------------
  C      8.163290  -10.280650   -7.771140
  C      7.890850   -9.500070   -6.717480
  C      6.605760   -9.033820   -6.278650
  C      6.639940   -8.262640   -5.170810
  C      7.945820   -8.053450   -4.641000
  S      9.138210   -8.879780   -5.622980
  C      8.284780   -7.331370   -3.523550
  C      7.422040   -6.640220   -2.636540
  C      8.062600   -6.039210   -1.602440
  C      9.474580   -6.214170   -1.599710
  S      9.953270   -7.168320   -2.992520
  C     10.318330   -5.737040   -0.632800
  C     11.724250   -5.843340   -0.577780
  S     12.635120   -6.346140   -1.995470
  C     14.119340   -6.057170   -1.242640
  C     13.967740   -5.600260    0.044140
  N     15.084880   -5.216480    0.805550
  O     16.188050   -5.507540    0.401480
  O     14.893090   -4.591320    1.852830
  C     12.596760   -5.500630    0.461880
  N     12.326640   -5.151390    1.750990
  C     11.157130   -5.002330    2.444960
  C     11.165320   -4.408980    3.653900
  N     10.032960   -4.126560    4.391290
  C      9.950360   -3.196170    5.379800
  S      8.665600   -3.368410    6.542610
  C      9.296110   -2.017820    7.435430
  N      8.607570   -1.621550    8.577720
  O      9.048360   -0.677740    9.212220
  O      7.601280   -2.256540    8.860930
  C     10.421740   -1.482920    6.865870
  C     10.799160   -2.117000    5.669900
  C     11.917930   -1.651640    4.874680
  C     11.956670   -1.671520    3.529080
  C     13.114060   -1.422970    2.732640
  S     14.593940   -0.799890    3.414460
  C     15.424340   -1.001640    1.951540
  C     14.637300   -1.559990    0.976680
  N     15.214860   -2.046300   -0.223380
  O     16.255410   -1.548890   -0.599510
  O     14.647060   -2.977440   -0.775540
  C     13.285540   -1.772250    1.396070
  N     12.280280   -2.293680    0.622240
  C     12.103770   -2.132610   -0.731780
  C     12.669310   -1.161330   -1.484390
  C     12.516410   -1.058910   -2.881890
  C     13.098610   -0.079850   -3.636800
  C     13.028140    0.071290   -5.047630
  C     13.725330    1.128790   -5.534590
  C     14.388680    1.893290   -4.539820
  S     14.090850    1.205470   -2.955250
  C     15.162820    3.013420   -4.716690
  C     15.489700    3.652710   -5.945940
  C     16.276500    4.742740   -5.816390
  C     16.635930    5.058470   -4.463160
  S     15.904920    3.867090   -3.375960
  C     17.395360    6.074420   -4.032800
  H      7.373770  -10.636810   -8.409070
  H      9.168130  -10.575090   -8.012630
  H      5.713330   -9.301470   -6.816090
  H      5.771800   -7.830610   -4.705370
  H      6.357720   -6.613660   -2.785600
  H      7.569230   -5.474790   -0.830110
  H      9.835730   -5.181070    0.157520
  H     15.048800   -6.186200   -1.759820
  H     13.169110   -4.834880    2.241040
  H     10.251830   -5.398040    2.014440
  H     12.092060   -4.068940    4.086080
  H      9.203860   -4.677520    4.215950
  H     10.932390   -0.634880    7.285280
  H     12.763530   -1.266040    5.427710
  H     11.069100   -1.970960    2.987240
  H     16.467020   -0.769090    1.862380
  H     11.523800   -2.730730    1.127630
  H     11.437750   -2.857980   -1.178090
  H     13.285630   -0.407190   -1.011150
  H     11.926300   -1.809650   -3.389520
  H     12.466150   -0.619510   -5.651610
  H     13.785540    1.385620   -6.577090
  H     15.129160    3.273810   -6.886290
  H     16.627280    5.349590   -6.632070
  H     17.820220    6.775040   -4.729400
  H     17.604930    6.221730   -2.989230

 Total Charge           Charge          ....    0
 Multiplicity           Mult            ....    1
 Number of Electrons    NEL             ....  456
 Basis Dimension        Dim             ....  956

ORBITAL ENERGIES
----------------

  NO   OCC          E(Eh)            E(eV)
   0   2.0000     -88.978959     -2421.2406
   1   2.0000     -88.978745     -2421.2347
   2   2.0000     -88.977545     -2421.2021
   3   2.0000     -88.951511     -2420.4937
   4   2.0000     -88.943084     -2420.2644
   5   2.0000     -88.926184     -2419.8045
   6   2.0000     -88.922382     -2419.7010
   7   2.0000     -19.250863      -523.8426
   8   2.0000     -19.250187      -523.8242
   9   2.0000     -19.239906      -523.5444
  10   2.0000     -19.238566      -523.5080
  11   2.0000     -19.228089      -523.2229
  12   2.0000     -19.227468      -523.2060
  13   2.0000     -14.657241      -398.8438
  14   2.0000     -14.645442      -398.5227
  15   2.0000     -14.639956      -398.3735
  16   2.0000     -14.480674      -394.0392
  17   2.0000     -14.457498      -393.4085
  18   2.0000     -14.456420      -393.3792
  19   2.0000     -10.367959      -282.1265
  20   2.0000     -10.349537      -281.6252
  21   2.0000     -10.342168      -281.4247
  22   2.0000     -10.334275      -281.2099
  23   2.0000     -10.332713      -281.1674
  24   2.0000     -10.331144      -281.1247
  25   2.0000     -10.330306      -281.1019
  26   2.0000     -10.325085      -280.9598
  27   2.0000     -10.324571      -280.9459
  28   2.0000     -10.324318      -280.9390
  29   2.0000     -10.315622      -280.7023
  30   2.0000     -10.315593      -280.7016
  31   2.0000     -10.315040      -280.6865
  32   2.0000     -10.313500      -280.6446
  33   2.0000     -10.312626      -280.6208
  34   2.0000     -10.311565      -280.5920
  35   2.0000     -10.310909      -280.5741
  36   2.0000     -10.304425      -280.3977
  37   2.0000     -10.298927      -280.2481
  38   2.0000     -10.296038      -280.1694
  39   2.0000     -10.295736      -280.1612
  40   2.0000     -10.294399      -280.1248
  41   2.0000     -10.294390      -280.1246
  42   2.0000     -10.293065      -280.0885
  43   2.0000     -10.291848      -280.0554
  44   2.0000     -10.291740      -280.0525
  45   2.0000     -10.291443      -280.0444
  46   2.0000     -10.290269      -280.0125
  47   2.0000     -10.289863      -280.0014
  48   2.0000     -10.287809      -279.9455
  49   2.0000     -10.275419      -279.6084
  50   2.0000     -10.274840      -279.5926
  51   2.0000     -10.271997      -279.5153
  52   2.0000     -10.271063      -279.4898
  53   2.0000     -10.268655      -279.4243
  54   2.0000     -10.268598      -279.4228
  55   2.0000     -10.261296      -279.2241
  56   2.0000     -10.253731      -279.0182
  57   2.0000      -8.074360      -219.7145
  58   2.0000      -8.074310      -219.7132
  59   2.0000      -8.073579      -219.6933
  60   2.0000      -8.047637      -218.9873
  61   2.0000      -8.039828      -218.7748
  62   2.0000      -8.022500      -218.3033
  63   2.0000      -8.019092      -218.2106
  64   2.0000      -6.043553      -164.4534
  65   2.0000      -6.043520      -164.4525
  66   2.0000      -6.043353      -164.4480
  67   2.0000      -6.039395      -164.3403
  68   2.0000      -6.039257      -164.3365
  69   2.0000      -6.038915      -164.3272
  70   2.0000      -6.036663      -164.2659
  71   2.0000      -6.036633      -164.2651
  72   2.0000      -6.034785      -164.2148
  73   2.0000      -6.017500      -163.7445
  74   2.0000      -6.013388      -163.6326
  75   2.0000      -6.009679      -163.5317
  76   2.0000      -6.008340      -163.4952
  77   2.0000      -6.005731      -163.4243
  78   2.0000      -6.000323      -163.2771
  79   2.0000      -5.992276      -163.0581
  80   2.0000      -5.988943      -162.9674
  81   2.0000      -5.988393      -162.9525
  82   2.0000      -5.985047      -162.8614
  83   2.0000      -5.983196      -162.8110
  84   2.0000      -5.979562      -162.7122
  85   2.0000      -1.327533       -36.1240
  86   2.0000      -1.317238       -35.8439
  87   2.0000      -1.307570       -35.5808
  88   2.0000      -1.145468       -31.1698
  89   2.0000      -1.136799       -30.9339
  90   2.0000      -1.126432       -30.6518
  91   2.0000      -1.086008       -29.5518
  92   2.0000      -1.069383       -29.0994
  93   2.0000      -1.062185       -28.9035
  94   2.0000      -1.005120       -27.3507
  95   2.0000      -0.999306       -27.1925
  96   2.0000      -0.997655       -27.1476
  97   2.0000      -0.994896       -27.0725
  98   2.0000      -0.976162       -26.5627
  99   2.0000      -0.974866       -26.5275
 100   2.0000      -0.953497       -25.9460
 101   2.0000      -0.925942       -25.1962
 102   2.0000      -0.922332       -25.0979
 103   2.0000      -0.902447       -24.5568
 104   2.0000      -0.895569       -24.3697
 105   2.0000      -0.892230       -24.2788
 106   2.0000      -0.888616       -24.1805
 107   2.0000      -0.870861       -23.6973
 108   2.0000      -0.864674       -23.5290
 109   2.0000      -0.858171       -23.3520
 110   2.0000      -0.851441       -23.1689
 111   2.0000      -0.850441       -23.1417
 112   2.0000      -0.834100       -22.6970
 113   2.0000      -0.830274       -22.5929
 114   2.0000      -0.829285       -22.5660
 115   2.0000      -0.817494       -22.2452
 116   2.0000      -0.809891       -22.0383
 117   2.0000      -0.799761       -21.7626
 118   2.0000      -0.793345       -21.5880
 119   2.0000      -0.776842       -21.1390
 120   2.0000      -0.765131       -20.8203
 121   2.0000      -0.760060       -20.6823
 122   2.0000      -0.755351       -20.5541
 123   2.0000      -0.745017       -20.2729
 124   2.0000      -0.733151       -19.9500
 125   2.0000      -0.724554       -19.7161
 126   2.0000      -0.716720       -19.5029
 127   2.0000      -0.694855       -18.9080
 128   2.0000      -0.690106       -18.7787
 129   2.0000      -0.689701       -18.7677
 130   2.0000      -0.681371       -18.5410
 131   2.0000      -0.669935       -18.2299
 132   2.0000      -0.663855       -18.0644
 133   2.0000      -0.657195       -17.8832
 134   2.0000      -0.650224       -17.6935
 135   2.0000      -0.643383       -17.5073
 136   2.0000      -0.641400       -17.4534
 137   2.0000      -0.634797       -17.2737
 138   2.0000      -0.631431       -17.1821
 139   2.0000      -0.630395       -17.1539
 140   2.0000      -0.627423       -17.0731
 141   2.0000      -0.624434       -16.9917
 142   2.0000      -0.622458       -16.9379
 143   2.0000      -0.620881       -16.8950
 144   2.0000      -0.619508       -16.8577
 145   2.0000      -0.613595       -16.6968
 146   2.0000      -0.609957       -16.5978
 147   2.0000      -0.607925       -16.5425
 148   2.0000      -0.602198       -16.3866
 149   2.0000      -0.600413       -16.3381
 150   2.0000      -0.597794       -16.2668
 151   2.0000      -0.588050       -16.0016
 152   2.0000      -0.585569       -15.9341
 153   2.0000      -0.583350       -15.8738
 154   2.0000      -0.583039       -15.8653
 155   2.0000      -0.578847       -15.7512
 156   2.0000      -0.566810       -15.4237
 157   2.0000      -0.563209       -15.3257
 158   2.0000      -0.555831       -15.1249
 159   2.0000      -0.550526       -14.9806
 160   2.0000      -0.545032       -14.8311
 161   2.0000      -0.538090       -14.6422
 162   2.0000      -0.536468       -14.5980
 163   2.0000      -0.528310       -14.3760
 164   2.0000      -0.523888       -14.2557
 165   2.0000      -0.521919       -14.2021
 166   2.0000      -0.517879       -14.0922
 167   2.0000      -0.514272       -13.9941
 168   2.0000      -0.512566       -13.9476
 169   2.0000      -0.508547       -13.8383
 170   2.0000      -0.505353       -13.7513
 171   2.0000      -0.502410       -13.6713
 172   2.0000      -0.499626       -13.5955
 173   2.0000      -0.497691       -13.5428
 174   2.0000      -0.497339       -13.5333
 175   2.0000      -0.493313       -13.4237
 176   2.0000      -0.490142       -13.3374
 177   2.0000      -0.488599       -13.2954
 178   2.0000      -0.485558       -13.2127
 179   2.0000      -0.479298       -13.0424
 180   2.0000      -0.476707       -12.9719
 181   2.0000      -0.473989       -12.8979
 182   2.0000      -0.472106       -12.8467
 183   2.0000      -0.469367       -12.7721
 184   2.0000      -0.464230       -12.6323
 185   2.0000      -0.461656       -12.5623
 186   2.0000      -0.457837       -12.4584
 187   2.0000      -0.456073       -12.4104
 188   2.0000      -0.447991       -12.1904
 189   2.0000      -0.444344       -12.0912
 190   2.0000      -0.441531       -12.0147
 191   2.0000      -0.440213       -11.9788
 192   2.0000      -0.438791       -11.9401
 193   2.0000      -0.434217       -11.8156
 194   2.0000      -0.426629       -11.6092
 195   2.0000      -0.421414       -11.4673
 196   2.0000      -0.412543       -11.2259
 197   2.0000      -0.404823       -11.0158
 198   2.0000      -0.403836       -10.9889
 199   2.0000      -0.401572       -10.9273
 200   2.0000      -0.401473       -10.9246
 201   2.0000      -0.395328       -10.7574
 202   2.0000      -0.394703       -10.7404
 203   2.0000      -0.389219       -10.5912
 204   2.0000      -0.381905       -10.3922
 205   2.0000      -0.381468       -10.3803
 206   2.0000      -0.378215       -10.2917
 207   2.0000      -0.376873       -10.2552
 208   2.0000      -0.375933       -10.2297
 209   2.0000      -0.369818       -10.0633
 210   2.0000      -0.367605       -10.0031
 211   2.0000      -0.360855        -9.8194
 212   2.0000      -0.356723        -9.7069
 213   2.0000      -0.356452        -9.6995
 214   2.0000      -0.347281        -9.4500
 215   2.0000      -0.346279        -9.4227
 216   2.0000      -0.343071        -9.3354
 217   2.0000      -0.329910        -8.9773
 218   2.0000      -0.324158        -8.8208
 219   2.0000      -0.322510        -8.7759
 220   2.0000      -0.319168        -8.6850
 221   2.0000      -0.307105        -8.3567
 222   2.0000      -0.302223        -8.2239
 223   2.0000      -0.282320        -7.6823
 224   2.0000      -0.265835        -7.2337
 225   2.0000      -0.251528        -6.8444
 226   2.0000      -0.217650        -5.9226
 227   2.0000      -0.199097        -5.4177
 228   0.0000      -0.073458        -1.9989
 229   0.0000      -0.057005        -1.5512
 230   0.0000      -0.050750        -1.3810
 231   0.0000      -0.047632        -1.2961
 232   0.0000      -0.044594        -1.2135

MULLIKEN ATOMIC CHARGES
-----------------------
   0 C :   -0.026088
   1 C :   -0.065565
   2 C :    0.054709
   3 C :    0.031193
   4 C :   -0.069999
   5 S :    0.080634
   6 C :   -0.040222
   7 C :    0.030531
   8 C :    0.024662
   9 C :   -0.043410
  10 S :    0.062887
  11 C :   -0.042771
  12 C :   -0.238267
  13 S :    0.155491
  14 C :   -0.056376
  15 C :    0.125211
  16 N :    0.278841
  17 O :   -0.220988
  18 O :   -0.289181
  19 C :    0.128155
  20 N :   -0.033156
  21 C :    0.004962
  22 C :    0.033396
  23 N :   -0.046959
  24 C :   -0.122514
  25 S :    0.152768
  26 C :   -0.012574
  27 N :    0.281704
  28 O :   -0.259144
  29 O :   -0.275812
  30 C :    0.004565
  31 C :    0.090260
  32 C :   -0.076962
  33 C :   -0.006364
  34 C :   -0.179501
  35 S :    0.164163
  36 C :   -0.074494
  37 C :    0.089980
  38 N :    0.265018
  39 O :   -0.229758
  40 O :   -0.245654
  41 C :    0.100953
  42 N :   -0.025621
  43 C :    0.049971
  44 C :   -0.014328
  45 C :   -0.017426
  46 C :   -0.026626
  47 C :    0.038744
  48 C :    0.019808
  49 C :   -0.040942
  50 S :    0.056643
  51 C :   -0.074759
  52 C :    0.032004
  53 C :    0.045418
  54 C :   -0.061186
  55 S :    0.069876
  56 C :   -0.037187
  57 H :    0.021993
  58 H :    0.023487
  59 H :   -0.009861
  60 H :   -0.011776
  61 H :   -0.013005
  62 H :   -0.019648
  63 H :   -0.033115
  64 H :    0.047109
  65 H :    0.143223
  66 H :    0.009288
  67 H :    0.048879
  68 H :    0.132435
  69 H :    0.007071
  70 H :    0.004069
  71 H :    0.000392
  72 H :    0.047450
  73 H :    0.134478
  74 H :    0.003306
  75 H :    0.011170
  76 H :   -0.020646
  77 H :   -0.019168
  78 H :   -0.019794
  79 H :   -0.017218
  80 H :   -0.018304
  81 H :    0.013582
  82 H :    0.015888
Sum of atomic charges:   -0.0000000

LOEWDIN ATOMIC CHARGES
----------------------
   0 C :   -0.072039
   1 C :   -0.139760
   2 C :   -0.028074
   3 C :   -0.027213
   4 C :   -0.175080
   5 S :    0.351632
   6 C :   -0.182839
   7 C :   -0.034739
   8 C :   -0.039111
   9 C :   -0.159013
  10 S :    0.354897
  11 C :   -0.097195
  12 C :   -0.226837
  13 S :    0.488242
  14 C :   -0.132733
  15 C :   -0.095571
  16 N :    0.300819
  17 O :   -0.182140
  18 O :   -0.232234
  19 C :    0.006803
  20 N :    0.031300
  21 C :   -0.027491
  22 C :   -0.024096
  23 N :    0.017761
  24 C :   -0.102009
  25 S :    0.435963
  26 C :   -0.218124
  27 N :    0.274501
  28 O :   -0.224732
  29 O :   -0.241554
  30 C :    0.006865
  31 C :   -0.114594
  32 C :   -0.044540
  33 C :   -0.044228
  34 C :   -0.213022
  35 S :    0.485989
  36 C :   -0.136107
  37 C :   -0.091843
  38 N :    0.289020
  39 O :   -0.194860
  40 O :   -0.204876
  41 C :   -0.003340
  42 N :    0.033166
  43 C :    0.028142
  44 C :   -0.090990
  45 C :   -0.046792
  46 C :   -0.156979
  47 C :   -0.032209
  48 C :   -0.040953
  49 C :   -0.175462
  50 S :    0.355204
  51 C :   -0.187914
  52 C :   -0.025890
  53 C :   -0.040890
  54 C :   -0.137784
  55 S :    0.342888
  56 C :   -0.090582
  57 H :    0.029689
  58 H :    0.027229
  59 H :    0.034281
  60 H :    0.032294
  61 H :    0.032088
  62 H :    0.029948
  63 H :    0.027673
  64 H :    0.042344
  65 H :    0.066960
  66 H :    0.023243
  67 H :    0.036832
  68 H :    0.087805
  69 H :    0.045704
  70 H :    0.024333
  71 H :    0.028235
  72 H :    0.041439
  73 H :    0.077817
  74 H :    0.025724
  75 H :    0.019120
  76 H :    0.030665
  77 H :    0.030906
  78 H :    0.028793
  79 H :    0.030241
  80 H :    0.030561
  81 H :    0.025735
  82 H :    0.023589

  Mayer bond orders larger than 0.100000
B(  0-C ,  1-C ) :   1.8675 B(  0-C , 57-H ) :   0.9505 B(  0-C , 58-H ) :   0.9419
B(  1-C ,  2-C ) :   1.0778 B(  1-C ,  5-S ) :   1.0055 B(  2-C ,  3-C ) :   1.6652
B(  2-C , 59-H ) :   0.9930 B(  3-C ,  4-C ) :   1.1483 B(  3-C , 60-H ) :   0.9918
B(  4-C ,  5-S ) :   1.0465 B(  4-C ,  6-C ) :   1.5670 B(  6-C ,  7-C ) :   1.1655
B(  6-C , 10-S ) :   1.0262 B(  7-C ,  8-C ) :   1.6157 B(  7-C , 61-H ) :   0.9919
B(  8-C ,  9-C ) :   1.1291 B(  8-C , 62-H ) :   0.9977 B(  9-C , 10-S ) :   1.0308
B(  9-C , 11-C ) :   1.6020 B( 11-C , 12-C ) :   1.1606 B( 11-C , 63-H ) :   0.9607
B( 12-C , 13-S ) :   1.0797 B( 12-C , 19-C ) :   1.4142 B( 13-S , 14-C ) :   1.2313
B( 14-C , 15-C ) :   1.4977 B( 14-C , 64-H ) :   0.9541 B( 15-C , 16-N ) :   0.9519
B( 15-C , 19-C ) :   1.2060 B( 16-N , 17-O ) :   1.5799 B( 16-N , 18-O ) :   1.4265
B( 17-O , 18-O ) :   0.2375 B( 18-O , 65-H ) :   0.1264 B( 19-C , 20-N ) :   1.2548
B( 20-N , 21-C ) :   1.1147 B( 20-N , 65-H ) :   0.8488 B( 21-C , 22-C ) :   1.7061
B( 21-C , 66-H ) :   0.9696 B( 22-C , 23-N ) :   1.0766 B( 22-C , 67-H ) :   0.9477
B( 23-N , 24-C ) :   1.2112 B( 23-N , 68-H ) :   0.9147 B( 24-C , 25-S ) :   1.1313
B( 24-C , 31-C ) :   1.3736 B( 25-S , 26-C ) :   1.0684 B( 26-C , 27-N ) :   0.9862
B( 26-C , 30-C ) :   1.4733 B( 27-N , 28-O ) :   1.5265 B( 27-N , 29-O ) :   1.5001
B( 28-O , 29-O ) :   0.2520 B( 30-C , 31-C ) :   1.2393 B( 30-C , 69-H ) :   1.0096
B( 31-C , 32-C ) :   1.0537 B( 32-C , 33-C ) :   1.7405 B( 32-C , 70-H ) :   0.9640
B( 33-C , 34-C ) :   1.1534 B( 33-C , 71-H ) :   0.9442 B( 34-C , 35-S ) :   1.1037
B( 34-C , 41-C ) :   1.4480 B( 35-S , 36-C ) :   1.2235 B( 36-C , 37-C ) :   1.5269
B( 36-C , 72-H ) :   0.9561 B( 37-C , 38-N ) :   0.9276 B( 37-C , 41-C ) :   1.2171
B( 38-N , 39-O ) :   1.5405 B( 38-N , 40-O ) :   1.4958 B( 39-O , 40-O ) :   0.2593
B( 41-C , 42-N ) :   1.1787 B( 42-N , 43-C ) :   1.1201 B( 42-N , 73-H ) :   0.8958
B( 43-C , 44-C ) :   1.6733 B( 43-C , 74-H ) :   0.9684 B( 44-C , 45-C ) :   1.1498
B( 44-C , 75-H ) :   0.9530 B( 45-C , 46-C ) :   1.6084 B( 45-C , 76-H ) :   0.9838
B( 46-C , 47-C ) :   1.1276 B( 46-C , 50-S ) :   1.0181 B( 47-C , 48-C ) :   1.6151
B( 47-C , 77-H ) :   0.9982 B( 48-C , 49-C ) :   1.1652 B( 48-C , 78-H ) :   0.9927
B( 49-C , 50-S ) :   1.0407 B( 49-C , 51-C ) :   1.5645 B( 51-C , 52-C ) :   1.1536
B( 51-C , 55-S ) :   1.0350 B( 52-C , 53-C ) :   1.6606 B( 52-C , 79-H ) :   0.9914
B( 53-C , 54-C ) :   1.0803 B( 53-C , 80-H ) :   0.9926 B( 54-C , 55-S ) :   1.0096
B( 54-C , 56-C ) :   1.8650 B( 56-C , 81-H ) :   0.9498 B( 56-C , 82-H ) :   0.9409

-----------------------------------------------------------------------------
         ABSORPTION SPECTRUM VIA TRANSITION ELECTRIC DIPOLE MOMENTS
-----------------------------------------------------------------------------
State   Energy  Wavelength   fosc         T2         TX        TY        TZ
        (cm-1)    (nm)                  (au**2)     (au)      (au)      (au)
-----------------------------------------------------------------------------
   0   15115.1    661.6   0.032893654   0.71644  -0.17941   0.65958  -0.49920
   1   15736.1    635.5   0.172038698   3.59920   0.93572   1.59817   0.41169
   2   17151.6    583.0   0.984736303  18.90124   2.40898   2.43890   2.67391
   3   17254.0    579.6   0.071514618   1.36452  -0.41406  -1.05722  -0.27453
   4   18473.1    541.3   0.428687176   7.63972  -1.08707  -2.47772   0.56470
   5   18941.3    527.9   1.181348394  20.53257  -0.94774  -0.79065   4.35996
   6   22500.1    444.4   0.067867553   0.99301   0.90715   0.40470  -0.07936
   7   22947.3    435.8   0.016633748   0.23864  -0.27406  -0.31287  -0.25620
   8   23753.9    421.0   0.176669123   2.44851  -0.78010  -1.29530  -0.40268
   9   23949.5    417.5   0.097378613   1.33857  -0.55563  -0.93992   0.38264
  10   25004.4    399.9   0.096165318   1.26613  -0.88789   0.40628   0.55922
  11   25275.9    395.6   0.016896665   0.22007   0.25492  -0.10306   0.38009
  12   25991.3    384.7   0.038886716   0.49255  -0.53647  -0.29093  -0.34657
  13   27176.3    368.0   0.047495053   0.57535   0.54428   0.41881  -0.32203
  14   27698.2    361.0   0.054819501   0.65157   0.30546  -0.03936  -0.74613
  15   28024.2    356.8   0.028520355   0.33504  -0.31074   0.01678   0.48806
  16   29069.1    344.0   0.064632324   0.73197  -0.67690  -0.00623   0.52320
  17   29293.2    341.4   0.206065853   2.31587   0.25844   0.62596   1.36281
  18   29947.9    333.9   0.094865342   1.04284   0.49134  -0.56269  -0.69628
  19   30559.0    327.2   0.005063067   0.05454  -0.08013  -0.20253   0.08429
  20   30895.4    323.7   0.073308995   0.78116  -0.15755  -0.06862   0.86696
  21   31391.4    318.6   0.052339181   0.54890  -0.28054  -0.58437  -0.35877
  22   31952.4    313.0   0.078601062   0.80984  -0.27440   0.27880   0.81044
  23   32131.3    311.2   0.007468984   0.07653  -0.05689   0.04971   0.26612
  24   32922.9    303.7   0.006677981   0.06678   0.01234  -0.25476   0.04148
  25   33226.0    301.0   0.144203593   1.42881  -0.20851  -0.60789  -1.00787
  26   33697.3    296.8   0.167007294   1.63161   0.81759  -0.37713  -0.90605
  27   33735.2    296.4   0.011720896   0.11438   0.17360  -0.01878  -0.28964
  28   33783.3    296.0   0.075088949   0.73173  -0.50762  -0.05071  -0.68664
  29   34137.4    292.9   0.126824434   1.22306   1.00628   0.15669  -0.43117
  30   34677.9    288.4   0.008157907   0.07745  -0.16355   0.21556   0.06505
  31   34841.4    287.0   0.051104806   0.48288   0.66529   0.08320   0.18262
  32   35380.0    282.6   0.019320000   0.17977   0.06275   0.03305  -0.41802
  33   35501.5    281.7   0.021552322   0.19986  -0.40219  -0.05538   0.18717
  34   36156.7    276.6   0.026911048   0.24503   0.47207  -0.07979   0.12574
  35   36827.2    271.5   0.014396343   0.12869   0.24470  -0.05158  -0.25721
  36   36860.5    271.3   0.063110353   0.56366  -0.67918   0.22108   0.23129
  37   37302.6    268.1   0.055657728   0.49120  -0.53353  -0.17231  -0.42054
  38   37813.0    264.5   0.169047669   1.47178   0.91865  -0.40256  -0.68251
  39   37848.1    264.2   0.052260297   0.45457   0.56993   0.02877  -0.35905
  40   38036.4    262.9   0.002674598   0.02315   0.10737  -0.02399  -0.10510
  41   38378.7    260.6   0.050950177   0.43705  -0.41968  -0.34151  -0.37986
  42   38964.6    256.6   0.056907012   0.48081  -0.01812  -0.35831  -0.59337
  43   39077.8    255.9   0.078063641   0.65765  -0.30038  -0.22879  -0.71769
  44   39335.1    254.2   0.017047241   0.14268   0.11148   0.09187   0.34901
  45   39638.9    252.3   0.012893305   0.10708  -0.05711   0.32110  -0.02673
  46   39889.2    250.7   0.075018922   0.61914  -0.20562   0.16588   0.74118
  47   39896.7    250.6   0.017839910   0.14721   0.08025   0.07710  -0.36718
  48   40024.3    249.8   0.120275560   0.98930  -0.82651  -0.45168   0.31965
  49   40255.5    248.4   0.016822973   0.13758   0.01356  -0.02098   0.37007

FINAL SINGLE POINT ENERGY     -5026.803614735230

DIPOLE MOMENT
-------------
                                X             Y             Z
Electronic contribution:      7.03533      -6.97383      28.28611
Nuclear contribution   :     -8.85305       5.13886     -30.58856
                        -----------------------------------------
Total Dipole Moment    :     -1.81773      -1.83496      -2.30244
                        -----------------------------------------
Magnitude (a.u.)       :      3.46012
Magnitude (Debye)      :      8.79494

Rotational constants in cm-1:     0.000860     0.000831     0.000490
Rotational constants in MHz :    25.767923    24.910681    14.691135

                             ****ORCA TERMINATED NORMALLY****
TOTAL RUN TIME: 0 days 0 hours 7 minutes 0 seconds 493 msec
