                         Program Version 4.2.0 -  RELEASE  -
|  1> # ORCA input file
|  2> # SCF done       -195.725844323752          0.000829113118
|  3> ! CAM-B3LYP def2-SVP def2/J RIJCOSX Grid4 TightSCF
|  4> %maxcore 5000
|  5> %tddft
|  6>     Mode sTDDFT
|  7>     Ethresh 5.0
|  8>     maxcore 5000
|  9> end
| 10>
| 11> %pal
| 12>   nprocs 6
| 13>   end
| 14> * xyz 0 1
| 15>    C      -14.02001        14.69664        -2.13936
| 16>    C      -14.06040        13.35441        -1.78479
| 17>    C      -12.97581        12.55666        -2.07893
| 18>    C      -11.85253        13.09630        -2.72475
| 19>    C      -11.81566        14.43578        -3.07679
| 20>    C      -12.91063        15.22994        -2.77766
| 21>    C      -10.87593        12.03878        -2.90633
| 22>    C      -11.40163        10.84887        -2.37528
| 23>    C      -12.77793        11.08553        -1.79901
| 24>    C      -13.84124        10.22773        -2.50917
| 25>    C      -13.87380        10.45564        -4.01562
| 26>    C      -12.80649        10.79456        -0.28659
| 27>    C      -11.77777        11.60661         0.49102
| 28>    C      -10.68387         9.67959        -2.41801
| 29>    C       -9.40617         9.67279        -2.99779
| 30>    C       -8.89220        10.87001        -3.51290
| 31>    C       -9.61251        12.04764        -3.47601
| 32>    C       -8.59709         8.47893        -3.08592
| 33>    C       -8.97399         7.23698        -2.74348
| 34>    N       -8.14272         6.15037        -2.86366
| 35>    C       -8.45847         4.87260        -2.56946
| 36>    S      -10.02060         4.45835        -1.94203
| 37>    C       -9.53358         2.78878        -1.87091
| 38>    N      -10.46264         1.86048        -1.43570
| 39>    O      -10.12925         0.68112        -1.41808
| 40>    O      -11.56418         2.27902        -1.10368
| 41>    C       -8.24759         2.58156        -2.29711
| 42>    C       -7.60269         3.76162        -2.70803
| 43>    C       -6.27203         3.83148        -3.22929
| 44>    C       -5.39732         2.79247        -3.21011
| 45>    C       -4.11211         2.81069        -3.77966
| 46>    C       -3.26479         1.73340        -3.73915
| 47>    C       -1.98932         1.60884        -4.34333
| 48>    C       -1.40088         0.39415        -4.16571
| 49>    C       -2.16575        -0.50621        -3.39041
| 50>    S       -3.67085         0.24116        -2.90234
| 51>    C       -1.85548        -1.80081        -3.03020
| 52>    C       -0.74142        -2.57086        -3.43652
| 53>    C       -0.73149        -3.83978        -2.94837
| 54>    C       -1.83132        -4.14163        -2.10079
| 55>    S       -2.88866        -2.73871        -1.97118
| 56>    C       -2.13930        -5.29699        -1.44310
| 57>    N       -1.42799        -6.44583        -1.59072
| 58>    C       -1.66002        -7.66956        -1.04315
| 59>    S       -0.29844        -8.76461        -1.03724
| 60>    C       -1.23959        -9.92488        -0.15811
| 61>    N       -0.63633       -11.13593         0.16341
| 62>    O       -1.29189       -11.95549         0.78647
| 63>    O        0.52078       -11.28843        -0.20621
| 64>    C       -2.51085        -9.48402         0.10368
| 65>    C       -2.79003        -8.20726        -0.41683
| 66>    C       -4.13193        -7.66692        -0.29325
| 67>    C       -4.78971        -6.87960        -1.15416
| 68>    C       -6.15109        -6.41615        -0.92835
| 69>    C       -6.51871        -5.13126        -1.35296
| 70>    C       -7.78191        -4.65925        -1.07733
| 71>    C       -8.72138        -5.49912        -0.45171
| 72>    C       -8.37633        -6.78184        -0.05656
| 73>    C       -7.08762        -7.22318        -0.27890
| 74>    C       -9.98778        -4.80435        -0.37010
| 75>    C       -9.83152        -3.52593        -0.92579
| 76>    C       -8.39943        -3.30919        -1.37384
| 77>    C       -8.31546        -2.93837        -2.86139
| 78>    C       -9.00564        -3.96263        -3.75484
| 79>    C       -7.81457        -2.18755        -0.48421
| 80>    C       -6.33312        -1.88702        -0.67510
| 81>    C      -10.88943        -2.64911        -0.98081
| 82>    C      -12.13987        -3.05139        -0.49522
| 83>    C      -12.28283        -4.33625         0.03937
| 84>    C      -11.21954        -5.21349         0.11647
| 85>    C      -13.30803        -2.18109        -0.52927
| 86>    C      -13.31139        -0.87899        -0.79014
| 87>    H      -14.86337        15.33323        -1.91498
| 88>    H      -14.93014        12.94997        -1.28763
| 89>    H      -10.95283        14.85346        -3.57412
| 90>    H      -12.90165        16.27682        -3.04403
| 91>    H      -14.81983        10.46371        -2.08610
| 92>    H      -13.63552         9.17464        -2.30583
| 93>    H      -14.10125        11.49503        -4.24154
| 94>    H      -14.63598         9.82872        -4.47241
| 95>    H      -12.91257        10.21058        -4.46219
| 96>    H      -12.62075         9.72967        -0.13111
| 97>    H      -13.80565        11.01788         0.09297
| 98>    H      -10.77125        11.38818         0.14078
| 99>    H      -11.83387        11.36593         1.55017
|100>    H      -11.95878        12.67225         0.36964
|101>    H      -11.09779         8.77424        -2.00227
|102>    H       -7.90588        10.86570        -3.95544
|103>    H       -9.19569        12.95652        -3.88358
|104>    H       -7.59772         8.62093        -3.48093
|105>    H       -9.95420         7.00584        -2.35757
|106>    H       -7.20847         6.32382        -3.21368
|107>    H       -7.81209         1.60001        -2.31981
|108>    H       -5.95396         4.76373        -3.67891
|109>    H       -5.68811         1.86697        -2.73281
|110>    H       -3.77755         3.69971        -4.29751
|111>    H       -1.55397         2.42025        -4.89969
|112>    H       -0.43731         0.12556        -4.56036
|113>    H        0.01310        -2.17064        -4.08957
|114>    H        0.04328        -4.55399        -3.16780
|115>    H       -2.98331        -5.33346        -0.77592
|116>    H       -0.57304        -6.37560        -2.12888
|117>    H       -3.22640       -10.08683         0.63370
|118>    H       -4.65503        -8.01898         0.58630
|119>    H       -4.31302        -6.52392        -2.05871
|120>    H       -5.79442        -4.52243        -1.87567
|121>    H       -9.10313        -7.42752         0.41341
|122>    H       -6.80941        -8.22497         0.01313
|123>    H       -7.26704        -2.85914        -3.15375
|124>    H       -8.78270        -1.96145        -2.99892
|125>    H       -8.55354        -4.94487        -3.63198
|126>    H       -8.91886        -3.67105        -4.79951
|127>    H      -10.06137        -4.03874        -3.50495
|128>    H       -7.98234        -2.46760         0.55920
|129>    H       -8.39599        -1.28389        -0.67955
|130>    H       -5.72145        -2.74420        -0.40679
|131>    H       -6.04709        -1.05798        -0.03102
|132>    H       -6.10691        -1.60558        -1.70018
|133>    H      -10.76021        -1.66297        -1.39637
|134>    H      -13.25164        -4.64241         0.40971
|135>    H      -11.34813        -6.19796         0.54226
|136>    H      -14.24495        -2.67594        -0.30004
|137>    H      -12.41247        -0.32845        -0.99935
|138>    H      -14.22430        -0.30797        -0.78534
|139> *
|140>
|141>                          ****END OF INPUT****

CARTESIAN COORDINATES (ANGSTROEM)
---------------------------------
  C    -14.020010   14.696640   -2.139360
  C    -14.060400   13.354410   -1.784790
  C    -12.975810   12.556660   -2.078930
  C    -11.852530   13.096300   -2.724750
  C    -11.815660   14.435780   -3.076790
  C    -12.910630   15.229940   -2.777660
  C    -10.875930   12.038780   -2.906330
  C    -11.401630   10.848870   -2.375280
  C    -12.777930   11.085530   -1.799010
  C    -13.841240   10.227730   -2.509170
  C    -13.873800   10.455640   -4.015620
  C    -12.806490   10.794560   -0.286590
  C    -11.777770   11.606610    0.491020
  C    -10.683870    9.679590   -2.418010
  C     -9.406170    9.672790   -2.997790
  C     -8.892200   10.870010   -3.512900
  C     -9.612510   12.047640   -3.476010
  C     -8.597090    8.478930   -3.085920
  C     -8.973990    7.236980   -2.743480
  N     -8.142720    6.150370   -2.863660
  C     -8.458470    4.872600   -2.569460
  S    -10.020600    4.458350   -1.942030
  C     -9.533580    2.788780   -1.870910
  N    -10.462640    1.860480   -1.435700
  O    -10.129250    0.681120   -1.418080
  O    -11.564180    2.279020   -1.103680
  C     -8.247590    2.581560   -2.297110
  C     -7.602690    3.761620   -2.708030
  C     -6.272030    3.831480   -3.229290
  C     -5.397320    2.792470   -3.210110
  C     -4.112110    2.810690   -3.779660
  C     -3.264790    1.733400   -3.739150
  C     -1.989320    1.608840   -4.343330
  C     -1.400880    0.394150   -4.165710
  C     -2.165750   -0.506210   -3.390410
  S     -3.670850    0.241160   -2.902340
  C     -1.855480   -1.800810   -3.030200
  C     -0.741420   -2.570860   -3.436520
  C     -0.731490   -3.839780   -2.948370
  C     -1.831320   -4.141630   -2.100790
  S     -2.888660   -2.738710   -1.971180
  C     -2.139300   -5.296990   -1.443100
  N     -1.427990   -6.445830   -1.590720
  C     -1.660020   -7.669560   -1.043150
  S     -0.298440   -8.764610   -1.037240
  C     -1.239590   -9.924880   -0.158110
  N     -0.636330  -11.135930    0.163410
  O     -1.291890  -11.955490    0.786470
  O      0.520780  -11.288430   -0.206210
  C     -2.510850   -9.484020    0.103680
  C     -2.790030   -8.207260   -0.416830
  C     -4.131930   -7.666920   -0.293250
  C     -4.789710   -6.879600   -1.154160
  C     -6.151090   -6.416150   -0.928350
  C     -6.518710   -5.131260   -1.352960
  C     -7.781910   -4.659250   -1.077330
  C     -8.721380   -5.499120   -0.451710
  C     -8.376330   -6.781840   -0.056560
  C     -7.087620   -7.223180   -0.278900
  C     -9.987780   -4.804350   -0.370100
  C     -9.831520   -3.525930   -0.925790
  C     -8.399430   -3.309190   -1.373840
  C     -8.315460   -2.938370   -2.861390
  C     -9.005640   -3.962630   -3.754840
  C     -7.814570   -2.187550   -0.484210
  C     -6.333120   -1.887020   -0.675100
  C    -10.889430   -2.649110   -0.980810
  C    -12.139870   -3.051390   -0.495220
  C    -12.282830   -4.336250    0.039370
  C    -11.219540   -5.213490    0.116470
  C    -13.308030   -2.181090   -0.529270
  C    -13.311390   -0.878990   -0.790140
  H    -14.863370   15.333230   -1.914980
  H    -14.930140   12.949970   -1.287630
  H    -10.952830   14.853460   -3.574120
  H    -12.901650   16.276820   -3.044030
  H    -14.819830   10.463710   -2.086100
  H    -13.635520    9.174640   -2.305830
  H    -14.101250   11.495030   -4.241540
  H    -14.635980    9.828720   -4.472410
  H    -12.912570   10.210580   -4.462190
  H    -12.620750    9.729670   -0.131110
  H    -13.805650   11.017880    0.092970
  H    -10.771250   11.388180    0.140780
  H    -11.833870   11.365930    1.550170
  H    -11.958780   12.672250    0.369640
  H    -11.097790    8.774240   -2.002270
  H     -7.905880   10.865700   -3.955440
  H     -9.195690   12.956520   -3.883580
  H     -7.597720    8.620930   -3.480930
  H     -9.954200    7.005840   -2.357570
  H     -7.208470    6.323820   -3.213680
  H     -7.812090    1.600010   -2.319810
  H     -5.953960    4.763730   -3.678910
  H     -5.688110    1.866970   -2.732810
  H     -3.777550    3.699710   -4.297510
  H     -1.553970    2.420250   -4.899690
  H     -0.437310    0.125560   -4.560360
  H      0.013100   -2.170640   -4.089570
  H      0.043280   -4.553990   -3.167800
  H     -2.983310   -5.333460   -0.775920
  H     -0.573040   -6.375600   -2.128880
  H     -3.226400  -10.086830    0.633700
  H     -4.655030   -8.018980    0.586300
  H     -4.313020   -6.523920   -2.058710
  H     -5.794420   -4.522430   -1.875670
  H     -9.103130   -7.427520    0.413410
  H     -6.809410   -8.224970    0.013130
  H     -7.267040   -2.859140   -3.153750
  H     -8.782700   -1.961450   -2.998920
  H     -8.553540   -4.944870   -3.631980
  H     -8.918860   -3.671050   -4.799510
  H    -10.061370   -4.038740   -3.504950
  H     -7.982340   -2.467600    0.559200
  H     -8.395990   -1.283890   -0.679550
  H     -5.721450   -2.744200   -0.406790
  H     -6.047090   -1.057980   -0.031020
  H     -6.106910   -1.605580   -1.700180
  H    -10.760210   -1.662970   -1.396370
  H    -13.251640   -4.642410    0.409710
  H    -11.348130   -6.197960    0.542260
  H    -14.244950   -2.675940   -0.300040
  H    -12.412470   -0.328450   -0.999350
  H    -14.224300   -0.307970   -0.785340

 Total Charge           Charge          ....    0
 Multiplicity           Mult            ....    1
 Number of Electrons    NEL             ....  536
 Basis Dimension        Dim             .... 1284

ORBITAL ENERGIES
----------------

  NO   OCC          E(Eh)            E(eV)
   0   2.0000     -88.982326     -2421.3322
   1   2.0000     -88.976455     -2421.1724
   2   2.0000     -88.950274     -2420.4600
   3   2.0000     -88.945086     -2420.3188
   4   2.0000     -19.236179      -523.4431
   5   2.0000     -19.235347      -523.4204
   6   2.0000     -19.226393      -523.1767
   7   2.0000     -19.226000      -523.1660
   8   2.0000     -14.645928      -398.5360
   9   2.0000     -14.638149      -398.3243
  10   2.0000     -14.486521      -394.1983
  11   2.0000     -14.484681      -394.1482
  12   2.0000     -10.370135      -282.1857
  13   2.0000     -10.365770      -282.0669
  14   2.0000     -10.336307      -281.2652
  15   2.0000     -10.333837      -281.1980
  16   2.0000     -10.332841      -281.1709
  17   2.0000     -10.330435      -281.1054
  18   2.0000     -10.315886      -280.7095
  19   2.0000     -10.311245      -280.5832
  20   2.0000     -10.308839      -280.5178
  21   2.0000     -10.308610      -280.5115
  22   2.0000     -10.306288      -280.4484
  23   2.0000     -10.301650      -280.3221
  24   2.0000     -10.298331      -280.2318
  25   2.0000     -10.295850      -280.1643
  26   2.0000     -10.295455      -280.1536
  27   2.0000     -10.293908      -280.1115
  28   2.0000     -10.290742      -280.0253
  29   2.0000     -10.288800      -279.9725
  30   2.0000     -10.284597      -279.8581
  31   2.0000     -10.283662      -279.8327
  32   2.0000     -10.283233      -279.8210
  33   2.0000     -10.281904      -279.7848
  34   2.0000     -10.278603      -279.6950
  35   2.0000     -10.278485      -279.6918
  36   2.0000     -10.275589      -279.6130
  37   2.0000     -10.274721      -279.5894
  38   2.0000     -10.271908      -279.5128
  39   2.0000     -10.271260      -279.4952
  40   2.0000     -10.271068      -279.4900
  41   2.0000     -10.269110      -279.4367
  42   2.0000     -10.268160      -279.4108
  43   2.0000     -10.268034      -279.4074
  44   2.0000     -10.267409      -279.3904
  45   2.0000     -10.266652      -279.3698
  46   2.0000     -10.266012      -279.3524
  47   2.0000     -10.265610      -279.3415
  48   2.0000     -10.264975      -279.3242
  49   2.0000     -10.264101      -279.3004
  50   2.0000     -10.261899      -279.2405
  51   2.0000     -10.261708      -279.2353
  52   2.0000     -10.261675      -279.2344
  53   2.0000     -10.260021      -279.1894
  54   2.0000     -10.259504      -279.1753
  55   2.0000     -10.258713      -279.1538
  56   2.0000     -10.257072      -279.1091
  57   2.0000     -10.256120      -279.0832
  58   2.0000     -10.252696      -278.9900
  59   2.0000     -10.250984      -278.9434
  60   2.0000     -10.248724      -278.8819
  61   2.0000     -10.246921      -278.8329
  62   2.0000     -10.246912      -278.8326
  63   2.0000     -10.246681      -278.8264
  64   2.0000     -10.245341      -278.7899
  65   2.0000     -10.244847      -278.7765
  66   2.0000     -10.244838      -278.7762
  67   2.0000     -10.243814      -278.7483
  68   2.0000     -10.241749      -278.6922
  69   2.0000     -10.238236      -278.5966
  70   2.0000     -10.232573      -278.4425
  71   2.0000     -10.232367      -278.4369
  72   2.0000      -8.077662      -219.8044
  73   2.0000      -8.072347      -219.6597
  74   2.0000      -8.046000      -218.9428
  75   2.0000      -8.041171      -218.8114
  76   2.0000      -6.047428      -164.5589
  77   2.0000      -6.043095      -164.4410
  78   2.0000      -6.042118      -164.4144
  79   2.0000      -6.038882      -164.3263
  80   2.0000      -6.037706      -164.2943
  81   2.0000      -6.033593      -164.1824
  82   2.0000      -6.015971      -163.7029
  83   2.0000      -6.011898      -163.5920
  84   2.0000      -6.010903      -163.5650
  85   2.0000      -6.006999      -163.4588
  86   2.0000      -6.006591      -163.4477
  87   2.0000      -6.002010      -163.3230
  88   2.0000      -1.312404       -35.7123
  89   2.0000      -1.305172       -35.5155
  90   2.0000      -1.130680       -30.7674
  91   2.0000      -1.124103       -30.5884
  92   2.0000      -1.091200       -29.6930
  93   2.0000      -1.089857       -29.6565
  94   2.0000      -1.001709       -27.2579
  95   2.0000      -1.001119       -27.2418
  96   2.0000      -0.994317       -27.0567
  97   2.0000      -0.985400       -26.8141
  98   2.0000      -0.974742       -26.5241
  99   2.0000      -0.970427       -26.4067
 100   2.0000      -0.943204       -25.6659
 101   2.0000      -0.932254       -25.3679
 102   2.0000      -0.922988       -25.1158
 103   2.0000      -0.913287       -24.8518
 104   2.0000      -0.909069       -24.7370
 105   2.0000      -0.902705       -24.5639
 106   2.0000      -0.897996       -24.4357
 107   2.0000      -0.891447       -24.2575
 108   2.0000      -0.882841       -24.0233
 109   2.0000      -0.873752       -23.7760
 110   2.0000      -0.868238       -23.6259
 111   2.0000      -0.857452       -23.3324
 112   2.0000      -0.852377       -23.1943
 113   2.0000      -0.851900       -23.1814
 114   2.0000      -0.844697       -22.9854
 115   2.0000      -0.835670       -22.7397
 116   2.0000      -0.831141       -22.6165
 117   2.0000      -0.830192       -22.5907
 118   2.0000      -0.826178       -22.4814
 119   2.0000      -0.822632       -22.3850
 120   2.0000      -0.821436       -22.3524
 121   2.0000      -0.820196       -22.3187
 122   2.0000      -0.817532       -22.2462
 123   2.0000      -0.807636       -21.9769
 124   2.0000      -0.806581       -21.9482
 125   2.0000      -0.792090       -21.5539
 126   2.0000      -0.775094       -21.0914
 127   2.0000      -0.766551       -20.8589
 128   2.0000      -0.758892       -20.6505
 129   2.0000      -0.755216       -20.5505
 130   2.0000      -0.748023       -20.3547
 131   2.0000      -0.744368       -20.2553
 132   2.0000      -0.732036       -19.9197
 133   2.0000      -0.722129       -19.6501
 134   2.0000      -0.719641       -19.5824
 135   2.0000      -0.709938       -19.3184
 136   2.0000      -0.703036       -19.1306
 137   2.0000      -0.694289       -18.8926
 138   2.0000      -0.682705       -18.5773
 139   2.0000      -0.676861       -18.4183
 140   2.0000      -0.676224       -18.4010
 141   2.0000      -0.674887       -18.3646
 142   2.0000      -0.672806       -18.3080
 143   2.0000      -0.668922       -18.2023
 144   2.0000      -0.660312       -17.9680
 145   2.0000      -0.658759       -17.9257
 146   2.0000      -0.654632       -17.8134
 147   2.0000      -0.653447       -17.7812
 148   2.0000      -0.647041       -17.6069
 149   2.0000      -0.645074       -17.5533
 150   2.0000      -0.635759       -17.2999
 151   2.0000      -0.632516       -17.2116
 152   2.0000      -0.630630       -17.1603
 153   2.0000      -0.626085       -17.0366
 154   2.0000      -0.624753       -17.0004
 155   2.0000      -0.619139       -16.8476
 156   2.0000      -0.618897       -16.8411
 157   2.0000      -0.618105       -16.8195
 158   2.0000      -0.612954       -16.6793
 159   2.0000      -0.607100       -16.5200
 160   2.0000      -0.600292       -16.3348
 161   2.0000      -0.596401       -16.2289
 162   2.0000      -0.591602       -16.0983
 163   2.0000      -0.590546       -16.0696
 164   2.0000      -0.583639       -15.8816
 165   2.0000      -0.578496       -15.7417
 166   2.0000      -0.574165       -15.6238
 167   2.0000      -0.572871       -15.5886
 168   2.0000      -0.566571       -15.4172
 169   2.0000      -0.564058       -15.3488
 170   2.0000      -0.557337       -15.1659
 171   2.0000      -0.554857       -15.0984
 172   2.0000      -0.549061       -14.9407
 173   2.0000      -0.547280       -14.8923
 174   2.0000      -0.546240       -14.8639
 175   2.0000      -0.541278       -14.7289
 176   2.0000      -0.535620       -14.5750
 177   2.0000      -0.535424       -14.5696
 178   2.0000      -0.531026       -14.4500
 179   2.0000      -0.527462       -14.3530
 180   2.0000      -0.526664       -14.3313
 181   2.0000      -0.521472       -14.1900
 182   2.0000      -0.518217       -14.1014
 183   2.0000      -0.516725       -14.0608
 184   2.0000      -0.515914       -14.0387
 185   2.0000      -0.515393       -14.0245
 186   2.0000      -0.513834       -13.9821
 187   2.0000      -0.511686       -13.9237
 188   2.0000      -0.509324       -13.8594
 189   2.0000      -0.507687       -13.8149
 190   2.0000      -0.505324       -13.7506
 191   2.0000      -0.502205       -13.6657
 192   2.0000      -0.499519       -13.5926
 193   2.0000      -0.496686       -13.5155
 194   2.0000      -0.495725       -13.4894
 195   2.0000      -0.494738       -13.4625
 196   2.0000      -0.492915       -13.4129
 197   2.0000      -0.490734       -13.3535
 198   2.0000      -0.481200       -13.0941
 199   2.0000      -0.480641       -13.0789
 200   2.0000      -0.479330       -13.0432
 201   2.0000      -0.475297       -12.9335
 202   2.0000      -0.474788       -12.9196
 203   2.0000      -0.473593       -12.8871
 204   2.0000      -0.470209       -12.7950
 205   2.0000      -0.469749       -12.7825
 206   2.0000      -0.469131       -12.7657
 207   2.0000      -0.468642       -12.7524
 208   2.0000      -0.462674       -12.5900
 209   2.0000      -0.460663       -12.5353
 210   2.0000      -0.457987       -12.4624
 211   2.0000      -0.457372       -12.4457
 212   2.0000      -0.451898       -12.2968
 213   2.0000      -0.448714       -12.2101
 214   2.0000      -0.445664       -12.1271
 215   2.0000      -0.443685       -12.0733
 216   2.0000      -0.442261       -12.0345
 217   2.0000      -0.441421       -12.0117
 218   2.0000      -0.439750       -11.9662
 219   2.0000      -0.437773       -11.9124
 220   2.0000      -0.436815       -11.8863
 221   2.0000      -0.430248       -11.7076
 222   2.0000      -0.429345       -11.6831
 223   2.0000      -0.425672       -11.5831
 224   2.0000      -0.424909       -11.5624
 225   2.0000      -0.423354       -11.5201
 226   2.0000      -0.419903       -11.4261
 227   2.0000      -0.418380       -11.3847
 228   2.0000      -0.415057       -11.2943
 229   2.0000      -0.414410       -11.2767
 230   2.0000      -0.407882       -11.0990
 231   2.0000      -0.406410       -11.0590
 232   2.0000      -0.405612       -11.0373
 233   2.0000      -0.400849       -10.9077
 234   2.0000      -0.398982       -10.8569
 235   2.0000      -0.395404       -10.7595
 236   2.0000      -0.393942       -10.7197
 237   2.0000      -0.388791       -10.5796
 238   2.0000      -0.386355       -10.5133
 239   2.0000      -0.382045       -10.3960
 240   2.0000      -0.381064       -10.3693
 241   2.0000      -0.379905       -10.3377
 242   2.0000      -0.379483       -10.3263
 243   2.0000      -0.376352       -10.2411
 244   2.0000      -0.375217       -10.2102
 245   2.0000      -0.374832       -10.1997
 246   2.0000      -0.370458       -10.0807
 247   2.0000      -0.366644        -9.9769
 248   2.0000      -0.363613        -9.8944
 249   2.0000      -0.360441        -9.8081
 250   2.0000      -0.358096        -9.7443
 251   2.0000      -0.354790        -9.6543
 252   2.0000      -0.347735        -9.4624
 253   2.0000      -0.343603        -9.3499
 254   2.0000      -0.338289        -9.2053
 255   2.0000      -0.330068        -8.9816
 256   2.0000      -0.326641        -8.8884
 257   2.0000      -0.319969        -8.7068
 258   2.0000      -0.315071        -8.5735
 259   2.0000      -0.310925        -8.4607
 260   2.0000      -0.306897        -8.3511
 261   2.0000      -0.299563        -8.1515
 262   2.0000      -0.293787        -7.9943
 263   2.0000      -0.286243        -7.7891
 264   2.0000      -0.270708        -7.3663
 265   2.0000      -0.248522        -6.7626
 266   2.0000      -0.240020        -6.5313
 267   2.0000      -0.206803        -5.6274
 268   0.0000      -0.079038        -2.1507
 269   0.0000      -0.058686        -1.5969
 270   0.0000      -0.044376        -1.2075
 271   0.0000      -0.023934        -0.6513
 272   0.0000      -0.014925        -0.4061

MULLIKEN ATOMIC CHARGES
-----------------------
   0 C :    0.024836
   1 C :   -0.043695
   2 C :    0.000927
   3 C :    0.109150
   4 C :   -0.057931
   5 C :    0.034911
   6 C :    0.100308
   7 C :    0.014237
   8 C :   -0.149533
   9 C :    0.068281
  10 C :    0.026185
  11 C :    0.071995
  12 C :    0.022586
  13 C :   -0.089650
  14 C :    0.118221
  15 C :   -0.024777
  16 C :   -0.046495
  17 C :   -0.024767
  18 C :    0.069972
  19 N :   -0.022556
  20 C :   -0.112091
  21 S :    0.138793
  22 C :   -0.009075
  23 N :    0.298152
  24 O :   -0.260389
  25 O :   -0.262754
  26 C :    0.003986
  27 C :    0.141313
  28 C :   -0.049768
  29 C :    0.005389
  30 C :   -0.013135
  31 C :   -0.015071
  32 C :    0.029443
  33 C :    0.029118
  34 C :   -0.046305
  35 S :    0.054853
  36 C :   -0.047196
  37 C :    0.013091
  38 C :    0.018612
  39 C :   -0.068423
  40 S :    0.092209
  41 C :    0.044796
  42 N :   -0.012348
  43 C :   -0.126513
  44 S :    0.148194
  45 C :   -0.006785
  46 N :    0.280652
  47 O :   -0.258540
  48 O :   -0.276104
  49 C :   -0.001333
  50 C :    0.106028
  51 C :   -0.038752
  52 C :   -0.027624
  53 C :    0.096960
  54 C :   -0.103900
  55 C :    0.030923
  56 C :    0.103538
  57 C :   -0.057687
  58 C :   -0.011489
  59 C :    0.094918
  60 C :    0.009777
  61 C :   -0.133875
  62 C :    0.046612
  63 C :    0.027900
  64 C :    0.070657
  65 C :    0.030020
  66 C :   -0.079159
  67 C :    0.111442
  68 C :   -0.022420
  69 C :   -0.050747
  70 C :   -0.016069
  71 C :   -0.014996
  72 H :   -0.019069
  73 H :   -0.035950
  74 H :   -0.037932
  75 H :   -0.019902
  76 H :   -0.002397
  77 H :   -0.004008
  78 H :    0.022307
  79 H :    0.008670
  80 H :    0.018463
  81 H :   -0.004279
  82 H :   -0.002562
  83 H :    0.020209
  84 H :    0.008989
  85 H :    0.023683
  86 H :   -0.052932
  87 H :   -0.035319
  88 H :   -0.037073
  89 H :   -0.031347
  90 H :    0.029930
  91 H :    0.135797
  92 H :    0.011068
  93 H :   -0.040806
  94 H :    0.000692
  95 H :   -0.024859
  96 H :   -0.016337
  97 H :   -0.015786
  98 H :   -0.012302
  99 H :   -0.020811
 100 H :    0.044473
 101 H :    0.135966
 102 H :    0.008637
 103 H :    0.000893
 104 H :    0.013439
 105 H :   -0.046973
 106 H :   -0.037225
 107 H :   -0.033227
 108 H :    0.004316
 109 H :    0.003004
 110 H :    0.013735
 111 H :    0.002840
 112 H :    0.024081
 113 H :   -0.000438
 114 H :    0.006618
 115 H :    0.008132
 116 H :    0.006209
 117 H :   -0.001022
 118 H :   -0.036206
 119 H :   -0.036571
 120 H :   -0.044716
 121 H :   -0.028100
 122 H :    0.006878
 123 H :    0.012082
Sum of atomic charges:   -0.0000000

LOEWDIN ATOMIC CHARGES
----------------------
   0 C :   -0.023083
   1 C :   -0.027749
   2 C :    0.001157
   3 C :   -0.020077
   4 C :   -0.021659
   5 C :   -0.025849
   6 C :   -0.017690
   7 C :    0.007727
   8 C :   -0.036433
   9 C :   -0.011811
  10 C :   -0.057629
  11 C :   -0.011273
  12 C :   -0.058010
  13 C :   -0.024481
  14 C :   -0.023224
  15 C :   -0.025317
  16 C :   -0.017913
  17 C :   -0.060758
  18 C :    0.016487
  19 N :    0.044192
  20 C :   -0.091979
  21 S :    0.446349
  22 C :   -0.220112
  23 N :    0.281676
  24 O :   -0.229583
  25 O :   -0.233382
  26 C :    0.011248
  27 C :   -0.108690
  28 C :   -0.043219
  29 C :   -0.026294
  30 C :   -0.069567
  31 C :   -0.138427
  32 C :   -0.043090
  33 C :   -0.028260
  34 C :   -0.190510
  35 S :    0.366863
  36 C :   -0.174735
  37 C :   -0.028239
  38 C :   -0.047456
  39 C :   -0.197336
  40 S :    0.377407
  41 C :    0.005393
  42 N :    0.042702
  43 C :   -0.101162
  44 S :    0.436492
  45 C :   -0.217338
  46 N :    0.274744
  47 O :   -0.224449
  48 O :   -0.242266
  49 C :    0.007119
  50 C :   -0.104470
  51 C :   -0.038352
  52 C :   -0.016113
  53 C :   -0.034232
  54 C :   -0.025674
  55 C :    0.004736
  56 C :   -0.010451
  57 C :   -0.021296
  58 C :   -0.020712
  59 C :   -0.026997
  60 C :    0.005445
  61 C :   -0.033385
  62 C :   -0.016435
  63 C :   -0.057037
  64 C :   -0.011773
  65 C :   -0.063882
  66 C :   -0.011938
  67 C :   -0.020393
  68 C :   -0.025093
  69 C :   -0.023911
  70 C :   -0.031167
  71 C :   -0.038274
  72 H :    0.026670
  73 H :    0.024679
  74 H :    0.024658
  75 H :    0.026842
  76 H :    0.020218
  77 H :    0.018815
  78 H :    0.026026
  79 H :    0.023743
  80 H :    0.024459
  81 H :    0.018790
  82 H :    0.020132
  83 H :    0.024828
  84 H :    0.023801
  85 H :    0.026252
  86 H :    0.020328
  87 H :    0.023502
  88 H :    0.026666
  89 H :    0.025103
  90 H :    0.021413
  91 H :    0.095621
  92 H :    0.044701
  93 H :    0.018271
  94 H :    0.020681
  95 H :    0.029203
  96 H :    0.032045
  97 H :    0.030952
  98 H :    0.032953
  99 H :    0.026080
 100 H :    0.039676
 101 H :    0.088407
 102 H :    0.045483
 103 H :    0.031723
 104 H :    0.028601
 105 H :    0.019114
 106 H :    0.026018
 107 H :    0.023722
 108 H :    0.017847
 109 H :    0.022322
 110 H :    0.023058
 111 H :    0.021272
 112 H :    0.026549
 113 H :    0.024953
 114 H :    0.022343
 115 H :    0.016787
 116 H :    0.024607
 117 H :    0.011526
 118 H :    0.026126
 119 H :    0.022795
 120 H :    0.022948
 121 H :    0.022004
 122 H :    0.013132
 123 H :    0.022455

  Mayer bond orders larger than 0.100000
B(  0-C ,  1-C ) :   1.3544 B(  0-C ,  5-C ) :   1.3920 B(  0-C , 72-H ) :   0.9858
B(  1-C ,  2-C ) :   1.4061 B(  1-C , 73-H ) :   1.0027 B(  2-C ,  3-C ) :   1.3736
B(  2-C ,  8-C ) :   0.9224 B(  3-C ,  4-C ) :   1.3619 B(  3-C ,  6-C ) :   0.9885
B(  4-C ,  5-C ) :   1.3749 B(  4-C , 74-H ) :   0.9900 B(  5-C , 75-H ) :   0.9846
B(  6-C ,  7-C ) :   1.3611 B(  6-C , 16-C ) :   1.3547 B(  7-C ,  8-C ) :   0.9192
B(  7-C , 13-C ) :   1.4213 B(  8-C ,  9-C ) :   1.0367 B(  8-C , 11-C ) :   1.0373
B(  9-C , 10-C ) :   1.1018 B(  9-C , 76-H ) :   0.9394 B(  9-C , 77-H ) :   0.9394
B( 10-C , 78-H ) :   0.9644 B( 10-C , 79-H ) :   0.9640 B( 10-C , 80-H ) :   0.9644
B( 11-C , 12-C ) :   1.0993 B( 11-C , 81-H ) :   0.9393 B( 11-C , 82-H ) :   0.9393
B( 12-C , 83-H ) :   0.9646 B( 12-C , 84-H ) :   0.9642 B( 12-C , 85-H ) :   0.9647
B( 13-C , 14-C ) :   1.3002 B( 13-C , 86-H ) :   0.9934 B( 14-C , 15-C ) :   1.3476
B( 14-C , 17-C ) :   1.0910 B( 15-C , 16-C ) :   1.3717 B( 15-C , 87-H ) :   0.9912
B( 16-C , 88-H ) :   0.9907 B( 17-C , 18-C ) :   1.7082 B( 17-C , 89-H ) :   0.9735
B( 18-C , 19-N ) :   1.0914 B( 18-C , 90-H ) :   0.9510 B( 19-N , 20-C ) :   1.2643
B( 19-N , 91-H ) :   0.9146 B( 20-C , 21-S ) :   1.1355 B( 20-C , 27-C ) :   1.3075
B( 21-S , 22-C ) :   1.0502 B( 22-C , 23-N ) :   1.0135 B( 22-C , 26-C ) :   1.4552
B( 23-N , 24-O ) :   1.4560 B( 23-N , 25-O ) :   1.4928 B( 24-O , 25-O ) :   0.2295
B( 26-C , 27-C ) :   1.2527 B( 26-C , 92-H ) :   1.0013 B( 27-C , 28-C ) :   1.0606
B( 28-C , 29-C ) :   1.6833 B( 28-C , 93-H ) :   0.9758 B( 29-C , 30-C ) :   1.1459
B( 29-C , 94-H ) :   0.9681 B( 30-C , 31-C ) :   1.5645 B( 30-C , 95-H ) :   0.9849
B( 31-C , 32-C ) :   1.1411 B( 31-C , 35-S ) :   1.0337 B( 32-C , 33-C ) :   1.5892
B( 32-C , 96-H ) :   0.9989 B( 33-C , 34-C ) :   1.1916 B( 33-C , 97-H ) :   0.9930
B( 34-C , 35-S ) :   1.0362 B( 34-C , 36-C ) :   1.5066 B( 36-C , 37-C ) :   1.1909
B( 36-C , 40-S ) :   1.0537 B( 37-C , 38-C ) :   1.6357 B( 37-C , 98-H ) :   0.9922
B( 38-C , 39-C ) :   1.1223 B( 38-C , 99-H ) :   0.9842 B( 39-C , 40-S ) :   1.0188
B( 39-C , 41-C ) :   1.6008 B( 41-C , 42-N ) :   1.1767 B( 41-C ,100-H ) :   0.9436
B( 42-N , 43-C ) :   1.1880 B( 42-N ,101-H ) :   0.9022 B( 43-C , 44-S ) :   1.1289
B( 43-C , 50-C ) :   1.3893 B( 44-S , 45-C ) :   1.0735 B( 45-C , 46-N ) :   0.9866
B( 45-C , 49-C ) :   1.4704 B( 46-N , 47-O ) :   1.5250 B( 46-N , 48-O ) :   1.4979
B( 47-O , 48-O ) :   0.2525 B( 49-C , 50-C ) :   1.2402 B( 49-C ,102-H ) :   1.0067
B( 50-C , 51-C ) :   1.0365 B( 51-C , 52-C ) :   1.7907 B( 51-C ,103-H ) :   0.9567
B( 52-C , 53-C ) :   1.0242 B( 52-C ,104-H ) :   0.9687 B( 53-C , 54-C ) :   1.2970
B( 53-C , 58-C ) :   1.3768 B( 54-C , 55-C ) :   1.3960 B( 54-C ,105-H ) :   0.9991
B( 55-C , 56-C ) :   1.3819 B( 55-C , 61-C ) :   0.9188 B( 56-C , 57-C ) :   1.3421
B( 56-C , 59-C ) :   0.9959 B( 57-C , 58-C ) :   1.3737 B( 57-C ,106-H ) :   0.9907
B( 58-C ,107-H ) :   0.9860 B( 59-C , 60-C ) :   1.3685 B( 59-C , 69-C ) :   1.3463
B( 60-C , 61-C ) :   0.9259 B( 60-C , 66-C ) :   1.4104 B( 61-C , 62-C ) :   1.0310
B( 61-C , 64-C ) :   1.0173 B( 62-C , 63-C ) :   1.1040 B( 62-C ,108-H ) :   0.9378
B( 62-C ,109-H ) :   0.9403 B( 63-C ,110-H ) :   0.9644 B( 63-C ,111-H ) :   0.9645
B( 63-C ,112-H ) :   0.9631 B( 64-C , 65-C ) :   1.1091 B( 64-C ,113-H ) :   0.9367
B( 64-C ,114-H ) :   0.9340 B( 65-C ,115-H ) :   0.9597 B( 65-C ,116-H ) :   0.9594
B( 65-C ,117-H ) :   0.9619 B( 66-C , 67-C ) :   1.3142 B( 66-C ,118-H ) :   1.0011
B( 67-C , 68-C ) :   1.3518 B( 67-C , 70-C ) :   1.0505 B( 68-C , 69-C ) :   1.3730
B( 68-C ,119-H ) :   0.9903 B( 69-C ,120-H ) :   0.9900 B( 70-C , 71-C ) :   1.9438
B( 70-C ,121-H ) :   0.9687 B( 71-C ,122-H ) :   0.9352 B( 71-C ,123-H ) :   0.9527

-----------------------------------------------------------------------------
         ABSORPTION SPECTRUM VIA TRANSITION ELECTRIC DIPOLE MOMENTS
-----------------------------------------------------------------------------
State   Energy  Wavelength   fosc         T2         TX        TY        TZ
        (cm-1)    (nm)                  (au**2)     (au)      (au)      (au)
-----------------------------------------------------------------------------
   0   14123.8    708.0   1.536830544  35.82205   2.17368  -5.48045   1.03047
   1   18889.5    529.4   0.332948165   5.80272   0.17978   2.33982  -0.54374
   2   22352.4    447.4   0.044858913   0.66070   0.76303  -0.27125  -0.07009
   3   22711.9    440.3   0.310687336   4.50344  -1.96238   0.42748   0.68538
   4   24434.2    409.3   0.072264298   0.97365   0.46748   0.58359  -0.64384
   5   25336.7    394.7   0.411633987   5.34857  -0.89160   2.12298  -0.21577
   6   26008.5    384.5   0.448138535   5.67248  -1.49560   1.84777   0.14632
   7   26345.0    379.6   0.420224191   5.25120   1.43125   1.68873  -0.59237
   8   28743.7    347.9   0.091494876   1.04792   0.37153   0.75746  -0.57977
   9   29103.7    343.6   0.025408117   0.28741   0.53070   0.06556   0.03837
  10   29981.9    333.5   0.088442202   0.97113  -0.85188   0.49265   0.05216
  11   30880.5    323.8   0.000399736   0.00426   0.00460  -0.06454  -0.00868
  12   31464.8    317.8   0.028177923   0.29482   0.35633  -0.36400  -0.18802
  13   32871.2    304.2   0.442325137   4.42998   1.41522  -1.50195   0.41388
  14   33071.4    302.4   0.622471016   6.19644  -2.27230   1.00494   0.15225
  15   33195.7    301.2   0.213517620   2.11752  -1.04464   1.01302   0.00628
  16   34208.5    292.3   0.002681635   0.02581  -0.14594   0.06686  -0.00609
  17   34430.9    290.4   0.103608127   0.99065  -0.16619   0.96520  -0.17725
  18   34642.5    288.7   0.047355177   0.45002   0.57247  -0.32032  -0.14034
  19   34765.5    287.6   0.007383906   0.06992  -0.21832   0.14196   0.04588
  20   35569.2    281.1   0.054180825   0.50147   0.64614  -0.25018  -0.14626
  21   35905.0    278.5   0.044700263   0.40986   0.58063  -0.04673  -0.26560
  22   35963.7    278.1   0.275131702   2.51856  -1.12077   1.11498   0.13873
  23   36514.9    273.9   0.010158900   0.09159  -0.29550   0.00471   0.06518
  24   36765.8    272.0   0.017662038   0.15815   0.23828   0.28517  -0.14159
  25   37229.3    268.6   0.059305838   0.52443   0.68585   0.08562  -0.21611
  26   37531.0    266.4   0.021535598   0.18890   0.03059  -0.43182  -0.03875
  27   37582.6    266.1   0.002285824   0.02002   0.10723   0.08956   0.02245
  28   37983.2    263.3   0.174267695   1.51043   0.71255  -0.98862   0.15916
  29   38088.3    262.5   0.391822435   3.38668  -1.63993   0.77624   0.30782
  30   38264.1    261.3   0.024914996   0.21436   0.41728  -0.20054  -0.00502
  31   38596.3    259.1   0.042101802   0.35911  -0.30245  -0.47738   0.19935
  32   39034.6    256.2   0.013553290   0.11431   0.29999   0.10025  -0.11943
  33   39112.4    255.7   0.009143669   0.07696  -0.10507  -0.19484   0.16722
  34   39683.1    252.0   0.027272027   0.22625  -0.35919   0.31131   0.01782
  35   40144.1    249.1   0.051261621   0.42038   0.15028  -0.61964   0.11767

FINAL SINGLE POINT ENERGY     -4426.031969565185

DIPOLE MOMENT
-------------
                                X             Y             Z
Electronic contribution:     72.89370     -85.49935       5.72993
Nuclear contribution   :    -71.55762      90.05380      -7.61566
                        -----------------------------------------
Total Dipole Moment    :      1.33608       4.55446      -1.88573
                        -----------------------------------------
Magnitude (a.u.)       :      5.10726
Magnitude (Debye)      :     12.98163

Rotational constants in cm-1:     0.001664     0.000249     0.000221
Rotational constants in MHz :    49.881851     7.464761     6.625614

                             ****ORCA TERMINATED NORMALLY****
TOTAL RUN TIME: 0 days 0 hours 12 minutes 9 seconds 810 msec
