                         Program Version 4.2.0 -  RELEASE  -
|  1> # ORCA input file
|  2> # SCF done       -202.496492941279          0.000540735883
|  3> ! CAM-B3LYP def2-SVP def2/J RIJCOSX Grid4 TightSCF
|  4> %maxcore 5000
|  5> %tddft
|  6>     Mode sTDDFT
|  7>     Ethresh 5.0
|  8>     maxcore 5000
|  9> end
| 10>
| 11> %pal
| 12>   nprocs 6
| 13>   end
| 14> * xyz 0 1
| 15>    C       -0.54345        -0.01235        -0.02104
| 16>    C       -0.49026        -1.20883         0.64653
| 17>    C        0.62238        -2.07409         0.63665
| 18>    N        1.49992        -2.81349         0.66554
| 19>    C       -1.54383        -1.71863         1.43209
| 20>    N       -2.37861        -2.16753         2.07978
| 21>    C        0.52441         0.56135        -0.83701
| 22>    C        0.09500         1.81651        -1.34227
| 23>    C        0.88250         2.59851        -2.15238
| 24>    C        2.15518         2.12091        -2.48222
| 25>    C        2.57580         0.86903        -1.97352
| 26>    C        1.77889         0.07815        -1.15282
| 27>    S        4.17929         0.46942        -2.50600
| 28>    C        4.26304         1.96776        -3.39395
| 29>    C        3.14771         2.73038        -3.29687
| 30>   Br        5.81253         2.38430        -4.36443
| 31>    C       -1.26580         2.07794        -0.86258
| 32>    O       -1.96260         3.06491        -1.09031
| 33>    C       -1.64675         0.91878        -0.05244
| 34>    C       -2.89343         0.82364         0.52052
| 35>    N       -3.77764         1.81288         0.35114
| 36>    C       -5.05585         1.86778         0.79319
| 37>    S       -5.77065         0.57255         1.70090
| 38>    C       -7.26293         1.45693         1.73442
| 39>    N       -8.35141         0.87785         2.40602
| 40>    O       -9.39662         1.49854         2.42296
| 41>    O       -8.16181        -0.20896         2.92010
| 42>    C       -7.21070         2.66070         1.08985
| 43>    C       -5.93901         2.93152         0.53822
| 44>    C       -5.57181         4.11757        -0.16807
| 45>    C       -6.45074         5.05594        -0.61213
| 46>    C       -6.05797         6.22457        -1.28839
| 47>    C       -6.93530         7.12386        -1.83792
| 48>    C       -6.61468         8.32032        -2.52886
| 49>    C       -7.69286         8.99133        -3.01648
| 50>    C       -8.92997         8.35965        -2.74714
| 51>    S       -8.67808         6.90157        -1.81632
| 52>    C      -10.18792         8.73969        -3.16813
| 53>    C      -10.54557         9.84980        -3.96824
| 54>    C      -11.86798         9.89845        -4.28015
| 55>    C      -12.63453         8.82850        -3.74619
| 56>    S      -11.60473         7.77951        -2.79279
| 57>    C      -13.96713         8.61000        -3.97900
| 58>    C      -14.75338         7.54652        -3.50613
| 59>    C      -16.07830         7.29866        -3.88639
| 60>    C      -16.73658         8.12547        -4.80526
| 61>    N      -17.23203         8.83219        -5.56215
| 62>    C      -16.61585         6.14547        -3.26556
| 63>    C      -15.68942         5.54987        -2.41402
| 64>    S      -14.16754         6.35158        -2.36351
| 65>    S      -16.24140         4.11486        -1.61103
| 66>    C      -17.74863         4.29335        -2.44266
| 67>    C      -17.82943         5.39869        -3.28839
| 68>    C      -19.06981         5.43108        -3.97180
| 69>    C      -19.50801         6.45511        -4.82586
| 70>    N      -19.91712         7.27621        -5.51458
| 71>    C      -19.88626         4.35349        -3.64358
| 72>    S      -19.16170         3.32021        -2.43694
| 73>    C      -21.18309         4.04410        -4.14155
| 74>    C      -21.69153         4.30364        -5.36983
| 75>    C      -21.09170         4.73745        -6.61945
| 76>    C      -19.82808         4.45930        -7.06354
| 77>    C      -18.86421         3.75144        -6.31894
| 78>    N      -18.05188         3.16041        -5.76306
| 79>    C      -19.36420         4.77767        -8.35818
| 80>    N      -18.94046         4.99664        -9.40128
| 81>    C      -22.16185         5.29631        -7.43262
| 82>    C      -23.40865         4.98252        -6.83259
| 83>    C      -23.17397         4.26255        -5.56886
| 84>    O      -23.98492         3.77960        -4.81609
| 85>    C      -24.60785         5.35086        -7.39436
| 86>    C      -24.57223         6.07138        -8.59261
| 87>    C      -23.31992         6.39932        -9.16936
| 88>    C      -22.10750         6.02041        -8.60781
| 89>    S      -23.51002         7.30855       -10.63544
| 90>    C      -25.24340         7.23121       -10.46391
| 91>    C      -25.66150         6.56264        -9.36244
| 92>   Br      -26.33737         8.03998       -11.75243
| 93>    H        0.52852         3.54790        -2.52248
| 94>    H        2.14442        -0.86877        -0.79242
| 95>    H        3.02874         3.68291        -3.78004
| 96>    H       -3.20472        -0.03162         1.10588
| 97>    H       -3.41338         2.59565        -0.22460
| 98>    H       -8.05818         3.31907         1.04023
| 99>    H       -4.52047         4.27220        -0.37098
|100>    H       -7.51306         4.91175        -0.46998
|101>    H       -5.00051         6.42572        -1.39700
|102>    H       -5.59432         8.64028        -2.64505
|103>    H       -7.63529         9.91200        -3.56858
|104>    H       -9.81898        10.56993        -4.29853
|105>    H      -12.32584        10.65852        -4.88773
|106>    H      -14.47673         9.31380        -4.62547
|107>    H      -21.86700         3.57437        -3.44092
|108>    H      -25.54392         5.09421        -6.92379
|109>    H      -21.17575         6.30367        -9.06832
|110>    H      -26.69456         6.42135        -9.10214
|111> *
|112>
|113>                          ****END OF INPUT****

CARTESIAN COORDINATES (ANGSTROEM)
---------------------------------
  C     -0.543450   -0.012350   -0.021040
  C     -0.490260   -1.208830    0.646530
  C      0.622380   -2.074090    0.636650
  N      1.499920   -2.813490    0.665540
  C     -1.543830   -1.718630    1.432090
  N     -2.378610   -2.167530    2.079780
  C      0.524410    0.561350   -0.837010
  C      0.095000    1.816510   -1.342270
  C      0.882500    2.598510   -2.152380
  C      2.155180    2.120910   -2.482220
  C      2.575800    0.869030   -1.973520
  C      1.778890    0.078150   -1.152820
  S      4.179290    0.469420   -2.506000
  C      4.263040    1.967760   -3.393950
  C      3.147710    2.730380   -3.296870
  Br     5.812530    2.384300   -4.364430
  C     -1.265800    2.077940   -0.862580
  O     -1.962600    3.064910   -1.090310
  C     -1.646750    0.918780   -0.052440
  C     -2.893430    0.823640    0.520520
  N     -3.777640    1.812880    0.351140
  C     -5.055850    1.867780    0.793190
  S     -5.770650    0.572550    1.700900
  C     -7.262930    1.456930    1.734420
  N     -8.351410    0.877850    2.406020
  O     -9.396620    1.498540    2.422960
  O     -8.161810   -0.208960    2.920100
  C     -7.210700    2.660700    1.089850
  C     -5.939010    2.931520    0.538220
  C     -5.571810    4.117570   -0.168070
  C     -6.450740    5.055940   -0.612130
  C     -6.057970    6.224570   -1.288390
  C     -6.935300    7.123860   -1.837920
  C     -6.614680    8.320320   -2.528860
  C     -7.692860    8.991330   -3.016480
  C     -8.929970    8.359650   -2.747140
  S     -8.678080    6.901570   -1.816320
  C    -10.187920    8.739690   -3.168130
  C    -10.545570    9.849800   -3.968240
  C    -11.867980    9.898450   -4.280150
  C    -12.634530    8.828500   -3.746190
  S    -11.604730    7.779510   -2.792790
  C    -13.967130    8.610000   -3.979000
  C    -14.753380    7.546520   -3.506130
  C    -16.078300    7.298660   -3.886390
  C    -16.736580    8.125470   -4.805260
  N    -17.232030    8.832190   -5.562150
  C    -16.615850    6.145470   -3.265560
  C    -15.689420    5.549870   -2.414020
  S    -14.167540    6.351580   -2.363510
  S    -16.241400    4.114860   -1.611030
  C    -17.748630    4.293350   -2.442660
  C    -17.829430    5.398690   -3.288390
  C    -19.069810    5.431080   -3.971800
  C    -19.508010    6.455110   -4.825860
  N    -19.917120    7.276210   -5.514580
  C    -19.886260    4.353490   -3.643580
  S    -19.161700    3.320210   -2.436940
  C    -21.183090    4.044100   -4.141550
  C    -21.691530    4.303640   -5.369830
  C    -21.091700    4.737450   -6.619450
  C    -19.828080    4.459300   -7.063540
  C    -18.864210    3.751440   -6.318940
  N    -18.051880    3.160410   -5.763060
  C    -19.364200    4.777670   -8.358180
  N    -18.940460    4.996640   -9.401280
  C    -22.161850    5.296310   -7.432620
  C    -23.408650    4.982520   -6.832590
  C    -23.173970    4.262550   -5.568860
  O    -23.984920    3.779600   -4.816090
  C    -24.607850    5.350860   -7.394360
  C    -24.572230    6.071380   -8.592610
  C    -23.319920    6.399320   -9.169360
  C    -22.107500    6.020410   -8.607810
  S    -23.510020    7.308550  -10.635440
  C    -25.243400    7.231210  -10.463910
  C    -25.661500    6.562640   -9.362440
  Br   -26.337370    8.039980  -11.752430
  H      0.528520    3.547900   -2.522480
  H      2.144420   -0.868770   -0.792420
  H      3.028740    3.682910   -3.780040
  H     -3.204720   -0.031620    1.105880
  H     -3.413380    2.595650   -0.224600
  H     -8.058180    3.319070    1.040230
  H     -4.520470    4.272200   -0.370980
  H     -7.513060    4.911750   -0.469980
  H     -5.000510    6.425720   -1.397000
  H     -5.594320    8.640280   -2.645050
  H     -7.635290    9.912000   -3.568580
  H     -9.818980   10.569930   -4.298530
  H    -12.325840   10.658520   -4.887730
  H    -14.476730    9.313800   -4.625470
  H    -21.867000    3.574370   -3.440920
  H    -25.543920    5.094210   -6.923790
  H    -21.175750    6.303670   -9.068320
  H    -26.694560    6.421350   -9.102140

 Total Charge           Charge          ....    0
 Multiplicity           Mult            ....    1
 Number of Electrons    NEL             ....  640
 Basis Dimension        Dim             .... 1250

ORBITAL ENERGIES
----------------

  NO   OCC          E(Eh)            E(eV)
   0   2.0000    -482.892594    -13140.1755
   1   2.0000    -482.883542    -13139.9292
   2   2.0000     -88.995211     -2421.6828
   3   2.0000     -88.991125     -2421.5716
   4   2.0000     -88.988202     -2421.4921
   5   2.0000     -88.984322     -2421.3865
   6   2.0000     -88.984307     -2421.3861
   7   2.0000     -88.973285     -2421.0862
   8   2.0000     -88.960526     -2420.7390
   9   2.0000     -88.958630     -2420.6874
  10   2.0000     -62.570308     -1702.6246
  11   2.0000     -62.561275     -1702.3788
  12   2.0000     -56.404270     -1534.8382
  13   2.0000     -56.401535     -1534.7638
  14   2.0000     -56.401501     -1534.7629
  15   2.0000     -56.395222     -1534.5920
  16   2.0000     -56.392511     -1534.5182
  17   2.0000     -56.392475     -1534.5173
  18   2.0000     -19.244362      -523.6657
  19   2.0000     -19.243524      -523.6429
  20   2.0000     -19.240830      -523.5696
  21   2.0000     -19.219557      -522.9907
  22   2.0000     -14.655776      -398.8039
  23   2.0000     -14.502540      -394.6342
  24   2.0000     -14.425263      -392.5314
  25   2.0000     -14.420759      -392.4088
  26   2.0000     -14.417090      -392.3090
  27   2.0000     -14.414782      -392.2462
  28   2.0000     -14.413254      -392.2046
  29   2.0000     -14.400330      -391.8529
  30   2.0000     -10.387301      -282.6528
  31   2.0000     -10.377103      -282.3753
  32   2.0000     -10.376487      -282.3586
  33   2.0000     -10.370357      -282.1918
  34   2.0000     -10.366972      -282.0997
  35   2.0000     -10.356849      -281.8242
  36   2.0000     -10.353460      -281.7320
  37   2.0000     -10.352870      -281.7159
  38   2.0000     -10.348722      -281.6030
  39   2.0000     -10.344172      -281.4792
  40   2.0000     -10.343422      -281.4588
  41   2.0000     -10.342398      -281.4310
  42   2.0000     -10.340235      -281.3721
  43   2.0000     -10.335813      -281.2518
  44   2.0000     -10.334839      -281.2253
  45   2.0000     -10.333559      -281.1904
  46   2.0000     -10.333060      -281.1769
  47   2.0000     -10.327503      -281.0256
  48   2.0000     -10.327170      -281.0166
  49   2.0000     -10.325787      -280.9789
  50   2.0000     -10.324294      -280.9383
  51   2.0000     -10.324264      -280.9375
  52   2.0000     -10.323806      -280.9251
  53   2.0000     -10.323425      -280.9147
  54   2.0000     -10.322251      -280.8827
  55   2.0000     -10.318648      -280.7847
  56   2.0000     -10.318585      -280.7830
  57   2.0000     -10.317293      -280.7478
  58   2.0000     -10.316849      -280.7357
  59   2.0000     -10.316562      -280.7279
  60   2.0000     -10.315345      -280.6948
  61   2.0000     -10.315095      -280.6880
  62   2.0000     -10.313405      -280.6420
  63   2.0000     -10.313239      -280.6375
  64   2.0000     -10.313189      -280.6361
  65   2.0000     -10.312951      -280.6297
  66   2.0000     -10.309398      -280.5330
  67   2.0000     -10.308422      -280.5064
  68   2.0000     -10.307594      -280.4839
  69   2.0000     -10.306240      -280.4470
  70   2.0000     -10.306196      -280.4458
  71   2.0000     -10.305164      -280.4178
  72   2.0000     -10.305129      -280.4168
  73   2.0000     -10.303378      -280.3692
  74   2.0000     -10.302735      -280.3517
  75   2.0000     -10.301031      -280.3053
  76   2.0000     -10.300841      -280.3001
  77   2.0000     -10.300380      -280.2876
  78   2.0000     -10.300280      -280.2849
  79   2.0000     -10.300198      -280.2826
  80   2.0000     -10.296912      -280.1932
  81   2.0000     -10.296103      -280.1712
  82   2.0000     -10.295960      -280.1673
  83   2.0000     -10.294795      -280.1356
  84   2.0000     -10.294694      -280.1329
  85   2.0000     -10.293184      -280.0918
  86   2.0000      -8.799741      -239.4531
  87   2.0000      -8.790721      -239.2077
  88   2.0000      -8.090434      -220.1519
  89   2.0000      -8.086417      -220.0426
  90   2.0000      -8.083376      -219.9599
  91   2.0000      -8.080303      -219.8762
  92   2.0000      -8.079219      -219.8467
  93   2.0000      -8.069362      -219.5785
  94   2.0000      -8.056732      -219.2348
  95   2.0000      -8.055052      -219.1891
  96   2.0000      -6.636100      -180.5774
  97   2.0000      -6.627018      -180.3303
  98   2.0000      -6.621433      -180.1784
  99   2.0000      -6.621252      -180.1734
 100   2.0000      -6.612453      -179.9340
 101   2.0000      -6.612266      -179.9289
 102   2.0000      -6.060070      -164.9029
 103   2.0000      -6.055949      -164.7907
 104   2.0000      -6.055744      -164.7852
 105   2.0000      -6.053359      -164.7203
 106   2.0000      -6.051870      -164.6798
 107   2.0000      -6.051719      -164.6756
 108   2.0000      -6.049964      -164.6279
 109   2.0000      -6.049096      -164.6043
 110   2.0000      -6.048840      -164.5973
 111   2.0000      -6.048081      -164.5767
 112   2.0000      -6.045692      -164.5116
 113   2.0000      -6.044522      -164.4798
 114   2.0000      -6.044154      -164.4698
 115   2.0000      -6.041575      -164.3996
 116   2.0000      -6.040802      -164.3786
 117   2.0000      -6.039054      -164.3310
 118   2.0000      -6.034747      -164.2138
 119   2.0000      -6.030579      -164.1004
 120   2.0000      -6.026517      -163.9899
 121   2.0000      -6.024784      -163.9427
 122   2.0000      -6.022389      -163.8775
 123   2.0000      -6.020813      -163.8346
 124   2.0000      -6.017610      -163.7475
 125   2.0000      -6.015871      -163.7002
 126   2.0000      -2.751947       -74.8843
 127   2.0000      -2.747874       -74.7735
 128   2.0000      -2.747675       -74.7680
 129   2.0000      -2.742894       -74.6379
 130   2.0000      -2.738806       -74.5267
 131   2.0000      -2.738657       -74.5227
 132   2.0000      -2.736061       -74.4520
 133   2.0000      -2.736041       -74.4515
 134   2.0000      -2.727084       -74.2077
 135   2.0000      -2.727069       -74.2073
 136   2.0000      -1.325997       -36.0822
 137   2.0000      -1.155251       -31.4360
 138   2.0000      -1.145239       -31.1635
 139   2.0000      -1.135355       -30.8946
 140   2.0000      -1.110221       -30.2106
 141   2.0000      -1.044325       -28.4175
 142   2.0000      -1.032570       -28.0976
 143   2.0000      -1.023858       -27.8606
 144   2.0000      -1.021917       -27.8078
 145   2.0000      -1.015835       -27.6423
 146   2.0000      -1.015399       -27.6304
 147   2.0000      -1.011060       -27.5123
 148   2.0000      -1.007258       -27.4089
 149   2.0000      -1.002475       -27.2787
 150   2.0000      -0.998786       -27.1784
 151   2.0000      -0.997051       -27.1311
 152   2.0000      -0.993505       -27.0346
 153   2.0000      -0.989448       -26.9243
 154   2.0000      -0.987278       -26.8652
 155   2.0000      -0.980826       -26.6896
 156   2.0000      -0.954379       -25.9700
 157   2.0000      -0.951260       -25.8851
 158   2.0000      -0.940533       -25.5932
 159   2.0000      -0.935106       -25.4455
 160   2.0000      -0.918183       -24.9850
 161   2.0000      -0.915536       -24.9130
 162   2.0000      -0.908398       -24.7188
 163   2.0000      -0.904918       -24.6241
 164   2.0000      -0.902829       -24.5672
 165   2.0000      -0.896190       -24.3866
 166   2.0000      -0.895516       -24.3682
 167   2.0000      -0.888390       -24.1743
 168   2.0000      -0.884717       -24.0744
 169   2.0000      -0.879419       -23.9302
 170   2.0000      -0.872617       -23.7451
 171   2.0000      -0.863566       -23.4988
 172   2.0000      -0.859279       -23.3822
 173   2.0000      -0.858182       -23.3523
 174   2.0000      -0.845908       -23.0183
 175   2.0000      -0.839153       -22.8345
 176   2.0000      -0.837318       -22.7846
 177   2.0000      -0.828561       -22.5463
 178   2.0000      -0.822564       -22.3831
 179   2.0000      -0.811919       -22.0934
 180   2.0000      -0.803757       -21.8713
 181   2.0000      -0.791056       -21.5257
 182   2.0000      -0.774211       -21.0674
 183   2.0000      -0.771595       -20.9962
 184   2.0000      -0.763782       -20.7836
 185   2.0000      -0.756971       -20.5982
 186   2.0000      -0.745758       -20.2931
 187   2.0000      -0.737210       -20.0605
 188   2.0000      -0.724742       -19.7212
 189   2.0000      -0.717882       -19.5346
 190   2.0000      -0.708161       -19.2700
 191   2.0000      -0.703078       -19.1317
 192   2.0000      -0.699792       -19.0423
 193   2.0000      -0.696294       -18.9471
 194   2.0000      -0.690150       -18.7799
 195   2.0000      -0.688735       -18.7414
 196   2.0000      -0.682228       -18.5644
 197   2.0000      -0.672779       -18.3072
 198   2.0000      -0.668196       -18.1825
 199   2.0000      -0.666002       -18.1228
 200   2.0000      -0.661702       -18.0058
 201   2.0000      -0.658888       -17.9292
 202   2.0000      -0.649441       -17.6722
 203   2.0000      -0.646232       -17.5849
 204   2.0000      -0.641269       -17.4498
 205   2.0000      -0.640304       -17.4236
 206   2.0000      -0.637139       -17.3374
 207   2.0000      -0.634805       -17.2739
 208   2.0000      -0.629117       -17.1191
 209   2.0000      -0.627929       -17.0868
 210   2.0000      -0.624132       -16.9835
 211   2.0000      -0.616735       -16.7822
 212   2.0000      -0.611012       -16.6265
 213   2.0000      -0.606421       -16.5016
 214   2.0000      -0.604164       -16.4401
 215   2.0000      -0.601551       -16.3690
 216   2.0000      -0.598305       -16.2807
 217   2.0000      -0.589682       -16.0461
 218   2.0000      -0.580638       -15.8000
 219   2.0000      -0.578009       -15.7284
 220   2.0000      -0.570727       -15.5303
 221   2.0000      -0.566753       -15.4221
 222   2.0000      -0.565948       -15.4002
 223   2.0000      -0.559293       -15.2191
 224   2.0000      -0.556437       -15.1414
 225   2.0000      -0.554342       -15.0844
 226   2.0000      -0.550768       -14.9872
 227   2.0000      -0.546539       -14.8721
 228   2.0000      -0.545512       -14.8441
 229   2.0000      -0.543491       -14.7892
 230   2.0000      -0.542408       -14.7597
 231   2.0000      -0.538741       -14.6599
 232   2.0000      -0.537233       -14.6188
 233   2.0000      -0.534327       -14.5398
 234   2.0000      -0.529136       -14.3985
 235   2.0000      -0.527112       -14.3435
 236   2.0000      -0.524358       -14.2685
 237   2.0000      -0.520139       -14.1537
 238   2.0000      -0.518090       -14.0979
 239   2.0000      -0.517612       -14.0849
 240   2.0000      -0.516983       -14.0678
 241   2.0000      -0.512158       -13.9365
 242   2.0000      -0.509369       -13.8606
 243   2.0000      -0.508007       -13.8236
 244   2.0000      -0.507328       -13.8051
 245   2.0000      -0.506259       -13.7760
 246   2.0000      -0.505607       -13.7583
 247   2.0000      -0.503245       -13.6940
 248   2.0000      -0.496606       -13.5133
 249   2.0000      -0.493854       -13.4385
 250   2.0000      -0.492020       -13.3885
 251   2.0000      -0.487503       -13.2656
 252   2.0000      -0.487011       -13.2523
 253   2.0000      -0.485486       -13.2107
 254   2.0000      -0.482723       -13.1355
 255   2.0000      -0.479869       -13.0579
 256   2.0000      -0.475049       -12.9267
 257   2.0000      -0.472299       -12.8519
 258   2.0000      -0.472242       -12.8504
 259   2.0000      -0.468550       -12.7499
 260   2.0000      -0.468262       -12.7421
 261   2.0000      -0.461690       -12.5632
 262   2.0000      -0.459309       -12.4984
 263   2.0000      -0.458136       -12.4665
 264   2.0000      -0.457933       -12.4610
 265   2.0000      -0.456750       -12.4288
 266   2.0000      -0.455941       -12.4068
 267   2.0000      -0.453667       -12.3449
 268   2.0000      -0.450738       -12.2652
 269   2.0000      -0.449426       -12.2295
 270   2.0000      -0.448032       -12.1916
 271   2.0000      -0.447501       -12.1771
 272   2.0000      -0.442777       -12.0486
 273   2.0000      -0.441762       -12.0209
 274   2.0000      -0.440769       -11.9939
 275   2.0000      -0.438999       -11.9458
 276   2.0000      -0.435011       -11.8372
 277   2.0000      -0.434771       -11.8307
 278   2.0000      -0.433875       -11.8063
 279   2.0000      -0.433059       -11.7841
 280   2.0000      -0.431279       -11.7357
 281   2.0000      -0.430132       -11.7045
 282   2.0000      -0.425553       -11.5799
 283   2.0000      -0.425294       -11.5728
 284   2.0000      -0.424935       -11.5631
 285   2.0000      -0.420959       -11.4549
 286   2.0000      -0.419154       -11.4057
 287   2.0000      -0.417820       -11.3694
 288   2.0000      -0.409612       -11.1461
 289   2.0000      -0.408117       -11.1054
 290   2.0000      -0.405235       -11.0270
 291   2.0000      -0.397562       -10.8182
 292   2.0000      -0.392392       -10.6775
 293   2.0000      -0.391103       -10.6425
 294   2.0000      -0.389172       -10.5899
 295   2.0000      -0.385664       -10.4944
 296   2.0000      -0.383225       -10.4281
 297   2.0000      -0.381986       -10.3944
 298   2.0000      -0.379940       -10.3387
 299   2.0000      -0.377445       -10.2708
 300   2.0000      -0.373939       -10.1754
 301   2.0000      -0.372981       -10.1493
 302   2.0000      -0.372956       -10.1486
 303   2.0000      -0.363761        -9.8984
 304   2.0000      -0.360302        -9.8043
 305   2.0000      -0.352295        -9.5864
 306   2.0000      -0.348511        -9.4835
 307   2.0000      -0.347165        -9.4468
 308   2.0000      -0.339525        -9.2390
 309   2.0000      -0.334478        -9.1016
 310   2.0000      -0.329513        -8.9665
 311   2.0000      -0.326912        -8.8957
 312   2.0000      -0.318106        -8.6561
 313   2.0000      -0.313053        -8.5186
 314   2.0000      -0.303683        -8.2636
 315   2.0000      -0.296464        -8.0672
 316   2.0000      -0.292127        -7.9492
 317   2.0000      -0.286300        -7.7906
 318   2.0000      -0.274322        -7.4647
 319   2.0000      -0.223695        -6.0870
 320   0.0000      -0.102003        -2.7756
 321   0.0000      -0.094560        -2.5731
 322   0.0000      -0.088801        -2.4164
 323   0.0000      -0.075723        -2.0605
 324   0.0000      -0.058640        -1.5957

MULLIKEN ATOMIC CHARGES
-----------------------
   0 C :    0.327232
   1 C :   -0.344719
   2 C :   -0.184665
   3 N :    0.154198
   4 C :   -0.196221
   5 N :    0.145805
   6 C :    0.008426
   7 C :   -0.005538
   8 C :   -0.065754
   9 C :    0.114939
  10 C :   -0.092522
  11 C :   -0.016820
  12 S :    0.194524
  13 C :   -0.123820
  14 C :    0.039444
  15 Br:    0.028993
  16 C :    0.169142
  17 O :   -0.228140
  18 C :   -0.130744
  19 C :    0.026042
  20 N :   -0.005217
  21 C :   -0.122324
  22 S :    0.180413
  23 C :    0.005400
  24 N :    0.274758
  25 O :   -0.245207
  26 O :   -0.253414
  27 C :    0.002460
  28 C :    0.147557
  29 C :   -0.055439
  30 C :    0.009101
  31 C :   -0.014544
  32 C :   -0.015495
  33 C :    0.038954
  34 C :    0.030956
  35 C :   -0.042331
  36 S :    0.075144
  37 C :   -0.037463
  38 C :    0.037094
  39 C :    0.033175
  40 C :   -0.025507
  41 S :    0.064821
  42 C :   -0.050977
  43 C :   -0.068453
  44 C :   -0.026731
  45 C :   -0.324019
  46 N :    0.194637
  47 C :    0.171607
  48 C :   -0.228251
  49 S :    0.149533
  50 S :    0.201989
  51 C :   -0.210388
  52 C :    0.143128
  53 C :   -0.001892
  54 C :   -0.328720
  55 N :    0.236165
  56 C :   -0.141366
  57 S :    0.204952
  58 C :    0.046455
  59 C :   -0.108736
  60 C :    0.259771
  61 C :   -0.309139
  62 C :   -0.191633
  63 N :    0.166708
  64 C :   -0.184686
  65 N :    0.169417
  66 C :    0.005467
  67 C :    0.005888
  68 C :    0.133056
  69 O :   -0.136222
  70 C :   -0.071858
  71 C :    0.116195
  72 C :   -0.087949
  73 C :   -0.005358
  74 S :    0.191977
  75 C :   -0.125075
  76 C :    0.038773
  77 Br:    0.024605
  78 H :   -0.011929
  79 H :   -0.003881
  80 H :   -0.003238
  81 H :    0.047193
  82 H :    0.183768
  83 H :    0.015120
  84 H :   -0.002955
  85 H :    0.003174
  86 H :   -0.008003
  87 H :   -0.007079
  88 H :   -0.007323
  89 H :   -0.008465
  90 H :   -0.000115
  91 H :    0.017329
  92 H :    0.030158
  93 H :   -0.009004
  94 H :    0.006480
  95 H :   -0.002786
Sum of atomic charges:   -0.0000000

LOEWDIN ATOMIC CHARGES
----------------------
   0 C :    0.078212
   1 C :   -0.147224
   2 C :   -0.020094
   3 N :   -0.051964
   4 C :   -0.020444
   5 N :   -0.051787
   6 C :   -0.017858
   7 C :   -0.052014
   8 C :    0.024349
   9 C :   -0.033975
  10 C :   -0.143406
  11 C :   -0.006578
  12 S :    0.439515
  13 C :   -0.270818
  14 C :   -0.070145
  15 Br:    0.140803
  16 C :    0.097169
  17 O :   -0.180662
  18 C :   -0.145800
  19 C :    0.111244
  20 N :    0.081865
  21 C :   -0.116053
  22 S :    0.472232
  23 C :   -0.197629
  24 N :    0.273032
  25 O :   -0.211554
  26 O :   -0.220034
  27 C :    0.003669
  28 C :   -0.083607
  29 C :   -0.029691
  30 C :   -0.020205
  31 C :   -0.051387
  32 C :   -0.141031
  33 C :   -0.026792
  34 C :   -0.027732
  35 C :   -0.168904
  36 S :    0.372789
  37 C :   -0.179189
  38 C :   -0.027201
  39 C :   -0.028036
  40 C :   -0.139194
  41 S :    0.368829
  42 C :   -0.076535
  43 C :   -0.128828
  44 C :   -0.106286
  45 C :   -0.041703
  46 N :   -0.043989
  47 C :   -0.058089
  48 C :   -0.335307
  49 S :    0.445427
  50 S :    0.435541
  51 C :   -0.317579
  52 C :   -0.057455
  53 C :   -0.080207
  54 C :   -0.033011
  55 N :   -0.027322
  56 C :   -0.148119
  57 S :    0.480697
  58 C :    0.030429
  59 C :   -0.063810
  60 C :    0.072021
  61 C :   -0.124865
  62 C :   -0.016643
  63 N :   -0.047100
  64 C :   -0.016787
  65 N :   -0.043285
  66 C :   -0.010763
  67 C :   -0.053414
  68 C :    0.086795
  69 O :   -0.135556
  70 C :    0.024060
  71 C :   -0.031658
  72 C :   -0.140154
  73 C :   -0.001385
  74 S :    0.437726
  75 C :   -0.271379
  76 C :   -0.070261
  77 Br:    0.138023
  78 H :    0.040917
  79 H :    0.042413
  80 H :    0.039048
  81 H :    0.036727
  82 H :    0.084859
  83 H :    0.046117
  84 H :    0.031237
  85 H :    0.022774
  86 H :    0.036057
  87 H :    0.035923
  88 H :    0.034409
  89 H :    0.034442
  90 H :    0.038538
  91 H :    0.050549
  92 H :    0.048892
  93 H :    0.041570
  94 H :    0.044680
  95 H :    0.038917

  Mayer bond orders larger than 0.100000
B(  0-C ,  1-C ) :   1.6296 B(  0-C ,  6-C ) :   1.0011 B(  0-C , 18-C ) :   1.0987
B(  1-C ,  2-C ) :   1.1432 B(  1-C ,  4-C ) :   1.1481 B(  2-C ,  3-N ) :   2.9695
B(  4-C ,  5-N ) :   2.9549 B(  6-C ,  7-C ) :   1.2740 B(  6-C , 11-C ) :   1.4254
B(  7-C ,  8-C ) :   1.4210 B(  7-C , 16-C ) :   0.9853 B(  8-C ,  9-C ) :   1.2417
B(  8-C , 78-H ) :   1.0182 B(  9-C , 10-C ) :   1.3110 B(  9-C , 14-C ) :   1.1640
B( 10-C , 11-C ) :   1.3169 B( 10-C , 12-S ) :   1.0925 B( 11-C , 79-H ) :   0.9801
B( 12-S , 13-C ) :   1.0890 B( 13-C , 14-C ) :   1.6161 B( 13-C , 15-Br) :   1.0213
B( 14-C , 80-H ) :   0.9997 B( 16-C , 17-O ) :   2.0228 B( 16-C , 18-C ) :   1.0085
B( 17-O , 82-H ) :   0.1451 B( 18-C , 19-C ) :   1.4479 B( 19-C , 20-N ) :   1.3434
B( 19-C , 81-H ) :   0.9313 B( 20-N , 21-C ) :   1.1975 B( 20-N , 82-H ) :   0.8207
B( 21-C , 22-S ) :   1.1336 B( 21-C , 28-C ) :   1.3604 B( 22-S , 23-C ) :   1.0813
B( 23-C , 24-N ) :   0.9605 B( 23-C , 27-C ) :   1.5146 B( 24-N , 25-O ) :   1.5363
B( 24-N , 26-O ) :   1.5187 B( 25-O , 26-O ) :   0.2635 B( 27-C , 28-C ) :   1.2102
B( 27-C , 83-H ) :   0.9984 B( 28-C , 29-C ) :   1.0709 B( 29-C , 30-C ) :   1.6674
B( 29-C , 84-H ) :   0.9774 B( 30-C , 31-C ) :   1.1465 B( 30-C , 85-H ) :   0.9717
B( 31-C , 32-C ) :   1.5654 B( 31-C , 86-H ) :   0.9869 B( 32-C , 33-C ) :   1.1374
B( 32-C , 36-S ) :   1.0310 B( 33-C , 34-C ) :   1.5945 B( 33-C , 87-H ) :   1.0001
B( 34-C , 35-C ) :   1.1842 B( 34-C , 88-H ) :   0.9937 B( 35-C , 36-S ) :   1.0496
B( 35-C , 37-C ) :   1.5177 B( 37-C , 38-C ) :   1.1821 B( 37-C , 41-S ) :   1.0372
B( 38-C , 39-C ) :   1.5953 B( 38-C , 89-H ) :   0.9924 B( 39-C , 40-C ) :   1.1408
B( 39-C , 90-H ) :   1.0008 B( 40-C , 41-S ) :   1.0426 B( 40-C , 42-C ) :   1.5576
B( 42-C , 43-C ) :   1.2218 B( 42-C , 91-H ) :   0.9612 B( 43-C , 44-C ) :   1.4431
B( 43-C , 49-S ) :   1.1017 B( 44-C , 45-C ) :   1.1887 B( 44-C , 47-C ) :   1.2700
B( 45-C , 46-N ) :   2.9730 B( 47-C , 48-C ) :   1.4020 B( 47-C , 52-C ) :   1.0621
B( 48-C , 49-S ) :   1.0940 B( 48-C , 50-S ) :   1.0785 B( 50-S , 51-C ) :   1.0936
B( 51-C , 52-C ) :   1.3948 B( 51-C , 57-S ) :   1.1066 B( 52-C , 53-C ) :   1.2852
B( 53-C , 54-C ) :   1.1913 B( 53-C , 56-C ) :   1.4713 B( 54-C , 55-N ) :   2.9679
B( 56-C , 57-S ) :   1.1359 B( 56-C , 58-C ) :   1.0870 B( 58-C , 59-C ) :   1.7441
B( 58-C , 92-H ) :   0.9259 B( 59-C , 60-C ) :   1.0118 B( 59-C , 68-C ) :   0.9303
B( 60-C , 61-C ) :   1.6634 B( 60-C , 66-C ) :   1.0193 B( 61-C , 62-C ) :   1.1710
B( 61-C , 64-C ) :   1.1361 B( 62-C , 63-N ) :   2.9976 B( 64-C , 65-N ) :   3.0009
B( 66-C , 67-C ) :   1.2732 B( 66-C , 73-C ) :   1.4161 B( 67-C , 68-C ) :   0.9250
B( 67-C , 70-C ) :   1.4153 B( 68-C , 69-O ) :   2.2753 B( 70-C , 71-C ) :   1.2573
B( 70-C , 93-H ) :   1.0168 B( 71-C , 72-C ) :   1.3016 B( 71-C , 76-C ) :   1.1625
B( 72-C , 73-C ) :   1.3296 B( 72-C , 74-S ) :   1.0864 B( 73-C , 94-H ) :   0.9830
B( 74-S , 75-C ) :   1.0877 B( 75-C , 76-C ) :   1.6184 B( 75-C , 77-Br) :   1.0200
B( 76-C , 95-H ) :   1.0008

-----------------------------------------------------------------------------
         ABSORPTION SPECTRUM VIA TRANSITION ELECTRIC DIPOLE MOMENTS
-----------------------------------------------------------------------------
State   Energy  Wavelength   fosc         T2         TX        TY        TZ
        (cm-1)    (nm)                  (au**2)     (au)      (au)      (au)
-----------------------------------------------------------------------------
   0   13785.9    725.4   1.835403468  43.83002   6.03050  -2.17730   1.64999
   1   17070.4    585.8   0.019675344   0.37945  -0.23385  -0.49550  -0.28150
   2   17466.3    572.5   0.109494401   2.06379   1.08404   0.09263   0.93812
   3   20509.5    487.6   0.011838971   0.19004  -0.17705  -0.26017   0.30166
   4   22875.8    437.1   0.181694871   2.61482  -1.09811   1.10099   0.44362
   5   23386.5    427.6   0.358684783   5.04922  -1.45477  -0.79120  -1.51884
   6   24423.0    409.4   0.274599549   3.70149  -1.06485   1.59780  -0.12091
   7   25747.6    388.4   0.223100593   2.85259  -1.51538   0.51876  -0.53581
   8   26188.6    381.8   0.329714525   4.14477   1.61565   0.92503  -0.82387
   9   26399.1    378.8   0.003685308   0.04596  -0.18811  -0.02924  -0.09858
  10   27683.9    361.2   0.047961939   0.57036   0.28338   0.47962  -0.50992
  11   27728.7    360.6   0.041745592   0.49563  -0.69969   0.02989   0.07189
  12   28211.8    354.5   0.386536243   4.51061   1.18678   1.58895  -0.75986
  13   28440.0    351.6   0.050111170   0.58007  -0.12529   0.53556  -0.52683
  14   28715.2    348.2   0.006549524   0.07509   0.24309  -0.01995  -0.12489
  15   29352.4    340.7   0.303434730   3.40327   1.46496   0.48547  -1.01069
  16   29771.7    335.9   0.722847687   7.99315   1.80033   1.68001  -1.38908
  17   29847.1    335.0   0.041813412   0.46120  -0.01162  -0.43504   0.52135
  18   30465.1    328.2   0.006496347   0.07020  -0.25660   0.02603   0.06065
  19   31326.9    319.2   0.004282225   0.04500  -0.01161  -0.12585  -0.17037
  20   31440.0    318.1   0.051088214   0.53495   0.66938  -0.20036   0.21619
  21   32047.8    312.0   0.144062853   1.47989   0.78860   0.36279  -0.85228
  22   32404.3    308.6   0.350152037   3.55737  -1.74039   0.01495  -0.72676
  23   32584.2    306.9   0.079724386   0.80549  -0.37902   0.37493  -0.72198
  24   32796.0    304.9   0.588725296   5.90973   2.03132  -1.02522   0.85580
  25   33825.9    295.6   0.356579170   3.47042   0.60635   1.39687  -1.07309
  26   33888.6    295.1   0.008948460   0.08693  -0.12419  -0.21402   0.16032
  27   33958.8    294.5   0.007846279   0.07607  -0.03159   0.24258  -0.12737
  28   34207.1    292.3   0.063892565   0.61491   0.09043  -0.52727   0.57334
  29   34391.2    290.8   0.070299281   0.67294   0.24117   0.69761  -0.35794
  30   34572.9    289.2   0.021919631   0.20872  -0.26335  -0.15330   0.34040
  31   34979.7    285.9   0.044020791   0.41430   0.16144   0.50370  -0.36678
  32   35073.9    285.1   0.016808137   0.15777   0.18896  -0.31354   0.15412
  33   35292.2    283.3   0.044175897   0.41208   0.48932  -0.41390   0.03649
  34   35475.6    281.9   0.163736096   1.51946  -0.43119  -0.81109   0.82199
  35   35868.6    278.8   0.029758221   0.27313   0.40469   0.28307   0.17097
  36   35906.0    278.5   0.000501464   0.00460  -0.03270  -0.05834  -0.01119
  37   35967.1    278.0   0.001811905   0.01658   0.08021   0.01529  -0.09959
  38   36245.5    275.9   0.013769294   0.12506  -0.29970  -0.02113   0.18654
  39   37034.2    270.0   0.056406363   0.50142   0.68218   0.04551   0.18431
  40   37114.1    269.4   0.007851616   0.06965  -0.24709   0.03106   0.08733
  41   37203.3    268.8   0.004837474   0.04281   0.09924  -0.12040  -0.13587
  42   37233.3    268.6   0.043764651   0.38696   0.36998  -0.24447   0.43624
  43   37341.5    267.8   0.002570379   0.02266  -0.14901   0.01806   0.01147
  44   37894.3    263.9   0.143088726   1.24310  -0.95940   0.56056   0.09178
  45   38366.1    260.6   0.069098207   0.59292   0.70374  -0.18443  -0.25229
  46   38637.1    258.8   0.277677076   2.36598   0.80989   0.39637  -1.24618
  47   38702.0    258.4   0.043864334   0.37312  -0.20288  -0.19059   0.54373
  48   39115.9    255.7   0.004362130   0.03671   0.04735  -0.09889   0.15714
  49   39257.7    254.7   0.063118518   0.52931   0.60212  -0.33282   0.23663
  50   39404.1    253.8   0.003021591   0.02524   0.06223  -0.13865   0.04636
  51   39622.4    252.4   0.078156294   0.64938  -0.32558   0.68063  -0.28305

FINAL SINGLE POINT ENERGY    -11212.330462776450

DIPOLE MOMENT
-------------
                                X             Y             Z
Electronic contribution:     -8.72053       0.47870     -91.80309
Nuclear contribution   :     11.30282       2.54601      91.12248
                        -----------------------------------------
Total Dipole Moment    :      2.58229       3.02471      -0.68061
                        -----------------------------------------
Magnitude (a.u.)       :      4.03489
Magnitude (Debye)      :     10.25587

Rotational constants in cm-1:     0.001051     0.000114     0.000110
Rotational constants in MHz :    31.496767     3.430602     3.311937

                             ****ORCA TERMINATED NORMALLY****
TOTAL RUN TIME: 0 days 0 hours 10 minutes 2 seconds 867 msec
