                         Program Version 4.2.0 -  RELEASE  -
|  1> # ORCA input file
|  2> # SCF done       -175.174216565700          0.000621063222
|  3> ! CAM-B3LYP def2-SVP def2/J RIJCOSX Grid4 TightSCF
|  4> %maxcore 5000
|  5> %tddft
|  6>     Mode sTDDFT
|  7>     Ethresh 5.0
|  8>     maxcore 5000
|  9> end
| 10>
| 11> %pal
| 12>   nprocs 6
| 13>   end
| 14> * xyz 0 1
| 15>    C       -8.87017        -0.67763         1.96845
| 16>    C       -8.24347        -1.61829         2.75664
| 17>    C       -8.75256        -2.90782         3.00160
| 18>    N       -9.10942        -3.97355         3.24116
| 19>    C       -7.02198        -1.44522         3.43406
| 20>    N       -6.03237        -1.38925         4.01875
| 21>    C      -10.14114        -0.88239         1.27535
| 22>    C      -10.47255         0.30749         0.58292
| 23>    C      -11.60650         0.43346        -0.17884
| 24>    C      -12.46082        -0.67253        -0.26337
| 25>    C      -12.12521        -1.85481         0.43372
| 26>    C      -10.97528        -1.98096         1.20571
| 27>    S      -13.31618        -3.09828         0.19297
| 28>    C      -14.23411        -2.02522        -0.82941
| 29>    C      -13.68075        -0.79951        -0.98306
| 30>   Br      -15.83778        -2.62464        -1.59780
| 31>    C       -9.41583         1.31040         0.82407
| 32>    O       -9.40046         2.45208         0.38830
| 33>    C       -8.42367         0.65994         1.67130
| 34>    C       -7.22820         1.21310         2.09754
| 35>    C       -6.66859         2.45912         1.86326
| 36>    S       -7.38554         3.75772         0.94743
| 37>    C       -6.01109         4.78154         1.16988
| 38>    C       -5.00802         4.14895         1.93670
| 39>    C       -5.38343         2.84401         2.34045
| 40>    C       -4.50143         2.09135         3.12909
| 41>    C       -3.28876         2.60686         3.50760
| 42>    C       -2.33521         1.82624         4.35081
| 43>    C       -2.91703         3.91831         3.09533
| 44>    O       -1.69298         4.32315         3.52902
| 45>    C       -1.23959         5.60424         3.17116
| 46>    C       -3.76461         4.67675         2.32272
| 47>    C       -5.96053         6.07366         0.59968
| 48>    C       -7.01754         6.67403        -0.00454
| 49>    C       -6.95112         7.95565        -0.62127
| 50>    C       -8.01113         8.64515        -1.08805
| 51>    C       -9.42130         8.14942        -0.98281
| 52>    C       -7.81940         9.97198        -1.77524
| 53>    N       -8.47062         9.98814        -3.06530
| 54>    C       -9.62507        10.65139        -3.30628
| 55>    C      -10.48013        10.37326        -4.32573
| 56>    C      -11.61690        11.14996        -4.61247
| 57>    C      -12.54682        10.84868        -5.57373
| 58>    C      -13.68963        11.60324        -5.92905
| 59>    C      -14.45000        11.04484        -6.91248
| 60>    C      -13.96196         9.80748        -7.38407
| 61>    S      -12.48024         9.38563        -6.55339
| 62>    C      -14.52472         8.97671        -8.33530
| 63>    C      -15.69468         9.18938        -9.09492
| 64>    C      -16.00129         8.16109        -9.93401
| 65>    C      -15.10009         7.06812        -9.88512
| 66>    S      -13.82287         7.42261        -8.73157
| 67>    C      -15.21437         5.90745       -10.60664
| 68>    C      -14.38019         4.77014       -10.57632
| 69>    C      -13.22342         4.52177        -9.83894
| 70>    C      -12.76374         3.21347       -10.14346
| 71>    C      -11.68574         2.49529        -9.68516
| 72>    C      -11.50524         1.19118       -10.18429
| 73>    C      -10.54338         0.23300        -9.92324
| 74>    C      -10.82570        -0.93925       -10.70299
| 75>    C      -11.96347        -0.69675       -11.44367
| 76>    C      -12.42990         0.62656       -11.15431
| 77>    C      -13.50186         1.33687       -11.61471
| 78>    C      -13.68690         2.64686       -11.11362
| 79>    C      -14.65255         3.59488       -11.36685
| 80>    C      -10.06562        -2.16509       -10.72175
| 81>    C       -8.96715        -2.40729       -10.01110
| 82>    H      -11.82915         1.35321        -0.69672
| 83>    H      -10.76504        -2.90630         1.71491
| 84>    H      -14.11164        -0.01660        -1.57987
| 85>    H       -6.60603         0.56704         2.70049
| 86>    H       -4.76771         1.09684         3.45331
| 87>    H       -2.74608         0.85150         4.59652
| 88>    H       -2.11968         2.36931         5.26968
| 89>    H       -1.39071         1.69769         3.82429
| 90>    H       -0.25328         5.70437         3.62143
| 91>    H       -1.89664         6.38771         3.56297
| 92>    H       -1.15303         5.71145         2.08488
| 93>    H       -3.49697         5.67219         2.00895
| 94>    H       -5.01903         6.60430         0.66238
| 95>    H       -7.96231         6.15013        -0.02392
| 96>    H       -5.96574         8.39907        -0.70158
| 97>    H       -9.54653         7.20765        -1.51670
| 98>    H      -10.12110         8.87180        -1.39612
| 99>    H       -9.68439         7.97179         0.05881
|100>    H       -6.75051        10.17194        -1.91022
|101>    H       -8.24478        10.77979        -1.17118
|102>    H       -8.29143         9.17997        -3.64572
|103>    H       -9.82169        11.48364        -2.64247
|104>    H      -10.29161         9.51452        -4.95659
|105>    H      -11.77815        12.05011        -4.03336
|106>    H      -13.91246        12.53868        -5.44598
|107>    H      -15.35127        11.48322        -7.30232
|108>    H      -16.27565        10.08983        -9.00436
|109>    H      -16.85641         8.14670       -10.58734
|110>    H      -16.06648         5.85345       -11.27407
|111>    H      -12.74305         5.18954        -9.15060
|112>    H      -10.99537         2.90840        -8.96339
|113>    H       -9.71626         0.34218        -9.24595
|114>    H      -12.43407        -1.37949       -12.12758
|115>    H      -14.19528         0.92520       -12.33523
|116>    H      -15.48740         3.49520       -12.03835
|117>    H      -10.45308        -2.93066       -11.38316
|118>    H       -8.54421        -1.67898        -9.34062
|119>    H       -8.44997        -3.34899       -10.07654
|120> *
|121>
|122>                          ****END OF INPUT****

CARTESIAN COORDINATES (ANGSTROEM)
---------------------------------
  C     -8.870170   -0.677630    1.968450
  C     -8.243470   -1.618290    2.756640
  C     -8.752560   -2.907820    3.001600
  N     -9.109420   -3.973550    3.241160
  C     -7.021980   -1.445220    3.434060
  N     -6.032370   -1.389250    4.018750
  C    -10.141140   -0.882390    1.275350
  C    -10.472550    0.307490    0.582920
  C    -11.606500    0.433460   -0.178840
  C    -12.460820   -0.672530   -0.263370
  C    -12.125210   -1.854810    0.433720
  C    -10.975280   -1.980960    1.205710
  S    -13.316180   -3.098280    0.192970
  C    -14.234110   -2.025220   -0.829410
  C    -13.680750   -0.799510   -0.983060
  Br   -15.837780   -2.624640   -1.597800
  C     -9.415830    1.310400    0.824070
  O     -9.400460    2.452080    0.388300
  C     -8.423670    0.659940    1.671300
  C     -7.228200    1.213100    2.097540
  C     -6.668590    2.459120    1.863260
  S     -7.385540    3.757720    0.947430
  C     -6.011090    4.781540    1.169880
  C     -5.008020    4.148950    1.936700
  C     -5.383430    2.844010    2.340450
  C     -4.501430    2.091350    3.129090
  C     -3.288760    2.606860    3.507600
  C     -2.335210    1.826240    4.350810
  C     -2.917030    3.918310    3.095330
  O     -1.692980    4.323150    3.529020
  C     -1.239590    5.604240    3.171160
  C     -3.764610    4.676750    2.322720
  C     -5.960530    6.073660    0.599680
  C     -7.017540    6.674030   -0.004540
  C     -6.951120    7.955650   -0.621270
  C     -8.011130    8.645150   -1.088050
  C     -9.421300    8.149420   -0.982810
  C     -7.819400    9.971980   -1.775240
  N     -8.470620    9.988140   -3.065300
  C     -9.625070   10.651390   -3.306280
  C    -10.480130   10.373260   -4.325730
  C    -11.616900   11.149960   -4.612470
  C    -12.546820   10.848680   -5.573730
  C    -13.689630   11.603240   -5.929050
  C    -14.450000   11.044840   -6.912480
  C    -13.961960    9.807480   -7.384070
  S    -12.480240    9.385630   -6.553390
  C    -14.524720    8.976710   -8.335300
  C    -15.694680    9.189380   -9.094920
  C    -16.001290    8.161090   -9.934010
  C    -15.100090    7.068120   -9.885120
  S    -13.822870    7.422610   -8.731570
  C    -15.214370    5.907450  -10.606640
  C    -14.380190    4.770140  -10.576320
  C    -13.223420    4.521770   -9.838940
  C    -12.763740    3.213470  -10.143460
  C    -11.685740    2.495290   -9.685160
  C    -11.505240    1.191180  -10.184290
  C    -10.543380    0.233000   -9.923240
  C    -10.825700   -0.939250  -10.702990
  C    -11.963470   -0.696750  -11.443670
  C    -12.429900    0.626560  -11.154310
  C    -13.501860    1.336870  -11.614710
  C    -13.686900    2.646860  -11.113620
  C    -14.652550    3.594880  -11.366850
  C    -10.065620   -2.165090  -10.721750
  C     -8.967150   -2.407290  -10.011100
  H    -11.829150    1.353210   -0.696720
  H    -10.765040   -2.906300    1.714910
  H    -14.111640   -0.016600   -1.579870
  H     -6.606030    0.567040    2.700490
  H     -4.767710    1.096840    3.453310
  H     -2.746080    0.851500    4.596520
  H     -2.119680    2.369310    5.269680
  H     -1.390710    1.697690    3.824290
  H     -0.253280    5.704370    3.621430
  H     -1.896640    6.387710    3.562970
  H     -1.153030    5.711450    2.084880
  H     -3.496970    5.672190    2.008950
  H     -5.019030    6.604300    0.662380
  H     -7.962310    6.150130   -0.023920
  H     -5.965740    8.399070   -0.701580
  H     -9.546530    7.207650   -1.516700
  H    -10.121100    8.871800   -1.396120
  H     -9.684390    7.971790    0.058810
  H     -6.750510   10.171940   -1.910220
  H     -8.244780   10.779790   -1.171180
  H     -8.291430    9.179970   -3.645720
  H     -9.821690   11.483640   -2.642470
  H    -10.291610    9.514520   -4.956590
  H    -11.778150   12.050110   -4.033360
  H    -13.912460   12.538680   -5.445980
  H    -15.351270   11.483220   -7.302320
  H    -16.275650   10.089830   -9.004360
  H    -16.856410    8.146700  -10.587340
  H    -16.066480    5.853450  -11.274070
  H    -12.743050    5.189540   -9.150600
  H    -10.995370    2.908400   -8.963390
  H     -9.716260    0.342180   -9.245950
  H    -12.434070   -1.379490  -12.127580
  H    -14.195280    0.925200  -12.335230
  H    -15.487400    3.495200  -12.038350
  H    -10.453080   -2.930660  -11.383160
  H     -8.544210   -1.678980   -9.340620
  H     -8.449970   -3.348990  -10.076540

 Total Charge           Charge          ....    0
 Multiplicity           Mult            ....    1
 Number of Electrons    NEL             ....  516
 Basis Dimension        Dim             .... 1162

ORBITAL ENERGIES
----------------

  NO   OCC          E(Eh)            E(eV)
   0   2.0000    -482.877903    -13139.7758
   1   2.0000     -88.966862     -2420.9114
   2   2.0000     -88.965757     -2420.8813
   3   2.0000     -88.928020     -2419.8544
   4   2.0000     -88.927238     -2419.8332
   5   2.0000     -62.555598     -1702.2244
   6   2.0000     -56.389543     -1534.4375
   7   2.0000     -56.386840     -1534.3639
   8   2.0000     -56.386802     -1534.3629
   9   2.0000     -19.255494      -523.9686
  10   2.0000     -19.208362      -522.6861
  11   2.0000     -14.442490      -393.0001
  12   2.0000     -14.408289      -392.0695
  13   2.0000     -14.401413      -391.8824
  14   2.0000     -10.356608      -281.8176
  15   2.0000     -10.350149      -281.6419
  16   2.0000     -10.339262      -281.3456
  17   2.0000     -10.331528      -281.1352
  18   2.0000     -10.329369      -281.0764
  19   2.0000     -10.325910      -280.9823
  20   2.0000     -10.323892      -280.9274
  21   2.0000     -10.319903      -280.8188
  22   2.0000     -10.316179      -280.7175
  23   2.0000     -10.315386      -280.6959
  24   2.0000     -10.312629      -280.6209
  25   2.0000     -10.309112      -280.5252
  26   2.0000     -10.307321      -280.4765
  27   2.0000     -10.305798      -280.4350
  28   2.0000     -10.297565      -280.2110
  29   2.0000     -10.297563      -280.2109
  30   2.0000     -10.296754      -280.1889
  31   2.0000     -10.295677      -280.1596
  32   2.0000     -10.294946      -280.1397
  33   2.0000     -10.294252      -280.1208
  34   2.0000     -10.293683      -280.1054
  35   2.0000     -10.291258      -280.0394
  36   2.0000     -10.290996      -280.0322
  37   2.0000     -10.288677      -279.9691
  38   2.0000     -10.288244      -279.9574
  39   2.0000     -10.287470      -279.9363
  40   2.0000     -10.287339      -279.9327
  41   2.0000     -10.286282      -279.9040
  42   2.0000     -10.285872      -279.8928
  43   2.0000     -10.284728      -279.8617
  44   2.0000     -10.282107      -279.7903
  45   2.0000     -10.281480      -279.7733
  46   2.0000     -10.280751      -279.7535
  47   2.0000     -10.279862      -279.7293
  48   2.0000     -10.278854      -279.7018
  49   2.0000     -10.276420      -279.6356
  50   2.0000     -10.275807      -279.6189
  51   2.0000     -10.274610      -279.5863
  52   2.0000     -10.272334      -279.5244
  53   2.0000     -10.270595      -279.4771
  54   2.0000     -10.269645      -279.4512
  55   2.0000     -10.268345      -279.4159
  56   2.0000     -10.268131      -279.4100
  57   2.0000     -10.264369      -279.3077
  58   2.0000     -10.260173      -279.1935
  59   2.0000     -10.259353      -279.1712
  60   2.0000     -10.259084      -279.1639
  61   2.0000     -10.258197      -279.1397
  62   2.0000     -10.257783      -279.1285
  63   2.0000     -10.255665      -279.0708
  64   2.0000     -10.255582      -279.0686
  65   2.0000     -10.252496      -278.9846
  66   2.0000     -10.252354      -278.9807
  67   2.0000     -10.251651      -278.9616
  68   2.0000     -10.251077      -278.9460
  69   2.0000     -10.249620      -278.9064
  70   2.0000     -10.248044      -278.8635
  71   2.0000      -8.785016      -239.0524
  72   2.0000      -8.062755      -219.3987
  73   2.0000      -8.058833      -219.2920
  74   2.0000      -8.024315      -218.3527
  75   2.0000      -8.022955      -218.3157
  76   2.0000      -6.621278      -180.1741
  77   2.0000      -6.606756      -179.7790
  78   2.0000      -6.606589      -179.7744
  79   2.0000      -6.032449      -164.1513
  80   2.0000      -6.028173      -164.0349
  81   2.0000      -6.028029      -164.0310
  82   2.0000      -6.024021      -163.9219
  83   2.0000      -6.023508      -163.9080
  84   2.0000      -6.021554      -163.8548
  85   2.0000      -5.994055      -163.1065
  86   2.0000      -5.992690      -163.0694
  87   2.0000      -5.990133      -162.9998
  88   2.0000      -5.988643      -162.9593
  89   2.0000      -5.985152      -162.8643
  90   2.0000      -5.984008      -162.8331
  91   2.0000      -2.737177       -74.4824
  92   2.0000      -2.733070       -74.3706
  93   2.0000      -2.732935       -74.3669
  94   2.0000      -2.721404       -74.0532
  95   2.0000      -2.721380       -74.0525
  96   2.0000      -1.159563       -31.5533
  97   2.0000      -1.122422       -30.5427
  98   2.0000      -1.044971       -28.4351
  99   2.0000      -1.012850       -27.5611
 100   2.0000      -1.004119       -27.3235
 101   2.0000      -1.000823       -27.2338
 102   2.0000      -0.983962       -26.7750
 103   2.0000      -0.978692       -26.6316
 104   2.0000      -0.977087       -26.5879
 105   2.0000      -0.971696       -26.4412
 106   2.0000      -0.955379       -25.9972
 107   2.0000      -0.944575       -25.7032
 108   2.0000      -0.942286       -25.6409
 109   2.0000      -0.935402       -25.4536
 110   2.0000      -0.929196       -25.2847
 111   2.0000      -0.908778       -24.7291
 112   2.0000      -0.898271       -24.4432
 113   2.0000      -0.892068       -24.2744
 114   2.0000      -0.884499       -24.0684
 115   2.0000      -0.878738       -23.9117
 116   2.0000      -0.875863       -23.8334
 117   2.0000      -0.869897       -23.6711
 118   2.0000      -0.858684       -23.3660
 119   2.0000      -0.851889       -23.1811
 120   2.0000      -0.848367       -23.0852
 121   2.0000      -0.844186       -22.9715
 122   2.0000      -0.839155       -22.8346
 123   2.0000      -0.826227       -22.4828
 124   2.0000      -0.823804       -22.4169
 125   2.0000      -0.819847       -22.3092
 126   2.0000      -0.812996       -22.1227
 127   2.0000      -0.803963       -21.8770
 128   2.0000      -0.794786       -21.6272
 129   2.0000      -0.792718       -21.5710
 130   2.0000      -0.783236       -21.3129
 131   2.0000      -0.782061       -21.2810
 132   2.0000      -0.775995       -21.1159
 133   2.0000      -0.767999       -20.8983
 134   2.0000      -0.750391       -20.4192
 135   2.0000      -0.745843       -20.2954
 136   2.0000      -0.738186       -20.0871
 137   2.0000      -0.730571       -19.8798
 138   2.0000      -0.716357       -19.4931
 139   2.0000      -0.712372       -19.3846
 140   2.0000      -0.696998       -18.9663
 141   2.0000      -0.694918       -18.9097
 142   2.0000      -0.687478       -18.7072
 143   2.0000      -0.682301       -18.5664
 144   2.0000      -0.674433       -18.3523
 145   2.0000      -0.665191       -18.1008
 146   2.0000      -0.658689       -17.9238
 147   2.0000      -0.655127       -17.8269
 148   2.0000      -0.655030       -17.8243
 149   2.0000      -0.648454       -17.6453
 150   2.0000      -0.642377       -17.4800
 151   2.0000      -0.634869       -17.2757
 152   2.0000      -0.627433       -17.0733
 153   2.0000      -0.623077       -16.9548
 154   2.0000      -0.614865       -16.7313
 155   2.0000      -0.612288       -16.6612
 156   2.0000      -0.609998       -16.5989
 157   2.0000      -0.608678       -16.5630
 158   2.0000      -0.606545       -16.5049
 159   2.0000      -0.602014       -16.3816
 160   2.0000      -0.595868       -16.2144
 161   2.0000      -0.591931       -16.1073
 162   2.0000      -0.585602       -15.9350
 163   2.0000      -0.583308       -15.8726
 164   2.0000      -0.580013       -15.7830
 165   2.0000      -0.572630       -15.5821
 166   2.0000      -0.569398       -15.4941
 167   2.0000      -0.564734       -15.3672
 168   2.0000      -0.564513       -15.3612
 169   2.0000      -0.563028       -15.3208
 170   2.0000      -0.555490       -15.1157
 171   2.0000      -0.551571       -15.0090
 172   2.0000      -0.546138       -14.8612
 173   2.0000      -0.537841       -14.6354
 174   2.0000      -0.536975       -14.6118
 175   2.0000      -0.533506       -14.5174
 176   2.0000      -0.531512       -14.4632
 177   2.0000      -0.526099       -14.3159
 178   2.0000      -0.525358       -14.2957
 179   2.0000      -0.520661       -14.1679
 180   2.0000      -0.517482       -14.0814
 181   2.0000      -0.513932       -13.9848
 182   2.0000      -0.511716       -13.9245
 183   2.0000      -0.509943       -13.8763
 184   2.0000      -0.508427       -13.8350
 185   2.0000      -0.505853       -13.7650
 186   2.0000      -0.501284       -13.6406
 187   2.0000      -0.499612       -13.5951
 188   2.0000      -0.499147       -13.5825
 189   2.0000      -0.494395       -13.4532
 190   2.0000      -0.491730       -13.3806
 191   2.0000      -0.489961       -13.3325
 192   2.0000      -0.486149       -13.2288
 193   2.0000      -0.484934       -13.1957
 194   2.0000      -0.482874       -13.1397
 195   2.0000      -0.482115       -13.1190
 196   2.0000      -0.479516       -13.0483
 197   2.0000      -0.477589       -12.9959
 198   2.0000      -0.476055       -12.9541
 199   2.0000      -0.474276       -12.9057
 200   2.0000      -0.472810       -12.8658
 201   2.0000      -0.467043       -12.7089
 202   2.0000      -0.464874       -12.6499
 203   2.0000      -0.462917       -12.5966
 204   2.0000      -0.460403       -12.5282
 205   2.0000      -0.458855       -12.4861
 206   2.0000      -0.456547       -12.4233
 207   2.0000      -0.453147       -12.3307
 208   2.0000      -0.451999       -12.2995
 209   2.0000      -0.449689       -12.2367
 210   2.0000      -0.444981       -12.1085
 211   2.0000      -0.444133       -12.0855
 212   2.0000      -0.442201       -12.0329
 213   2.0000      -0.441831       -12.0228
 214   2.0000      -0.441347       -12.0097
 215   2.0000      -0.437663       -11.9094
 216   2.0000      -0.436675       -11.8825
 217   2.0000      -0.435472       -11.8498
 218   2.0000      -0.434493       -11.8232
 219   2.0000      -0.431539       -11.7428
 220   2.0000      -0.429138       -11.6774
 221   2.0000      -0.428528       -11.6608
 222   2.0000      -0.422639       -11.5006
 223   2.0000      -0.421412       -11.4672
 224   2.0000      -0.418219       -11.3803
 225   2.0000      -0.417041       -11.3483
 226   2.0000      -0.412250       -11.2179
 227   2.0000      -0.409426       -11.1411
 228   2.0000      -0.408885       -11.1263
 229   2.0000      -0.406125       -11.0512
 230   2.0000      -0.404364       -11.0033
 231   2.0000      -0.401166       -10.9163
 232   2.0000      -0.395130       -10.7520
 233   2.0000      -0.390906       -10.6371
 234   2.0000      -0.388972       -10.5845
 235   2.0000      -0.386713       -10.5230
 236   2.0000      -0.379219       -10.3191
 237   2.0000      -0.377710       -10.2780
 238   2.0000      -0.376527       -10.2458
 239   2.0000      -0.367630       -10.0037
 240   2.0000      -0.367323        -9.9954
 241   2.0000      -0.355202        -9.6655
 242   2.0000      -0.352335        -9.5875
 243   2.0000      -0.339271        -9.2320
 244   2.0000      -0.324652        -8.8342
 245   2.0000      -0.322517        -8.7761
 246   2.0000      -0.321779        -8.7560
 247   2.0000      -0.311751        -8.4832
 248   2.0000      -0.307032        -8.3548
 249   2.0000      -0.306659        -8.3446
 250   2.0000      -0.301257        -8.1976
 251   2.0000      -0.294501        -8.0138
 252   2.0000      -0.284484        -7.7412
 253   2.0000      -0.268203        -7.2982
 254   2.0000      -0.255207        -6.9445
 255   2.0000      -0.240685        -6.5494
 256   2.0000      -0.232762        -6.3338
 257   2.0000      -0.185199        -5.0395
 258   0.0000      -0.095040        -2.5862
 259   0.0000      -0.082225        -2.2375
 260   0.0000      -0.055838        -1.5194
 261   0.0000      -0.049238        -1.3398
 262   0.0000      -0.026913        -0.7324

MULLIKEN ATOMIC CHARGES
-----------------------
   0 C :    0.327057
   1 C :   -0.368192
   2 C :   -0.186945
   3 N :    0.140365
   4 C :   -0.184244
   5 N :    0.132096
   6 C :    0.009314
   7 C :   -0.006290
   8 C :   -0.079535
   9 C :    0.116824
  10 C :   -0.093891
  11 C :   -0.021147
  12 S :    0.181885
  13 C :   -0.123746
  14 C :    0.039107
  15 Br:    0.018177
  16 C :    0.150334
  17 O :   -0.193862
  18 C :   -0.104536
  19 C :   -0.035655
  20 C :   -0.071611
  21 S :    0.190596
  22 C :   -0.060370
  23 C :    0.133353
  24 C :    0.138631
  25 C :   -0.101317
  26 C :   -0.093510
  27 C :    0.125149
  28 C :    0.218429
  29 O :   -0.306896
  30 C :    0.182032
  31 C :   -0.166672
  32 C :   -0.018921
  33 C :    0.017346
  34 C :    0.000470
  35 C :   -0.225663
  36 C :    0.087293
  37 C :    0.235476
  38 N :   -0.156635
  39 C :    0.044711
  40 C :   -0.020598
  41 C :   -0.014268
  42 C :   -0.036775
  43 C :    0.040822
  44 C :    0.013282
  45 C :   -0.041749
  46 S :    0.053195
  47 C :   -0.045573
  48 C :    0.026752
  49 C :    0.024766
  50 C :   -0.012446
  51 S :    0.044610
  52 C :   -0.031672
  53 C :    0.072170
  54 C :   -0.062505
  55 C :    0.065048
  56 C :   -0.018037
  57 C :    0.061077
  58 C :   -0.037989
  59 C :    0.071050
  60 C :   -0.040391
  61 C :    0.064919
  62 C :   -0.014046
  63 C :    0.064999
  64 C :   -0.042659
  65 C :    0.010413
  66 C :   -0.029377
  67 H :   -0.016223
  68 H :   -0.009057
  69 H :   -0.005018
  70 H :   -0.019702
  71 H :   -0.014303
  72 H :    0.022652
  73 H :    0.028958
  74 H :    0.028838
  75 H :    0.039820
  76 H :    0.022944
  77 H :    0.022780
  78 H :   -0.049627
  79 H :   -0.016218
  80 H :    0.012112
  81 H :   -0.027384
  82 H :    0.044228
  83 H :    0.022469
  84 H :    0.039029
  85 H :    0.008454
  86 H :    0.026316
  87 H :    0.120463
  88 H :    0.000869
  89 H :   -0.014367
  90 H :   -0.025479
  91 H :   -0.022629
  92 H :   -0.021306
  93 H :   -0.022690
  94 H :   -0.021223
  95 H :   -0.033844
  96 H :   -0.019665
  97 H :   -0.033116
  98 H :   -0.030086
  99 H :   -0.034757
 100 H :   -0.031583
 101 H :   -0.027347
 102 H :   -0.022123
 103 H :    0.006765
 104 H :    0.017026
Sum of atomic charges:   -0.0000000

LOEWDIN ATOMIC CHARGES
----------------------
   0 C :    0.079184
   1 C :   -0.160324
   2 C :   -0.019127
   3 N :   -0.066625
   4 C :   -0.015864
   5 N :   -0.072646
   6 C :   -0.019812
   7 C :   -0.048528
   8 C :    0.017559
   9 C :   -0.035247
  10 C :   -0.146012
  11 C :   -0.011123
  12 S :    0.429345
  13 C :   -0.273547
  14 C :   -0.070669
  15 Br:    0.132362
  16 C :    0.080464
  17 O :   -0.183555
  18 C :   -0.125750
  19 C :    0.047438
  20 C :   -0.192577
  21 S :    0.535888
  22 C :   -0.145626
  23 C :   -0.047699
  24 C :   -0.019040
  25 C :   -0.019330
  26 C :   -0.014436
  27 C :   -0.039637
  28 C :    0.057475
  29 O :   -0.095665
  30 C :    0.076299
  31 C :   -0.077154
  32 C :   -0.047797
  33 C :    0.000505
  34 C :   -0.055143
  35 C :   -0.028214
  36 C :   -0.055806
  37 C :    0.046766
  38 N :   -0.003826
  39 C :    0.037602
  40 C :   -0.120129
  41 C :   -0.039686
  42 C :   -0.173855
  43 C :   -0.030701
  44 C :   -0.049615
  45 C :   -0.170933
  46 S :    0.351205
  47 C :   -0.196005
  48 C :   -0.040886
  49 C :   -0.042889
  50 C :   -0.145234
  51 S :    0.375147
  52 C :   -0.067707
  53 C :   -0.059118
  54 C :   -0.026914
  55 C :   -0.046792
  56 C :    0.050541
  57 C :   -0.055795
  58 C :    0.030088
  59 C :   -0.056296
  60 C :   -0.000206
  61 C :   -0.054594
  62 C :    0.060535
  63 C :   -0.062583
  64 C :    0.039066
  65 C :   -0.019985
  66 C :   -0.059517
  67 H :    0.038680
  68 H :    0.040418
  69 H :    0.038121
  70 H :    0.046570
  71 H :    0.034582
  72 H :    0.034788
  73 H :    0.038924
  74 H :    0.038938
  75 H :    0.030514
  76 H :    0.015579
  77 H :    0.015471
  78 H :    0.024137
  79 H :    0.030230
  80 H :    0.025683
  81 H :    0.025152
  82 H :    0.043271
  83 H :    0.033373
  84 H :    0.042099
  85 H :    0.025704
  86 H :    0.035096
  87 H :    0.080152
  88 H :    0.025696
  89 H :    0.018462
  90 H :    0.028937
  91 H :    0.029595
  92 H :    0.028592
  93 H :    0.028192
  94 H :    0.029437
  95 H :    0.029049
  96 H :    0.009273
  97 H :    0.031451
  98 H :    0.022165
  99 H :    0.021135
 100 H :    0.032129
 101 H :    0.023117
 102 H :    0.028201
 103 H :    0.017071
 104 H :    0.022768

  Mayer bond orders larger than 0.100000
B(  0-C ,  1-C ) :   1.5778 B(  0-C ,  6-C ) :   0.9878 B(  0-C , 18-C ) :   1.1243
B(  1-C ,  2-C ) :   1.1524 B(  1-C ,  4-C ) :   1.1576 B(  2-C ,  3-N ) :   2.9613
B(  4-C ,  5-N ) :   2.9677 B(  6-C ,  7-C ) :   1.2774 B(  6-C , 11-C ) :   1.4233
B(  7-C ,  8-C ) :   1.4299 B(  7-C , 16-C ) :   0.9530 B(  8-C ,  9-C ) :   1.2362
B(  8-C , 67-H ) :   1.0169 B(  9-C , 10-C ) :   1.3188 B(  9-C , 14-C ) :   1.1613
B( 10-C , 11-C ) :   1.3174 B( 10-C , 12-S ) :   1.0838 B( 11-C , 68-H ) :   0.9791
B( 12-S , 13-C ) :   1.0872 B( 13-C , 14-C ) :   1.6189 B( 13-C , 15-Br) :   1.0157
B( 14-C , 69-H ) :   1.0004 B( 16-C , 17-O ) :   2.1235 B( 16-C , 18-C ) :   0.9883
B( 18-C , 19-C ) :   1.4221 B( 19-C , 20-C ) :   1.3729 B( 19-C , 70-H ) :   0.9320
B( 20-C , 21-S ) :   1.0816 B( 20-C , 24-C ) :   1.2047 B( 21-S , 22-C ) :   1.1589
B( 22-C , 23-C ) :   1.2500 B( 22-C , 32-C ) :   1.1666 B( 23-C , 24-C ) :   1.2608
B( 23-C , 31-C ) :   1.1857 B( 24-C , 25-C ) :   1.2035 B( 25-C , 26-C ) :   1.5433
B( 25-C , 71-H ) :   0.9899 B( 26-C , 27-C ) :   1.0693 B( 26-C , 28-C ) :   1.2383
B( 27-C , 72-H ) :   0.9525 B( 27-C , 73-H ) :   0.9454 B( 27-C , 74-H ) :   0.9454
B( 28-C , 29-O ) :   1.1866 B( 28-C , 31-C ) :   1.4323 B( 29-O , 30-C ) :   0.9665
B( 30-C , 75-H ) :   0.9780 B( 30-C , 76-H ) :   0.9677 B( 30-C , 77-H ) :   0.9675
B( 31-C , 78-H ) :   0.9925 B( 32-C , 33-C ) :   1.6447 B( 32-C , 79-H ) :   0.9793
B( 33-C , 34-C ) :   1.1251 B( 33-C , 80-H ) :   0.9681 B( 34-C , 35-C ) :   1.7356
B( 34-C , 81-H ) :   0.9796 B( 35-C , 36-C ) :   1.0674 B( 35-C , 37-C ) :   1.0496
B( 36-C , 82-H ) :   0.9434 B( 36-C , 83-H ) :   0.9509 B( 36-C , 84-H ) :   0.9440
B( 37-C , 38-N ) :   1.0014 B( 37-C , 85-H ) :   0.9396 B( 37-C , 86-H ) :   0.9242
B( 38-N , 39-C ) :   1.2129 B( 38-N , 87-H ) :   0.9407 B( 39-C , 40-C ) :   1.6052
B( 39-C , 88-H ) :   0.9663 B( 40-C , 41-C ) :   1.1667 B( 40-C , 89-H ) :   0.9626
B( 41-C , 42-C ) :   1.5846 B( 41-C , 90-H ) :   0.9797 B( 42-C , 43-C ) :   1.1484
B( 42-C , 46-S ) :   1.0107 B( 43-C , 44-C ) :   1.5853 B( 43-C , 91-H ) :   0.9973
B( 44-C , 45-C ) :   1.1932 B( 44-C , 92-H ) :   0.9935 B( 45-C , 46-S ) :   1.0501
B( 45-C , 47-C ) :   1.5022 B( 47-C , 48-C ) :   1.1927 B( 47-C , 51-S ) :   1.0291
B( 48-C , 49-C ) :   1.5827 B( 48-C , 93-H ) :   0.9924 B( 49-C , 50-C ) :   1.1473
B( 49-C , 94-H ) :   0.9985 B( 50-C , 51-S ) :   1.0374 B( 50-C , 52-C ) :   1.5654
B( 52-C , 53-C ) :   1.1380 B( 52-C , 95-H ) :   0.9682 B( 53-C , 54-C ) :   1.4642
B( 53-C , 64-C ) :   1.1046 B( 54-C , 55-C ) :   1.1159 B( 54-C , 96-H ) :   0.9967
B( 55-C , 56-C ) :   1.4648 B( 55-C , 63-C ) :   1.1191 B( 56-C , 57-C ) :   1.1134
B( 56-C , 97-H ) :   1.0049 B( 57-C , 58-C ) :   1.4655 B( 57-C , 61-C ) :   1.1197
B( 58-C , 59-C ) :   1.1257 B( 58-C , 98-H ) :   1.0080 B( 59-C , 60-C ) :   1.5257
B( 59-C , 65-C ) :   1.0869 B( 60-C , 61-C ) :   1.0729 B( 60-C , 99-H ) :   1.0176
B( 61-C , 62-C ) :   1.4871 B( 62-C , 63-C ) :   1.1054 B( 62-C ,100-H ) :   1.0059
B( 63-C , 64-C ) :   1.4599 B( 64-C ,101-H ) :   1.0155 B( 65-C , 66-C ) :   1.9284
B( 65-C ,102-H ) :   0.9666 B( 66-C ,103-H ) :   0.9524 B( 66-C ,104-H ) :   0.9497

-----------------------------------------------------------------------------
         ABSORPTION SPECTRUM VIA TRANSITION ELECTRIC DIPOLE MOMENTS
-----------------------------------------------------------------------------
State   Energy  Wavelength   fosc         T2         TX        TY        TZ
        (cm-1)    (nm)                  (au**2)     (au)      (au)      (au)
-----------------------------------------------------------------------------
   0    6671.4   1498.9   0.051962019   2.56417  -0.03824   1.33721   0.88010
   1   10368.9    964.4   0.076131729   2.41718   0.54732  -0.57595   1.33637
   2   14589.6    685.4   0.263578882   5.94761   0.17482   1.53248   1.88906
   3   15824.9    631.9   0.278295623   5.78949  -0.20018  -0.92775   2.21104
   4   16697.1    598.9   1.706664542  33.64986  -1.88379  -5.26064  -1.55784
   5   19611.4    509.9   0.009663657   0.16222   0.25096  -0.31437   0.02036
   6   21304.7    469.4   0.029619410   0.45769   0.53881  -0.32287   0.25126
   7   22611.2    442.3   0.157191360   2.28866   0.68446  -1.34257  -0.13296
   8   23299.8    429.2   0.005427675   0.07669  -0.01736  -0.27483  -0.02931
   9   24511.3    408.0   0.039771159   0.53417   0.62014  -0.07214   0.37999
  10   25302.8    395.2   0.089835882   1.16884   0.88326  -0.47929   0.39871
  11   26069.0    383.6   0.028958761   0.36571   0.46502  -0.36676   0.12224
  12   26192.9    381.8   0.009717114   0.12213  -0.27197  -0.21403  -0.04854
  13   26646.1    375.3   0.071244764   0.88023   0.58093  -0.73414   0.06153
  14   26823.4    372.8   0.036656458   0.44990  -0.28830   0.60378  -0.04719
  15   27029.8    370.0   0.278514993   3.39219  -1.59290  -0.28566  -0.87935
  16   27449.4    364.3   0.038673007   0.46382  -0.63731  -0.14120  -0.19421
  17   28043.2    356.6   0.272985628   3.20470  -1.25274   1.10916  -0.63648
  18   28769.2    347.6   1.480433449  16.94091   3.21031  -2.28666   1.18576
  19   29417.9    339.9   0.073766584   0.82551   0.61636   0.59785   0.29697
  20   29760.9    336.0   0.031263061   0.34583  -0.01251   0.57206  -0.13572
  21   29884.9    334.6   0.069216667   0.76249  -0.61895   0.50732  -0.34931
  22   30189.7    331.2   0.046039605   0.50205   0.61076  -0.30410   0.19117
  23   30712.5    325.6   0.020382354   0.21848  -0.28841   0.36781  -0.00436
  24   30876.9    323.9   0.206170311   2.19820  -1.10996   0.50471  -0.84348
  25   31240.9    320.1   0.005263810   0.05547   0.20767   0.11040   0.01248
  26   32112.8    311.4   0.002698783   0.02767  -0.15788  -0.01662  -0.04965
  27   32223.1    310.3   0.001413397   0.01444   0.05762  -0.10372   0.01905
  28   32435.7    308.3   0.950049274   9.64269   2.63012  -0.33380   1.61671
  29   32562.1    307.1   0.037032772   0.37441  -0.23859  -0.52535  -0.20370
  30   32857.6    304.3   0.014534376   0.14563  -0.38069   0.02481   0.00910
  31   33015.8    302.9   0.099169648   0.98885  -0.60941   0.56058  -0.55066
  32   33817.8    295.7   0.075477893   0.73477  -0.69359   0.43910  -0.24674
  33   34697.2    288.2   0.019651698   0.18646   0.28773  -0.20097   0.25155
  34   34975.4    285.9   0.000156271   0.00147  -0.00420  -0.02935  -0.02432
  35   35196.8    284.1   0.000108089   0.00101  -0.00299  -0.03163   0.00129
  36   35322.4    283.1   0.004431434   0.04130   0.03010   0.15258   0.13082
  37   35761.9    279.6   0.001730279   0.01593  -0.01458  -0.08995   0.08732
  38   35858.3    278.9   0.127954904   1.17474  -0.74387   0.65023  -0.44564
  39   36187.2    276.3   0.002426368   0.02207  -0.13125   0.06111   0.03335
  40   36637.0    272.9   0.132480128   1.19044  -0.59144   0.73626  -0.54640
  41   36735.1    272.2   0.054774318   0.49088  -0.47453   0.21312  -0.46934
  42   37567.1    266.2   0.047148000   0.41317  -0.52056  -0.33452  -0.17402
  43   37736.1    265.0   0.011478400   0.10014  -0.10906  -0.29611   0.02373
  44   37911.6    263.8   0.109615779   0.95187   0.25554   0.89956  -0.27814
  45   38006.1    263.1   0.224093140   1.94111   0.74754  -1.17521  -0.03452
  46   38629.7    258.9   0.066707171   0.56849   0.58731  -0.38361   0.27642
  47   38957.6    256.7   0.002276910   0.01924   0.04305   0.12755  -0.03345
  48   39089.9    255.8   0.127473088   1.07357   0.58385  -0.61113   0.59934
  49   39426.1    253.6   0.052657627   0.43970   0.50629  -0.23689   0.35672
  50   39662.7    252.1   0.094129787   0.78130  -0.33735   0.79327   0.19550
  51   39750.8    251.6   0.152275919   1.26113   1.01855   0.21715   0.42016
  52   39932.7    250.4   0.008786343   0.07244   0.23360  -0.07713   0.10916

FINAL SINGLE POINT ENERGY     -6672.488734209553

DIPOLE MOMENT
-------------
                                X             Y             Z
Electronic contribution:    -97.34477    -113.51121      29.35254
Nuclear contribution   :     98.45783     117.85338     -29.18261
                        -----------------------------------------
Total Dipole Moment    :      1.11306       4.34217       0.16993
                        -----------------------------------------
Magnitude (a.u.)       :      4.48578
Magnitude (Debye)      :     11.40194

Rotational constants in cm-1:     0.000642     0.000397     0.000293
Rotational constants in MHz :    19.259142    11.890550     8.783763

                             ****ORCA TERMINATED NORMALLY****
TOTAL RUN TIME: 0 days 0 hours 10 minutes 26 seconds 309 msec
