                         Program Version 4.2.0 -  RELEASE  -
|  1> # ORCA input file
|  2> # SCF done       -188.202808938846          0.000713702617
|  3> ! CAM-B3LYP def2-SVP def2/J RIJCOSX Grid4 TightSCF
|  4> %maxcore 5000
|  5> %tddft
|  6>     Mode sTDDFT
|  7>     Ethresh 5.0
|  8>     maxcore 5000
|  9> end
| 10>
| 11> %pal
| 12>   nprocs 6
| 13>   end
| 14> * xyz 0 1
| 15>    C        1.18433         1.64079         1.80481
| 16>    C        0.03148         0.91389         1.83539
| 17>    C       -0.13617        -0.53599         1.56889
| 18>    O        0.74082        -1.36413         1.59848
| 19>    O       -1.41929        -0.82435         1.33395
| 20>    C       -1.72067        -2.19452         1.11396
| 21>    C       -1.14756         1.58159         2.23317
| 22>    N       -2.09274         2.14190         2.56243
| 23>    C        2.48696         1.28443         1.38072
| 24>    C        2.97759         0.17791         0.70629
| 25>    C        4.34326         0.27194         0.46271
| 26>    C        4.91669         1.45721         0.96919
| 27>    S        3.76497         2.46389         1.71014
| 28>    C        6.30797         1.42841         0.71218
| 29>    C        6.61832         0.23660         0.03462
| 30>    C        5.38973        -0.52358        -0.15696
| 31>    C        5.25189        -1.71709        -0.80036
| 32>    C        6.35729        -2.39806        -1.35499
| 33>    N        7.25384        -2.95439        -1.80300
| 34>    C        4.00120        -2.34660        -0.98543
| 35>    N        2.99716        -2.86699        -1.17165
| 36>    C        7.97583         0.11222        -0.25587
| 37>    C        8.70403         1.19773         0.20422
| 38>    S        7.68998         2.39201         0.99625
| 39>    C       10.10540         1.39960         0.11081
| 40>    C       11.03390         0.60089        -0.53492
| 41>    C       12.33097         1.09356        -0.39604
| 42>    C       12.39134         2.27701         0.36307
| 43>    S       10.85121         2.78542         0.89516
| 44>    C       13.74217         2.68279         0.46551
| 45>    C       14.54194         1.75830        -0.22978
| 46>    C       13.67879         0.73894        -0.80986
| 47>    C       14.05893        -0.30869        -1.59558
| 48>    C       15.40787        -0.50979        -1.95841
| 49>    N       16.50582        -0.64978        -2.25678
| 50>    C       13.13014        -1.23677        -2.11242
| 51>    N       12.37531        -1.98949        -2.53333
| 52>    C       15.90068         2.05405        -0.16424
| 53>    C       16.15063         3.20097         0.57335
| 54>    S       14.66769         3.92407         1.18597
| 55>    C       17.40895         3.80313         0.86758
| 56>    C       18.61501         3.19756         0.58736
| 57>    C       19.85997         3.75243         0.86529
| 58>    C       19.98771         5.07286         1.48325
| 59>    C       18.93916         5.84218         1.85200
| 60>    S       17.30449         5.38012         1.63297
| 61>    C       21.38547         5.30427         1.59651
| 62>    C       22.09844         4.21192         1.09497
| 63>    C       23.49447         4.41399         1.19685
| 64>    C       23.78770         5.61725         1.75624
| 65>    S       22.40028         6.55690         2.18447
| 66>    C       21.15240         3.21930         0.63639
| 67>    C       21.41606         1.95172         0.09118
| 68>    C       22.66215         1.43101        -0.13021
| 69>    C       22.85901         0.14177        -0.64434
| 70>    C       24.09414        -0.40989        -0.89099
| 71>    C       24.36436        -1.73459        -1.40381
| 72>    C       23.45702        -2.74573        -1.60578
| 73>    C       23.79160        -4.01942        -2.10838
| 74>    N       23.99952        -5.07367        -2.51387
| 75>    C       22.07979        -2.67891        -1.31199
| 76>    N       20.95451        -2.71171        -1.08258
| 77>    C       25.80338        -1.83836        -1.63169
| 78>    C       26.41667        -0.63237        -1.21416
| 79>    C       25.38124         0.29654        -0.71835
| 80>    O       25.57770         1.41046        -0.27024
| 81>    C       27.77149        -0.42287        -1.29300
| 82>    C       28.56187        -1.45270        -1.81413
| 83>    C       27.94064        -2.65270        -2.23243
| 84>    C       26.56972        -2.86547        -2.14918
| 85>    S       29.10017        -3.79146        -2.84864
| 86>    C       30.38570        -2.65460        -2.53921
| 87>    C       29.97097        -1.48280        -2.00256
| 88>   Br       32.15439        -3.12171        -2.95485
| 89>    H        1.09707         2.66843         2.14513
| 90>    H       -1.50941        -2.77642         2.01354
| 91>    H       -1.11917        -2.58821         0.29183
| 92>    H       -2.77912        -2.23475         0.87222
| 93>    H        2.36264        -0.65684         0.42793
| 94>    H        8.42167        -0.72254        -0.76385
| 95>    H       10.77051        -0.28989        -1.07436
| 96>    H       16.66803         1.47064        -0.63747
| 97>    H       18.57974         2.22010         0.12973
| 98>    H       19.05898         6.80861         2.31522
| 99>    H       24.26039         3.72980         0.88203
|100>    H       24.75930         6.02705         1.95151
|101>    H       20.55945         1.33792        -0.16074
|102>    H       23.53694         2.01399         0.09689
|103>    H       21.97464        -0.44334        -0.86190
|104>    H       28.20861         0.50708        -0.96436
|105>    H       26.14588        -3.79758        -2.48316
|106>    H       30.62944        -0.67187        -1.74975
|107> *
|108>
|109>                          ****END OF INPUT****

CARTESIAN COORDINATES (ANGSTROEM)
---------------------------------
  C      1.184330    1.640790    1.804810
  C      0.031480    0.913890    1.835390
  C     -0.136170   -0.535990    1.568890
  O      0.740820   -1.364130    1.598480
  O     -1.419290   -0.824350    1.333950
  C     -1.720670   -2.194520    1.113960
  C     -1.147560    1.581590    2.233170
  N     -2.092740    2.141900    2.562430
  C      2.486960    1.284430    1.380720
  C      2.977590    0.177910    0.706290
  C      4.343260    0.271940    0.462710
  C      4.916690    1.457210    0.969190
  S      3.764970    2.463890    1.710140
  C      6.307970    1.428410    0.712180
  C      6.618320    0.236600    0.034620
  C      5.389730   -0.523580   -0.156960
  C      5.251890   -1.717090   -0.800360
  C      6.357290   -2.398060   -1.354990
  N      7.253840   -2.954390   -1.803000
  C      4.001200   -2.346600   -0.985430
  N      2.997160   -2.866990   -1.171650
  C      7.975830    0.112220   -0.255870
  C      8.704030    1.197730    0.204220
  S      7.689980    2.392010    0.996250
  C     10.105400    1.399600    0.110810
  C     11.033900    0.600890   -0.534920
  C     12.330970    1.093560   -0.396040
  C     12.391340    2.277010    0.363070
  S     10.851210    2.785420    0.895160
  C     13.742170    2.682790    0.465510
  C     14.541940    1.758300   -0.229780
  C     13.678790    0.738940   -0.809860
  C     14.058930   -0.308690   -1.595580
  C     15.407870   -0.509790   -1.958410
  N     16.505820   -0.649780   -2.256780
  C     13.130140   -1.236770   -2.112420
  N     12.375310   -1.989490   -2.533330
  C     15.900680    2.054050   -0.164240
  C     16.150630    3.200970    0.573350
  S     14.667690    3.924070    1.185970
  C     17.408950    3.803130    0.867580
  C     18.615010    3.197560    0.587360
  C     19.859970    3.752430    0.865290
  C     19.987710    5.072860    1.483250
  C     18.939160    5.842180    1.852000
  S     17.304490    5.380120    1.632970
  C     21.385470    5.304270    1.596510
  C     22.098440    4.211920    1.094970
  C     23.494470    4.413990    1.196850
  C     23.787700    5.617250    1.756240
  S     22.400280    6.556900    2.184470
  C     21.152400    3.219300    0.636390
  C     21.416060    1.951720    0.091180
  C     22.662150    1.431010   -0.130210
  C     22.859010    0.141770   -0.644340
  C     24.094140   -0.409890   -0.890990
  C     24.364360   -1.734590   -1.403810
  C     23.457020   -2.745730   -1.605780
  C     23.791600   -4.019420   -2.108380
  N     23.999520   -5.073670   -2.513870
  C     22.079790   -2.678910   -1.311990
  N     20.954510   -2.711710   -1.082580
  C     25.803380   -1.838360   -1.631690
  C     26.416670   -0.632370   -1.214160
  C     25.381240    0.296540   -0.718350
  O     25.577700    1.410460   -0.270240
  C     27.771490   -0.422870   -1.293000
  C     28.561870   -1.452700   -1.814130
  C     27.940640   -2.652700   -2.232430
  C     26.569720   -2.865470   -2.149180
  S     29.100170   -3.791460   -2.848640
  C     30.385700   -2.654600   -2.539210
  C     29.970970   -1.482800   -2.002560
  Br    32.154390   -3.121710   -2.954850
  H      1.097070    2.668430    2.145130
  H     -1.509410   -2.776420    2.013540
  H     -1.119170   -2.588210    0.291830
  H     -2.779120   -2.234750    0.872220
  H      2.362640   -0.656840    0.427930
  H      8.421670   -0.722540   -0.763850
  H     10.770510   -0.289890   -1.074360
  H     16.668030    1.470640   -0.637470
  H     18.579740    2.220100    0.129730
  H     19.058980    6.808610    2.315220
  H     24.260390    3.729800    0.882030
  H     24.759300    6.027050    1.951510
  H     20.559450    1.337920   -0.160740
  H     23.536940    2.013990    0.096890
  H     21.974640   -0.443340   -0.861900
  H     28.208610    0.507080   -0.964360
  H     26.145880   -3.797580   -2.483160
  H     30.629440   -0.671870   -1.749750

 Total Charge           Charge          ....    0
 Multiplicity           Mult            ....    1
 Number of Electrons    NEL             ....  574
 Basis Dimension        Dim             .... 1172

ORBITAL ENERGIES
----------------

  NO   OCC          E(Eh)            E(eV)
   0   2.0000    -482.880434    -13139.8446
   1   2.0000     -89.004807     -2421.9439
   2   2.0000     -89.004385     -2421.9325
   3   2.0000     -89.004256     -2421.9289
   4   2.0000     -89.000994     -2421.8402
   5   2.0000     -88.997861     -2421.7549
   6   2.0000     -88.968508     -2420.9562
   7   2.0000     -88.965304     -2420.8690
   8   2.0000     -62.558122     -1702.2931
   9   2.0000     -56.392065     -1534.5061
  10   2.0000     -56.389364     -1534.4326
  11   2.0000     -56.389329     -1534.4316
  12   2.0000     -19.269055      -524.3376
  13   2.0000     -19.216323      -522.9027
  14   2.0000     -19.207376      -522.6593
  15   2.0000     -14.438135      -392.8816
  16   2.0000     -14.437857      -392.8741
  17   2.0000     -14.436633      -392.8408
  18   2.0000     -14.435091      -392.7988
  19   2.0000     -14.404312      -391.9612
  20   2.0000     -14.403248      -391.9323
  21   2.0000     -14.398264      -391.7967
  22   2.0000     -10.416048      -283.4351
  23   2.0000     -10.375872      -282.3418
  24   2.0000     -10.374026      -282.2916
  25   2.0000     -10.361628      -281.9542
  26   2.0000     -10.359856      -281.9060
  27   2.0000     -10.357455      -281.8407
  28   2.0000     -10.352384      -281.7027
  29   2.0000     -10.351014      -281.6654
  30   2.0000     -10.349175      -281.6154
  31   2.0000     -10.345767      -281.5226
  32   2.0000     -10.345737      -281.5218
  33   2.0000     -10.345512      -281.5157
  34   2.0000     -10.345147      -281.5058
  35   2.0000     -10.343347      -281.4568
  36   2.0000     -10.343158      -281.4516
  37   2.0000     -10.342849      -281.4432
  38   2.0000     -10.337543      -281.2988
  39   2.0000     -10.337206      -281.2897
  40   2.0000     -10.336128      -281.2603
  41   2.0000     -10.334868      -281.2261
  42   2.0000     -10.334258      -281.2095
  43   2.0000     -10.332156      -281.1523
  44   2.0000     -10.329231      -281.0727
  45   2.0000     -10.328149      -281.0432
  46   2.0000     -10.324683      -280.9489
  47   2.0000     -10.323389      -280.9137
  48   2.0000     -10.318907      -280.7917
  49   2.0000     -10.317527      -280.7542
  50   2.0000     -10.316666      -280.7307
  51   2.0000     -10.316413      -280.7239
  52   2.0000     -10.315961      -280.7116
  53   2.0000     -10.315834      -280.7081
  54   2.0000     -10.315384      -280.6959
  55   2.0000     -10.315128      -280.6889
  56   2.0000     -10.314027      -280.6589
  57   2.0000     -10.312372      -280.6139
  58   2.0000     -10.310566      -280.5648
  59   2.0000     -10.309157      -280.5264
  60   2.0000     -10.307708      -280.4870
  61   2.0000     -10.306959      -280.4666
  62   2.0000     -10.302993      -280.3587
  63   2.0000     -10.301956      -280.3305
  64   2.0000     -10.300431      -280.2890
  65   2.0000     -10.299736      -280.2701
  66   2.0000     -10.299686      -280.2687
  67   2.0000     -10.298671      -280.2411
  68   2.0000     -10.298258      -280.2298
  69   2.0000     -10.296574      -280.1840
  70   2.0000     -10.292885      -280.0836
  71   2.0000     -10.290409      -280.0163
  72   2.0000     -10.289787      -279.9993
  73   2.0000     -10.286488      -279.9096
  74   2.0000     -10.282871      -279.8111
  75   2.0000     -10.281795      -279.7819
  76   2.0000     -10.279278      -279.7134
  77   2.0000     -10.270475      -279.4738
  78   2.0000      -8.787539      -239.1211
  79   2.0000      -8.099511      -220.3989
  80   2.0000      -8.099241      -220.3916
  81   2.0000      -8.098864      -220.3813
  82   2.0000      -8.095802      -220.2980
  83   2.0000      -8.093473      -220.2346
  84   2.0000      -8.064556      -219.4477
  85   2.0000      -8.060950      -219.3496
  86   2.0000      -6.623782      -180.2423
  87   2.0000      -6.609294      -179.8480
  88   2.0000      -6.609111      -179.8431
  89   2.0000      -6.068841      -165.1416
  90   2.0000      -6.068578      -165.1344
  91   2.0000      -6.068234      -165.1250
  92   2.0000      -6.064920      -165.0349
  93   2.0000      -6.064633      -165.0271
  94   2.0000      -6.064359      -165.0196
  95   2.0000      -6.063912      -165.0074
  96   2.0000      -6.063033      -164.9835
  97   2.0000      -6.061756      -164.9488
  98   2.0000      -6.061433      -164.9400
  99   2.0000      -6.061121      -164.9315
 100   2.0000      -6.060843      -164.9239
 101   2.0000      -6.058417      -164.8579
 102   2.0000      -6.058295      -164.8546
 103   2.0000      -6.055391      -164.7756
 104   2.0000      -6.034254      -164.2004
 105   2.0000      -6.030367      -164.0946
 106   2.0000      -6.029984      -164.0842
 107   2.0000      -6.026093      -163.9783
 108   2.0000      -6.025746      -163.9689
 109   2.0000      -6.022987      -163.8938
 110   2.0000      -2.739704       -74.5511
 111   2.0000      -2.735561       -74.4384
 112   2.0000      -2.735460       -74.4357
 113   2.0000      -2.723928       -74.1219
 114   2.0000      -2.723918       -74.1216
 115   2.0000      -1.203461       -32.7478
 116   2.0000      -1.120527       -30.4911
 117   2.0000      -1.109095       -30.1800
 118   2.0000      -1.058842       -28.8125
 119   2.0000      -1.055190       -28.7132
 120   2.0000      -1.030854       -28.0510
 121   2.0000      -1.028722       -27.9929
 122   2.0000      -1.024761       -27.8852
 123   2.0000      -1.017250       -27.6808
 124   2.0000      -1.015133       -27.6232
 125   2.0000      -1.013859       -27.5885
 126   2.0000      -1.012661       -27.5559
 127   2.0000      -1.006181       -27.3796
 128   2.0000      -1.003182       -27.2980
 129   2.0000      -0.988639       -26.9022
 130   2.0000      -0.986123       -26.8338
 131   2.0000      -0.982809       -26.7436
 132   2.0000      -0.979240       -26.6465
 133   2.0000      -0.971644       -26.4398
 134   2.0000      -0.964147       -26.2358
 135   2.0000      -0.943419       -25.6717
 136   2.0000      -0.936047       -25.4711
 137   2.0000      -0.934527       -25.4298
 138   2.0000      -0.927463       -25.2375
 139   2.0000      -0.913659       -24.8619
 140   2.0000      -0.907750       -24.7011
 141   2.0000      -0.901154       -24.5216
 142   2.0000      -0.899388       -24.4736
 143   2.0000      -0.886442       -24.1213
 144   2.0000      -0.878665       -23.9097
 145   2.0000      -0.877284       -23.8721
 146   2.0000      -0.873871       -23.7792
 147   2.0000      -0.871596       -23.7173
 148   2.0000      -0.864490       -23.5240
 149   2.0000      -0.854695       -23.2574
 150   2.0000      -0.852702       -23.2032
 151   2.0000      -0.837435       -22.7878
 152   2.0000      -0.829192       -22.5635
 153   2.0000      -0.821040       -22.3416
 154   2.0000      -0.820724       -22.3330
 155   2.0000      -0.801576       -21.8120
 156   2.0000      -0.795680       -21.6516
 157   2.0000      -0.787901       -21.4399
 158   2.0000      -0.783334       -21.3156
 159   2.0000      -0.770702       -20.9719
 160   2.0000      -0.756644       -20.5893
 161   2.0000      -0.748540       -20.3688
 162   2.0000      -0.740589       -20.1525
 163   2.0000      -0.730152       -19.8685
 164   2.0000      -0.720101       -19.5949
 165   2.0000      -0.706839       -19.2341
 166   2.0000      -0.703543       -19.1444
 167   2.0000      -0.698334       -19.0026
 168   2.0000      -0.693145       -18.8614
 169   2.0000      -0.690263       -18.7830
 170   2.0000      -0.682830       -18.5807
 171   2.0000      -0.680959       -18.5298
 172   2.0000      -0.671015       -18.2593
 173   2.0000      -0.666119       -18.1260
 174   2.0000      -0.665082       -18.0978
 175   2.0000      -0.652717       -17.7613
 176   2.0000      -0.650177       -17.6922
 177   2.0000      -0.647569       -17.6212
 178   2.0000      -0.645512       -17.5653
 179   2.0000      -0.640296       -17.4233
 180   2.0000      -0.639118       -17.3913
 181   2.0000      -0.633045       -17.2260
 182   2.0000      -0.629899       -17.1404
 183   2.0000      -0.626036       -17.0353
 184   2.0000      -0.619923       -16.8690
 185   2.0000      -0.615028       -16.7358
 186   2.0000      -0.604004       -16.4358
 187   2.0000      -0.598218       -16.2783
 188   2.0000      -0.590097       -16.0574
 189   2.0000      -0.587305       -15.9814
 190   2.0000      -0.584960       -15.9176
 191   2.0000      -0.581032       -15.8107
 192   2.0000      -0.577919       -15.7260
 193   2.0000      -0.570445       -15.5226
 194   2.0000      -0.567437       -15.4407
 195   2.0000      -0.561296       -15.2736
 196   2.0000      -0.558582       -15.1998
 197   2.0000      -0.556568       -15.1450
 198   2.0000      -0.553543       -15.0627
 199   2.0000      -0.545079       -14.8324
 200   2.0000      -0.543210       -14.7815
 201   2.0000      -0.538548       -14.6546
 202   2.0000      -0.531787       -14.4707
 203   2.0000      -0.530499       -14.4356
 204   2.0000      -0.529568       -14.4103
 205   2.0000      -0.528396       -14.3784
 206   2.0000      -0.527639       -14.3578
 207   2.0000      -0.525909       -14.3107
 208   2.0000      -0.518321       -14.1042
 209   2.0000      -0.517780       -14.0895
 210   2.0000      -0.514530       -14.0011
 211   2.0000      -0.512866       -13.9558
 212   2.0000      -0.511021       -13.9056
 213   2.0000      -0.509729       -13.8704
 214   2.0000      -0.507793       -13.8178
 215   2.0000      -0.504243       -13.7212
 216   2.0000      -0.502225       -13.6662
 217   2.0000      -0.500575       -13.6213
 218   2.0000      -0.497620       -13.5409
 219   2.0000      -0.494725       -13.4621
 220   2.0000      -0.493245       -13.4219
 221   2.0000      -0.490174       -13.3383
 222   2.0000      -0.488408       -13.2902
 223   2.0000      -0.485774       -13.2186
 224   2.0000      -0.483931       -13.1684
 225   2.0000      -0.481296       -13.0967
 226   2.0000      -0.479782       -13.0555
 227   2.0000      -0.474317       -12.9068
 228   2.0000      -0.473391       -12.8816
 229   2.0000      -0.470400       -12.8002
 230   2.0000      -0.467230       -12.7140
 231   2.0000      -0.466309       -12.6889
 232   2.0000      -0.465860       -12.6767
 233   2.0000      -0.462651       -12.5894
 234   2.0000      -0.461255       -12.5514
 235   2.0000      -0.457261       -12.4427
 236   2.0000      -0.456180       -12.4133
 237   2.0000      -0.450757       -12.2657
 238   2.0000      -0.450401       -12.2560
 239   2.0000      -0.449418       -12.2293
 240   2.0000      -0.447647       -12.1811
 241   2.0000      -0.447297       -12.1716
 242   2.0000      -0.445864       -12.1326
 243   2.0000      -0.445095       -12.1116
 244   2.0000      -0.443870       -12.0783
 245   2.0000      -0.442084       -12.0297
 246   2.0000      -0.441451       -12.0125
 247   2.0000      -0.440138       -11.9768
 248   2.0000      -0.438482       -11.9317
 249   2.0000      -0.437176       -11.8962
 250   2.0000      -0.436729       -11.8840
 251   2.0000      -0.435122       -11.8403
 252   2.0000      -0.433229       -11.7888
 253   2.0000      -0.432729       -11.7752
 254   2.0000      -0.431136       -11.7318
 255   2.0000      -0.430180       -11.7058
 256   2.0000      -0.428947       -11.6722
 257   2.0000      -0.425106       -11.5677
 258   2.0000      -0.420019       -11.4293
 259   2.0000      -0.416406       -11.3310
 260   2.0000      -0.413257       -11.2453
 261   2.0000      -0.412915       -11.2360
 262   2.0000      -0.410922       -11.1818
 263   2.0000      -0.409758       -11.1501
 264   2.0000      -0.402040       -10.9401
 265   2.0000      -0.396888       -10.7999
 266   2.0000      -0.392277       -10.6744
 267   2.0000      -0.385889       -10.5006
 268   2.0000      -0.380410       -10.3515
 269   2.0000      -0.379095       -10.3157
 270   2.0000      -0.369809       -10.0630
 271   2.0000      -0.366462        -9.9719
 272   2.0000      -0.363631        -9.8949
 273   2.0000      -0.360141        -9.7999
 274   2.0000      -0.358036        -9.7427
 275   2.0000      -0.346806        -9.4371
 276   2.0000      -0.341281        -9.2867
 277   2.0000      -0.334391        -9.0992
 278   2.0000      -0.330338        -8.9889
 279   2.0000      -0.326709        -8.8902
 280   2.0000      -0.310709        -8.4548
 281   2.0000      -0.308113        -8.3842
 282   2.0000      -0.307747        -8.3742
 283   2.0000      -0.288008        -7.8371
 284   2.0000      -0.284753        -7.7485
 285   2.0000      -0.262946        -7.1551
 286   2.0000      -0.237401        -6.4600
 287   0.0000      -0.123356        -3.3567
 288   0.0000      -0.110979        -3.0199
 289   0.0000      -0.094446        -2.5700
 290   0.0000      -0.073111        -1.9894
 291   0.0000      -0.060357        -1.6424

MULLIKEN ATOMIC CHARGES
-----------------------
   0 C :    0.111192
   1 C :   -0.184521
   2 C :    0.212369
   3 O :   -0.211040
   4 O :   -0.279649
   5 C :    0.182880
   6 C :   -0.132243
   7 N :    0.091194
   8 C :   -0.120693
   9 C :    0.019132
  10 C :   -0.013553
  11 C :   -0.086393
  12 S :    0.192490
  13 C :   -0.103576
  14 C :    0.021877
  15 C :    0.306315
  16 C :   -0.292409
  17 C :   -0.193584
  18 N :    0.185877
  19 C :   -0.183960
  20 N :    0.185702
  21 C :   -0.054436
  22 C :   -0.046611
  23 S :    0.185892
  24 C :   -0.054178
  25 C :   -0.049380
  26 C :    0.018482
  27 C :   -0.100352
  28 S :    0.184133
  29 C :   -0.097262
  30 C :    0.010630
  31 C :    0.298502
  32 C :   -0.284253
  33 C :   -0.181206
  34 N :    0.178397
  35 C :   -0.187771
  36 N :    0.185277
  37 C :   -0.035025
  38 C :   -0.067038
  39 S :    0.185539
  40 C :   -0.026054
  41 C :   -0.059342
  42 C :    0.070835
  43 C :    0.065363
  44 C :   -0.120072
  45 S :    0.134988
  46 C :   -0.116339
  47 C :    0.055473
  48 C :   -0.008203
  49 C :   -0.064017
  50 S :    0.131599
  51 C :    0.098907
  52 C :    0.002226
  53 C :   -0.019201
  54 C :   -0.020751
  55 C :   -0.086697
  56 C :    0.329860
  57 C :   -0.358429
  58 C :   -0.185123
  59 N :    0.143065
  60 C :   -0.196736
  61 N :    0.143836
  62 C :    0.011788
  63 C :   -0.004847
  64 C :    0.144806
  65 O :   -0.169184
  66 C :   -0.078735
  67 C :    0.118870
  68 C :   -0.090160
  69 C :   -0.024745
  70 S :    0.182742
  71 C :   -0.123547
  72 C :    0.036648
  73 Br:    0.018050
  74 H :    0.019159
  75 H :    0.037074
  76 H :    0.043007
  77 H :    0.043831
  78 H :    0.032858
  79 H :    0.016080
  80 H :    0.015906
  81 H :    0.014922
  82 H :   -0.010640
  83 H :    0.042013
  84 H :    0.018929
  85 H :    0.029860
  86 H :   -0.015043
  87 H :    0.001920
  88 H :    0.006024
  89 H :   -0.015859
  90 H :   -0.007632
  91 H :   -0.006030
Sum of atomic charges:   -0.0000000

LOEWDIN ATOMIC CHARGES
----------------------
   0 C :    0.040037
   1 C :   -0.123681
   2 C :    0.094458
   3 O :   -0.166710
   4 O :   -0.071357
   5 C :    0.084666
   6 C :   -0.038260
   7 N :   -0.061955
   8 C :   -0.182049
   9 C :    0.014039
  10 C :   -0.073983
  11 C :   -0.165552
  12 S :    0.483733
  13 C :   -0.190284
  14 C :   -0.053100
  15 C :    0.075791
  16 C :   -0.090150
  17 C :   -0.018517
  18 N :   -0.022219
  19 C :   -0.018927
  20 N :   -0.018073
  21 C :   -0.026606
  22 C :   -0.173430
  23 S :    0.466416
  24 C :   -0.182187
  25 C :   -0.020667
  26 C :   -0.063994
  27 C :   -0.180015
  28 S :    0.465555
  29 C :   -0.180713
  30 C :   -0.064530
  31 C :    0.077287
  32 C :   -0.090585
  33 C :   -0.016958
  34 N :   -0.020513
  35 C :   -0.019207
  36 N :   -0.018873
  37 C :   -0.020132
  38 C :   -0.185463
  39 S :    0.467152
  40 C :   -0.173774
  41 C :   -0.016900
  42 C :    0.004396
  43 C :   -0.044471
  44 C :   -0.139871
  45 S :    0.454415
  46 C :   -0.203640
  47 C :   -0.030615
  48 C :   -0.058038
  49 C :   -0.158395
  50 S :    0.426468
  51 C :   -0.055408
  52 C :    0.037134
  53 C :   -0.048096
  54 C :    0.068331
  55 C :   -0.109403
  56 C :    0.075058
  57 C :   -0.149416
  58 C :   -0.018442
  59 N :   -0.062492
  60 C :   -0.021105
  61 N :   -0.058889
  62 C :   -0.018698
  63 C :   -0.049364
  64 C :    0.086157
  65 O :   -0.162285
  66 C :    0.018377
  67 C :   -0.034910
  68 C :   -0.144750
  69 C :   -0.011737
  70 S :    0.429584
  71 C :   -0.273514
  72 C :   -0.071259
  73 Br:    0.132371
  74 H :    0.048590
  75 H :    0.026254
  76 H :    0.027602
  77 H :    0.030320
  78 H :    0.043624
  79 H :    0.043750
  80 H :    0.044158
  81 H :    0.041569
  82 H :    0.041417
  83 H :    0.039527
  84 H :    0.039974
  85 H :    0.026074
  86 H :    0.032382
  87 H :    0.029826
  88 H :    0.040604
  89 H :    0.038733
  90 H :    0.040598
  91 H :    0.037733

  Mayer bond orders larger than 0.100000
B(  0-C ,  1-C ) :   1.7430 B(  0-C ,  8-C ) :   1.1564 B(  0-C , 74-H ) :   0.9361
B(  1-C ,  2-C ) :   0.9296 B(  1-C ,  6-C ) :   1.0710 B(  2-C ,  3-O ) :   2.0450
B(  2-C ,  4-O ) :   1.2580 B(  4-O ,  5-C ) :   0.9138 B(  5-C , 75-H ) :   0.9776
B(  5-C , 76-H ) :   0.9743 B(  5-C , 77-H ) :   0.9807 B(  6-C ,  7-N ) :   3.0312
B(  8-C ,  9-C ) :   1.4333 B(  8-C , 12-S ) :   1.0763 B(  9-C , 10-C ) :   1.3218
B(  9-C , 78-H ) :   0.9719 B( 10-C , 11-C ) :   1.3975 B( 10-C , 15-C ) :   0.9977
B( 11-C , 12-S ) :   1.1569 B( 11-C , 13-C ) :   1.1987 B( 13-C , 14-C ) :   1.4439
B( 13-C , 23-S ) :   1.1089 B( 14-C , 15-C ) :   0.9900 B( 14-C , 21-C ) :   1.2943
B( 15-C , 16-C ) :   1.7202 B( 16-C , 17-C ) :   1.1344 B( 16-C , 19-C ) :   1.1361
B( 17-C , 18-N ) :   2.9909 B( 19-C , 20-N ) :   2.9895 B( 21-C , 22-C ) :   1.4802
B( 21-C , 79-H ) :   0.9923 B( 22-C , 23-S ) :   1.1072 B( 22-C , 24-C ) :   1.1256
B( 24-C , 25-C ) :   1.4836 B( 24-C , 28-S ) :   1.0951 B( 25-C , 26-C ) :   1.2930
B( 25-C , 80-H ) :   0.9932 B( 26-C , 27-C ) :   1.4364 B( 26-C , 31-C ) :   0.9938
B( 27-C , 28-S ) :   1.1211 B( 27-C , 29-C ) :   1.2038 B( 29-C , 30-C ) :   1.4337
B( 29-C , 39-S ) :   1.1206 B( 30-C , 31-C ) :   0.9971 B( 30-C , 37-C ) :   1.3086
B( 31-C , 32-C ) :   1.7218 B( 32-C , 33-C ) :   1.1305 B( 32-C , 35-C ) :   1.1318
B( 33-C , 34-N ) :   2.9805 B( 35-C , 36-N ) :   2.9907 B( 37-C , 38-C ) :   1.4761
B( 37-C , 81-H ) :   0.9847 B( 38-C , 39-S ) :   1.1002 B( 38-C , 40-C ) :   1.1166
B( 40-C , 41-C ) :   1.5350 B( 40-C , 45-S ) :   1.0589 B( 41-C , 42-C ) :   1.2656
B( 41-C , 82-H ) :   0.9666 B( 42-C , 43-C ) :   1.0572 B( 42-C , 51-C ) :   1.3247
B( 43-C , 44-C ) :   1.6001 B( 43-C , 46-C ) :   1.1767 B( 44-C , 45-S ) :   1.1427
B( 44-C , 83-H ) :   0.9390 B( 46-C , 47-C ) :   1.4523 B( 46-C , 50-S ) :   1.0824
B( 47-C , 48-C ) :   1.2195 B( 47-C , 51-C ) :   1.0725 B( 48-C , 49-C ) :   1.5873
B( 48-C , 84-H ) :   0.9964 B( 49-C , 50-S ) :   1.1541 B( 49-C , 85-H ) :   0.9626
B( 51-C , 52-C ) :   1.1872 B( 52-C , 53-C ) :   1.4728 B( 52-C , 86-H ) :   0.9761
B( 53-C , 54-C ) :   1.2126 B( 53-C , 87-H ) :   0.9942 B( 54-C , 55-C ) :   1.4672
B( 54-C , 88-H ) :   0.9669 B( 55-C , 56-C ) :   1.0814 B( 55-C , 64-C ) :   0.9682
B( 56-C , 57-C ) :   1.6092 B( 56-C , 62-C ) :   0.9939 B( 57-C , 58-C ) :   1.1458
B( 57-C , 60-C ) :   1.1498 B( 58-C , 59-N ) :   2.9653 B( 60-C , 61-N ) :   2.9672
B( 62-C , 63-C ) :   1.2763 B( 62-C , 69-C ) :   1.4176 B( 63-C , 64-C ) :   0.9435
B( 63-C , 66-C ) :   1.4251 B( 64-C , 65-O ) :   2.1699 B( 66-C , 67-C ) :   1.2440
B( 66-C , 89-H ) :   1.0160 B( 67-C , 68-C ) :   1.3107 B( 67-C , 72-C ) :   1.1596
B( 68-C , 69-C ) :   1.3251 B( 68-C , 70-S ) :   1.0842 B( 69-C , 90-H ) :   0.9783
B( 70-S , 71-C ) :   1.0858 B( 71-C , 72-C ) :   1.6207 B( 71-C , 73-Br) :   1.0162
B( 72-C , 91-H ) :   1.0002

-----------------------------------------------------------------------------
         ABSORPTION SPECTRUM VIA TRANSITION ELECTRIC DIPOLE MOMENTS
-----------------------------------------------------------------------------
State   Energy  Wavelength   fosc         T2         TX        TY        TZ
        (cm-1)    (nm)                  (au**2)     (au)      (au)      (au)
-----------------------------------------------------------------------------
   0   10448.8    957.1   0.608017596  19.15695  -4.37018   0.03619   0.23907
   1   13323.6    750.5   0.118124769   2.91873   1.68067   0.04886  -0.30280
   2   15736.9    635.5   0.845448992  17.68662  -3.61991   2.00262   0.75657
   3   16853.1    593.4   0.262996089   5.13741   2.14904  -0.62165  -0.36414
   4   19929.6    501.8   0.060349166   0.99689  -0.80240  -0.57812  -0.13719
   5   22622.2    442.0   0.195551049   2.84578   0.92369  -1.27815  -0.59909
   6   22814.4    438.3   0.150235067   2.16789  -0.79341  -1.16734  -0.41918
   7   23065.4    433.5   1.033013124  14.74418  -3.36277  -1.83145  -0.28590
   8   24503.7    408.1   0.083849149   1.12653  -0.99622  -0.30011   0.20977
   9   24733.0    404.3   0.457758675   6.09306   2.11127  -0.98907  -0.81076
  10   25899.5    386.1   0.162190676   2.06163   1.40818   0.07083  -0.27135
  11   26140.3    382.6   0.028563020   0.35972   0.57566   0.14765   0.08087
  12   27051.4    369.7   0.072454873   0.88177   0.74220  -0.43704  -0.37403
  13   27334.8    365.8   0.177581478   2.13874  -0.51725   1.10330   0.80866
  14   28308.8    353.2   0.055194260   0.64187   0.79055   0.07671   0.10500
  15   28492.3    351.0   0.002926600   0.03382   0.04768  -0.13901  -0.11053
  16   28911.6    345.9   0.345725936   3.93673   1.61460  -0.93687  -0.67235
  17   29734.6    336.3   0.037794659   0.41845   0.45960   0.43770   0.12503
  18   29854.1    335.0   0.061079765   0.67355   0.26387  -0.70712  -0.32235
  19   30173.3    331.4   0.000209884   0.00229  -0.01079   0.04207  -0.02008
  20   30434.5    328.6   0.083616630   0.90449  -0.04334   0.86271   0.39791
  21   30735.5    325.4   0.332036132   3.55648   1.78623  -0.23257  -0.55836
  22   31316.6    319.3   0.613159640   6.44576   0.31074   2.10137   1.39048
  23   31900.7    313.5   0.241257781   2.48975   0.39581  -1.32955  -0.75191
  24   32190.3    310.7   0.178258881   1.82306  -1.34017  -0.05857   0.15350
  25   32446.8    308.2   0.187501334   1.90243   1.30298  -0.25260  -0.37530
  26   32555.2    307.2   0.190789684   1.92934   1.26451  -0.40386  -0.40897
  27   32830.4    304.6   0.068850558   0.69041  -0.31285   0.61307   0.46549
  28   33024.1    302.8   0.097983729   0.97678   0.88649   0.33834   0.27650
  29   33223.7    301.0   0.272299576   2.69820   1.28180   0.95194   0.38600
  30   33733.3    296.4   0.312530684   3.05006   0.90856   1.32039   0.69365
  31   34184.9    292.5   0.123943026   1.19361  -1.07989   0.13701   0.09311
  32   34300.5    291.5   0.137632995   1.32098  -1.13367   0.17076   0.08137
  33   34444.2    290.3   0.158092648   1.51102  -1.14656  -0.44259   0.02338
  34   34542.8    289.5   0.015800310   0.15059  -0.23828   0.23320   0.19857
  35   34793.3    287.4   0.004570006   0.04324   0.11681   0.17204  -0.00046
  36   34981.4    285.9   0.010839715   0.10201  -0.29890   0.02526   0.10971
  37   35431.5    282.2   0.000748834   0.00696  -0.04828   0.03780  -0.05655
  38   35453.6    282.1   0.014790073   0.13734  -0.32410  -0.05494   0.17111
  39   36161.1    276.5   0.041721388   0.37983   0.51239   0.31888   0.12492
  40   36316.9    275.4   0.031561261   0.28610  -0.50809   0.05002   0.15950
  41   36363.7    275.0   0.003724441   0.03372   0.07969   0.15140   0.06667
  42   36429.2    274.5   0.017500070   0.15815   0.31880  -0.16332  -0.17275
  43   36563.8    273.5   0.099537537   0.89621   0.93711  -0.02187  -0.13254
  44   37074.7    269.7   0.033213355   0.29492   0.39885  -0.25381  -0.26726
  45   37094.4    269.6   0.116998635   1.03836   0.28214   0.88574   0.41739
  46   37385.0    267.5   0.004190056   0.03690  -0.13760   0.11063   0.07567
  47   37483.1    266.8   0.063903447   0.56126  -0.73194  -0.15056  -0.05350
  48   37636.7    265.7   0.005500063   0.04811   0.19009  -0.10920  -0.00710
  49   37877.9    264.0   0.103211326   0.89705  -0.35244  -0.82101  -0.31429
  50   38125.7    262.3   0.010311630   0.08904  -0.23747  -0.14289   0.11058
  51   38189.4    261.9   0.160116124   1.38028   0.00041  -1.11420  -0.37261
  52   38609.2    259.0   0.105687394   0.90117   0.71574  -0.45811  -0.42311
  53   39149.5    255.4   0.129351318   1.08773   0.04298   0.94877   0.43096
  54   39293.4    254.5   0.117388347   0.98351   0.78681  -0.55921  -0.22746
  55   39706.2    251.8   0.020662541   0.17132  -0.39686  -0.11724   0.00848
  56   39913.5    250.5   0.075377483   0.62172   0.02940  -0.71922  -0.32185
  57   40011.0    249.9   0.035909710   0.29547   0.28955   0.44634   0.11136
  58   40123.1    249.2   0.007689374   0.06309  -0.24691   0.02492   0.03882

FINAL SINGLE POINT ENERGY     -8110.506318370351

DIPOLE MOMENT
-------------
                                X             Y             Z
Electronic contribution:    166.13245     -31.04489     -29.17499
Nuclear contribution   :   -165.20903      36.01969      31.05876
                        -----------------------------------------
Total Dipole Moment    :      0.92342       4.97480       1.88377
                        -----------------------------------------
Magnitude (a.u.)       :      5.39907
Magnitude (Debye)      :     13.72334

Rotational constants in cm-1:     0.001529     0.000145     0.000133
Rotational constants in MHz :    45.838340     4.353470     3.994710

                             ****ORCA TERMINATED NORMALLY****
TOTAL RUN TIME: 0 days 0 hours 10 minutes 0 seconds 165 msec
