                         Program Version 4.2.0 -  RELEASE  -
|  1> # ORCA input file
|  2> # SCF done       -194.375330030486          0.000974615474
|  3> ! CAM-B3LYP def2-SVP def2/J RIJCOSX Grid4 TightSCF
|  4> %maxcore 5000
|  5> %tddft
|  6>     Mode sTDDFT
|  7>     Ethresh 5.0
|  8>     maxcore 5000
|  9> end
| 10>
| 11> %pal
| 12>   nprocs 6
| 13>   end
| 14> * xyz 0 1
| 15>    C       -7.45047        -6.79801        11.50596
| 16>    C       -6.38220        -7.22133        12.28150
| 17>    C       -5.14773        -7.50208        11.71033
| 18>    C       -4.94271        -7.35976        10.34664
| 19>    C       -6.00138        -6.93451         9.56012
| 20>    C       -7.26264        -6.65760        10.13911
| 21>    C       -8.18735        -6.25839         9.08990
| 22>    C       -9.43859        -5.73889         9.25443
| 23>    C      -10.04201        -5.52101        10.51298
| 24>    N      -10.58258        -5.32063        11.50467
| 25>    C      -10.27404        -5.29859         8.20309
| 26>    N      -10.99695        -4.90737         7.40287
| 27>    C       -7.50175        -6.50956         7.81911
| 28>    C       -6.07787        -6.67432         8.13274
| 29>    C       -5.02645        -6.39182         7.31173
| 30>    C       -5.15116        -5.90428         5.99259
| 31>    N       -5.18708        -5.45795         4.93567
| 32>    C       -3.67487        -6.47099         7.71288
| 33>    N       -2.56167        -6.51144         7.98647
| 34>    C       -8.11756        -6.71531         6.63418
| 35>    C       -7.49496        -7.28394         5.46552
| 36>    N       -6.55884        -8.20641         5.61223
| 37>    N       -5.94161        -8.75703         4.61458
| 38>    C       -6.21275        -8.46895         3.35466
| 39>    C       -7.19530        -7.48836         3.05855
| 40>    C       -7.87611        -6.88263         4.15986
| 41>    N       -8.71566        -5.92886         3.76696
| 42>    S       -8.63669        -5.80703         2.17068
| 43>    N       -7.54110        -6.94654         1.89334
| 44>    C       -5.42826        -9.06666         2.30746
| 45>    S       -3.72516        -9.05664         2.47997
| 46>    C       -3.46249        -9.59145         0.85410
| 47>    C       -4.69051        -9.75136         0.18381
| 48>    C       -5.81781        -9.52285         1.04390
| 49>    C       -7.12006        -9.83312         0.56768
| 50>    C       -8.33606        -9.99748         1.43130
| 51>    F       -8.08631       -10.19168         2.73351
| 52>    F       -9.20705        -8.96716         1.36547
| 53>    F       -9.04863       -11.07285         1.04300
| 54>    C       -7.28550       -10.12682        -0.76358
| 55>    C       -6.21048       -10.13912        -1.65398
| 56>    C       -4.91530        -9.98204        -1.20761
| 57>    O       -3.83647       -10.00338        -2.00496
| 58>    C       -3.99214       -10.24288        -3.38797
| 59>    C       -2.10132        -9.80213         0.50267
| 60>    C       -1.60703       -10.60412        -0.46997
| 61>    C       -0.21709       -10.74369        -0.75809
| 62>    N        0.08725       -11.52405        -1.79477
| 63>    N        1.28934       -11.76532        -2.17972
| 64>    C        2.36832       -11.24729        -1.60357
| 65>    C        2.18589       -10.32795        -0.53169
| 66>    C        0.84849       -10.09040        -0.07224
| 67>    N        0.81860        -9.21340         0.92784
| 68>    S        2.31489        -8.72424         1.24553
| 69>    N        3.08124        -9.59963         0.13217
| 70>    C        3.62371       -11.60894        -2.19639
| 71>    C        4.86349       -11.61584        -1.64539
| 72>    C        6.10360       -11.64578        -2.42860
| 73>    C        6.25846       -12.07874        -3.71397
| 74>    C        5.24331       -12.63407        -4.52576
| 75>    N        4.48801       -13.10503        -5.24949
| 76>    C        7.49212       -12.07365        -4.40298
| 77>    N        8.46067       -12.09700        -5.01731
| 78>    C        7.15355       -11.13218        -1.56081
| 79>    C        6.63552       -10.98470        -0.25343
| 80>    C        7.43024       -10.49270         0.76914
| 81>    C        8.74262       -10.15035         0.48098
| 82>    C        9.25508       -10.30059        -0.80040
| 83>    C        8.46986       -10.79147        -1.83249
| 84>    C        5.25461       -11.43705        -0.24962
| 85>    C        4.54311       -11.82771         0.84852
| 86>    C        4.99093       -11.66199         2.17640
| 87>    N        5.28374       -11.52244         3.27709
| 88>    C        3.29434       -12.48299         0.80406
| 89>    N        2.28919       -13.03521         0.84341
| 90>    H       -8.40479        -6.59336        11.96316
| 91>    H       -6.51678        -7.33912        13.34579
| 92>    H       -4.33533        -7.83918        12.33563
| 93>    H       -3.98422        -7.59109         9.91117
| 94>    H       -9.17014        -6.49440         6.52501
| 95>    H       -8.27093       -10.35705        -1.13849
| 96>    H       -6.41540       -10.31238        -2.69664
| 97>    H       -2.98163       -10.24796        -3.79287
| 98>    H       -4.57519        -9.45176        -3.86727
| 99>    H       -4.46171       -11.21240        -3.57515
|100>    H       -1.39017        -9.30489         1.15209
|101>    H       -2.24645       -11.19635        -1.10229
|102>    H        3.52668       -11.86351        -3.24372
|103>    H        7.04013       -10.36343         1.76552
|104>    H        9.37231        -9.75935         1.26543
|105>    H       10.27981       -10.02778        -1.00098
|106>    H        8.88219       -10.89436        -2.82270
|107> *
|108>
|109>                          ****END OF INPUT****

CARTESIAN COORDINATES (ANGSTROEM)
---------------------------------
  C     -7.450470   -6.798010   11.505960
  C     -6.382200   -7.221330   12.281500
  C     -5.147730   -7.502080   11.710330
  C     -4.942710   -7.359760   10.346640
  C     -6.001380   -6.934510    9.560120
  C     -7.262640   -6.657600   10.139110
  C     -8.187350   -6.258390    9.089900
  C     -9.438590   -5.738890    9.254430
  C    -10.042010   -5.521010   10.512980
  N    -10.582580   -5.320630   11.504670
  C    -10.274040   -5.298590    8.203090
  N    -10.996950   -4.907370    7.402870
  C     -7.501750   -6.509560    7.819110
  C     -6.077870   -6.674320    8.132740
  C     -5.026450   -6.391820    7.311730
  C     -5.151160   -5.904280    5.992590
  N     -5.187080   -5.457950    4.935670
  C     -3.674870   -6.470990    7.712880
  N     -2.561670   -6.511440    7.986470
  C     -8.117560   -6.715310    6.634180
  C     -7.494960   -7.283940    5.465520
  N     -6.558840   -8.206410    5.612230
  N     -5.941610   -8.757030    4.614580
  C     -6.212750   -8.468950    3.354660
  C     -7.195300   -7.488360    3.058550
  C     -7.876110   -6.882630    4.159860
  N     -8.715660   -5.928860    3.766960
  S     -8.636690   -5.807030    2.170680
  N     -7.541100   -6.946540    1.893340
  C     -5.428260   -9.066660    2.307460
  S     -3.725160   -9.056640    2.479970
  C     -3.462490   -9.591450    0.854100
  C     -4.690510   -9.751360    0.183810
  C     -5.817810   -9.522850    1.043900
  C     -7.120060   -9.833120    0.567680
  C     -8.336060   -9.997480    1.431300
  F     -8.086310  -10.191680    2.733510
  F     -9.207050   -8.967160    1.365470
  F     -9.048630  -11.072850    1.043000
  C     -7.285500  -10.126820   -0.763580
  C     -6.210480  -10.139120   -1.653980
  C     -4.915300   -9.982040   -1.207610
  O     -3.836470  -10.003380   -2.004960
  C     -3.992140  -10.242880   -3.387970
  C     -2.101320   -9.802130    0.502670
  C     -1.607030  -10.604120   -0.469970
  C     -0.217090  -10.743690   -0.758090
  N      0.087250  -11.524050   -1.794770
  N      1.289340  -11.765320   -2.179720
  C      2.368320  -11.247290   -1.603570
  C      2.185890  -10.327950   -0.531690
  C      0.848490  -10.090400   -0.072240
  N      0.818600   -9.213400    0.927840
  S      2.314890   -8.724240    1.245530
  N      3.081240   -9.599630    0.132170
  C      3.623710  -11.608940   -2.196390
  C      4.863490  -11.615840   -1.645390
  C      6.103600  -11.645780   -2.428600
  C      6.258460  -12.078740   -3.713970
  C      5.243310  -12.634070   -4.525760
  N      4.488010  -13.105030   -5.249490
  C      7.492120  -12.073650   -4.402980
  N      8.460670  -12.097000   -5.017310
  C      7.153550  -11.132180   -1.560810
  C      6.635520  -10.984700   -0.253430
  C      7.430240  -10.492700    0.769140
  C      8.742620  -10.150350    0.480980
  C      9.255080  -10.300590   -0.800400
  C      8.469860  -10.791470   -1.832490
  C      5.254610  -11.437050   -0.249620
  C      4.543110  -11.827710    0.848520
  C      4.990930  -11.661990    2.176400
  N      5.283740  -11.522440    3.277090
  C      3.294340  -12.482990    0.804060
  N      2.289190  -13.035210    0.843410
  H     -8.404790   -6.593360   11.963160
  H     -6.516780   -7.339120   13.345790
  H     -4.335330   -7.839180   12.335630
  H     -3.984220   -7.591090    9.911170
  H     -9.170140   -6.494400    6.525010
  H     -8.270930  -10.357050   -1.138490
  H     -6.415400  -10.312380   -2.696640
  H     -2.981630  -10.247960   -3.792870
  H     -4.575190   -9.451760   -3.867270
  H     -4.461710  -11.212400   -3.575150
  H     -1.390170   -9.304890    1.152090
  H     -2.246450  -11.196350   -1.102290
  H      3.526680  -11.863510   -3.243720
  H      7.040130  -10.363430    1.765520
  H      9.372310   -9.759350    1.265430
  H     10.279810  -10.027780   -1.000980
  H      8.882190  -10.894360   -2.822700

 Total Charge           Charge          ....    0
 Multiplicity           Mult            ....    1
 Number of Electrons    NEL             ....  524
 Basis Dimension        Dim             .... 1147

ORBITAL ENERGIES
----------------

  NO   OCC          E(Eh)            E(eV)
   0   2.0000     -89.056028     -2423.3377
   1   2.0000     -89.048496     -2423.1328
   2   2.0000     -88.987548     -2421.4743
   3   2.0000     -24.808922      -675.0851
   4   2.0000     -24.797416      -674.7720
   5   2.0000     -24.795833      -674.7289
   6   2.0000     -19.273515      -524.4590
   7   2.0000     -14.471090      -393.7784
   8   2.0000     -14.467802      -393.6889
   9   2.0000     -14.460990      -393.5035
  10   2.0000     -14.460689      -393.4953
  11   2.0000     -14.459316      -393.4580
  12   2.0000     -14.457787      -393.4164
  13   2.0000     -14.451270      -393.2391
  14   2.0000     -14.447857      -393.1462
  15   2.0000     -14.429219      -392.6390
  16   2.0000     -14.428773      -392.6269
  17   2.0000     -14.428550      -392.6208
  18   2.0000     -14.428035      -392.6068
  19   2.0000     -14.427923      -392.6038
  20   2.0000     -14.426904      -392.5760
  21   2.0000     -14.426425      -392.5630
  22   2.0000     -14.425630      -392.5414
  23   2.0000     -10.520926      -286.2889
  24   2.0000     -10.365653      -282.0638
  25   2.0000     -10.360856      -281.9332
  26   2.0000     -10.359659      -281.9007
  27   2.0000     -10.357893      -281.8526
  28   2.0000     -10.357431      -281.8400
  29   2.0000     -10.356440      -281.8131
  30   2.0000     -10.355300      -281.7820
  31   2.0000     -10.353278      -281.7270
  32   2.0000     -10.353089      -281.7219
  33   2.0000     -10.352561      -281.7075
  34   2.0000     -10.352301      -281.7004
  35   2.0000     -10.351567      -281.6804
  36   2.0000     -10.347198      -281.5616
  37   2.0000     -10.346652      -281.5467
  38   2.0000     -10.345375      -281.5120
  39   2.0000     -10.344509      -281.4884
  40   2.0000     -10.344499      -281.4881
  41   2.0000     -10.339955      -281.3645
  42   2.0000     -10.333747      -281.1955
  43   2.0000     -10.331114      -281.1239
  44   2.0000     -10.330911      -281.1184
  45   2.0000     -10.330515      -281.1076
  46   2.0000     -10.330209      -281.0993
  47   2.0000     -10.329606      -281.0829
  48   2.0000     -10.329543      -281.0812
  49   2.0000     -10.329392      -281.0770
  50   2.0000     -10.328995      -281.0662
  51   2.0000     -10.328755      -281.0597
  52   2.0000     -10.328312      -281.0476
  53   2.0000     -10.327350      -281.0215
  54   2.0000     -10.327311      -281.0204
  55   2.0000     -10.323214      -280.9089
  56   2.0000     -10.320419      -280.8329
  57   2.0000     -10.319829      -280.8168
  58   2.0000     -10.319718      -280.8138
  59   2.0000     -10.319319      -280.8030
  60   2.0000     -10.315012      -280.6857
  61   2.0000     -10.308451      -280.5072
  62   2.0000     -10.307502      -280.4814
  63   2.0000     -10.307171      -280.4724
  64   2.0000     -10.307055      -280.4692
  65   2.0000     -10.306754      -280.4610
  66   2.0000     -10.306193      -280.4458
  67   2.0000     -10.306025      -280.4412
  68   2.0000     -10.305397      -280.4241
  69   2.0000     -10.305380      -280.4237
  70   2.0000     -10.305337      -280.4225
  71   2.0000     -10.302353      -280.3413
  72   2.0000     -10.301184      -280.3095
  73   2.0000     -10.288472      -279.9635
  74   2.0000     -10.287056      -279.9250
  75   2.0000      -8.147285      -221.6989
  76   2.0000      -8.140017      -221.5011
  77   2.0000      -8.082570      -219.9379
  78   2.0000      -6.118460      -166.4918
  79   2.0000      -6.111020      -166.2893
  80   2.0000      -6.110589      -166.2776
  81   2.0000      -6.109920      -166.2594
  82   2.0000      -6.103221      -166.0771
  83   2.0000      -6.102869      -166.0675
  84   2.0000      -6.051407      -164.6672
  85   2.0000      -6.047104      -164.5501
  86   2.0000      -6.045749      -164.5132
  87   2.0000      -1.392107       -37.8812
  88   2.0000      -1.296822       -35.2883
  89   2.0000      -1.286863       -35.0173
  90   2.0000      -1.181070       -32.1385
  91   2.0000      -1.158454       -31.5231
  92   2.0000      -1.153905       -31.3993
  93   2.0000      -1.132303       -30.8115
  94   2.0000      -1.131466       -30.7888
  95   2.0000      -1.043713       -28.4009
  96   2.0000      -1.043636       -28.3988
  97   2.0000      -1.025588       -27.9077
  98   2.0000      -1.024787       -27.8859
  99   2.0000      -1.022139       -27.8138
 100   2.0000      -1.014440       -27.6043
 101   2.0000      -1.014335       -27.6015
 102   2.0000      -1.011632       -27.5279
 103   2.0000      -1.006427       -27.3863
 104   2.0000      -1.006004       -27.3748
 105   2.0000      -1.005535       -27.3620
 106   2.0000      -1.004498       -27.3338
 107   2.0000      -1.001870       -27.2623
 108   2.0000      -0.970256       -26.4020
 109   2.0000      -0.968285       -26.3484
 110   2.0000      -0.960060       -26.1246
 111   2.0000      -0.956004       -26.0142
 112   2.0000      -0.949759       -25.8443
 113   2.0000      -0.947212       -25.7749
 114   2.0000      -0.945941       -25.7404
 115   2.0000      -0.936797       -25.4915
 116   2.0000      -0.931544       -25.3486
 117   2.0000      -0.903344       -24.5813
 118   2.0000      -0.902128       -24.5481
 119   2.0000      -0.900945       -24.5160
 120   2.0000      -0.889305       -24.1992
 121   2.0000      -0.882359       -24.0102
 122   2.0000      -0.876435       -23.8490
 123   2.0000      -0.872679       -23.7468
 124   2.0000      -0.872622       -23.7453
 125   2.0000      -0.856456       -23.3054
 126   2.0000      -0.838152       -22.8073
 127   2.0000      -0.825273       -22.4568
 128   2.0000      -0.817962       -22.2579
 129   2.0000      -0.803495       -21.8642
 130   2.0000      -0.798453       -21.7270
 131   2.0000      -0.798095       -21.7173
 132   2.0000      -0.786513       -21.4021
 133   2.0000      -0.780201       -21.2304
 134   2.0000      -0.771652       -20.9977
 135   2.0000      -0.760757       -20.7013
 136   2.0000      -0.752174       -20.4677
 137   2.0000      -0.742297       -20.1989
 138   2.0000      -0.730911       -19.8891
 139   2.0000      -0.724538       -19.7157
 140   2.0000      -0.722473       -19.6595
 141   2.0000      -0.722071       -19.6485
 142   2.0000      -0.719760       -19.5857
 143   2.0000      -0.718239       -19.5443
 144   2.0000      -0.713831       -19.4243
 145   2.0000      -0.700878       -19.0719
 146   2.0000      -0.692551       -18.8453
 147   2.0000      -0.686402       -18.6779
 148   2.0000      -0.677124       -18.4255
 149   2.0000      -0.674738       -18.3606
 150   2.0000      -0.673552       -18.3283
 151   2.0000      -0.673277       -18.3208
 152   2.0000      -0.671648       -18.2765
 153   2.0000      -0.669388       -18.2150
 154   2.0000      -0.666013       -18.1231
 155   2.0000      -0.663469       -18.0539
 156   2.0000      -0.656500       -17.8643
 157   2.0000      -0.637217       -17.3396
 158   2.0000      -0.636639       -17.3238
 159   2.0000      -0.629823       -17.1384
 160   2.0000      -0.625107       -17.0100
 161   2.0000      -0.616941       -16.7878
 162   2.0000      -0.606773       -16.5111
 163   2.0000      -0.600311       -16.3353
 164   2.0000      -0.595024       -16.1914
 165   2.0000      -0.594959       -16.1897
 166   2.0000      -0.592838       -16.1319
 167   2.0000      -0.591160       -16.0863
 168   2.0000      -0.587966       -15.9994
 169   2.0000      -0.586746       -15.9662
 170   2.0000      -0.579838       -15.7782
 171   2.0000      -0.579455       -15.7678
 172   2.0000      -0.574776       -15.6404
 173   2.0000      -0.573407       -15.6032
 174   2.0000      -0.566834       -15.4243
 175   2.0000      -0.555067       -15.1041
 176   2.0000      -0.553113       -15.0510
 177   2.0000      -0.552933       -15.0461
 178   2.0000      -0.549954       -14.9650
 179   2.0000      -0.546983       -14.8842
 180   2.0000      -0.545314       -14.8388
 181   2.0000      -0.543635       -14.7931
 182   2.0000      -0.543431       -14.7875
 183   2.0000      -0.541123       -14.7247
 184   2.0000      -0.531415       -14.4605
 185   2.0000      -0.528706       -14.3868
 186   2.0000      -0.524918       -14.2837
 187   2.0000      -0.521738       -14.1972
 188   2.0000      -0.521445       -14.1892
 189   2.0000      -0.518576       -14.1112
 190   2.0000      -0.515228       -14.0201
 191   2.0000      -0.513661       -13.9774
 192   2.0000      -0.513194       -13.9647
 193   2.0000      -0.512574       -13.9478
 194   2.0000      -0.509611       -13.8672
 195   2.0000      -0.506937       -13.7945
 196   2.0000      -0.504644       -13.7321
 197   2.0000      -0.502877       -13.6840
 198   2.0000      -0.499264       -13.5857
 199   2.0000      -0.497132       -13.5276
 200   2.0000      -0.491008       -13.3610
 201   2.0000      -0.489089       -13.3088
 202   2.0000      -0.485810       -13.2196
 203   2.0000      -0.484654       -13.1881
 204   2.0000      -0.475537       -12.9400
 205   2.0000      -0.473822       -12.8933
 206   2.0000      -0.469598       -12.7784
 207   2.0000      -0.466088       -12.6829
 208   2.0000      -0.465586       -12.6692
 209   2.0000      -0.465240       -12.6598
 210   2.0000      -0.462219       -12.5776
 211   2.0000      -0.461157       -12.5487
 212   2.0000      -0.460042       -12.5184
 213   2.0000      -0.458985       -12.4896
 214   2.0000      -0.457743       -12.4558
 215   2.0000      -0.456800       -12.4302
 216   2.0000      -0.454964       -12.3802
 217   2.0000      -0.454510       -12.3678
 218   2.0000      -0.452707       -12.3188
 219   2.0000      -0.451708       -12.2916
 220   2.0000      -0.450852       -12.2683
 221   2.0000      -0.445514       -12.1230
 222   2.0000      -0.444697       -12.1008
 223   2.0000      -0.443742       -12.0748
 224   2.0000      -0.440649       -11.9907
 225   2.0000      -0.439984       -11.9726
 226   2.0000      -0.437969       -11.9177
 227   2.0000      -0.437425       -11.9029
 228   2.0000      -0.436544       -11.8790
 229   2.0000      -0.435839       -11.8598
 230   2.0000      -0.435399       -11.8478
 231   2.0000      -0.434805       -11.8316
 232   2.0000      -0.432554       -11.7704
 233   2.0000      -0.426763       -11.6128
 234   2.0000      -0.423279       -11.5180
 235   2.0000      -0.422234       -11.4896
 236   2.0000      -0.421077       -11.4581
 237   2.0000      -0.419938       -11.4271
 238   2.0000      -0.418324       -11.3832
 239   2.0000      -0.417958       -11.3732
 240   2.0000      -0.406148       -11.0518
 241   2.0000      -0.403670       -10.9844
 242   2.0000      -0.400409       -10.8957
 243   2.0000      -0.396077       -10.7778
 244   2.0000      -0.391704       -10.6588
 245   2.0000      -0.390295       -10.6205
 246   2.0000      -0.385537       -10.4910
 247   2.0000      -0.379543       -10.3279
 248   2.0000      -0.377926       -10.2839
 249   2.0000      -0.376284       -10.2392
 250   2.0000      -0.367702       -10.0057
 251   2.0000      -0.349598        -9.5131
 252   2.0000      -0.341131        -9.2826
 253   2.0000      -0.338891        -9.2217
 254   2.0000      -0.337455        -9.1826
 255   2.0000      -0.332659        -9.0521
 256   2.0000      -0.319142        -8.6843
 257   2.0000      -0.316869        -8.6224
 258   2.0000      -0.309335        -8.4174
 259   2.0000      -0.306658        -8.3446
 260   2.0000      -0.303812        -8.2672
 261   2.0000      -0.260244        -7.0816
 262   0.0000      -0.125418        -3.4128
 263   0.0000      -0.111517        -3.0345
 264   0.0000      -0.092443        -2.5155
 265   0.0000      -0.091503        -2.4899
 266   0.0000      -0.075654        -2.0586

MULLIKEN ATOMIC CHARGES
-----------------------
   0 C :   -0.029923
   1 C :    0.046642
   2 C :    0.050672
   3 C :   -0.026114
   4 C :    0.010185
   5 C :    0.014508
   6 C :    0.272277
   7 C :   -0.326542
   8 C :   -0.187487
   9 N :    0.165227
  10 C :   -0.189308
  11 N :    0.175740
  12 C :   -0.040266
  13 C :    0.264866
  14 C :   -0.295598
  15 C :   -0.160152
  16 N :    0.152671
  17 C :   -0.198557
  18 N :    0.167276
  19 C :    0.026409
  20 C :   -0.131585
  21 N :   -0.045212
  22 N :   -0.039308
  23 C :   -0.076450
  24 C :    0.040957
  25 C :    0.102228
  26 N :   -0.242411
  27 S :    0.556249
  28 N :   -0.227145
  29 C :   -0.204241
  30 S :    0.257151
  31 C :   -0.145659
  32 C :    0.075314
  33 C :    0.181760
  34 C :   -0.134835
  35 C :    0.518887
  36 F :   -0.154017
  37 F :   -0.176648
  38 F :   -0.166829
  39 C :    0.013669
  40 C :   -0.107528
  41 C :    0.195840
  42 O :   -0.296762
  43 C :    0.171932
  44 C :    0.064637
  45 C :    0.019710
  46 C :   -0.021510
  47 N :   -0.065606
  48 N :   -0.012245
  49 C :   -0.091753
  50 C :    0.051731
  51 C :    0.060433
  52 N :   -0.259113
  53 S :    0.557097
  54 N :   -0.273463
  55 C :    0.028406
  56 C :   -0.036188
  57 C :    0.277776
  58 C :   -0.333257
  59 C :   -0.187209
  60 N :    0.179954
  61 C :   -0.188636
  62 N :    0.164965
  63 C :    0.012597
  64 C :    0.010240
  65 C :   -0.036952
  66 C :    0.050295
  67 C :    0.049592
  68 C :   -0.033480
  69 C :    0.282531
  70 C :   -0.318567
  71 C :   -0.203454
  72 N :    0.171368
  73 C :   -0.201310
  74 N :    0.180825
  75 H :    0.007466
  76 H :    0.008255
  77 H :    0.008640
  78 H :    0.011360
  79 H :    0.040699
  80 H :    0.005281
  81 H :   -0.019839
  82 H :    0.054718
  83 H :    0.034755
  84 H :    0.036468
  85 H :    0.014104
  86 H :   -0.016902
  87 H :    0.031867
  88 H :    0.005449
  89 H :    0.006900
  90 H :    0.006219
  91 H :    0.007260
Sum of atomic charges:   -0.0000000

LOEWDIN ATOMIC CHARGES
----------------------
   0 C :    0.006496
   1 C :    0.004843
   2 C :    0.008694
   3 C :    0.006617
   4 C :   -0.005526
   5 C :   -0.012681
   6 C :    0.076918
   7 C :   -0.120278
   8 C :   -0.018351
   9 N :   -0.037823
  10 C :   -0.024716
  11 N :   -0.030498
  12 C :   -0.013491
  13 C :    0.081360
  14 C :   -0.110631
  15 C :   -0.012290
  16 N :   -0.053396
  17 C :   -0.017574
  18 N :   -0.040350
  19 C :    0.055643
  20 C :   -0.025317
  21 N :   -0.033586
  22 N :   -0.057740
  23 C :   -0.016577
  24 C :   -0.062546
  25 C :   -0.051243
  26 N :   -0.265773
  27 S :    0.696681
  28 N :   -0.260557
  29 C :   -0.191724
  30 S :    0.561841
  31 C :   -0.157826
  32 C :   -0.053296
  33 C :   -0.014893
  34 C :   -0.104205
  35 C :    0.172305
  36 F :   -0.046069
  37 F :   -0.074956
  38 F :   -0.063341
  39 C :    0.026074
  40 C :   -0.091141
  41 C :    0.080163
  42 O :   -0.069237
  43 C :    0.083720
  44 C :   -0.010220
  45 C :   -0.017079
  46 C :    0.017983
  47 N :   -0.054695
  48 N :   -0.008344
  49 C :   -0.039031
  50 C :   -0.057195
  51 C :   -0.048646
  52 N :   -0.261532
  53 S :    0.680755
  54 N :   -0.275730
  55 C :    0.058677
  56 C :   -0.033123
  57 C :    0.077586
  58 C :   -0.120388
  59 C :   -0.026359
  60 N :   -0.027376
  61 C :   -0.017689
  62 N :   -0.039513
  63 C :   -0.012807
  64 C :   -0.006446
  65 C :    0.002588
  66 C :    0.006458
  67 C :    0.003772
  68 C :    0.006155
  69 C :    0.077521
  70 C :   -0.123982
  71 C :   -0.020828
  72 N :   -0.042760
  73 C :   -0.023161
  74 N :   -0.038252
  75 H :    0.042079
  76 H :    0.039131
  77 H :    0.039379
  78 H :    0.042982
  79 H :    0.053568
  80 H :    0.038977
  81 H :    0.032754
  82 H :    0.036374
  83 H :    0.020911
  84 H :    0.021963
  85 H :    0.031389
  86 H :    0.034403
  87 H :    0.055893
  88 H :    0.040981
  89 H :    0.038614
  90 H :    0.038585
  91 H :    0.041955

  Mayer bond orders larger than 0.100000
B(  0-C ,  1-C ) :   1.3789 B(  0-C ,  5-C ) :   1.3761 B(  0-C , 75-H ) :   0.9848
B(  1-C ,  2-C ) :   1.3694 B(  1-C , 76-H ) :   0.9864 B(  2-C ,  3-C ) :   1.3726
B(  2-C , 77-H ) :   0.9860 B(  3-C ,  4-C ) :   1.3798 B(  3-C , 78-H ) :   0.9863
B(  4-C ,  5-C ) :   1.3012 B(  4-C , 13-C ) :   1.0160 B(  5-C ,  6-C ) :   1.0122
B(  6-C ,  7-C ) :   1.6759 B(  6-C , 12-C ) :   1.0128 B(  7-C ,  8-C ) :   1.1406
B(  7-C , 10-C ) :   1.1304 B(  8-C ,  9-N ) :   2.9847 B( 10-C , 11-N ) :   2.9964
B( 12-C , 13-C ) :   0.9795 B( 12-C , 19-C ) :   1.7336 B( 13-C , 14-C ) :   1.7025
B( 14-C , 15-C ) :   1.1482 B( 14-C , 17-C ) :   1.1426 B( 15-C , 16-N ) :   2.9691
B( 17-C , 18-N ) :   2.9991 B( 19-C , 20-C ) :   1.0718 B( 19-C , 79-H ) :   0.9351
B( 20-C , 21-N ) :   1.6403 B( 20-C , 23-C ) :   0.1137 B( 20-C , 25-C ) :   1.1075
B( 21-N , 22-N ) :   1.2254 B( 22-N , 23-C ) :   1.6979 B( 23-C , 24-C ) :   1.1353
B( 23-C , 29-C ) :   1.0645 B( 24-C , 25-C ) :   1.2143 B( 24-C , 28-N ) :   1.5506
B( 25-C , 26-N ) :   1.5601 B( 26-N , 27-S ) :   1.2884 B( 26-N , 28-N ) :   0.1447
B( 27-S , 28-N ) :   1.2940 B( 29-C , 30-S ) :   1.2039 B( 29-C , 31-C ) :   0.1214
B( 29-C , 33-C ) :   1.3973 B( 30-S , 31-C ) :   1.1951 B( 31-C , 32-C ) :   1.3147
B( 31-C , 44-C ) :   1.1343 B( 32-C , 33-C ) :   1.2428 B( 32-C , 41-C ) :   1.1860
B( 33-C , 34-C ) :   1.2130 B( 34-C , 35-C ) :   0.9656 B( 34-C , 39-C ) :   1.5282
B( 35-C , 36-F ) :   1.1309 B( 35-C , 37-F ) :   1.1422 B( 35-C , 38-F ) :   1.1558
B( 39-C , 40-C ) :   1.2160 B( 39-C , 80-H ) :   0.9875 B( 40-C , 41-C ) :   1.4201
B( 40-C , 81-H ) :   0.9934 B( 41-C , 42-O ) :   1.2178 B( 42-O , 43-C ) :   0.9350
B( 43-C , 82-H ) :   0.9763 B( 43-C , 83-H ) :   0.9710 B( 43-C , 84-H ) :   0.9700
B( 44-C , 45-C ) :   1.6104 B( 44-C , 85-H ) :   0.9216 B( 45-C , 46-C ) :   1.1995
B( 45-C , 86-H ) :   0.9538 B( 46-C , 47-N ) :   1.5780 B( 46-C , 49-C ) :   0.1105
B( 46-C , 51-C ) :   1.0866 B( 47-N , 48-N ) :   1.2623 B( 48-N , 49-C ) :   1.6405
B( 49-C , 50-C ) :   1.1062 B( 49-C , 55-C ) :   1.1127 B( 50-C , 51-C ) :   1.2030
B( 50-C , 54-N ) :   1.5218 B( 51-C , 52-N ) :   1.5242 B( 52-N , 53-S ) :   1.2797
B( 52-N , 54-N ) :   0.1392 B( 53-S , 54-N ) :   1.2659 B( 55-C , 56-C ) :   1.6667
B( 55-C , 87-H ) :   0.9252 B( 56-C , 57-C ) :   1.0264 B( 56-C , 69-C ) :   1.0017
B( 57-C , 58-C ) :   1.6682 B( 57-C , 63-C ) :   1.0044 B( 58-C , 59-C ) :   1.1283
B( 58-C , 61-C ) :   1.1441 B( 59-C , 60-N ) :   2.9920 B( 61-C , 62-N ) :   2.9818
B( 63-C , 64-C ) :   1.3070 B( 63-C , 68-C ) :   1.3766 B( 64-C , 65-C ) :   1.3783
B( 64-C , 69-C ) :   1.0188 B( 65-C , 66-C ) :   1.3685 B( 65-C , 88-H ) :   0.9875
B( 66-C , 67-C ) :   1.3744 B( 66-C , 89-H ) :   0.9857 B( 67-C , 68-C ) :   1.3753
B( 67-C , 90-H ) :   0.9855 B( 68-C , 91-H ) :   0.9845 B( 69-C , 70-C ) :   1.6611
B( 70-C , 71-C ) :   1.1495 B( 70-C , 73-C ) :   1.1548 B( 71-C , 72-N ) :   2.9967
B( 73-C , 74-N ) :   2.9826

-----------------------------------------------------------------------------
         ABSORPTION SPECTRUM VIA TRANSITION ELECTRIC DIPOLE MOMENTS
-----------------------------------------------------------------------------
State   Energy  Wavelength   fosc         T2         TX        TY        TZ
        (cm-1)    (nm)                  (au**2)     (au)      (au)      (au)
-----------------------------------------------------------------------------
   0   14193.0    704.6   0.986715797  22.88721  -4.12689   1.31538   2.03120
   1   15591.1    641.4   0.000543587   0.01148  -0.06864   0.07965  -0.02057
   2   17168.3    582.5   0.135831037   2.60464  -1.28640  -0.41778  -0.88050
   3   18086.1    552.9   0.046740967   0.85080  -0.34487  -0.32195  -0.79260
   4   22746.9    439.6   0.012031310   0.17413  -0.11676   0.37710  -0.13525
   5   24304.9    411.4   0.028409389   0.38481  -0.53192  -0.22757   0.22379
   6   24402.2    409.8   0.112908677   1.52326   0.36833  -0.48507  -1.07345
   7   24577.0    406.9   0.054114832   0.72488  -0.57935   0.40202   0.47708
   8   25543.0    391.5   0.264850215   3.41354  -1.76890   0.22685   0.48278
   9   26064.7    383.7   0.050417416   0.63680  -0.76815   0.21478  -0.02497
  10   26587.4    376.1   0.014481917   0.17932  -0.00844  -0.29063   0.30787
  11   27090.8    369.1   0.023663252   0.28756   0.07191   0.07472   0.52612
  12   27699.1    361.0   0.199278969   2.36849  -1.10890   0.38374   0.99577
  13   28309.2    353.2   0.004888797   0.05685   0.05256  -0.18957   0.13473
  14   28380.6    352.4   0.119766717   1.38928  -1.16033  -0.08219  -0.19018
  15   28990.5    344.9   0.106601164   1.21055  -0.67581  -0.01062   0.86817
  16   29285.1    341.5   0.014800490   0.16638   0.28202  -0.03119   0.29304
  17   29546.7    338.4   0.044889982   0.50017   0.12940   0.15713   0.67730
  18   29718.8    336.5   0.016546872   0.18330  -0.17026   0.05347   0.38917
  19   30243.1    330.7   0.044532781   0.48476   0.19887   0.08275   0.66209
  20   30480.1    328.1   0.017778951   0.19203  -0.18136  -0.20396  -0.34284
  21   30648.2    326.3   0.190162392   2.04266   0.24212  -0.16286  -1.39911
  22   30769.4    325.0   0.229868297   2.45943  -0.96525   0.32047   1.19375
  23   31105.5    321.5   0.036576442   0.38711  -0.11006  -0.14659  -0.59457
  24   32022.2    312.3   0.043517654   0.44739   0.03926   0.03136   0.66698
  25   32084.2    311.7   0.004542868   0.04661  -0.17939   0.07895   0.09056
  26   32237.7    310.2   0.688577179   7.03176  -1.71631   0.44783   1.97116
  27   32739.9    305.4   0.057921116   0.58242  -0.59148  -0.04191  -0.48043
  28   33241.7    300.8   0.006269074   0.06209  -0.02692   0.00674  -0.24762
  29   33404.4    299.4   0.052755240   0.51992  -0.17232  -0.01574   0.69999
  30   33744.7    296.3   0.094306571   0.92005   0.04496   0.14227  -0.94752
  31   34284.6    291.7   0.210237927   2.01877  -1.35365   0.11950   0.41487
  32   34611.0    288.9   0.002271882   0.02161  -0.02727   0.09932   0.10489
  33   34871.7    286.8   0.031011615   0.29277  -0.00557   0.20033   0.50260
  34   35111.0    284.8   0.023270622   0.21819   0.05517  -0.42896  -0.17647
  35   35393.3    282.5   0.046025507   0.42811   0.58449   0.21652  -0.19899
  36   35461.6    282.0   0.000943626   0.00876  -0.07328   0.00198  -0.05819
  37   35914.3    278.4   0.227691913   2.08716  -1.03396  -0.99065   0.19158
  38   35998.8    277.8   0.171178421   1.56544   0.37634  -0.31386   1.15122
  39   36139.5    276.7   0.297422476   2.70936  -1.00734   0.31259  -1.26369
  40   36367.5    275.0   0.137411235   1.24390   0.76352  -0.19679   0.78881
  41   36894.9    271.0   0.030955820   0.27622  -0.01151   0.05145   0.52291
  42   37336.8    267.8   0.106971995   0.94321  -0.90752   0.30612  -0.16098
  43   37629.4    265.7   0.122379841   1.07068   0.78372   0.24233   0.63066
  44   37813.0    264.5   0.102176669   0.88958   0.37510   0.66131  -0.55817
  45   38079.1    262.6   0.030645187   0.26494  -0.17685  -0.06146  -0.47947
  46   38356.7    260.7   0.007285448   0.06253  -0.15693  -0.07663  -0.17897
  47   38443.3    260.1   0.011723874   0.10040  -0.11643  -0.24298   0.16674
  48   38489.5    259.8   0.013931295   0.11916   0.27006  -0.18094  -0.11614
  49   38983.1    256.5   0.031442348   0.26553  -0.34597   0.06092  -0.37699
  50   39014.9    256.3   0.027580228   0.23273  -0.07078  -0.36189  -0.31105
  51   39065.7    256.0   0.017484208   0.14734  -0.33562  -0.18628  -0.00082
  52   39188.5    255.2   0.024267993   0.20387   0.26428  -0.25763   0.26010
  53   39368.5    254.0   0.030644773   0.25626  -0.12435  -0.18463   0.45465
  54   39845.9    251.0   0.000069744   0.00058   0.01647   0.01474  -0.00937
  55   40028.0    249.8   0.043560175   0.35826   0.51258  -0.29698  -0.08558
  56   40165.4    249.0   0.025453202   0.20862   0.18142   0.30419  -0.28841
  57   40250.0    248.4   0.074522616   0.60953   0.24261  -0.04538   0.74069

FINAL SINGLE POINT ENERGY     -4432.407169046946

DIPOLE MOMENT
-------------
                                X             Y             Z
Electronic contribution:    -33.49003       4.73770       3.92886
Nuclear contribution   :     34.27175      -3.26561      -3.93134
                        -----------------------------------------
Total Dipole Moment    :      0.78172       1.47208      -0.00248
                        -----------------------------------------
Magnitude (a.u.)       :      1.66677
Magnitude (Debye)      :      4.23659

Rotational constants in cm-1:     0.001545     0.000330     0.000283
Rotational constants in MHz :    46.322956     9.898360     8.480017

                             ****ORCA TERMINATED NORMALLY****
TOTAL RUN TIME: 0 days 0 hours 10 minutes 4 seconds 787 msec
