                         Program Version 4.2.0 -  RELEASE  -
|  1> # ORCA input file
|  2> # SCF done       -180.016412520161          0.000657573213
|  3> ! CAM-B3LYP def2-SVP def2/J RIJCOSX Grid4 TightSCF
|  4> %maxcore 5000
|  5> %tddft
|  6>     Mode sTDDFT
|  7>     Ethresh 5.0
|  8>     maxcore 5000
|  9> end
| 10>
| 11> %pal
| 12>   nprocs 6
| 13>   end
| 14> * xyz 0 1
| 15>    C       -7.86294        -1.25219         2.41870
| 16>    C       -7.05917        -1.29036         3.53089
| 17>    C       -7.16333        -2.26461         4.54600
| 18>    N       -7.19016        -3.02492         5.40608
| 19>    C       -6.00794        -0.40266         3.84013
| 20>    N       -5.13305         0.26158         4.17797
| 21>    C       -8.91956        -2.21691         2.12806
| 22>    C       -9.47943        -1.90101         0.86721
| 23>    C      -10.50315        -2.62315         0.30353
| 24>    C      -11.00498        -3.71156         1.02415
| 25>    C      -10.44310        -4.01921         2.28568
| 26>    C       -9.40442        -3.28931         2.85229
| 27>    S      -11.21458        -5.39734         3.00939
| 28>    C      -12.26683        -5.53959         1.62619
| 29>    C      -12.05309        -4.60456         0.67024
| 30>   Br      -13.54916        -6.90740         1.57566
| 31>    C       -8.80437        -0.71548         0.31697
| 32>    O       -9.05605        -0.21429        -0.77117
| 33>    C       -7.81798        -0.29828         1.32386
| 34>    C       -7.00301         0.81335         1.31095
| 35>    C       -6.84586         1.83322         0.36508
| 36>    N       -7.48393         1.92050        -0.85171
| 37>    C       -7.08597         3.05530        -1.45835
| 38>    C       -7.24879         3.82834        -2.60197
| 39>    C       -6.43116         4.95473        -2.43030
| 40>    N       -5.77691         4.87180        -1.21789
| 41>    C       -6.15363         3.72178        -0.59977
| 42>    C       -5.99748         2.95674         0.53721
| 43>    C       -6.25364         6.07981        -3.27091
| 44>    C       -6.81006         6.23842        -4.49699
| 45>    C       -6.63370         7.42732        -5.26466
| 46>    N       -5.95797         8.45366        -4.76686
| 47>    N       -5.80306         9.58275        -5.39346
| 48>    C       -6.28897         9.83033        -6.60021
| 49>    C       -7.01114         8.79972        -7.27526
| 50>    C       -7.19439         7.55785        -6.57440
| 51>    N       -7.88583         6.76195        -7.36160
| 52>    O       -8.11747         7.45564        -8.47482
| 53>    N       -7.60178         8.68433        -8.44548
| 54>    C       -6.08640        11.12335        -7.15222
| 55>    C       -6.47989        11.59816        -8.39065
| 56>    C       -6.12465        12.93474        -8.55643
| 57>    C       -5.46276        13.46665        -7.42929
| 58>    S       -5.26667        12.32643        -6.17717
| 59>    C       -5.16789        14.82905        -7.68697
| 60>    C       -5.63455        15.15826        -8.97026
| 61>    C       -6.24670        13.97674        -9.56167
| 62>    C       -6.81383        13.87933       -10.79784
| 63>    C       -7.38646        12.68269       -11.27992
| 64>    N       -7.85499        11.71956       -11.68778
| 65>    C       -6.86464        14.97577       -11.68465
| 66>    N       -6.90506        15.86871       -12.40289
| 67>    C       -5.40533        16.49177        -9.30709
| 68>    C       -4.77256        17.17994        -8.28762
| 69>    S       -4.44759        16.16065        -6.89427
| 70>    C       -4.40534        18.55008        -8.26956
| 71>    C       -3.81370        19.25263        -7.23658
| 72>    C       -3.61401        20.59370        -7.56689
| 73>    C       -4.05436        20.90934        -8.85948
| 74>    S       -4.71557        19.56297        -9.67245
| 75>    C       -3.81075        22.29309        -9.09386
| 76>    C       -3.22051        22.84298        -7.94966
| 77>    C       -3.07578        21.80073        -6.95026
| 78>    C       -2.55409        21.91752        -5.69538
| 79>    C       -2.47487        20.82019        -4.81229
| 80>    N       -2.41278        19.92868        -4.09381
| 81>    C       -2.06204        23.14182        -5.19598
| 82>    N       -1.66151        24.13447        -4.78506
| 83>    C       -2.94717        24.21658        -8.09400
| 84>    C       -3.32787        24.67055        -9.32032
| 85>    S       -4.02635        23.44885       -10.33062
| 86>    H      -10.90568        -2.35514        -0.66076
| 87>    H       -9.01524        -3.56594         3.81738
| 88>    H      -12.61091        -4.54494        -0.24640
| 89>    H       -6.37850         0.95621         2.18231
| 90>    H       -8.15791         1.21507        -1.15730
| 91>    H       -7.87505         3.63037        -3.44704
| 92>    H       -5.13031         5.56019        -0.87253
| 93>    H       -5.38142         3.13755         1.39498
| 94>    H       -5.63266         6.88511        -2.90046
| 95>    H       -7.42042         5.47081        -4.94765
| 96>    H       -6.99658        10.98446        -9.10677
| 97>    H       -5.68265        16.95435       -10.23725
| 98>    H       -3.55143        18.79771        -6.29826
| 99>    H       -2.49696        24.83683        -7.34080
|100>    H       -3.24248        25.66627        -9.70700
|101> *
|102>
|103>                          ****END OF INPUT****

CARTESIAN COORDINATES (ANGSTROEM)
---------------------------------
  C     -7.862940   -1.252190    2.418700
  C     -7.059170   -1.290360    3.530890
  C     -7.163330   -2.264610    4.546000
  N     -7.190160   -3.024920    5.406080
  C     -6.007940   -0.402660    3.840130
  N     -5.133050    0.261580    4.177970
  C     -8.919560   -2.216910    2.128060
  C     -9.479430   -1.901010    0.867210
  C    -10.503150   -2.623150    0.303530
  C    -11.004980   -3.711560    1.024150
  C    -10.443100   -4.019210    2.285680
  C     -9.404420   -3.289310    2.852290
  S    -11.214580   -5.397340    3.009390
  C    -12.266830   -5.539590    1.626190
  C    -12.053090   -4.604560    0.670240
  Br   -13.549160   -6.907400    1.575660
  C     -8.804370   -0.715480    0.316970
  O     -9.056050   -0.214290   -0.771170
  C     -7.817980   -0.298280    1.323860
  C     -7.003010    0.813350    1.310950
  C     -6.845860    1.833220    0.365080
  N     -7.483930    1.920500   -0.851710
  C     -7.085970    3.055300   -1.458350
  C     -7.248790    3.828340   -2.601970
  C     -6.431160    4.954730   -2.430300
  N     -5.776910    4.871800   -1.217890
  C     -6.153630    3.721780   -0.599770
  C     -5.997480    2.956740    0.537210
  C     -6.253640    6.079810   -3.270910
  C     -6.810060    6.238420   -4.496990
  C     -6.633700    7.427320   -5.264660
  N     -5.957970    8.453660   -4.766860
  N     -5.803060    9.582750   -5.393460
  C     -6.288970    9.830330   -6.600210
  C     -7.011140    8.799720   -7.275260
  C     -7.194390    7.557850   -6.574400
  N     -7.885830    6.761950   -7.361600
  O     -8.117470    7.455640   -8.474820
  N     -7.601780    8.684330   -8.445480
  C     -6.086400   11.123350   -7.152220
  C     -6.479890   11.598160   -8.390650
  C     -6.124650   12.934740   -8.556430
  C     -5.462760   13.466650   -7.429290
  S     -5.266670   12.326430   -6.177170
  C     -5.167890   14.829050   -7.686970
  C     -5.634550   15.158260   -8.970260
  C     -6.246700   13.976740   -9.561670
  C     -6.813830   13.879330  -10.797840
  C     -7.386460   12.682690  -11.279920
  N     -7.854990   11.719560  -11.687780
  C     -6.864640   14.975770  -11.684650
  N     -6.905060   15.868710  -12.402890
  C     -5.405330   16.491770   -9.307090
  C     -4.772560   17.179940   -8.287620
  S     -4.447590   16.160650   -6.894270
  C     -4.405340   18.550080   -8.269560
  C     -3.813700   19.252630   -7.236580
  C     -3.614010   20.593700   -7.566890
  C     -4.054360   20.909340   -8.859480
  S     -4.715570   19.562970   -9.672450
  C     -3.810750   22.293090   -9.093860
  C     -3.220510   22.842980   -7.949660
  C     -3.075780   21.800730   -6.950260
  C     -2.554090   21.917520   -5.695380
  C     -2.474870   20.820190   -4.812290
  N     -2.412780   19.928680   -4.093810
  C     -2.062040   23.141820   -5.195980
  N     -1.661510   24.134470   -4.785060
  C     -2.947170   24.216580   -8.094000
  C     -3.327870   24.670550   -9.320320
  S     -4.026350   23.448850  -10.330620
  H    -10.905680   -2.355140   -0.660760
  H     -9.015240   -3.565940    3.817380
  H    -12.610910   -4.544940   -0.246400
  H     -6.378500    0.956210    2.182310
  H     -8.157910    1.215070   -1.157300
  H     -7.875050    3.630370   -3.447040
  H     -5.130310    5.560190   -0.872530
  H     -5.381420    3.137550    1.394980
  H     -5.632660    6.885110   -2.900460
  H     -7.420420    5.470810   -4.947650
  H     -6.996580   10.984460   -9.106770
  H     -5.682650   16.954350  -10.237250
  H     -3.551430   18.797710   -6.298260
  H     -2.496960   24.836830   -7.340800
  H     -3.242480   25.666270   -9.707000

 Total Charge           Charge          ....    0
 Multiplicity           Mult            ....    1
 Number of Electrons    NEL             ....  536
 Basis Dimension        Dim             .... 1107

ORBITAL ENERGIES
----------------

  NO   OCC          E(Eh)            E(eV)
   0   2.0000    -482.884854    -13139.9649
   1   2.0000     -88.996528     -2421.7187
   2   2.0000     -88.995767     -2421.6979
   3   2.0000     -88.992596     -2421.6117
   4   2.0000     -88.990928     -2421.5663
   5   2.0000     -88.974392     -2421.1163
   6   2.0000     -62.562545     -1702.4134
   7   2.0000     -56.396492     -1534.6266
   8   2.0000     -56.393782     -1534.5528
   9   2.0000     -56.393748     -1534.5519
  10   2.0000     -19.379553      -527.3444
  11   2.0000     -19.224774      -523.1327
  12   2.0000     -14.506589      -394.7444
  13   2.0000     -14.506351      -394.7379
  14   2.0000     -14.476390      -393.9226
  15   2.0000     -14.456692      -393.3866
  16   2.0000     -14.455556      -393.3557
  17   2.0000     -14.453198      -393.2915
  18   2.0000     -14.434293      -392.7771
  19   2.0000     -14.433206      -392.7475
  20   2.0000     -14.431864      -392.7110
  21   2.0000     -14.431602      -392.7038
  22   2.0000     -14.412819      -392.1927
  23   2.0000     -14.409339      -392.0981
  24   2.0000     -10.373463      -282.2763
  25   2.0000     -10.368432      -282.1394
  26   2.0000     -10.366733      -282.0932
  27   2.0000     -10.357749      -281.8487
  28   2.0000     -10.355696      -281.7928
  29   2.0000     -10.354980      -281.7733
  30   2.0000     -10.354441      -281.7587
  31   2.0000     -10.349356      -281.6203
  32   2.0000     -10.347742      -281.5764
  33   2.0000     -10.347067      -281.5580
  34   2.0000     -10.339164      -281.3430
  35   2.0000     -10.337782      -281.3054
  36   2.0000     -10.337503      -281.2977
  37   2.0000     -10.336006      -281.2570
  38   2.0000     -10.335760      -281.2503
  39   2.0000     -10.335598      -281.2459
  40   2.0000     -10.334649      -281.2201
  41   2.0000     -10.333889      -281.1994
  42   2.0000     -10.333674      -281.1936
  43   2.0000     -10.332731      -281.1679
  44   2.0000     -10.332124      -281.1514
  45   2.0000     -10.332101      -281.1508
  46   2.0000     -10.331232      -281.1271
  47   2.0000     -10.324750      -280.9507
  48   2.0000     -10.324059      -280.9319
  49   2.0000     -10.321312      -280.8572
  50   2.0000     -10.317125      -280.7433
  51   2.0000     -10.316768      -280.7335
  52   2.0000     -10.316400      -280.7235
  53   2.0000     -10.314697      -280.6772
  54   2.0000     -10.313932      -280.6564
  55   2.0000     -10.313200      -280.6364
  56   2.0000     -10.311017      -280.5770
  57   2.0000     -10.308391      -280.5056
  58   2.0000     -10.307548      -280.4827
  59   2.0000     -10.307495      -280.4812
  60   2.0000     -10.306598      -280.4568
  61   2.0000     -10.306062      -280.4422
  62   2.0000     -10.305999      -280.4405
  63   2.0000     -10.305885      -280.4374
  64   2.0000     -10.305417      -280.4246
  65   2.0000     -10.303300      -280.3670
  66   2.0000     -10.302729      -280.3515
  67   2.0000     -10.300600      -280.2936
  68   2.0000     -10.300423      -280.2888
  69   2.0000     -10.295877      -280.1651
  70   2.0000     -10.295805      -280.1631
  71   2.0000     -10.293975      -280.1133
  72   2.0000     -10.291306      -280.0407
  73   2.0000     -10.290213      -280.0109
  74   2.0000     -10.282307      -279.7958
  75   2.0000      -8.791974      -239.2418
  76   2.0000      -8.090927      -220.1653
  77   2.0000      -8.090183      -220.1451
  78   2.0000      -8.086374      -220.0414
  79   2.0000      -8.085875      -220.0278
  80   2.0000      -8.070425      -219.6074
  81   2.0000      -6.628233      -180.3634
  82   2.0000      -6.613720      -179.9685
  83   2.0000      -6.613529      -179.9633
  84   2.0000      -6.060241      -164.9075
  85   2.0000      -6.059478      -164.8868
  86   2.0000      -6.056051      -164.7935
  87   2.0000      -6.055647      -164.7825
  88   2.0000      -6.055296      -164.7730
  89   2.0000      -6.055135      -164.7686
  90   2.0000      -6.053183      -164.7155
  91   2.0000      -6.052475      -164.6962
  92   2.0000      -6.051309      -164.6645
  93   2.0000      -6.050664      -164.6469
  94   2.0000      -6.048923      -164.5996
  95   2.0000      -6.048515      -164.5885
  96   2.0000      -6.040108      -164.3597
  97   2.0000      -6.035826      -164.2432
  98   2.0000      -6.031650      -164.1295
  99   2.0000      -2.744155       -74.6723
 100   2.0000      -2.740014       -74.5596
 101   2.0000      -2.739884       -74.5560
 102   2.0000      -2.728329       -74.2416
 103   2.0000      -2.728326       -74.2415
 104   2.0000      -1.331885       -36.2424
 105   2.0000      -1.137950       -30.9652
 106   2.0000      -1.135609       -30.9015
 107   2.0000      -1.106193       -30.1010
 108   2.0000      -1.067206       -29.0402
 109   2.0000      -1.050387       -28.5825
 110   2.0000      -1.046240       -28.4696
 111   2.0000      -1.036764       -28.2118
 112   2.0000      -1.025532       -27.9061
 113   2.0000      -1.024141       -27.8683
 114   2.0000      -1.021021       -27.7834
 115   2.0000      -1.011134       -27.5144
 116   2.0000      -1.010654       -27.5013
 117   2.0000      -1.010181       -27.4884
 118   2.0000      -1.008524       -27.4433
 119   2.0000      -0.997122       -27.1331
 120   2.0000      -0.993569       -27.0364
 121   2.0000      -0.990388       -26.9498
 122   2.0000      -0.987320       -26.8664
 123   2.0000      -0.971447       -26.4344
 124   2.0000      -0.958861       -26.0919
 125   2.0000      -0.954047       -25.9609
 126   2.0000      -0.941161       -25.6103
 127   2.0000      -0.922565       -25.1043
 128   2.0000      -0.912236       -24.8232
 129   2.0000      -0.907096       -24.6833
 130   2.0000      -0.906068       -24.6554
 131   2.0000      -0.900315       -24.4988
 132   2.0000      -0.884337       -24.0640
 133   2.0000      -0.881523       -23.9875
 134   2.0000      -0.878459       -23.9041
 135   2.0000      -0.874551       -23.7977
 136   2.0000      -0.872009       -23.7286
 137   2.0000      -0.861978       -23.4556
 138   2.0000      -0.860492       -23.4152
 139   2.0000      -0.853529       -23.2257
 140   2.0000      -0.844284       -22.9741
 141   2.0000      -0.828457       -22.5435
 142   2.0000      -0.827301       -22.5120
 143   2.0000      -0.803302       -21.8590
 144   2.0000      -0.795311       -21.6415
 145   2.0000      -0.788387       -21.4531
 146   2.0000      -0.778624       -21.1874
 147   2.0000      -0.777530       -21.1577
 148   2.0000      -0.771553       -20.9950
 149   2.0000      -0.759849       -20.6765
 150   2.0000      -0.747353       -20.3365
 151   2.0000      -0.734771       -19.9941
 152   2.0000      -0.717047       -19.5118
 153   2.0000      -0.708619       -19.2825
 154   2.0000      -0.706064       -19.2130
 155   2.0000      -0.702520       -19.1165
 156   2.0000      -0.701597       -19.0914
 157   2.0000      -0.695619       -18.9288
 158   2.0000      -0.690961       -18.8020
 159   2.0000      -0.687659       -18.7121
 160   2.0000      -0.683152       -18.5895
 161   2.0000      -0.682999       -18.5853
 162   2.0000      -0.674096       -18.3431
 163   2.0000      -0.662519       -18.0281
 164   2.0000      -0.661024       -17.9874
 165   2.0000      -0.657183       -17.8829
 166   2.0000      -0.648370       -17.6430
 167   2.0000      -0.642920       -17.4947
 168   2.0000      -0.632693       -17.2164
 169   2.0000      -0.630011       -17.1435
 170   2.0000      -0.628487       -17.1020
 171   2.0000      -0.625576       -17.0228
 172   2.0000      -0.624104       -16.9827
 173   2.0000      -0.622977       -16.9521
 174   2.0000      -0.618363       -16.8265
 175   2.0000      -0.613914       -16.7054
 176   2.0000      -0.606709       -16.5094
 177   2.0000      -0.596463       -16.2306
 178   2.0000      -0.580418       -15.7940
 179   2.0000      -0.579030       -15.7562
 180   2.0000      -0.574303       -15.6276
 181   2.0000      -0.573681       -15.6106
 182   2.0000      -0.565070       -15.3763
 183   2.0000      -0.554484       -15.0883
 184   2.0000      -0.552866       -15.0443
 185   2.0000      -0.550705       -14.9854
 186   2.0000      -0.548767       -14.9327
 187   2.0000      -0.545930       -14.8555
 188   2.0000      -0.544235       -14.8094
 189   2.0000      -0.541965       -14.7476
 190   2.0000      -0.540007       -14.6943
 191   2.0000      -0.538803       -14.6616
 192   2.0000      -0.536802       -14.6071
 193   2.0000      -0.530460       -14.4346
 194   2.0000      -0.530071       -14.4240
 195   2.0000      -0.523159       -14.2359
 196   2.0000      -0.519626       -14.1397
 197   2.0000      -0.517989       -14.0952
 198   2.0000      -0.512289       -13.9401
 199   2.0000      -0.508095       -13.8260
 200   2.0000      -0.507764       -13.8170
 201   2.0000      -0.506412       -13.7802
 202   2.0000      -0.505598       -13.7580
 203   2.0000      -0.502333       -13.6692
 204   2.0000      -0.497578       -13.5398
 205   2.0000      -0.496349       -13.5063
 206   2.0000      -0.494854       -13.4657
 207   2.0000      -0.494307       -13.4508
 208   2.0000      -0.490977       -13.3602
 209   2.0000      -0.488374       -13.2893
 210   2.0000      -0.486060       -13.2264
 211   2.0000      -0.485920       -13.2226
 212   2.0000      -0.477349       -12.9893
 213   2.0000      -0.474905       -12.9228
 214   2.0000      -0.472292       -12.8517
 215   2.0000      -0.469287       -12.7700
 216   2.0000      -0.464472       -12.6389
 217   2.0000      -0.463951       -12.6248
 218   2.0000      -0.460558       -12.5324
 219   2.0000      -0.459944       -12.5157
 220   2.0000      -0.459516       -12.5041
 221   2.0000      -0.459029       -12.4908
 222   2.0000      -0.455888       -12.4054
 223   2.0000      -0.454893       -12.3783
 224   2.0000      -0.450141       -12.2490
 225   2.0000      -0.447548       -12.1784
 226   2.0000      -0.445843       -12.1320
 227   2.0000      -0.445504       -12.1228
 228   2.0000      -0.444463       -12.0945
 229   2.0000      -0.442958       -12.0535
 230   2.0000      -0.442759       -12.0481
 231   2.0000      -0.441288       -12.0081
 232   2.0000      -0.440087       -11.9754
 233   2.0000      -0.439825       -11.9683
 234   2.0000      -0.437632       -11.9086
 235   2.0000      -0.433863       -11.8060
 236   2.0000      -0.429558       -11.6889
 237   2.0000      -0.427809       -11.6413
 238   2.0000      -0.423474       -11.5233
 239   2.0000      -0.423177       -11.5152
 240   2.0000      -0.420130       -11.4323
 241   2.0000      -0.417604       -11.3636
 242   2.0000      -0.417404       -11.3582
 243   2.0000      -0.417032       -11.3480
 244   2.0000      -0.413970       -11.2647
 245   2.0000      -0.410643       -11.1742
 246   2.0000      -0.404634       -11.0106
 247   2.0000      -0.403171       -10.9708
 248   2.0000      -0.392751       -10.6873
 249   2.0000      -0.390265       -10.6196
 250   2.0000      -0.384480       -10.4622
 251   2.0000      -0.374222       -10.1831
 252   2.0000      -0.373935       -10.1753
 253   2.0000      -0.360814        -9.8182
 254   2.0000      -0.354905        -9.6574
 255   2.0000      -0.350001        -9.5240
 256   2.0000      -0.349852        -9.5199
 257   2.0000      -0.344791        -9.3822
 258   2.0000      -0.326141        -8.8747
 259   2.0000      -0.324740        -8.8366
 260   2.0000      -0.321343        -8.7442
 261   2.0000      -0.318222        -8.6593
 262   2.0000      -0.315617        -8.5884
 263   2.0000      -0.303690        -8.2638
 264   2.0000      -0.296392        -8.0652
 265   2.0000      -0.291526        -7.9328
 266   2.0000      -0.259382        -7.0581
 267   2.0000      -0.242276        -6.5927
 268   0.0000      -0.116205        -3.1621
 269   0.0000      -0.104621        -2.8469
 270   0.0000      -0.102378        -2.7858
 271   0.0000      -0.079337        -2.1589
 272   0.0000      -0.061862        -1.6833

MULLIKEN ATOMIC CHARGES
-----------------------
   0 C :    0.315944
   1 C :   -0.367417
   2 C :   -0.185966
   3 N :    0.147425
   4 C :   -0.182970
   5 N :    0.140105
   6 C :    0.015898
   7 C :   -0.014645
   8 C :   -0.071013
   9 C :    0.117118
  10 C :   -0.092945
  11 C :   -0.017766
  12 S :    0.187155
  13 C :   -0.123755
  14 C :    0.038589
  15 Br:    0.022603
  16 C :    0.171144
  17 O :   -0.217161
  18 C :   -0.080678
  19 C :    0.009554
  20 C :    0.030283
  21 N :   -0.014236
  22 C :    0.131519
  23 C :   -0.161919
  24 C :    0.130487
  25 N :   -0.031241
  26 C :    0.147566
  27 C :   -0.165977
  28 C :    0.040171
  29 C :   -0.060762
  30 C :   -0.034773
  31 N :   -0.070550
  32 N :   -0.060773
  33 C :    0.000650
  34 C :   -0.010534
  35 C :    0.002127
  36 N :    0.078355
  37 O :   -0.083841
  38 N :    0.074559
  39 C :   -0.123891
  40 C :   -0.059704
  41 C :    0.006098
  42 C :   -0.080890
  43 S :    0.246426
  44 C :   -0.109255
  45 C :    0.024376
  46 C :    0.305162
  47 C :   -0.300600
  48 C :   -0.192358
  49 N :    0.189100
  50 C :   -0.187845
  51 N :    0.169753
  52 C :   -0.070911
  53 C :   -0.044211
  54 S :    0.199358
  55 C :   -0.055932
  56 C :   -0.062464
  57 C :    0.014561
  58 C :   -0.098618
  59 S :    0.194410
  60 C :   -0.116801
  61 C :   -0.030180
  62 C :    0.297581
  63 C :   -0.298702
  64 C :   -0.186913
  65 N :    0.169598
  66 C :   -0.189595
  67 N :    0.178549
  68 C :    0.035070
  69 C :   -0.080319
  70 S :    0.187283
  71 H :   -0.012744
  72 H :   -0.007208
  73 H :   -0.004260
  74 H :   -0.008420
  75 H :    0.145113
  76 H :   -0.018301
  77 H :    0.129934
  78 H :   -0.005735
  79 H :    0.003919
  80 H :    0.001079
  81 H :    0.022720
  82 H :    0.011268
  83 H :    0.011007
  84 H :    0.013458
  85 H :    0.037700
Sum of atomic charges:   -0.0000000

LOEWDIN ATOMIC CHARGES
----------------------
   0 C :    0.078136
   1 C :   -0.150575
   2 C :   -0.018283
   3 N :   -0.060241
   4 C :   -0.022420
   5 N :   -0.059807
   6 C :   -0.018503
   7 C :   -0.050081
   8 C :    0.021616
   9 C :   -0.034817
  10 C :   -0.143898
  11 C :   -0.009973
  12 S :    0.433482
  13 C :   -0.272554
  14 C :   -0.070590
  15 Br:    0.135808
  16 C :    0.098051
  17 O :   -0.167108
  18 C :   -0.122520
  19 C :    0.058472
  20 C :   -0.010956
  21 N :    0.081811
  22 C :    0.013294
  23 C :   -0.080750
  24 C :    0.018731
  25 N :    0.071919
  26 C :   -0.017398
  27 C :   -0.046895
  28 C :    0.017465
  29 C :   -0.034630
  30 C :   -0.010877
  31 N :   -0.053707
  32 N :   -0.067605
  33 C :   -0.027873
  34 C :   -0.062251
  35 C :   -0.064168
  36 N :   -0.004211
  37 O :    0.089350
  38 N :   -0.004724
  39 C :   -0.185626
  40 C :   -0.008185
  41 C :   -0.077422
  42 C :   -0.165843
  43 S :    0.519257
  44 C :   -0.187051
  45 C :   -0.059089
  46 C :    0.079951
  47 C :   -0.099368
  48 C :   -0.020727
  49 N :   -0.022710
  50 C :   -0.015194
  51 N :   -0.034291
  52 C :   -0.042344
  53 C :   -0.172305
  54 S :    0.487461
  55 C :   -0.183859
  56 C :   -0.035805
  57 C :   -0.069577
  58 C :   -0.177089
  59 S :    0.486547
  60 C :   -0.185219
  61 C :   -0.075932
  62 C :    0.083173
  63 C :   -0.102763
  64 C :   -0.015828
  65 N :   -0.035082
  66 C :   -0.017307
  67 N :   -0.031050
  68 C :   -0.033723
  69 C :   -0.175998
  70 S :    0.481896
  71 H :    0.039853
  72 H :    0.041034
  73 H :    0.038407
  74 H :    0.051480
  75 H :    0.068468
  76 H :    0.030576
  77 H :    0.094480
  78 H :    0.035563
  79 H :    0.038267
  80 H :    0.036052
  81 H :    0.043804
  82 H :    0.035403
  83 H :    0.035573
  84 H :    0.043032
  85 H :    0.028390

  Mayer bond orders larger than 0.100000
B(  0-C ,  1-C ) :   1.6028 B(  0-C ,  6-C ) :   0.9894 B(  0-C , 18-C ) :   1.1098
B(  1-C ,  2-C ) :   1.1489 B(  1-C ,  4-C ) :   1.1448 B(  2-C ,  3-N ) :   2.9656
B(  4-C ,  5-N ) :   2.9577 B(  6-C ,  7-C ) :   1.2746 B(  6-C , 11-C ) :   1.4211
B(  7-C ,  8-C ) :   1.4223 B(  7-C , 16-C ) :   0.9769 B(  8-C ,  9-C ) :   1.2436
B(  8-C , 71-H ) :   1.0162 B(  9-C , 10-C ) :   1.3091 B(  9-C , 14-C ) :   1.1618
B( 10-C , 11-C ) :   1.3226 B( 10-C , 12-S ) :   1.0882 B( 11-C , 72-H ) :   0.9783
B( 12-S , 13-C ) :   1.0862 B( 13-C , 14-C ) :   1.6200 B( 13-C , 15-Br) :   1.0188
B( 14-C , 73-H ) :   0.9998 B( 16-C , 17-O ) :   2.0501 B( 16-C , 18-C ) :   0.9868
B( 17-O , 75-H ) :   0.1415 B( 18-C , 19-C ) :   1.4124 B( 19-C , 20-C ) :   1.3024
B( 19-C , 74-H ) :   0.9232 B( 20-C , 21-N ) :   1.2129 B( 20-C , 27-C ) :   1.2425
B( 21-N , 22-C ) :   1.2304 B( 21-N , 75-H ) :   0.8579 B( 22-C , 23-C ) :   1.2609
B( 22-C , 26-C ) :   1.2362 B( 23-C , 24-C ) :   1.3863 B( 23-C , 76-H ) :   1.0339
B( 24-C , 25-N ) :   1.1806 B( 24-C , 28-C ) :   1.0772 B( 25-N , 26-C ) :   1.1529
B( 25-N , 77-H ) :   0.9352 B( 26-C , 27-C ) :   1.3071 B( 27-C , 78-H ) :   1.0449
B( 28-C , 29-C ) :   1.6266 B( 28-C , 79-H ) :   0.9747 B( 29-C , 30-C ) :   1.1686
B( 29-C , 80-H ) :   0.9825 B( 30-C , 31-N ) :   1.6550 B( 30-C , 33-C ) :   0.1106
B( 30-C , 35-C ) :   1.0317 B( 31-N , 32-N ) :   1.2155 B( 32-N , 33-C ) :   1.7202
B( 33-C , 34-C ) :   1.0841 B( 33-C , 39-C ) :   1.1804 B( 34-C , 35-C ) :   1.1705
B( 34-C , 38-N ) :   1.6174 B( 35-C , 36-N ) :   1.6350 B( 36-N , 37-O ) :   1.0743
B( 36-N , 38-N ) :   0.1799 B( 37-O , 38-N ) :   1.0661 B( 39-C , 40-C ) :   1.4801
B( 39-C , 43-S ) :   1.0761 B( 40-C , 41-C ) :   1.2796 B( 40-C , 81-H ) :   0.9824
B( 41-C , 42-C ) :   1.4224 B( 41-C , 46-C ) :   0.9969 B( 42-C , 43-S ) :   1.1332
B( 42-C , 44-C ) :   1.1944 B( 44-C , 45-C ) :   1.4507 B( 44-C , 54-S ) :   1.1115
B( 45-C , 46-C ) :   0.9897 B( 45-C , 52-C ) :   1.3026 B( 46-C , 47-C ) :   1.7147
B( 47-C , 48-C ) :   1.1350 B( 47-C , 50-C ) :   1.1340 B( 48-C , 49-N ) :   2.9982
B( 50-C , 51-N ) :   2.9895 B( 52-C , 53-C ) :   1.4553 B( 52-C , 82-H ) :   0.9863
B( 53-C , 54-S ) :   1.1173 B( 53-C , 55-C ) :   1.1662 B( 55-C , 56-C ) :   1.4640
B( 55-C , 59-S ) :   1.1089 B( 56-C , 57-C ) :   1.2974 B( 56-C , 83-H ) :   0.9868
B( 57-C , 58-C ) :   1.4623 B( 57-C , 62-C ) :   0.9916 B( 58-C , 59-S ) :   1.1258
B( 58-C , 60-C ) :   1.1806 B( 60-C , 61-C ) :   1.4564 B( 60-C , 70-S ) :   1.1381
B( 61-C , 62-C ) :   1.0169 B( 61-C , 68-C ) :   1.2788 B( 62-C , 63-C ) :   1.7117
B( 63-C , 64-C ) :   1.1335 B( 63-C , 66-C ) :   1.1302 B( 64-C , 65-N ) :   2.9909
B( 66-C , 67-N ) :   3.0043 B( 68-C , 69-C ) :   1.5470 B( 68-C , 84-H ) :   0.9959
B( 69-C , 70-S ) :   1.1518 B( 69-C , 85-H ) :   0.9645

-----------------------------------------------------------------------------
         ABSORPTION SPECTRUM VIA TRANSITION ELECTRIC DIPOLE MOMENTS
-----------------------------------------------------------------------------
State   Energy  Wavelength   fosc         T2         TX        TY        TZ
        (cm-1)    (nm)                  (au**2)     (au)      (au)      (au)
-----------------------------------------------------------------------------
   0   12025.5    831.6   0.829959651  22.72102  -0.85441  -4.33667   1.78446
   1   13922.9    718.2   0.128098653   3.02893   0.32201   1.62043  -0.54721
   2   15050.9    664.4   1.584041915  34.64806   0.74249   4.65487  -3.52547
   3   19717.4    507.2   0.083959219   1.40183   0.24307   1.08110   0.41708
   4   20307.0    492.4   0.006207386   0.10063   0.07651   0.22731  -0.20763
   5   21330.9    468.8   0.138193556   2.13282  -0.26864  -0.79479   1.19539
   6   22825.8    438.1   0.031481269   0.45405   0.09779   0.66019  -0.09288
   7   23722.0    421.5   0.010213268   0.14174  -0.07375  -0.36729   0.03738
   8   24214.8    413.0   0.141524555   1.92409  -0.70522  -1.15128   0.31831
   9   25564.3    391.2   0.063406245   0.81653   0.32467   0.82610   0.16936
  10   26262.9    380.8   0.049704967   0.62306   0.33172  -0.17227   0.69523
  11   27618.8    362.1   0.188021218   2.24118  -1.01313  -1.10048   0.06072
  12   27935.1    358.0   0.210763963   2.48383  -0.51409  -1.48167  -0.15556
  13   29114.7    343.5   0.180389476   2.03973  -0.77525  -1.10056  -0.47696
  14   29259.3    341.8   0.619356404   6.96871  -0.87896  -2.40847  -0.62882
  15   29624.3    337.6   0.009041826   0.10048  -0.05665  -0.25046  -0.18586
  16   29983.5    333.5   0.112513645   1.23537   0.54853   0.94960   0.18094
  17   30083.5    332.4   0.025160077   0.27533  -0.51730   0.02134  -0.08535
  18   30679.4    326.0   0.254666831   2.73276  -0.65381   0.34496  -1.47861
  19   31652.8    315.9   0.013349377   0.13884  -0.07344  -0.29848   0.21061
  20   31913.9    313.3   0.479424046   4.94555   0.79391  -0.32533   2.05169
  21   32184.6    310.7   0.329826528   3.37375  -0.12837   0.88555  -1.60408
  22   32747.1    305.4   0.666479049   6.70022   1.83721   1.28539   1.29330
  23   33083.4    302.3   0.066816424   0.66489  -0.26959   0.71991  -0.27192
  24   33200.9    301.2   0.261792157   2.59586  -0.78068  -0.61503  -1.26813
  25   33640.5    297.3   0.189994669   1.85932  -0.40307  -1.27286  -0.27690
  26   33819.3    295.7   0.009264275   0.09018  -0.19088  -0.22967  -0.03158
  27   33981.4    294.3   0.007746418   0.07505  -0.18619  -0.07511  -0.18638
  28   34147.9    292.8   0.095699116   0.92261   0.17950  -0.55104   0.76600
  29   34330.9    291.3   0.157095549   1.50645  -0.67204  -1.01583  -0.15131
  30   34726.2    288.0   0.005645100   0.05352   0.11441  -0.19758  -0.03725
  31   34801.5    287.3   0.034042048   0.32203  -0.05318   0.37188  -0.42533
  32   34963.4    286.0   0.011008831   0.10366  -0.02181  -0.22355  -0.23066
  33   35023.3    285.5   0.021326801   0.20047  -0.15158  -0.39665   0.14198
  34   35192.9    284.1   0.177129061   1.65695   0.47860  -0.42295   1.11759
  35   35438.5    282.2   0.018291991   0.16993   0.21697   0.03013   0.34920
  36   35534.7    281.4   0.004809138   0.04455  -0.07790   0.06955   0.18344
  37   36413.2    274.6   0.004068012   0.03678  -0.12149  -0.05954  -0.13592
  38   36587.5    273.3   0.004341089   0.03906  -0.11831  -0.05434  -0.14870
  39   36981.5    270.4   0.017619064   0.15685  -0.20277  -0.03056  -0.33881
  40   37174.3    269.0   0.001610821   0.01427   0.05255  -0.00784   0.10697
  41   37475.1    266.8   0.009462845   0.08313  -0.01635  -0.28700  -0.02225
  42   37639.0    265.7   0.152439211   1.33332  -0.18413   0.65701  -0.93154
  43   37814.6    264.4   0.000737683   0.00642  -0.01949   0.05421  -0.05571
  44   38035.1    262.9   0.000644057   0.00557   0.02965  -0.03855   0.05665
  45   38370.6    260.6   0.108527200   0.93114   0.44498  -0.16038   0.84108
  46   38736.6    258.2   0.021464499   0.18242   0.20326   0.37400   0.03507
  47   39006.3    256.4   0.034341720   0.28984  -0.07441   0.24719  -0.47244
  48   39114.0    255.7   0.002281557   0.01920   0.02972  -0.11409  -0.07283
  49   39348.6    254.1   0.116001769   0.97053  -0.61031  -0.77325   0.01164
  50   39728.4    251.7   0.012765961   0.10579  -0.21181  -0.24622  -0.01724
  51   40011.9    249.9   0.039554718   0.32545   0.39398   0.13544   0.38972
  52   40106.7    249.3   0.012071996   0.09909  -0.09852  -0.08373  -0.28701
  53   40181.1    248.9   0.055602588   0.45556   0.09951   0.53737  -0.39610

FINAL SINGLE POINT ENERGY     -7320.503310198894

DIPOLE MOMENT
-------------
                                X             Y             Z
Electronic contribution:    -65.07690    -128.58862      39.79468
Nuclear contribution   :     64.35095     130.13714     -41.72705
                        -----------------------------------------
Total Dipole Moment    :     -0.72595       1.54852      -1.93237
                        -----------------------------------------
Magnitude (a.u.)       :      2.58050
Magnitude (Debye)      :      6.55911

Rotational constants in cm-1:     0.001969     0.000127     0.000121
Rotational constants in MHz :    59.027415     3.806000     3.623576

                             ****ORCA TERMINATED NORMALLY****
TOTAL RUN TIME: 0 days 0 hours 8 minutes 33 seconds 182 msec
