                         Program Version 4.2.0 -  RELEASE  -
|  1> # ORCA input file
|  2> # SCF done       -183.600902815940          0.000875842800
|  3> ! CAM-B3LYP def2-SVP def2/J RIJCOSX Grid4 TightSCF
|  4> %maxcore 5000
|  5> %tddft
|  6>     Mode sTDDFT
|  7>     Ethresh 5.0
|  8>     maxcore 5000
|  9> end
| 10>
| 11> %pal
| 12>   nprocs 6
| 13>   end
| 14> * xyz 0 1
| 15>    C        5.76916         8.59161         8.07880
| 16>    C        6.25762         9.12662         6.92694
| 17>    C        5.31896         9.03703         5.88032
| 18>    C        4.12522         8.42311         6.28342
| 19>    S        4.15914         7.96287         7.92772
| 20>    C        3.23706         8.37707         5.17411
| 21>    C        3.87845         8.96524         4.07320
| 22>    C        5.21052         9.39558         4.48155
| 23>    C        6.15193        10.00352         3.69998
| 24>    C        5.92337        10.29306         2.33958
| 25>    N        5.74227        10.52936         1.23155
| 26>    C        7.41501        10.38027         4.19955
| 27>    N        8.44573        10.68839         4.59777
| 28>    C        3.08619         8.97908         2.92788
| 29>    C        1.84566         8.40333         3.14657
| 30>    S        1.66107         7.83470         4.80182
| 31>    C        0.78336         8.25081         2.20978
| 32>    C       -0.40025         7.62477         2.52335
| 33>    C       -1.46280         7.45953         1.64051
| 34>    C       -1.40723         7.95760         0.26707
| 35>    C       -0.34139         8.60243        -0.25775
| 36>    S        1.09765         8.92911         0.61592
| 37>    C       -2.66076         7.60800        -0.30926
| 38>    C       -3.45070         6.93632         0.62593
| 39>    C       -4.70374         6.57413         0.08332
| 40>    C       -4.82674         6.96934        -1.21143
| 41>    S       -3.43856         7.79417        -1.82976
| 42>    C       -2.71188         6.83168         1.86194
| 43>    C       -3.06460         6.24665         3.08488
| 44>    C       -4.23116         5.61146         3.41430
| 45>    C       -4.41477         5.07275         4.69814
| 46>    C       -3.55314         5.06533         5.80280
| 47>    C       -4.18968         4.39951         6.88226
| 48>    C       -5.49196         3.98183         6.41743
| 49>    O       -6.40738         3.37909         6.96045
| 50>    N       -5.56153         4.41801         5.09513
| 51>    C       -6.72726         4.19193         4.28616
| 52>    C       -3.32209         4.40299         7.98652
| 53>    N       -2.17676         5.06393         7.57826
| 54>    C       -2.25859         5.49081         6.24409
| 55>    O       -1.34856         6.08891         5.68523
| 56>    C       -0.96589         5.33016         8.30604
| 57>    C       -3.56929         3.84621         9.27120
| 58>    C       -4.73630         3.14354         9.52207
| 59>    C       -5.08808         2.55293        10.72919
| 60>    C       -4.14857         2.52169        11.86155
| 61>    C       -2.96245         3.16340        11.86590
| 62>    S       -2.37046         4.08739        10.54960
| 63>    C       -4.76096         1.70625        12.84937
| 64>    C       -6.00014         1.26241        12.38468
| 65>    C       -6.66180         0.44617        13.33011
| 66>    C       -5.92334         0.29236        14.45886
| 67>    S       -4.40573         1.13048        14.42890
| 68>    C       -6.24103         1.80835        11.07788
| 69>    C       -7.44335         1.59652        10.36228
| 70>    C       -7.89426         2.37267         9.34174
| 71>    C       -9.04930         2.12782         8.56621
| 72>    C       -9.98942         1.10904         8.64994
| 73>    C      -10.96907         1.21893         7.66812
| 74>    C      -10.77875         2.32588         6.82365
| 75>    S       -9.39078         3.22727         7.24158
| 76>    C      -11.82748         2.33694         5.86464
| 77>    C      -12.67657         1.24830         6.10703
| 78>    C      -12.17133         0.50843         7.24394
| 79>    C      -12.70316        -0.61523         7.81045
| 80>    C      -13.87951        -1.21885         7.32218
| 81>    N      -14.83279        -1.71961         6.92627
| 82>    C      -12.11406        -1.24411         8.92550
| 83>    N      -11.64023        -1.76062         9.83409
| 84>    C      -13.75136         1.19046         5.19741
| 85>    C      -13.69922         2.21143         4.30041
| 86>    S      -12.34472         3.27360         4.53362
| 87>    H        6.25704         8.52189         9.03027
| 88>    H        7.23657         9.56100         6.83804
| 89>    H        3.38498         9.38317         1.97734
| 90>    H       -0.49683         7.23739         3.52974
| 91>    H       -0.31833         8.96180        -1.27437
| 92>    H       -5.48375         6.05074         0.60465
| 93>    H       -5.66662         6.82649        -1.86305
| 94>    H       -2.31500         6.30651         3.85991
| 95>    H       -5.03083         5.50816         2.69818
| 96>    H       -7.44803         3.66057         4.90807
| 97>    H       -6.48541         3.58054         3.41408
| 98>    H       -7.16580         5.13711         3.95929
| 99>    H       -0.49124         4.40980         8.64836
|100>    H       -1.14241         5.99115         9.15582
|101>    H       -0.30049         5.83276         7.60040
|102>    H       -5.40508         3.01931         8.68470
|103>    H       -2.29241         3.15068        12.71105
|104>    H       -7.62641        -0.00579        13.18706
|105>    H       -6.17256        -0.27169        15.33636
|106>    H       -8.04844         0.76587        10.70214
|107>    H       -7.34871         3.26043         9.06867
|108>    H       -9.95185         0.33596         9.39492
|109>    H      -14.52002         0.43937         5.20273
|110>    H      -14.37850         2.42040         3.49859
|111> *
|112>
|113>                          ****END OF INPUT****

CARTESIAN COORDINATES (ANGSTROEM)
---------------------------------
  C      5.769160    8.591610    8.078800
  C      6.257620    9.126620    6.926940
  C      5.318960    9.037030    5.880320
  C      4.125220    8.423110    6.283420
  S      4.159140    7.962870    7.927720
  C      3.237060    8.377070    5.174110
  C      3.878450    8.965240    4.073200
  C      5.210520    9.395580    4.481550
  C      6.151930   10.003520    3.699980
  C      5.923370   10.293060    2.339580
  N      5.742270   10.529360    1.231550
  C      7.415010   10.380270    4.199550
  N      8.445730   10.688390    4.597770
  C      3.086190    8.979080    2.927880
  C      1.845660    8.403330    3.146570
  S      1.661070    7.834700    4.801820
  C      0.783360    8.250810    2.209780
  C     -0.400250    7.624770    2.523350
  C     -1.462800    7.459530    1.640510
  C     -1.407230    7.957600    0.267070
  C     -0.341390    8.602430   -0.257750
  S      1.097650    8.929110    0.615920
  C     -2.660760    7.608000   -0.309260
  C     -3.450700    6.936320    0.625930
  C     -4.703740    6.574130    0.083320
  C     -4.826740    6.969340   -1.211430
  S     -3.438560    7.794170   -1.829760
  C     -2.711880    6.831680    1.861940
  C     -3.064600    6.246650    3.084880
  C     -4.231160    5.611460    3.414300
  C     -4.414770    5.072750    4.698140
  C     -3.553140    5.065330    5.802800
  C     -4.189680    4.399510    6.882260
  C     -5.491960    3.981830    6.417430
  O     -6.407380    3.379090    6.960450
  N     -5.561530    4.418010    5.095130
  C     -6.727260    4.191930    4.286160
  C     -3.322090    4.402990    7.986520
  N     -2.176760    5.063930    7.578260
  C     -2.258590    5.490810    6.244090
  O     -1.348560    6.088910    5.685230
  C     -0.965890    5.330160    8.306040
  C     -3.569290    3.846210    9.271200
  C     -4.736300    3.143540    9.522070
  C     -5.088080    2.552930   10.729190
  C     -4.148570    2.521690   11.861550
  C     -2.962450    3.163400   11.865900
  S     -2.370460    4.087390   10.549600
  C     -4.760960    1.706250   12.849370
  C     -6.000140    1.262410   12.384680
  C     -6.661800    0.446170   13.330110
  C     -5.923340    0.292360   14.458860
  S     -4.405730    1.130480   14.428900
  C     -6.241030    1.808350   11.077880
  C     -7.443350    1.596520   10.362280
  C     -7.894260    2.372670    9.341740
  C     -9.049300    2.127820    8.566210
  C     -9.989420    1.109040    8.649940
  C    -10.969070    1.218930    7.668120
  C    -10.778750    2.325880    6.823650
  S     -9.390780    3.227270    7.241580
  C    -11.827480    2.336940    5.864640
  C    -12.676570    1.248300    6.107030
  C    -12.171330    0.508430    7.243940
  C    -12.703160   -0.615230    7.810450
  C    -13.879510   -1.218850    7.322180
  N    -14.832790   -1.719610    6.926270
  C    -12.114060   -1.244110    8.925500
  N    -11.640230   -1.760620    9.834090
  C    -13.751360    1.190460    5.197410
  C    -13.699220    2.211430    4.300410
  S    -12.344720    3.273600    4.533620
  H      6.257040    8.521890    9.030270
  H      7.236570    9.561000    6.838040
  H      3.384980    9.383170    1.977340
  H     -0.496830    7.237390    3.529740
  H     -0.318330    8.961800   -1.274370
  H     -5.483750    6.050740    0.604650
  H     -5.666620    6.826490   -1.863050
  H     -2.315000    6.306510    3.859910
  H     -5.030830    5.508160    2.698180
  H     -7.448030    3.660570    4.908070
  H     -6.485410    3.580540    3.414080
  H     -7.165800    5.137110    3.959290
  H     -0.491240    4.409800    8.648360
  H     -1.142410    5.991150    9.155820
  H     -0.300490    5.832760    7.600400
  H     -5.405080    3.019310    8.684700
  H     -2.292410    3.150680   12.711050
  H     -7.626410   -0.005790   13.187060
  H     -6.172560   -0.271690   15.336360
  H     -8.048440    0.765870   10.702140
  H     -7.348710    3.260430    9.068670
  H     -9.951850    0.335960    9.394920
  H    -14.520020    0.439370    5.202730
  H    -14.378500    2.420400    3.498590

 Total Charge           Charge          ....    0
 Multiplicity           Mult            ....    1
 Number of Electrons    NEL             ....  546
 Basis Dimension        Dim             .... 1160

ORBITAL ENERGIES
----------------

  NO   OCC          E(Eh)            E(eV)
   0   2.0000     -88.990006     -2421.5412
   1   2.0000     -88.988740     -2421.5067
   2   2.0000     -88.985133     -2421.4086
   3   2.0000     -88.975319     -2421.1415
   4   2.0000     -88.968942     -2420.9680
   5   2.0000     -88.968792     -2420.9639
   6   2.0000     -88.961767     -2420.7727
   7   2.0000     -88.953014     -2420.5346
   8   2.0000     -19.190057      -522.1880
   9   2.0000     -19.185268      -522.0577
  10   2.0000     -14.455360      -393.3503
  11   2.0000     -14.452924      -393.2841
  12   2.0000     -14.430265      -392.6675
  13   2.0000     -14.429344      -392.6424
  14   2.0000     -14.416974      -392.3058
  15   2.0000     -14.416770      -392.3003
  16   2.0000     -10.372913      -282.2613
  17   2.0000     -10.366891      -282.0974
  18   2.0000     -10.363402      -282.0025
  19   2.0000     -10.351357      -281.6747
  20   2.0000     -10.348028      -281.5842
  21   2.0000     -10.339873      -281.3623
  22   2.0000     -10.337444      -281.2961
  23   2.0000     -10.337119      -281.2873
  24   2.0000     -10.335391      -281.2403
  25   2.0000     -10.331412      -281.1320
  26   2.0000     -10.330736      -281.1136
  27   2.0000     -10.330735      -281.1136
  28   2.0000     -10.330646      -281.1112
  29   2.0000     -10.329655      -281.0842
  30   2.0000     -10.327726      -281.0317
  31   2.0000     -10.321554      -280.8638
  32   2.0000     -10.318847      -280.7901
  33   2.0000     -10.318138      -280.7708
  34   2.0000     -10.317760      -280.7605
  35   2.0000     -10.317457      -280.7523
  36   2.0000     -10.312977      -280.6304
  37   2.0000     -10.308297      -280.5030
  38   2.0000     -10.305853      -280.4365
  39   2.0000     -10.305198      -280.4187
  40   2.0000     -10.303051      -280.3603
  41   2.0000     -10.302028      -280.3324
  42   2.0000     -10.301887      -280.3286
  43   2.0000     -10.301554      -280.3195
  44   2.0000     -10.301245      -280.3111
  45   2.0000     -10.300244      -280.2839
  46   2.0000     -10.299237      -280.2565
  47   2.0000     -10.298984      -280.2496
  48   2.0000     -10.298540      -280.2375
  49   2.0000     -10.296295      -280.1764
  50   2.0000     -10.293000      -280.0868
  51   2.0000     -10.292370      -280.0696
  52   2.0000     -10.291770      -280.0533
  53   2.0000     -10.285863      -279.8926
  54   2.0000     -10.285798      -279.8908
  55   2.0000     -10.284570      -279.8574
  56   2.0000     -10.284230      -279.8481
  57   2.0000     -10.284081      -279.8441
  58   2.0000     -10.281908      -279.7849
  59   2.0000     -10.280362      -279.7429
  60   2.0000     -10.280323      -279.7418
  61   2.0000     -10.279903      -279.7304
  62   2.0000     -10.277508      -279.6652
  63   2.0000     -10.277044      -279.6526
  64   2.0000     -10.274722      -279.5894
  65   2.0000     -10.273834      -279.5652
  66   2.0000     -10.270901      -279.4854
  67   2.0000     -10.269986      -279.4605
  68   2.0000     -10.269024      -279.4344
  69   2.0000     -10.268526      -279.4208
  70   2.0000     -10.258749      -279.1548
  71   2.0000     -10.251566      -278.9593
  72   2.0000      -8.083835      -219.9723
  73   2.0000      -8.083723      -219.9693
  74   2.0000      -8.080211      -219.8737
  75   2.0000      -8.070343      -219.6052
  76   2.0000      -8.063846      -219.4284
  77   2.0000      -8.062707      -219.3974
  78   2.0000      -8.057217      -219.2480
  79   2.0000      -8.048467      -219.0099
  80   2.0000      -6.053128      -164.7140
  81   2.0000      -6.052992      -164.7103
  82   2.0000      -6.049751      -164.6221
  83   2.0000      -6.048896      -164.5988
  84   2.0000      -6.048540      -164.5892
  85   2.0000      -6.046338      -164.5292
  86   2.0000      -6.046189      -164.5252
  87   2.0000      -6.045180      -164.4977
  88   2.0000      -6.042186      -164.4162
  89   2.0000      -6.039586      -164.3455
  90   2.0000      -6.035219      -164.2267
  91   2.0000      -6.033547      -164.1812
  92   2.0000      -6.032925      -164.1642
  93   2.0000      -6.031893      -164.1362
  94   2.0000      -6.028865      -164.0538
  95   2.0000      -6.027622      -164.0199
  96   2.0000      -6.026626      -163.9928
  97   2.0000      -6.025624      -163.9656
  98   2.0000      -6.025375      -163.9588
  99   2.0000      -6.022377      -163.8772
 100   2.0000      -6.019299      -163.7935
 101   2.0000      -6.017913      -163.7557
 102   2.0000      -6.013698      -163.6410
 103   2.0000      -6.010460      -163.5529
 104   2.0000      -1.131167       -30.7806
 105   2.0000      -1.123284       -30.5661
 106   2.0000      -1.059046       -28.8181
 107   2.0000      -1.051353       -28.6088
 108   2.0000      -1.043583       -28.3973
 109   2.0000      -1.026772       -27.9399
 110   2.0000      -1.021518       -27.7969
 111   2.0000      -1.013053       -27.5666
 112   2.0000      -1.007597       -27.4181
 113   2.0000      -1.007135       -27.4055
 114   2.0000      -1.000018       -27.2119
 115   2.0000      -0.998228       -27.1632
 116   2.0000      -0.994528       -27.0625
 117   2.0000      -0.977286       -26.5933
 118   2.0000      -0.975760       -26.5518
 119   2.0000      -0.963797       -26.2262
 120   2.0000      -0.955402       -25.9978
 121   2.0000      -0.941885       -25.6300
 122   2.0000      -0.934308       -25.4238
 123   2.0000      -0.921616       -25.0785
 124   2.0000      -0.919207       -25.0129
 125   2.0000      -0.914096       -24.8738
 126   2.0000      -0.899643       -24.4805
 127   2.0000      -0.895869       -24.3778
 128   2.0000      -0.888858       -24.1871
 129   2.0000      -0.884184       -24.0599
 130   2.0000      -0.867240       -23.5988
 131   2.0000      -0.866545       -23.5799
 132   2.0000      -0.853833       -23.2340
 133   2.0000      -0.848856       -23.0985
 134   2.0000      -0.846587       -23.0368
 135   2.0000      -0.841165       -22.8893
 136   2.0000      -0.835833       -22.7442
 137   2.0000      -0.835252       -22.7284
 138   2.0000      -0.825446       -22.4615
 139   2.0000      -0.819270       -22.2935
 140   2.0000      -0.810594       -22.0574
 141   2.0000      -0.795835       -21.6558
 142   2.0000      -0.788928       -21.4678
 143   2.0000      -0.779949       -21.2235
 144   2.0000      -0.776956       -21.1421
 145   2.0000      -0.764654       -20.8073
 146   2.0000      -0.762207       -20.7407
 147   2.0000      -0.759538       -20.6681
 148   2.0000      -0.748139       -20.3579
 149   2.0000      -0.732309       -19.9271
 150   2.0000      -0.727946       -19.8084
 151   2.0000      -0.721315       -19.6280
 152   2.0000      -0.707132       -19.2420
 153   2.0000      -0.702816       -19.1246
 154   2.0000      -0.688952       -18.7473
 155   2.0000      -0.685817       -18.6620
 156   2.0000      -0.679783       -18.4978
 157   2.0000      -0.678708       -18.4686
 158   2.0000      -0.675274       -18.3751
 159   2.0000      -0.667911       -18.1748
 160   2.0000      -0.661116       -17.9899
 161   2.0000      -0.660666       -17.9776
 162   2.0000      -0.656139       -17.8544
 163   2.0000      -0.652382       -17.7522
 164   2.0000      -0.640733       -17.4352
 165   2.0000      -0.637017       -17.3341
 166   2.0000      -0.623732       -16.9726
 167   2.0000      -0.621676       -16.9167
 168   2.0000      -0.619200       -16.8493
 169   2.0000      -0.614722       -16.7274
 170   2.0000      -0.614542       -16.7225
 171   2.0000      -0.608601       -16.5609
 172   2.0000      -0.600274       -16.3343
 173   2.0000      -0.598513       -16.2864
 174   2.0000      -0.591276       -16.0894
 175   2.0000      -0.585224       -15.9248
 176   2.0000      -0.582307       -15.8454
 177   2.0000      -0.579531       -15.7698
 178   2.0000      -0.571795       -15.5593
 179   2.0000      -0.570636       -15.5278
 180   2.0000      -0.565799       -15.3962
 181   2.0000      -0.561144       -15.2695
 182   2.0000      -0.556957       -15.1556
 183   2.0000      -0.553520       -15.0620
 184   2.0000      -0.551808       -15.0154
 185   2.0000      -0.549441       -14.9510
 186   2.0000      -0.546063       -14.8591
 187   2.0000      -0.540041       -14.6953
 188   2.0000      -0.539018       -14.6674
 189   2.0000      -0.534870       -14.5546
 190   2.0000      -0.530434       -14.4338
 191   2.0000      -0.528005       -14.3677
 192   2.0000      -0.521751       -14.1976
 193   2.0000      -0.520299       -14.1581
 194   2.0000      -0.519047       -14.1240
 195   2.0000      -0.515192       -14.0191
 196   2.0000      -0.513007       -13.9596
 197   2.0000      -0.509268       -13.8579
 198   2.0000      -0.508539       -13.8380
 199   2.0000      -0.503753       -13.7078
 200   2.0000      -0.502916       -13.6850
 201   2.0000      -0.501802       -13.6547
 202   2.0000      -0.495885       -13.4937
 203   2.0000      -0.495156       -13.4739
 204   2.0000      -0.493129       -13.4187
 205   2.0000      -0.491819       -13.3831
 206   2.0000      -0.489225       -13.3125
 207   2.0000      -0.488630       -13.2963
 208   2.0000      -0.485357       -13.2072
 209   2.0000      -0.482612       -13.1325
 210   2.0000      -0.477468       -12.9926
 211   2.0000      -0.475100       -12.9281
 212   2.0000      -0.472883       -12.8678
 213   2.0000      -0.470302       -12.7976
 214   2.0000      -0.468779       -12.7561
 215   2.0000      -0.466046       -12.6818
 216   2.0000      -0.461337       -12.5536
 217   2.0000      -0.461288       -12.5523
 218   2.0000      -0.461054       -12.5459
 219   2.0000      -0.460957       -12.5433
 220   2.0000      -0.457553       -12.4506
 221   2.0000      -0.456393       -12.4191
 222   2.0000      -0.456273       -12.4158
 223   2.0000      -0.453799       -12.3485
 224   2.0000      -0.451046       -12.2736
 225   2.0000      -0.449395       -12.2287
 226   2.0000      -0.446839       -12.1591
 227   2.0000      -0.445320       -12.1178
 228   2.0000      -0.444091       -12.0843
 229   2.0000      -0.441190       -12.0054
 230   2.0000      -0.439899       -11.9703
 231   2.0000      -0.439292       -11.9537
 232   2.0000      -0.438942       -11.9442
 233   2.0000      -0.436408       -11.8753
 234   2.0000      -0.435716       -11.8564
 235   2.0000      -0.432107       -11.7582
 236   2.0000      -0.427737       -11.6393
 237   2.0000      -0.427420       -11.6307
 238   2.0000      -0.425378       -11.5751
 239   2.0000      -0.423236       -11.5168
 240   2.0000      -0.421129       -11.4595
 241   2.0000      -0.420080       -11.4310
 242   2.0000      -0.418759       -11.3950
 243   2.0000      -0.418149       -11.3784
 244   2.0000      -0.416501       -11.3336
 245   2.0000      -0.416339       -11.3292
 246   2.0000      -0.412067       -11.2129
 247   2.0000      -0.410789       -11.1781
 248   2.0000      -0.408653       -11.1200
 249   2.0000      -0.400945       -10.9103
 250   2.0000      -0.396782       -10.7970
 251   2.0000      -0.395677       -10.7669
 252   2.0000      -0.373926       -10.1750
 253   2.0000      -0.367432        -9.9983
 254   2.0000      -0.361069        -9.8252
 255   2.0000      -0.356530        -9.7017
 256   2.0000      -0.347056        -9.4439
 257   2.0000      -0.346774        -9.4362
 258   2.0000      -0.339776        -9.2458
 259   2.0000      -0.333544        -9.0762
 260   2.0000      -0.330383        -8.9902
 261   2.0000      -0.327392        -8.9088
 262   2.0000      -0.320799        -8.7294
 263   2.0000      -0.320730        -8.7275
 264   2.0000      -0.312821        -8.5123
 265   2.0000      -0.305024        -8.3001
 266   2.0000      -0.297650        -8.0995
 267   2.0000      -0.284573        -7.7436
 268   2.0000      -0.279480        -7.6050
 269   2.0000      -0.271561        -7.3895
 270   2.0000      -0.255200        -6.9443
 271   2.0000      -0.233248        -6.3470
 272   2.0000      -0.205801        -5.6001
 273   0.0000      -0.104270        -2.8373
 274   0.0000      -0.090159        -2.4534
 275   0.0000      -0.083170        -2.2632
 276   0.0000      -0.056514        -1.5378
 277   0.0000      -0.034877        -0.9490

MULLIKEN ATOMIC CHARGES
-----------------------
   0 C :   -0.081557
   1 C :    0.040338
   2 C :   -0.033776
   3 C :   -0.116201
   4 S :    0.180349
   5 C :   -0.094567
   6 C :    0.015250
   7 C :    0.301326
   8 C :   -0.302736
   9 C :   -0.185275
  10 N :    0.168816
  11 C :   -0.189720
  12 N :    0.176669
  13 C :   -0.055577
  14 C :   -0.075596
  15 S :    0.205073
  16 C :   -0.008817
  17 C :   -0.103841
  18 C :    0.061581
  19 C :    0.062087
  20 C :   -0.118961
  21 S :    0.142270
  22 C :   -0.115727
  23 C :    0.062337
  24 C :   -0.009393
  25 C :   -0.065326
  26 S :    0.131260
  27 C :    0.100706
  28 C :   -0.011788
  29 C :   -0.043029
  30 C :    0.153668
  31 C :   -0.072947
  32 C :   -0.081124
  33 C :    0.169286
  34 O :   -0.245777
  35 N :   -0.259544
  36 C :    0.123413
  37 C :    0.143394
  38 N :   -0.283027
  39 C :    0.158555
  40 O :   -0.250252
  41 C :    0.127243
  42 C :   -0.074314
  43 C :   -0.085912
  44 C :    0.046477
  45 C :    0.063447
  46 C :   -0.119573
  47 S :    0.076922
  48 C :   -0.101689
  49 C :    0.047076
  50 C :    0.012639
  51 C :   -0.069368
  52 S :    0.124748
  53 C :    0.096574
  54 C :   -0.044395
  55 C :    0.070534
  56 C :   -0.091994
  57 C :   -0.035402
  58 C :    0.004580
  59 C :   -0.118656
  60 S :    0.216680
  61 C :   -0.114391
  62 C :   -0.039448
  63 C :    0.300288
  64 C :   -0.308776
  65 C :   -0.192124
  66 N :    0.169431
  67 C :   -0.183001
  68 N :    0.161841
  69 C :    0.038011
  70 C :   -0.089467
  71 S :    0.161434
  72 H :    0.036146
  73 H :    0.012086
  74 H :    0.019502
  75 H :    0.028024
  76 H :    0.039783
  77 H :   -0.015755
  78 H :    0.026240
  79 H :   -0.015235
  80 H :   -0.071575
  81 H :    0.053068
  82 H :    0.034921
  83 H :    0.031729
  84 H :    0.037101
  85 H :    0.039818
  86 H :    0.047551
  87 H :   -0.004568
  88 H :    0.032845
  89 H :   -0.011092
  90 H :    0.026895
  91 H :   -0.020251
  92 H :   -0.011952
  93 H :    0.002128
  94 H :    0.010466
  95 H :    0.030889
Sum of atomic charges:   -0.0000000

LOEWDIN ATOMIC CHARGES
----------------------
   0 C :   -0.176536
   1 C :   -0.033468
   2 C :   -0.076560
   3 C :   -0.182622
   4 S :    0.476033
   5 C :   -0.177527
   6 C :   -0.070991
   7 C :    0.083698
   8 C :   -0.104480
   9 C :   -0.015843
  10 N :   -0.035788
  11 C :   -0.017193
  12 N :   -0.033227
  13 C :   -0.037008
  14 C :   -0.186223
  15 S :    0.507934
  16 C :   -0.168860
  17 C :   -0.028290
  18 C :    0.005399
  19 C :   -0.049864
  20 C :   -0.137618
  21 S :    0.474249
  22 C :   -0.202678
  23 C :   -0.035392
  24 C :   -0.066390
  25 C :   -0.165008
  26 S :    0.426538
  27 C :   -0.061691
  28 C :    0.040581
  29 C :   -0.082278
  30 C :    0.080377
  31 C :   -0.136474
  32 C :   -0.123729
  33 C :    0.081811
  34 O :   -0.222600
  35 N :   -0.002267
  36 C :    0.027391
  37 C :    0.049647
  38 N :   -0.009393
  39 C :    0.077905
  40 O :   -0.237168
  41 C :    0.008252
  42 C :   -0.193282
  43 C :    0.012011
  44 C :   -0.033787
  45 C :   -0.049694
  46 C :   -0.146377
  47 S :    0.449691
  48 C :   -0.198169
  49 C :   -0.041123
  50 C :   -0.059961
  51 C :   -0.163465
  52 S :    0.417655
  53 C :   -0.028804
  54 C :   -0.022574
  55 C :   -0.031905
  56 C :   -0.154277
  57 C :   -0.031937
  58 C :   -0.069650
  59 C :   -0.201862
  60 S :    0.505660
  61 C :   -0.175746
  62 C :   -0.085229
  63 C :    0.087087
  64 C :   -0.112740
  65 C :   -0.016681
  66 N :   -0.041732
  67 C :   -0.014672
  68 N :   -0.043847
  69 C :   -0.034899
  70 C :   -0.185970
  71 S :    0.462140
  72 H :    0.027701
  73 H :    0.042862
  74 H :    0.034039
  75 H :    0.037833
  76 H :    0.038589
  77 H :    0.027770
  78 H :    0.023965
  79 H :    0.035204
  80 H :    0.022153
  81 H :    0.033139
  82 H :    0.027167
  83 H :    0.025504
  84 H :    0.019627
  85 H :    0.018240
  86 H :    0.035059
  87 H :    0.042537
  88 H :    0.035058
  89 H :    0.032819
  90 H :    0.023594
  91 H :    0.028174
  92 H :    0.027294
  93 H :    0.036790
  94 H :    0.041492
  95 H :    0.024880

  Mayer bond orders larger than 0.100000
B(  0-C ,  1-C ) :   1.5492 B(  0-C ,  4-S ) :   1.1490 B(  0-C , 72-H ) :   0.9645
B(  1-C ,  2-C ) :   1.2755 B(  1-C , 73-H ) :   0.9958 B(  2-C ,  3-C ) :   1.4543
B(  2-C ,  7-C ) :   1.0190 B(  3-C ,  4-S ) :   1.1359 B(  3-C ,  5-C ) :   1.1835
B(  5-C ,  6-C ) :   1.4475 B(  5-C , 15-S ) :   1.1353 B(  6-C ,  7-C ) :   0.9979
B(  6-C , 13-C ) :   1.3097 B(  7-C ,  8-C ) :   1.7058 B(  8-C ,  9-C ) :   1.1361
B(  8-C , 11-C ) :   1.1321 B(  9-C , 10-N ) :   2.9879 B( 11-C , 12-N ) :   3.0027
B( 13-C , 14-C ) :   1.4521 B( 13-C , 74-H ) :   0.9790 B( 14-C , 15-S ) :   1.1144
B( 14-C , 16-C ) :   1.1660 B( 16-C , 17-C ) :   1.5015 B( 16-C , 21-S ) :   1.0693
B( 17-C , 18-C ) :   1.2792 B( 17-C , 75-H ) :   0.9547 B( 18-C , 19-C ) :   1.0627
B( 18-C , 27-C ) :   1.3351 B( 19-C , 20-C ) :   1.5938 B( 19-C , 22-C ) :   1.1704
B( 20-C , 21-S ) :   1.1476 B( 20-C , 76-H ) :   0.9411 B( 22-C , 23-C ) :   1.4567
B( 22-C , 26-S ) :   1.0787 B( 23-C , 24-C ) :   1.2218 B( 23-C , 27-C ) :   1.0482
B( 24-C , 25-C ) :   1.5814 B( 24-C , 77-H ) :   1.0015 B( 25-C , 26-S ) :   1.1604
B( 25-C , 78-H ) :   0.9645 B( 27-C , 28-C ) :   1.2350 B( 28-C , 29-C ) :   1.4787
B( 28-C , 79-H ) :   0.9425 B( 29-C , 30-C ) :   1.2174 B( 29-C , 80-H ) :   0.9706
B( 30-C , 31-C ) :   1.2710 B( 30-C , 35-N ) :   1.1435 B( 31-C , 32-C ) :   1.2569
B( 31-C , 39-C ) :   1.0473 B( 32-C , 33-C ) :   1.0111 B( 32-C , 37-C ) :   1.3480
B( 33-C , 34-O ) :   1.9462 B( 33-C , 35-N ) :   1.0900 B( 34-O , 87-H ) :   0.1053
B( 35-N , 36-C ) :   0.9685 B( 36-C , 81-H ) :   0.9531 B( 36-C , 82-H ) :   0.9702
B( 36-C , 83-H ) :   0.9713 B( 37-C , 38-N ) :   1.1562 B( 37-C , 42-C ) :   1.1946
B( 38-N , 39-C ) :   1.0702 B( 38-N , 41-C ) :   0.9646 B( 39-C , 40-O ) :   1.9446
B( 41-C , 84-H ) :   0.9677 B( 41-C , 85-H ) :   0.9657 B( 41-C , 86-H ) :   0.9384
B( 42-C , 43-C ) :   1.4685 B( 42-C , 47-S ) :   0.9999 B( 43-C , 44-C ) :   1.2663
B( 43-C , 87-H ) :   0.9427 B( 44-C , 45-C ) :   1.0362 B( 44-C , 53-C ) :   1.3485
B( 45-C , 46-C ) :   1.6121 B( 45-C , 48-C ) :   1.1812 B( 46-C , 47-S ) :   1.1313
B( 46-C , 88-H ) :   0.9404 B( 48-C , 49-C ) :   1.4278 B( 48-C , 52-S ) :   1.0768
B( 49-C , 50-C ) :   1.2131 B( 49-C , 53-C ) :   1.1164 B( 50-C , 51-C ) :   1.5937
B( 50-C , 89-H ) :   0.9984 B( 51-C , 52-S ) :   1.1469 B( 51-C , 90-H ) :   0.9658
B( 53-C , 54-C ) :   1.1676 B( 54-C , 55-C ) :   1.6420 B( 54-C , 91-H ) :   0.9605
B( 55-C , 56-C ) :   1.1462 B( 55-C , 92-H ) :   0.9480 B( 56-C , 57-C ) :   1.4341
B( 56-C , 60-S ) :   1.1310 B( 57-C , 58-C ) :   1.3126 B( 57-C , 93-H ) :   0.9902
B( 58-C , 59-C ) :   1.4326 B( 58-C , 63-C ) :   0.9961 B( 59-C , 60-S ) :   1.1274
B( 59-C , 61-C ) :   1.1930 B( 61-C , 62-C ) :   1.4519 B( 61-C , 71-S ) :   1.1353
B( 62-C , 63-C ) :   1.0246 B( 62-C , 69-C ) :   1.2710 B( 63-C , 64-C ) :   1.7002
B( 64-C , 65-C ) :   1.1312 B( 64-C , 67-C ) :   1.1372 B( 65-C , 66-N ) :   3.0033
B( 67-C , 68-N ) :   2.9869 B( 69-C , 70-C ) :   1.5557 B( 69-C , 94-H ) :   0.9954
B( 70-C , 71-S ) :   1.1359 B( 70-C , 95-H ) :   0.9648

-----------------------------------------------------------------------------
         ABSORPTION SPECTRUM VIA TRANSITION ELECTRIC DIPOLE MOMENTS
-----------------------------------------------------------------------------
State   Energy  Wavelength   fosc         T2         TX        TY        TZ
        (cm-1)    (nm)                  (au**2)     (au)      (au)      (au)
-----------------------------------------------------------------------------
   0    9842.2   1016.0   0.415958212  13.91344   3.13752   1.69135  -1.09944
   1   10642.9    939.6   0.005848397   0.18091  -0.28186   0.10308  -0.30138
   2   12420.4    805.1   0.527985305  13.99461  -1.71766  -1.74825   2.82628
   3   15504.9    645.0   0.029819982   0.63316   0.71725   0.26906   0.21522
   4   16904.6    591.6   0.048500733   0.94454   0.44383  -0.13492   0.85402
   5   17791.5    562.1   0.005563237   0.10294  -0.02852   0.18431  -0.26107
   6   18753.0    533.2   0.009265413   0.16266   0.09270   0.15581  -0.36026
   7   19608.2    510.0   0.013434845   0.22556   0.42820   0.19492   0.06492
   8   20675.8    483.7   0.014811776   0.23584   0.12090   0.19375  -0.42859
   9   21507.6    465.0   0.453087726   6.93530  -2.00499  -0.29141  -1.68238
  10   22528.7    443.9   0.097738658   1.42825  -1.07303  -0.47042  -0.23571
  11   23693.2    422.1   0.057384353   0.79734  -0.74171  -0.11244  -0.48432
  12   24366.0    410.4   0.048726742   0.65835  -0.62900  -0.10650  -0.50137
  13   25725.9    388.7   0.253688880   3.24643  -1.30969  -0.10842  -1.23263
  14   26034.7    384.1   1.015407454  12.83996   2.27164  -0.05218   2.77072
  15   26499.0    377.4   0.069543571   0.86398  -0.41041   0.19183  -0.81163
  16   26809.1    373.0   0.196547581   2.41358  -1.37496  -0.33152  -0.64277
  17   27044.1    369.8   0.084204709   1.02504   0.53813   0.53605  -0.66940
  18   28084.8    356.1   0.016816021   0.19712  -0.27407  -0.25718   0.23636
  19   28217.9    354.4   0.180303840   2.10356  -1.26135  -0.64892   0.30242
  20   28607.9    349.6   0.001676194   0.01929  -0.03621   0.03796  -0.12859
  21   28837.7    346.8   0.275358172   3.14350  -1.59217  -0.59776  -0.50116
  22   29295.3    341.4   0.030499776   0.34275   0.43043   0.34257  -0.20031
  23   29847.5    335.0   0.069028182   0.76137   0.35270   0.46137  -0.65124
  24   30471.6    328.2   0.310099160   3.35028  -1.58837  -0.89513  -0.16156
  25   30712.9    325.6   0.117635400   1.26093   1.06162   0.24371   0.27296
  26   30717.8    325.5   0.057643611   0.61778   0.12009  -0.26858   0.72885
  27   30924.7    323.4   0.092914314   0.98913  -0.94052  -0.32208   0.02862
  28   31063.2    321.9   0.021273359   0.22546  -0.04782   0.10930  -0.45959
  29   31464.1    317.8   0.174631018   1.82718   0.50262   1.03703  -0.70649
  30   31564.1    316.8   0.830630596   8.66345  -1.53218  -1.64897   1.89652
  31   31742.8    315.0   0.074724370   0.77498  -0.09267   0.84412   0.23207
  32   33063.1    302.5   0.058021102   0.57772  -0.01917   0.62422  -0.43325
  33   33220.4    301.0   0.068404270   0.67788   0.66692   0.47545   0.08394
  34   33379.5    299.6   0.473419901   4.66920   1.33943  -0.49516   1.62171
  35   33409.2    299.3   0.018674199   0.18401   0.12481   0.37322  -0.17072
  36   33719.0    296.6   0.009237662   0.09019  -0.06414  -0.27462   0.10325
  37   34024.1    293.9   0.044767170   0.43316   0.60246   0.18027   0.19418
  38   34319.0    291.4   0.212147448   2.03507  -1.30602  -0.49236  -0.29489
  39   34447.5    290.3   0.023873370   0.22816  -0.33944  -0.01822  -0.33556
  40   34703.0    288.2   0.056839880   0.53922   0.43889   0.58690  -0.04627
  41   35216.9    284.0   0.061501148   0.57492   0.41519  -0.14904   0.61670
  42   35526.3    281.5   0.079308135   0.73493   0.16922  -0.25171   0.80183
  43   35740.1    279.8   0.002853776   0.02629   0.04299   0.02257  -0.15469
  44   35872.5    278.8   0.095706993   0.87833   0.73210   0.20302   0.54876
  45   36452.0    274.3   0.077339264   0.69848   0.43871  -0.08038   0.70679
  46   36543.1    273.6   0.190754684   1.71848   0.56621  -0.26212   1.15290
  47   36710.8    272.4   0.005450958   0.04888   0.13039  -0.02631   0.17661
  48   36906.3    271.0   0.012287986   0.10961  -0.31239   0.00822  -0.10935
  49   37023.1    270.1   0.366666867   3.26043   1.06934  -0.01928   1.45484
  50   37233.6    268.6   0.182885781   1.61704   0.73781   0.61381  -0.83422
  51   37467.2    266.9   0.173864728   1.52769   0.60925   0.67142  -0.84006
  52   37536.3    266.4   0.042243465   0.37050   0.56051   0.23146   0.05251
  53   37970.8    263.4   0.001847261   0.01602   0.05666   0.08651  -0.07295
  54   38060.6    262.7   0.021802702   0.18859  -0.14789  -0.25489   0.31898
  55   38098.7    262.5   0.078596482   0.67915   0.19746  -0.27908   0.74985
  56   38448.2    260.1   0.140251592   1.20090   0.86461   0.55908  -0.37522
  57   38716.1    258.3   0.043177072   0.36715   0.04607  -0.42331   0.43108
  58   39172.6    255.3   0.005642911   0.04742   0.19469   0.06954   0.06844
  59   39476.8    253.3   0.115535390   0.96349  -0.38014  -0.50668   0.74984
  60   39745.2    251.6   0.007206809   0.05969   0.20532   0.10153  -0.08502
  61   39827.9    251.1   0.283090903   2.33999  -0.10253   0.56901  -1.41623
  62   39843.8    251.0   0.033874651   0.27989   0.24263   0.27101  -0.38416
  63   40142.2    249.1   0.285904024   2.34474   0.73616   0.78868  -1.08664

FINAL SINGLE POINT ENERGY     -5808.443073790211

DIPOLE MOMENT
-------------
                                X             Y             Z
Electronic contribution:     15.29181      10.33856      -4.65974
Nuclear contribution   :    -14.32716      -8.70323       4.28733
                        -----------------------------------------
Total Dipole Moment    :      0.96465       1.63533      -0.37242
                        -----------------------------------------
Magnitude (a.u.)       :      1.93483
Magnitude (Debye)      :      4.91794

Rotational constants in cm-1:     0.001073     0.000338     0.000259
Rotational constants in MHz :    32.181582    10.127226     7.760297

                             ****ORCA TERMINATED NORMALLY****
TOTAL RUN TIME: 0 days 0 hours 10 minutes 13 seconds 322 msec
