                         Program Version 4.2.0 -  RELEASE  -
|  1> # ORCA input file
|  2> # SCF done       -208.978427693597          0.000830876813
|  3> ! CAM-B3LYP def2-SVP def2/J RIJCOSX Grid4 TightSCF
|  4> %maxcore 5000
|  5> %tddft
|  6>     Mode sTDDFT
|  7>     Ethresh 5.0
|  8>     maxcore 5000
|  9> end
| 10>
| 11> %pal
| 12>   nprocs 6
| 13>   end
| 14> * xyz 0 1
| 15>    C        1.66539        -6.15748        -7.00056
| 16>    C        1.60001        -5.59805        -8.27573
| 17>    C        0.28457        -5.31519        -8.90745
| 18>    O        0.14055        -4.96507       -10.04944
| 19>    O       -0.74156        -5.48685        -8.06756
| 20>    C        2.77018        -5.29974        -8.99338
| 21>    C        2.74086        -4.73069       -10.29151
| 22>    N        2.85704        -4.26080       -11.33011
| 23>    C        4.02473        -5.54257        -8.42529
| 24>    C        4.07538        -6.07764        -7.15710
| 25>    C        2.90710        -6.40131        -6.44170
| 26>    C        3.29339        -6.99974        -5.16271
| 27>    C        2.50473        -7.84135        -4.42675
| 28>    C        1.14569        -8.08928        -4.71282
| 29>    N        0.03144        -8.30388        -4.88462
| 30>    C        2.96854        -8.63134        -3.35453
| 31>    N        3.27808        -9.31828        -2.48910
| 32>    C        4.71473        -6.78483        -5.00498
| 33>    C        5.25804        -6.41055        -6.33047
| 34>    O        6.42123        -6.40543        -6.67379
| 35>    C        5.55387        -6.85567        -3.93379
| 36>    C        5.26044        -6.90556        -2.55666
| 37>    C        4.12548        -6.50634        -1.86255
| 38>    C        4.23498        -6.69772        -0.48908
| 39>    C        5.46724        -7.25036        -0.12079
| 40>    S        6.49337        -7.49638        -1.47556
| 41>    C        5.72247        -7.47551         1.24769
| 42>    C        4.70807        -7.27494         2.17249
| 43>    C        3.32675        -6.94549         1.68885
| 44>    O        3.28820        -6.33318         0.40238
| 45>    C        5.12534        -7.48400         3.48478
| 46>    C        6.45617        -7.85229         3.58184
| 47>    S        7.20444        -7.93165         2.00081
| 48>    C        7.20975        -8.16889         4.74767
| 49>    C        8.52318        -8.56955         4.67635
| 50>    C        9.32075        -8.92063         5.76220
| 51>    C        8.83213        -8.73226         7.13491
| 52>    C        7.57080        -8.35815         7.44227
| 53>    S        6.35238        -8.03614         6.27634
| 54>    C        9.94349        -9.02028         7.97472
| 55>    C       11.04255        -9.37652         7.19276
| 56>    C       12.17628        -9.68244         7.97636
| 57>    C       11.91544        -9.54932         9.30353
| 58>    S       10.29378        -9.05762         9.65688
| 59>    C       10.66231        -9.35463         5.80342
| 60>    C       11.51706        -9.71994         4.73770
| 61>    C       11.09894       -10.08809         3.49488
| 62>    C       11.92023       -10.33938         2.37453
| 63>    C       13.29932       -10.31196         2.22392
| 64>    C       13.70891       -10.55411         0.91395
| 65>    C       12.63443       -10.75262         0.03414
| 66>    S       11.11917       -10.67992         0.85957
| 67>    C       12.88379       -10.79594        -1.34112
| 68>    C       14.20597       -10.82556        -1.79635
| 69>    C       15.30670       -10.99729        -0.79179
| 70>    O       14.99177       -10.51323         0.51339
| 71>    C       14.29591       -10.73088        -3.17106
| 72>    C       13.05970       -10.58995        -3.80468
| 73>    S       11.75490       -10.65799        -2.62991
| 74>    C       12.83027       -10.45429        -5.17870
| 75>    C       11.67611       -10.04317        -5.80281
| 76>    C       11.40065       -10.41344        -7.20432
| 77>    O       12.16357       -10.90117        -8.00744
| 78>    C        9.95628       -10.11362        -7.40205
| 79>    C        9.43538        -9.52505        -6.23388
| 80>    C        8.08604        -9.23901        -6.14304
| 81>    C        7.26014        -9.48988        -7.23944
| 82>    C        7.80066       -10.03022        -8.41928
| 83>    C        9.16012       -10.36235        -8.49543
| 84>    C        7.01247       -10.29037        -9.56441
| 85>    N        6.41215       -10.49821       -10.52006
| 86>    C        5.80389        -9.20081        -7.05498
| 87>    O        5.28068        -9.27840        -5.97450
| 88>    O        5.08659        -8.82846        -8.12138
| 89>    C       10.54053        -9.31580        -5.29819
| 90>    C       10.56686        -8.34687        -4.32399
| 91>    C       11.75812        -7.92520        -3.69714
| 92>    N       12.71442        -7.52010        -3.20731
| 93>    C        9.44971        -7.60663        -3.90853
| 94>    N        8.57854        -6.98208        -3.49506
| 95>    H        0.74888        -6.37767        -6.47783
| 96>    H       -1.57909        -5.30871        -8.52346
| 97>    H        4.92966        -5.30989        -8.96627
| 98>    H        6.61280        -6.81310        -4.17471
| 99>    H        3.26734        -6.05664        -2.32666
|100>    H        2.83091        -6.24125         2.36282
|101>    H        2.72683        -7.87107         1.65196
|102>    H        4.48521        -7.38188         4.34281
|103>    H        8.95985        -8.57634         3.68805
|104>    H        7.23041        -8.24554         8.45946
|105>    H       13.13264        -9.98197         7.58793
|106>    H       12.58636        -9.71270        10.12415
|107>    H       12.57624        -9.72457         4.95806
|108>    H       10.04186       -10.20756         3.31021
|109>    H       13.98563       -10.11313         3.02469
|110>    H       16.20487       -10.45359        -1.09648
|111>    H       15.56120       -12.06790        -0.70649
|112>    H       15.22050       -10.72235        -3.71971
|113>    H       13.62997       -10.77986        -5.83562
|114>    H        7.63945        -8.83883        -5.24713
|115>    H        9.56934       -10.80294        -9.39197
|116>    H        5.57686        -8.82340        -8.95728
|117> *
|118>
|119>                          ****END OF INPUT****

CARTESIAN COORDINATES (ANGSTROEM)
---------------------------------
  C      1.665390   -6.157480   -7.000560
  C      1.600010   -5.598050   -8.275730
  C      0.284570   -5.315190   -8.907450
  O      0.140550   -4.965070  -10.049440
  O     -0.741560   -5.486850   -8.067560
  C      2.770180   -5.299740   -8.993380
  C      2.740860   -4.730690  -10.291510
  N      2.857040   -4.260800  -11.330110
  C      4.024730   -5.542570   -8.425290
  C      4.075380   -6.077640   -7.157100
  C      2.907100   -6.401310   -6.441700
  C      3.293390   -6.999740   -5.162710
  C      2.504730   -7.841350   -4.426750
  C      1.145690   -8.089280   -4.712820
  N      0.031440   -8.303880   -4.884620
  C      2.968540   -8.631340   -3.354530
  N      3.278080   -9.318280   -2.489100
  C      4.714730   -6.784830   -5.004980
  C      5.258040   -6.410550   -6.330470
  O      6.421230   -6.405430   -6.673790
  C      5.553870   -6.855670   -3.933790
  C      5.260440   -6.905560   -2.556660
  C      4.125480   -6.506340   -1.862550
  C      4.234980   -6.697720   -0.489080
  C      5.467240   -7.250360   -0.120790
  S      6.493370   -7.496380   -1.475560
  C      5.722470   -7.475510    1.247690
  C      4.708070   -7.274940    2.172490
  C      3.326750   -6.945490    1.688850
  O      3.288200   -6.333180    0.402380
  C      5.125340   -7.484000    3.484780
  C      6.456170   -7.852290    3.581840
  S      7.204440   -7.931650    2.000810
  C      7.209750   -8.168890    4.747670
  C      8.523180   -8.569550    4.676350
  C      9.320750   -8.920630    5.762200
  C      8.832130   -8.732260    7.134910
  C      7.570800   -8.358150    7.442270
  S      6.352380   -8.036140    6.276340
  C      9.943490   -9.020280    7.974720
  C     11.042550   -9.376520    7.192760
  C     12.176280   -9.682440    7.976360
  C     11.915440   -9.549320    9.303530
  S     10.293780   -9.057620    9.656880
  C     10.662310   -9.354630    5.803420
  C     11.517060   -9.719940    4.737700
  C     11.098940  -10.088090    3.494880
  C     11.920230  -10.339380    2.374530
  C     13.299320  -10.311960    2.223920
  C     13.708910  -10.554110    0.913950
  C     12.634430  -10.752620    0.034140
  S     11.119170  -10.679920    0.859570
  C     12.883790  -10.795940   -1.341120
  C     14.205970  -10.825560   -1.796350
  C     15.306700  -10.997290   -0.791790
  O     14.991770  -10.513230    0.513390
  C     14.295910  -10.730880   -3.171060
  C     13.059700  -10.589950   -3.804680
  S     11.754900  -10.657990   -2.629910
  C     12.830270  -10.454290   -5.178700
  C     11.676110  -10.043170   -5.802810
  C     11.400650  -10.413440   -7.204320
  O     12.163570  -10.901170   -8.007440
  C      9.956280  -10.113620   -7.402050
  C      9.435380   -9.525050   -6.233880
  C      8.086040   -9.239010   -6.143040
  C      7.260140   -9.489880   -7.239440
  C      7.800660  -10.030220   -8.419280
  C      9.160120  -10.362350   -8.495430
  C      7.012470  -10.290370   -9.564410
  N      6.412150  -10.498210  -10.520060
  C      5.803890   -9.200810   -7.054980
  O      5.280680   -9.278400   -5.974500
  O      5.086590   -8.828460   -8.121380
  C     10.540530   -9.315800   -5.298190
  C     10.566860   -8.346870   -4.323990
  C     11.758120   -7.925200   -3.697140
  N     12.714420   -7.520100   -3.207310
  C      9.449710   -7.606630   -3.908530
  N      8.578540   -6.982080   -3.495060
  H      0.748880   -6.377670   -6.477830
  H     -1.579090   -5.308710   -8.523460
  H      4.929660   -5.309890   -8.966270
  H      6.612800   -6.813100   -4.174710
  H      3.267340   -6.056640   -2.326660
  H      2.830910   -6.241250    2.362820
  H      2.726830   -7.871070    1.651960
  H      4.485210   -7.381880    4.342810
  H      8.959850   -8.576340    3.688050
  H      7.230410   -8.245540    8.459460
  H     13.132640   -9.981970    7.587930
  H     12.586360   -9.712700   10.124150
  H     12.576240   -9.724570    4.958060
  H     10.041860  -10.207560    3.310210
  H     13.985630  -10.113130    3.024690
  H     16.204870  -10.453590   -1.096480
  H     15.561200  -12.067900   -0.706490
  H     15.220500  -10.722350   -3.719710
  H     13.629970  -10.779860   -5.835620
  H      7.639450   -8.838830   -5.247130
  H      9.569340  -10.802940   -9.391970
  H      5.576860   -8.823400   -8.957280

 Total Charge           Charge          ....    0
 Multiplicity           Mult            ....    1
 Number of Electrons    NEL             ....  584
 Basis Dimension        Dim             .... 1254

ORBITAL ENERGIES
----------------

  NO   OCC          E(Eh)            E(eV)
   0   2.0000     -88.987365     -2421.4693
   1   2.0000     -88.979915     -2421.2666
   2   2.0000     -88.977352     -2421.1968
   3   2.0000     -88.973728     -2421.0982
   4   2.0000     -88.967152     -2420.9193
   5   2.0000     -88.964019     -2420.8340
   6   2.0000     -19.276284      -524.5344
   7   2.0000     -19.275027      -524.5002
   8   2.0000     -19.269707      -524.3554
   9   2.0000     -19.257745      -524.0299
  10   2.0000     -19.219945      -523.0013
  11   2.0000     -19.219690      -522.9944
  12   2.0000     -19.218645      -522.9659
  13   2.0000     -19.212021      -522.7857
  14   2.0000     -14.437200      -392.8562
  15   2.0000     -14.427058      -392.5802
  16   2.0000     -14.416112      -392.2824
  17   2.0000     -14.411808      -392.1652
  18   2.0000     -14.408842      -392.0845
  19   2.0000     -14.398157      -391.7938
  20   2.0000     -10.423550      -283.6392
  21   2.0000     -10.413765      -283.3730
  22   2.0000     -10.372748      -282.2568
  23   2.0000     -10.368890      -282.1519
  24   2.0000     -10.364101      -282.0215
  25   2.0000     -10.356056      -281.8026
  26   2.0000     -10.349865      -281.6341
  27   2.0000     -10.347903      -281.5808
  28   2.0000     -10.346816      -281.5512
  29   2.0000     -10.345895      -281.5261
  30   2.0000     -10.343696      -281.4663
  31   2.0000     -10.341549      -281.4079
  32   2.0000     -10.340451      -281.3780
  33   2.0000     -10.338936      -281.3367
  34   2.0000     -10.337682      -281.3026
  35   2.0000     -10.337354      -281.2937
  36   2.0000     -10.334258      -281.2094
  37   2.0000     -10.333705      -281.1944
  38   2.0000     -10.332983      -281.1748
  39   2.0000     -10.332895      -281.1724
  40   2.0000     -10.330404      -281.1046
  41   2.0000     -10.326476      -280.9977
  42   2.0000     -10.326142      -280.9886
  43   2.0000     -10.325845      -280.9805
  44   2.0000     -10.323382      -280.9135
  45   2.0000     -10.322555      -280.8910
  46   2.0000     -10.320740      -280.8416
  47   2.0000     -10.318835      -280.7898
  48   2.0000     -10.318267      -280.7743
  49   2.0000     -10.316883      -280.7367
  50   2.0000     -10.314857      -280.6815
  51   2.0000     -10.314741      -280.6784
  52   2.0000     -10.314058      -280.6598
  53   2.0000     -10.313394      -280.6417
  54   2.0000     -10.313006      -280.6312
  55   2.0000     -10.312012      -280.6041
  56   2.0000     -10.311822      -280.5989
  57   2.0000     -10.310396      -280.5601
  58   2.0000     -10.310328      -280.5583
  59   2.0000     -10.308396      -280.5057
  60   2.0000     -10.307742      -280.4879
  61   2.0000     -10.306647      -280.4581
  62   2.0000     -10.304287      -280.3939
  63   2.0000     -10.304156      -280.3903
  64   2.0000     -10.302896      -280.3560
  65   2.0000     -10.301384      -280.3149
  66   2.0000     -10.299361      -280.2599
  67   2.0000     -10.299020      -280.2506
  68   2.0000     -10.298379      -280.2331
  69   2.0000     -10.297333      -280.2047
  70   2.0000     -10.296974      -280.1949
  71   2.0000     -10.295176      -280.1460
  72   2.0000     -10.294042      -280.1151
  73   2.0000     -10.290521      -280.0193
  74   2.0000     -10.290300      -280.0133
  75   2.0000     -10.288548      -279.9656
  76   2.0000     -10.288198      -279.9561
  77   2.0000     -10.284486      -279.8551
  78   2.0000     -10.282550      -279.8024
  79   2.0000     -10.281662      -279.7782
  80   2.0000      -8.082617      -219.9392
  81   2.0000      -8.074894      -219.7290
  82   2.0000      -8.072408      -219.6614
  83   2.0000      -8.069394      -219.5794
  84   2.0000      -8.062007      -219.3784
  85   2.0000      -8.059365      -219.3065
  86   2.0000      -6.052212      -164.6891
  87   2.0000      -6.047630      -164.5644
  88   2.0000      -6.044485      -164.4788
  89   2.0000      -6.044285      -164.4734
  90   2.0000      -6.041762      -164.4047
  91   2.0000      -6.040206      -164.3624
  92   2.0000      -6.038837      -164.3251
  93   2.0000      -6.037775      -164.2962
  94   2.0000      -6.036749      -164.2683
  95   2.0000      -6.034816      -164.2157
  96   2.0000      -6.034309      -164.2019
  97   2.0000      -6.031344      -164.1212
  98   2.0000      -6.031027      -164.1126
  99   2.0000      -6.028796      -164.0519
 100   2.0000      -6.027143      -164.0069
 101   2.0000      -6.024580      -163.9372
 102   2.0000      -6.024033      -163.9223
 103   2.0000      -6.021401      -163.8507
 104   2.0000      -1.201993       -32.7079
 105   2.0000      -1.198775       -32.6203
 106   2.0000      -1.181859       -32.1600
 107   2.0000      -1.165424       -31.7128
 108   2.0000      -1.134937       -30.8832
 109   2.0000      -1.133622       -30.8474
 110   2.0000      -1.114828       -30.3360
 111   2.0000      -1.103296       -30.0222
 112   2.0000      -1.031977       -28.0815
 113   2.0000      -1.024454       -27.8768
 114   2.0000      -1.018741       -27.7214
 115   2.0000      -1.018063       -27.7029
 116   2.0000      -1.016481       -27.6599
 117   2.0000      -1.009601       -27.4726
 118   2.0000      -1.008997       -27.4562
 119   2.0000      -1.001789       -27.2601
 120   2.0000      -1.000011       -27.2117
 121   2.0000      -0.995568       -27.0908
 122   2.0000      -0.993305       -27.0292
 123   2.0000      -0.986712       -26.8498
 124   2.0000      -0.983299       -26.7569
 125   2.0000      -0.976194       -26.5636
 126   2.0000      -0.970787       -26.4164
 127   2.0000      -0.955745       -26.0071
 128   2.0000      -0.938831       -25.5469
 129   2.0000      -0.920564       -25.0498
 130   2.0000      -0.914449       -24.8834
 131   2.0000      -0.913470       -24.8568
 132   2.0000      -0.903998       -24.5990
 133   2.0000      -0.901349       -24.5269
 134   2.0000      -0.896462       -24.3940
 135   2.0000      -0.891263       -24.2525
 136   2.0000      -0.880135       -23.9497
 137   2.0000      -0.879820       -23.9411
 138   2.0000      -0.874856       -23.8060
 139   2.0000      -0.869011       -23.6470
 140   2.0000      -0.865145       -23.5418
 141   2.0000      -0.857500       -23.3338
 142   2.0000      -0.848456       -23.0877
 143   2.0000      -0.845756       -23.0142
 144   2.0000      -0.832049       -22.6412
 145   2.0000      -0.828607       -22.5475
 146   2.0000      -0.811571       -22.0840
 147   2.0000      -0.810182       -22.0462
 148   2.0000      -0.797592       -21.7036
 149   2.0000      -0.796031       -21.6611
 150   2.0000      -0.793741       -21.5988
 151   2.0000      -0.792078       -21.5535
 152   2.0000      -0.770224       -20.9588
 153   2.0000      -0.754594       -20.5335
 154   2.0000      -0.747011       -20.3272
 155   2.0000      -0.744190       -20.2504
 156   2.0000      -0.741590       -20.1797
 157   2.0000      -0.735150       -20.0044
 158   2.0000      -0.723829       -19.6964
 159   2.0000      -0.713454       -19.4141
 160   2.0000      -0.708138       -19.2694
 161   2.0000      -0.704248       -19.1636
 162   2.0000      -0.701946       -19.1009
 163   2.0000      -0.695833       -18.9346
 164   2.0000      -0.693338       -18.8667
 165   2.0000      -0.688646       -18.7390
 166   2.0000      -0.680281       -18.5114
 167   2.0000      -0.674977       -18.3671
 168   2.0000      -0.670615       -18.2484
 169   2.0000      -0.665602       -18.1120
 170   2.0000      -0.658345       -17.9145
 171   2.0000      -0.655948       -17.8493
 172   2.0000      -0.649157       -17.6645
 173   2.0000      -0.646836       -17.6013
 174   2.0000      -0.642157       -17.4740
 175   2.0000      -0.635433       -17.2910
 176   2.0000      -0.629613       -17.1326
 177   2.0000      -0.627092       -17.0640
 178   2.0000      -0.618621       -16.8335
 179   2.0000      -0.614005       -16.7079
 180   2.0000      -0.607809       -16.5393
 181   2.0000      -0.603719       -16.4280
 182   2.0000      -0.597778       -16.2664
 183   2.0000      -0.595782       -16.2120
 184   2.0000      -0.594089       -16.1660
 185   2.0000      -0.589865       -16.0510
 186   2.0000      -0.586963       -15.9721
 187   2.0000      -0.584077       -15.8936
 188   2.0000      -0.578342       -15.7375
 189   2.0000      -0.577271       -15.7083
 190   2.0000      -0.571971       -15.5641
 191   2.0000      -0.568859       -15.4794
 192   2.0000      -0.565700       -15.3935
 193   2.0000      -0.561571       -15.2811
 194   2.0000      -0.559107       -15.2141
 195   2.0000      -0.558595       -15.2001
 196   2.0000      -0.556970       -15.1559
 197   2.0000      -0.553665       -15.0660
 198   2.0000      -0.551909       -15.0182
 199   2.0000      -0.550824       -14.9887
 200   2.0000      -0.549343       -14.9484
 201   2.0000      -0.543399       -14.7866
 202   2.0000      -0.542335       -14.7577
 203   2.0000      -0.538954       -14.6657
 204   2.0000      -0.532953       -14.5024
 205   2.0000      -0.530151       -14.4261
 206   2.0000      -0.528757       -14.3882
 207   2.0000      -0.526557       -14.3284
 208   2.0000      -0.524938       -14.2843
 209   2.0000      -0.522510       -14.2182
 210   2.0000      -0.521236       -14.1836
 211   2.0000      -0.519299       -14.1309
 212   2.0000      -0.517316       -14.0769
 213   2.0000      -0.514733       -14.0066
 214   2.0000      -0.514591       -14.0027
 215   2.0000      -0.505526       -13.7561
 216   2.0000      -0.503698       -13.7063
 217   2.0000      -0.502918       -13.6851
 218   2.0000      -0.501024       -13.6336
 219   2.0000      -0.499465       -13.5911
 220   2.0000      -0.499051       -13.5799
 221   2.0000      -0.496522       -13.5111
 222   2.0000      -0.494862       -13.4659
 223   2.0000      -0.493023       -13.4158
 224   2.0000      -0.487088       -13.2544
 225   2.0000      -0.486339       -13.2339
 226   2.0000      -0.484298       -13.1784
 227   2.0000      -0.480001       -13.0615
 228   2.0000      -0.478247       -13.0138
 229   2.0000      -0.475920       -12.9504
 230   2.0000      -0.474849       -12.9213
 231   2.0000      -0.473468       -12.8837
 232   2.0000      -0.471866       -12.8401
 233   2.0000      -0.466845       -12.7035
 234   2.0000      -0.466593       -12.6966
 235   2.0000      -0.463989       -12.6258
 236   2.0000      -0.461702       -12.5635
 237   2.0000      -0.458465       -12.4755
 238   2.0000      -0.456370       -12.4185
 239   2.0000      -0.454008       -12.3542
 240   2.0000      -0.453039       -12.3278
 241   2.0000      -0.449127       -12.2214
 242   2.0000      -0.447370       -12.1735
 243   2.0000      -0.445290       -12.1170
 244   2.0000      -0.444720       -12.1015
 245   2.0000      -0.443162       -12.0590
 246   2.0000      -0.441682       -12.0188
 247   2.0000      -0.439689       -11.9645
 248   2.0000      -0.438659       -11.9365
 249   2.0000      -0.436935       -11.8896
 250   2.0000      -0.436042       -11.8653
 251   2.0000      -0.433236       -11.7889
 252   2.0000      -0.432220       -11.7613
 253   2.0000      -0.429534       -11.6882
 254   2.0000      -0.427871       -11.6430
 255   2.0000      -0.426686       -11.6107
 256   2.0000      -0.423949       -11.5363
 257   2.0000      -0.421747       -11.4763
 258   2.0000      -0.419719       -11.4211
 259   2.0000      -0.418175       -11.3791
 260   2.0000      -0.417507       -11.3609
 261   2.0000      -0.416967       -11.3463
 262   2.0000      -0.413701       -11.2574
 263   2.0000      -0.412235       -11.2175
 264   2.0000      -0.410678       -11.1751
 265   2.0000      -0.408400       -11.1131
 266   2.0000      -0.402723       -10.9587
 267   2.0000      -0.400626       -10.9016
 268   2.0000      -0.398528       -10.8445
 269   2.0000      -0.394174       -10.7260
 270   2.0000      -0.389661       -10.6032
 271   2.0000      -0.378935       -10.3113
 272   2.0000      -0.370162       -10.0726
 273   2.0000      -0.363966        -9.9040
 274   2.0000      -0.358436        -9.7535
 275   2.0000      -0.355049        -9.6614
 276   2.0000      -0.352094        -9.5810
 277   2.0000      -0.349091        -9.4992
 278   2.0000      -0.346099        -9.4178
 279   2.0000      -0.343704        -9.3527
 280   2.0000      -0.342750        -9.3267
 281   2.0000      -0.339784        -9.2460
 282   2.0000      -0.332150        -9.0383
 283   2.0000      -0.328467        -8.9380
 284   2.0000      -0.321788        -8.7563
 285   2.0000      -0.313419        -8.5286
 286   2.0000      -0.311446        -8.4749
 287   2.0000      -0.308391        -8.3917
 288   2.0000      -0.289691        -7.8829
 289   2.0000      -0.272381        -7.4119
 290   2.0000      -0.250347        -6.8123
 291   2.0000      -0.226350        -6.1593
 292   0.0000      -0.109257        -2.9730
 293   0.0000      -0.091365        -2.4862
 294   0.0000      -0.084522        -2.3000
 295   0.0000      -0.076919        -2.0931
 296   0.0000      -0.065203        -1.7743

MULLIKEN ATOMIC CHARGES
-----------------------
   0 C :   -0.059199
   1 C :    0.030635
   2 C :    0.143357
   3 O :   -0.161752
   4 O :   -0.159833
   5 C :   -0.092438
   6 C :   -0.148953
   7 N :    0.135765
   8 C :   -0.060407
   9 C :    0.058836
  10 C :    0.048263
  11 C :    0.268531
  12 C :   -0.321788
  13 C :   -0.183429
  14 N :    0.158098
  15 C :   -0.191236
  16 N :    0.173986
  17 C :   -0.076827
  18 C :    0.123086
  19 O :   -0.176369
  20 C :    0.077873
  21 C :   -0.088955
  22 C :   -0.014827
  23 C :    0.198245
  24 C :   -0.139198
  25 S :    0.196992
  26 C :   -0.045653
  27 C :   -0.117013
  28 C :    0.353219
  29 O :   -0.302250
  30 C :   -0.045967
  31 C :   -0.055703
  32 S :    0.137408
  33 C :   -0.007704
  34 C :   -0.109611
  35 C :    0.062625
  36 C :    0.060866
  37 C :   -0.125466
  38 S :    0.134326
  39 C :   -0.110215
  40 C :    0.056027
  41 C :    0.009218
  42 C :   -0.068805
  43 S :    0.132403
  44 C :    0.064411
  45 C :   -0.008796
  46 C :    0.021285
  47 C :   -0.045069
  48 C :   -0.052329
  49 C :    0.220221
  50 C :   -0.179718
  51 S :    0.151584
  52 C :   -0.020807
  53 C :   -0.127133
  54 C :    0.352179
  55 O :   -0.287034
  56 C :    0.040360
  57 C :   -0.105748
  58 S :    0.157436
  59 C :    0.068933
  60 C :   -0.165772
  61 C :    0.149996
  62 O :   -0.139021
  63 C :    0.015395
  64 C :    0.043756
  65 C :   -0.044537
  66 C :    0.058465
  67 C :   -0.059175
  68 C :   -0.039475
  69 C :   -0.231010
  70 N :    0.137780
  71 C :    0.157233
  72 O :   -0.174949
  73 O :   -0.145091
  74 C :    0.247485
  75 C :   -0.336143
  76 C :   -0.210925
  77 N :    0.175139
  78 C :   -0.105640
  79 N :    0.120916
  80 H :    0.019080
  81 H :    0.200644
  82 H :    0.004107
  83 H :    0.020993
  84 H :   -0.004990
  85 H :    0.024964
  86 H :    0.038137
  87 H :   -0.006670
  88 H :    0.000765
  89 H :    0.038912
  90 H :   -0.019063
  91 H :    0.029469
  92 H :   -0.015092
  93 H :   -0.012424
  94 H :   -0.014776
  95 H :    0.031794
  96 H :    0.037024
  97 H :   -0.005354
  98 H :    0.023716
  99 H :    0.003889
 100 H :    0.015580
 101 H :    0.188933
Sum of atomic charges:   -0.0000000

LOEWDIN ATOMIC CHARGES
----------------------
   0 C :    0.025503
   1 C :   -0.035643
   2 C :    0.083538
   3 O :   -0.144600
   4 O :   -0.026344
   5 C :   -0.025823
   6 C :   -0.033830
   7 N :   -0.035886
   8 C :    0.038732
   9 C :   -0.024521
  10 C :    0.005731
  11 C :    0.067101
  12 C :   -0.125262
  13 C :   -0.020526
  14 N :   -0.048957
  15 C :   -0.010809
  16 N :   -0.042240
  17 C :   -0.093509
  18 C :    0.086905
  19 O :   -0.157320
  20 C :    0.052165
  21 C :   -0.166068
  22 C :   -0.034918
  23 C :    0.033531
  24 C :   -0.224825
  25 S :    0.495925
  26 C :   -0.181934
  27 C :   -0.071988
  28 C :    0.108495
  29 O :   -0.096679
  30 C :   -0.055908
  31 C :   -0.181834
  32 S :    0.450360
  33 C :   -0.171925
  34 C :   -0.037291
  35 C :   -0.007354
  36 C :   -0.045764
  37 C :   -0.139291
  38 S :    0.460951
  39 C :   -0.206794
  40 C :   -0.038104
  41 C :   -0.065046
  42 C :   -0.162905
  43 S :    0.424586
  44 C :   -0.060517
  45 C :    0.014877
  46 C :   -0.074858
  47 C :   -0.120197
  48 C :   -0.085642
  49 C :    0.061255
  50 C :   -0.264248
  51 S :    0.437550
  52 C :   -0.134592
  53 C :   -0.094460
  54 C :    0.109558
  55 O :   -0.082047
  56 C :    0.010848
  57 C :   -0.191472
  58 S :    0.471927
  59 C :    0.057641
  60 C :   -0.129612
  61 C :    0.079676
  62 O :   -0.143046
  63 C :   -0.028773
  64 C :    0.008103
  65 C :    0.037047
  66 C :   -0.027628
  67 C :   -0.056924
  68 C :    0.044495
  69 C :   -0.044640
  70 N :   -0.030586
  71 C :    0.086722
  72 O :   -0.144276
  73 O :   -0.009450
  74 C :    0.056417
  75 C :   -0.152850
  76 C :   -0.036189
  77 N :   -0.048854
  78 C :    0.007915
  79 N :   -0.067746
  80 H :    0.044832
  81 H :    0.109058
  82 H :    0.047558
  83 H :    0.038094
  84 H :    0.038174
  85 H :    0.033920
  86 H :    0.029044
  87 H :    0.027936
  88 H :    0.026742
  89 H :    0.037802
  90 H :    0.029791
  91 H :    0.024483
  92 H :    0.031104
  93 H :    0.025869
  94 H :    0.035634
  95 H :    0.037497
  96 H :    0.027698
  97 H :    0.039449
  98 H :    0.051371
  99 H :    0.044515
 100 H :    0.051843
 101 H :    0.092538

  Mayer bond orders larger than 0.100000
B(  0-C ,  1-C ) :   1.3236 B(  0-C , 10-C ) :   1.3308 B(  0-C , 80-H ) :   0.9883
B(  1-C ,  2-C ) :   0.8875 B(  1-C ,  5-C ) :   1.3902 B(  2-C ,  3-O ) :   2.1528
B(  2-C ,  4-O ) :   1.3000 B(  4-O , 81-H ) :   0.9373 B(  5-C ,  6-C ) :   1.0623
B(  5-C ,  8-C ) :   1.3659 B(  6-C ,  7-N ) :   3.0367 B(  8-C ,  9-C ) :   1.3494
B(  8-C , 82-H ) :   1.0175 B(  9-C , 10-C ) :   1.3383 B(  9-C , 18-C ) :   0.9050
B( 10-C , 11-C ) :   0.9877 B( 11-C , 12-C ) :   1.6699 B( 11-C , 17-C ) :   1.0248
B( 12-C , 13-C ) :   1.1257 B( 12-C , 15-C ) :   1.1687 B( 13-C , 14-N ) :   2.9905
B( 15-C , 16-N ) :   3.0039 B( 17-C , 18-C ) :   0.9825 B( 17-C , 20-C ) :   1.6342
B( 18-C , 19-O ) :   2.1804 B( 20-C , 21-C ) :   1.1625 B( 20-C , 83-H ) :   0.8954
B( 21-C , 22-C ) :   1.3753 B( 21-C , 24-C ) :   0.1024 B( 21-C , 25-S ) :   1.1207
B( 22-C , 23-C ) :   1.3295 B( 22-C , 84-H ) :   1.0049 B( 23-C , 24-C ) :   1.4070
B( 23-C , 29-O ) :   1.1546 B( 24-C , 25-S ) :   1.1116 B( 24-C , 26-C ) :   1.1552
B( 26-C , 27-C ) :   1.5326 B( 26-C , 32-S ) :   1.1141 B( 27-C , 28-C ) :   1.0221
B( 27-C , 30-C ) :   1.2967 B( 28-C , 29-O ) :   0.9537 B( 28-C , 85-H ) :   0.9363
B( 28-C , 86-H ) :   0.9328 B( 30-C , 31-C ) :   1.4659 B( 30-C , 87-H ) :   0.9917
B( 31-C , 32-S ) :   1.1148 B( 31-C , 33-C ) :   1.1710 B( 33-C , 34-C ) :   1.5085
B( 33-C , 38-S ) :   1.0635 B( 34-C , 35-C ) :   1.2505 B( 34-C , 88-H ) :   0.9588
B( 35-C , 36-C ) :   1.0644 B( 35-C , 44-C ) :   1.3660 B( 36-C , 37-C ) :   1.6072
B( 36-C , 39-C ) :   1.1734 B( 37-C , 38-S ) :   1.1375 B( 37-C , 89-H ) :   0.9407
B( 39-C , 40-C ) :   1.4469 B( 39-C , 43-S ) :   1.0747 B( 40-C , 41-C ) :   1.2249
B( 40-C , 44-C ) :   1.0919 B( 41-C , 42-C ) :   1.5820 B( 41-C , 90-H ) :   0.9975
B( 42-C , 43-S ) :   1.1593 B( 42-C , 91-H ) :   0.9662 B( 44-C , 45-C ) :   1.1855
B( 45-C , 46-C ) :   1.6173 B( 45-C , 92-H ) :   0.9627 B( 46-C , 47-C ) :   1.1537
B( 46-C , 93-H ) :   0.9531 B( 47-C , 48-C ) :   1.4125 B( 47-C , 51-S ) :   1.1305
B( 48-C , 49-C ) :   1.2989 B( 48-C , 94-H ) :   1.0083 B( 49-C , 50-C ) :   1.3675
B( 49-C , 55-O ) :   1.1896 B( 50-C , 51-S ) :   1.0511 B( 50-C , 52-C ) :   1.2504
B( 52-C , 53-C ) :   1.4104 B( 52-C , 58-S ) :   1.1546 B( 53-C , 54-C ) :   1.0210
B( 53-C , 56-C ) :   1.3859 B( 54-C , 55-O ) :   0.9367 B( 54-C , 95-H ) :   0.9370
B( 54-C , 96-H ) :   0.9372 B( 56-C , 57-C ) :   1.3280 B( 56-C , 97-H ) :   1.0048
B( 57-C , 58-S ) :   1.0655 B( 57-C , 59-C ) :   1.2562 B( 59-C , 60-C ) :   1.4889
B( 59-C , 98-H ) :   0.9545 B( 60-C , 61-C ) :   0.9763 B( 60-C , 74-C ) :   1.0944
B( 61-C , 62-O ) :   2.2742 B( 61-C , 63-C ) :   0.8938 B( 63-C , 64-C ) :   1.3327
B( 63-C , 68-C ) :   1.3879 B( 64-C , 65-C ) :   1.3506 B( 64-C , 74-C ) :   0.9878
B( 65-C , 66-C ) :   1.3642 B( 65-C , 99-H ) :   0.9910 B( 66-C , 67-C ) :   1.3608
B( 66-C , 71-C ) :   0.8769 B( 67-C , 68-C ) :   1.3457 B( 67-C , 69-C ) :   1.0646
B( 68-C ,100-H ) :   1.0117 B( 69-C , 70-N ) :   3.0000 B( 71-C , 72-O ) :   2.1372
B( 71-C , 73-O ) :   1.2553 B( 73-O ,101-H ) :   0.9310 B( 74-C , 75-C ) :   1.6063
B( 75-C , 76-C ) :   1.1513 B( 75-C , 78-C ) :   1.1694 B( 76-C , 77-N ) :   3.0272
B( 78-C , 79-N ) :   2.8726

-----------------------------------------------------------------------------
         ABSORPTION SPECTRUM VIA TRANSITION ELECTRIC DIPOLE MOMENTS
-----------------------------------------------------------------------------
State   Energy  Wavelength   fosc         T2         TX        TY        TZ
        (cm-1)    (nm)                  (au**2)     (au)      (au)      (au)
-----------------------------------------------------------------------------
   0   10919.1    915.8   0.215313202   6.49170   1.47906  -0.47724  -2.01899
   1   15857.8    630.6   1.456119275  30.22938  -2.58380   1.05295  -4.73758
   2   16928.8    590.7   0.063204580   1.22913   0.48320  -0.41524   0.90732
   3   18107.4    552.3   0.353168746   6.42099  -0.80257   0.73245   2.28919
   4   19579.1    510.7   0.125257857   2.10614   0.87198  -0.79727   0.84270
   5   20585.6    485.8   0.271316172   4.33899   0.33477   0.21682   2.04448
   6   21227.1    471.1   0.210670227   3.26729  -0.68060   0.18946   1.66378
   7   21942.3    455.7   0.090489601   1.35767   0.83268  -0.55833   0.59379
   8   22640.8    441.7   0.131994062   1.91928  -0.22443  -0.01342  -1.36701
   9   24187.2    413.4   0.134734296   1.83387  -0.94328   0.38320   0.89289
  10   25185.4    397.1   0.167164868   2.18510   0.86249  -0.21443  -1.18120
  11   26385.9    379.0   0.158725600   1.98039   0.79832  -0.67788  -0.93997
  12   26837.7    372.6   0.015206863   0.18654   0.38818  -0.17817   0.06412
  13   27215.1    367.4   0.131713877   1.59330   0.53682  -0.12018  -1.13608
  14   27456.6    364.2   0.033599035   0.40286  -0.05109   0.22757  -0.59031
  15   28282.9    353.6   0.054057802   0.62923   0.53501   0.24530   0.53181
  16   28457.0    351.4   0.100460896   1.16221   0.05380  -0.37036  -1.01101
  17   28540.1    350.4   0.182600583   2.10631   0.27534   0.47523   1.34337
  18   29211.3    342.3   0.053759537   0.60587  -0.31768   0.18359  -0.68647
  19   29556.7    338.3   0.016162472   0.18002   0.08557  -0.32276   0.26178
  20   29918.9    334.2   0.141014515   1.55165   0.29214   0.22773   1.18930
  21   30414.9    328.8   0.007172480   0.07764   0.15974  -0.14228   0.17854
  22   30600.4    326.8   0.020856483   0.22438   0.19021   0.29306  -0.31987
  23   30744.8    325.3   0.065407087   0.70037  -0.22017   0.25775  -0.76515
  24   30958.4    323.0   0.102392506   1.08884  -0.52908   0.31529  -0.84232
  25   31386.7    318.6   0.071849128   0.75362   0.22354   0.48911  -0.68148
  26   31632.0    316.1   0.043706144   0.45487   0.54108  -0.28416   0.28523
  27   32257.7    310.0   0.015098125   0.15409  -0.03267   0.17825   0.34821
  28   32437.6    308.3   0.083954604   0.85206  -0.27032  -0.16785   0.86650
  29   32544.6    307.3   0.026981577   0.27294   0.42529   0.30251  -0.02362
  30   32688.4    305.9   0.022836198   0.22999   0.01146   0.46829   0.10277
  31   32978.2    303.2   0.023167586   0.23128   0.32788  -0.32097   0.14405
  32   33139.6    301.8   0.031493296   0.31286   0.28876   0.32316   0.35362
  33   33457.8    298.9   0.099592158   0.97995   0.41374  -0.23953  -0.86683
  34   33839.8    295.5   0.054564954   0.53084  -0.69738  -0.17747   0.11404
  35   33848.3    295.4   0.039699875   0.38613   0.14224  -0.43769  -0.41752
  36   33994.2    294.2   0.116248567   1.12579   0.98109  -0.32952  -0.23382
  37   34454.3    290.2   0.171689409   1.64050  -1.21385  -0.40690  -0.03873
  38   34666.1    288.5   0.185046173   1.75732  -0.24637   0.33511  -1.25870
  39   34898.0    286.5   0.250339608   2.36159   0.41830   0.62838  -1.33856
  40   35174.2    284.3   0.053767644   0.50324   0.28702  -0.02940   0.64807
  41   35282.7    283.4   0.125882560   1.17457  -0.31413   0.74996  -0.71655
  42   35407.0    282.4   0.010819008   0.10059   0.15592   0.25906   0.09578
  43   35857.9    278.9   0.027677578   0.25411   0.31667  -0.04117  -0.39004
  44   36169.7    276.5   0.103672475   0.94361  -0.88926   0.00691  -0.39088
  45   36237.2    276.0   0.052960674   0.48114   0.07072   0.62518   0.29205
  46   36622.1    273.1   0.003605510   0.03241  -0.01972   0.10659  -0.14374
  47   36762.1    272.0   0.006774914   0.06067  -0.06411  -0.12957  -0.19943
  48   36963.7    270.5   0.061528769   0.54800  -0.13365  -0.23479  -0.68921
  49   37061.0    269.8   0.017511239   0.15555   0.01640  -0.11524   0.37683
  50   37240.0    268.5   0.021780683   0.19255   0.36900   0.19472   0.13591
  51   37354.1    267.7   0.017929084   0.15801   0.13172   0.21556  -0.30692
  52   37639.3    265.7   0.067730889   0.59241   0.31100   0.16847   0.68360
  53   37771.3    264.8   0.017402573   0.15168   0.18180  -0.02117   0.34377
  54   37932.6    263.6   0.026318652   0.22842   0.30330  -0.35465   0.10317
  55   37961.0    263.4   0.151395577   1.31296   0.76935   0.07688   0.84567
  56   38280.0    261.2   0.010176273   0.08752  -0.03975   0.13439  -0.26053
  57   38409.7    260.4   0.171909828   1.47345  -0.43299   0.49677   1.01941
  58   38490.4    259.8   0.018322294   0.15671   0.23558  -0.22121  -0.22866
  59   38645.2    258.8   0.070693572   0.60223   0.21677  -0.33345   0.66637
  60   38740.1    258.1   0.041926762   0.35629   0.03510   0.46641  -0.37084
  61   39057.5    256.0   0.023824487   0.20081  -0.00321   0.17341  -0.41320
  62   39234.3    254.9   0.022285019   0.18699  -0.15552  -0.34380  -0.21121
  63   39315.5    254.4   0.124815536   1.04515  -0.68860  -0.25762   0.71036
  64   39326.6    254.3   0.044878724   0.37569  -0.44549   0.22725   0.35438
  65   39600.1    252.5   0.033613152   0.27944   0.37337  -0.16174   0.33745
  66   39673.4    252.1   0.038479178   0.31930  -0.53627   0.15253   0.09195
  67   39770.8    251.4   0.012264076   0.10152  -0.11516   0.15710  -0.25214
  68   39794.8    251.3   0.064376242   0.53257   0.28085   0.10377   0.66552
  69   40068.3    249.6   0.099466356   0.81724   0.46097   0.45104   0.63349
  70   40205.5    248.7   0.006457032   0.05287  -0.00426  -0.05798  -0.22247

FINAL SINGLE POINT ENERGY     -5614.187195042792

DIPOLE MOMENT
-------------
                                X             Y             Z
Electronic contribution:    -12.71849       2.99529     -16.98722
Nuclear contribution   :     15.54018      -4.09621      22.97138
                        -----------------------------------------
Total Dipole Moment    :      2.82169      -1.10092       5.98415
                        -----------------------------------------
Magnitude (a.u.)       :      6.70701
Magnitude (Debye)      :     17.04788

Rotational constants in cm-1:     0.000998     0.000405     0.000300
Rotational constants in MHz :    29.917633    12.149881     8.983868

                             ****ORCA TERMINATED NORMALLY****
TOTAL RUN TIME: 0 days 0 hours 14 minutes 3 seconds 540 msec
