                         Program Version 4.2.0 -  RELEASE  -
|  1> # ORCA input file
|  2> # SCF done       -152.970068439883          0.000555472936
|  3> ! CAM-B3LYP def2-SVP def2/J RIJCOSX Grid4 TightSCF
|  4> %maxcore 5000
|  5> %tddft
|  6>     Mode sTDDFT
|  7>     Ethresh 5.0
|  8>     maxcore 5000
|  9> end
| 10>
| 11> %pal
| 12>   nprocs 6
| 13>   end
| 14> * xyz 0 1
| 15>    C       -3.40661         0.24039        -1.55680
| 16>    C       -2.67889         0.74868        -0.51789
| 17>    C       -1.45106        -0.00819        -0.43009
| 18>    C       -1.47707        -1.02139        -1.45019
| 19>    O       -0.71229        -1.91565        -1.74316
| 20>    N       -2.69880        -0.78017        -2.10935
| 21>    C       -0.73986         0.50742         0.62364
| 22>    O       -1.43818         1.53300         1.20030
| 23>    C       -2.66418         1.71049         0.54784
| 24>    O       -3.44974         2.53066         0.95103
| 25>    N        0.41664         0.21066         1.21614
| 26>    C        1.29695        -0.78558         0.86965
| 27>    S        1.74129        -1.10659        -0.76186
| 28>    C        2.79812        -2.35770        -0.20482
| 29>    N        3.54673        -3.06371        -1.16109
| 30>    O        4.25359        -3.97042        -0.76515
| 31>    O        3.43998        -2.70495        -2.31823
| 32>    C        2.79190        -2.53138         1.15509
| 33>    C        1.93324        -1.62372         1.80159
| 34>    C        1.56591        -1.57551         3.18227
| 35>    C        1.82064        -2.46938         4.16954
| 36>    C        1.14184        -2.41559         5.41680
| 37>    C       -0.11042        -1.88839         5.60404
| 38>    C       -0.83875        -1.79238         6.82098
| 39>    C       -2.10015        -1.29467         6.69667
| 40>    C       -2.46191        -0.98309         5.36563
| 41>    S       -1.13207        -1.32229         4.28391
| 42>    C       -3.60816        -0.40768         4.86072
| 43>    C       -4.70038         0.17016         5.54455
| 44>    C       -5.56549         0.84027         4.73783
| 45>    C       -5.24275         0.78283         3.35191
| 46>    S       -3.79579        -0.19685         3.12615
| 47>    C       -5.82366         1.39609         2.28219
| 48>    N       -6.71825         2.43870         2.36000
| 49>    C       -6.76398         3.41134         3.30541
| 50>    S       -8.26796         4.23601         3.58650
| 51>    C       -7.52465         5.13737         4.87555
| 52>    N       -8.30934         6.09253         5.52384
| 53>    O       -7.79744         6.73742         6.42058
| 54>    O       -9.46158         6.20521         5.13440
| 55>    C       -6.21153         4.80678         5.07776
| 56>    C       -5.74290         3.84012         4.17058
| 57>    C       -4.37669         3.38793         4.09290
| 58>    C       -3.58244         3.25661         5.17786
| 59>    C       -2.27694         2.70107         5.18040
| 60>    C       -1.55931         2.26963         6.27920
| 61>    C       -0.29852         1.74877         5.82495
| 62>    C       -0.27811         1.87574         4.37640
| 63>    O        0.58198         1.56325         3.57015
| 64>    N       -1.49721         2.44426         4.06457
| 65>    C        0.36046         1.29696         6.91932
| 66>    O       -0.37435         1.46765         8.03062
| 67>    C       -1.61336         2.06717         7.70064
| 68>    O       -2.45205         2.27516         8.53378
| 69>    H       -4.36628         0.53097        -1.94025
| 70>    H       -3.00367        -1.33925        -2.89152
| 71>    H        0.58454         0.74100         2.09123
| 72>    H        3.38595        -3.27878         1.64763
| 73>    H        0.98025        -0.71087         3.45151
| 74>    H        2.54177        -3.26328         4.03207
| 75>    H        1.60439        -2.89296         6.27042
| 76>    H       -0.39929        -2.09157         7.75632
| 77>    H       -2.78273        -1.15984         7.51657
| 78>    H       -4.79118         0.11043         6.61399
| 79>    H       -6.44939         1.34065         5.08974
| 80>    H       -5.55977         1.09271         1.28030
| 81>    H       -7.40547         2.50503         1.62026
| 82>    H       -5.60333         5.29069         5.82009
| 83>    H       -4.02160         3.12053         3.10673
| 84>    H       -3.96999         3.47229         6.16403
| 85>    H       -1.78103         2.63269         3.11269
| 86>    H        1.32643         0.84233         7.04058
| 87> *
| 88>
| 89>                          ****END OF INPUT****

CARTESIAN COORDINATES (ANGSTROEM)
---------------------------------
  C     -3.406610    0.240390   -1.556800
  C     -2.678890    0.748680   -0.517890
  C     -1.451060   -0.008190   -0.430090
  C     -1.477070   -1.021390   -1.450190
  O     -0.712290   -1.915650   -1.743160
  N     -2.698800   -0.780170   -2.109350
  C     -0.739860    0.507420    0.623640
  O     -1.438180    1.533000    1.200300
  C     -2.664180    1.710490    0.547840
  O     -3.449740    2.530660    0.951030
  N      0.416640    0.210660    1.216140
  C      1.296950   -0.785580    0.869650
  S      1.741290   -1.106590   -0.761860
  C      2.798120   -2.357700   -0.204820
  N      3.546730   -3.063710   -1.161090
  O      4.253590   -3.970420   -0.765150
  O      3.439980   -2.704950   -2.318230
  C      2.791900   -2.531380    1.155090
  C      1.933240   -1.623720    1.801590
  C      1.565910   -1.575510    3.182270
  C      1.820640   -2.469380    4.169540
  C      1.141840   -2.415590    5.416800
  C     -0.110420   -1.888390    5.604040
  C     -0.838750   -1.792380    6.820980
  C     -2.100150   -1.294670    6.696670
  C     -2.461910   -0.983090    5.365630
  S     -1.132070   -1.322290    4.283910
  C     -3.608160   -0.407680    4.860720
  C     -4.700380    0.170160    5.544550
  C     -5.565490    0.840270    4.737830
  C     -5.242750    0.782830    3.351910
  S     -3.795790   -0.196850    3.126150
  C     -5.823660    1.396090    2.282190
  N     -6.718250    2.438700    2.360000
  C     -6.763980    3.411340    3.305410
  S     -8.267960    4.236010    3.586500
  C     -7.524650    5.137370    4.875550
  N     -8.309340    6.092530    5.523840
  O     -7.797440    6.737420    6.420580
  O     -9.461580    6.205210    5.134400
  C     -6.211530    4.806780    5.077760
  C     -5.742900    3.840120    4.170580
  C     -4.376690    3.387930    4.092900
  C     -3.582440    3.256610    5.177860
  C     -2.276940    2.701070    5.180400
  C     -1.559310    2.269630    6.279200
  C     -0.298520    1.748770    5.824950
  C     -0.278110    1.875740    4.376400
  O      0.581980    1.563250    3.570150
  N     -1.497210    2.444260    4.064570
  C      0.360460    1.296960    6.919320
  O     -0.374350    1.467650    8.030620
  C     -1.613360    2.067170    7.700640
  O     -2.452050    2.275160    8.533780
  H     -4.366280    0.530970   -1.940250
  H     -3.003670   -1.339250   -2.891520
  H      0.584540    0.741000    2.091230
  H      3.385950   -3.278780    1.647630
  H      0.980250   -0.710870    3.451510
  H      2.541770   -3.263280    4.032070
  H      1.604390   -2.892960    6.270420
  H     -0.399290   -2.091570    7.756320
  H     -2.782730   -1.159840    7.516570
  H     -4.791180    0.110430    6.613990
  H     -6.449390    1.340650    5.089740
  H     -5.559770    1.092710    1.280300
  H     -7.405470    2.505030    1.620260
  H     -5.603330    5.290690    5.820090
  H     -4.021600    3.120530    3.106730
  H     -3.969990    3.472290    6.164030
  H     -1.781030    2.632690    3.112690
  H      1.326430    0.842330    7.040580

 Total Charge           Charge          ....    0
 Multiplicity           Mult            ....    1
 Number of Electrons    NEL             ....  408
 Basis Dimension        Dim             ....  862

ORBITAL ENERGIES
----------------

  NO   OCC          E(Eh)            E(eV)
   0   2.0000     -88.987515     -2421.4734
   1   2.0000     -88.979666     -2421.2598
   2   2.0000     -88.955124     -2420.5920
   3   2.0000     -88.951567     -2420.4952
   4   2.0000     -19.308201      -525.4028
   5   2.0000     -19.287140      -524.8298
   6   2.0000     -19.239020      -523.5204
   7   2.0000     -19.234929      -523.4090
   8   2.0000     -19.234670      -523.4020
   9   2.0000     -19.232134      -523.3330
  10   2.0000     -19.231383      -523.3125
  11   2.0000     -19.220210      -523.0085
  12   2.0000     -19.214237      -522.8460
  13   2.0000     -19.191487      -522.2269
  14   2.0000     -14.647016      -398.5656
  15   2.0000     -14.643387      -398.4668
  16   2.0000     -14.489416      -394.2770
  17   2.0000     -14.482430      -394.0870
  18   2.0000     -14.475156      -393.8890
  19   2.0000     -14.472276      -393.8106
  20   2.0000     -10.436442      -283.9900
  21   2.0000     -10.422070      -283.5989
  22   2.0000     -10.411345      -283.3071
  23   2.0000     -10.409536      -283.2579
  24   2.0000     -10.387124      -282.6480
  25   2.0000     -10.376834      -282.3680
  26   2.0000     -10.370477      -282.1950
  27   2.0000     -10.359181      -281.8877
  28   2.0000     -10.358519      -281.8696
  29   2.0000     -10.355495      -281.7873
  30   2.0000     -10.342523      -281.4344
  31   2.0000     -10.337969      -281.3104
  32   2.0000     -10.336509      -281.2707
  33   2.0000     -10.318278      -280.7746
  34   2.0000     -10.316534      -280.7272
  35   2.0000     -10.314174      -280.6629
  36   2.0000     -10.313331      -280.6400
  37   2.0000     -10.313146      -280.6350
  38   2.0000     -10.309088      -280.5245
  39   2.0000     -10.303784      -280.3802
  40   2.0000     -10.299409      -280.2612
  41   2.0000     -10.298853      -280.2460
  42   2.0000     -10.296642      -280.1859
  43   2.0000     -10.295353      -280.1508
  44   2.0000     -10.294414      -280.1252
  45   2.0000     -10.293774      -280.1078
  46   2.0000     -10.293544      -280.1016
  47   2.0000     -10.291536      -280.0469
  48   2.0000     -10.287628      -279.9406
  49   2.0000     -10.285490      -279.8824
  50   2.0000     -10.283498      -279.8282
  51   2.0000     -10.282763      -279.8082
  52   2.0000     -10.281763      -279.7810
  53   2.0000     -10.280261      -279.7401
  54   2.0000      -8.083443      -219.9617
  55   2.0000      -8.074548      -219.7196
  56   2.0000      -8.050759      -219.0723
  57   2.0000      -8.046463      -218.9554
  58   2.0000      -6.053115      -164.7136
  59   2.0000      -6.048709      -164.5937
  60   2.0000      -6.044799      -164.4873
  61   2.0000      -6.043851      -164.4616
  62   2.0000      -6.039476      -164.3425
  63   2.0000      -6.036649      -164.2656
  64   2.0000      -6.020727      -163.8323
  65   2.0000      -6.016633      -163.7209
  66   2.0000      -6.016313      -163.7122
  67   2.0000      -6.012178      -163.5997
  68   2.0000      -6.011415      -163.5789
  69   2.0000      -6.007427      -163.4704
  70   2.0000      -1.315587       -35.7989
  71   2.0000      -1.314001       -35.7558
  72   2.0000      -1.241547       -33.7842
  73   2.0000      -1.215273       -33.0693
  74   2.0000      -1.156001       -31.4564
  75   2.0000      -1.148705       -31.2579
  76   2.0000      -1.135971       -30.9113
  77   2.0000      -1.134883       -30.8817
  78   2.0000      -1.132837       -30.8261
  79   2.0000      -1.122627       -30.5482
  80   2.0000      -1.092806       -29.7368
  81   2.0000      -1.085278       -29.5319
  82   2.0000      -1.075947       -29.2780
  83   2.0000      -1.068343       -29.0711
  84   2.0000      -1.007171       -27.4065
  85   2.0000      -1.001009       -27.2388
  86   2.0000      -0.999165       -27.1887
  87   2.0000      -0.978933       -26.6381
  88   2.0000      -0.929314       -25.2879
  89   2.0000      -0.926652       -25.2155
  90   2.0000      -0.921371       -25.0718
  91   2.0000      -0.919466       -25.0200
  92   2.0000      -0.901169       -24.5220
  93   2.0000      -0.893457       -24.3122
  94   2.0000      -0.881419       -23.9846
  95   2.0000      -0.869809       -23.6687
  96   2.0000      -0.859110       -23.3776
  97   2.0000      -0.854371       -23.2486
  98   2.0000      -0.843706       -22.9584
  99   2.0000      -0.833432       -22.6788
 100   2.0000      -0.828661       -22.5490
 101   2.0000      -0.822628       -22.3848
 102   2.0000      -0.814726       -22.1698
 103   2.0000      -0.806242       -21.9390
 104   2.0000      -0.791942       -21.5498
 105   2.0000      -0.778530       -21.1849
 106   2.0000      -0.776711       -21.1354
 107   2.0000      -0.767094       -20.8737
 108   2.0000      -0.759976       -20.6800
 109   2.0000      -0.742179       -20.1957
 110   2.0000      -0.725784       -19.7496
 111   2.0000      -0.713879       -19.4256
 112   2.0000      -0.700403       -19.0589
 113   2.0000      -0.696713       -18.9585
 114   2.0000      -0.686183       -18.6720
 115   2.0000      -0.681206       -18.5365
 116   2.0000      -0.675843       -18.3906
 117   2.0000      -0.666221       -18.1288
 118   2.0000      -0.657963       -17.9041
 119   2.0000      -0.641072       -17.4445
 120   2.0000      -0.637651       -17.3514
 121   2.0000      -0.636279       -17.3140
 122   2.0000      -0.631642       -17.1878
 123   2.0000      -0.628415       -17.1001
 124   2.0000      -0.627968       -17.0879
 125   2.0000      -0.624961       -17.0061
 126   2.0000      -0.624067       -16.9817
 127   2.0000      -0.621844       -16.9212
 128   2.0000      -0.620289       -16.8789
 129   2.0000      -0.611134       -16.6298
 130   2.0000      -0.602275       -16.3887
 131   2.0000      -0.600782       -16.3481
 132   2.0000      -0.599738       -16.3197
 133   2.0000      -0.598034       -16.2733
 134   2.0000      -0.596097       -16.2206
 135   2.0000      -0.593178       -16.1412
 136   2.0000      -0.585968       -15.9450
 137   2.0000      -0.582767       -15.8579
 138   2.0000      -0.580282       -15.7903
 139   2.0000      -0.577794       -15.7226
 140   2.0000      -0.568161       -15.4604
 141   2.0000      -0.568014       -15.4565
 142   2.0000      -0.561211       -15.2713
 143   2.0000      -0.557780       -15.1780
 144   2.0000      -0.548553       -14.9269
 145   2.0000      -0.543530       -14.7902
 146   2.0000      -0.539749       -14.6873
 147   2.0000      -0.539105       -14.6698
 148   2.0000      -0.536152       -14.5894
 149   2.0000      -0.534068       -14.5327
 150   2.0000      -0.526593       -14.3293
 151   2.0000      -0.523297       -14.2396
 152   2.0000      -0.517526       -14.0826
 153   2.0000      -0.514568       -14.0021
 154   2.0000      -0.511304       -13.9133
 155   2.0000      -0.506713       -13.7884
 156   2.0000      -0.504054       -13.7160
 157   2.0000      -0.500794       -13.6273
 158   2.0000      -0.496338       -13.5060
 159   2.0000      -0.493588       -13.4312
 160   2.0000      -0.490559       -13.3488
 161   2.0000      -0.484666       -13.1884
 162   2.0000      -0.483445       -13.1552
 163   2.0000      -0.480009       -13.0617
 164   2.0000      -0.478045       -13.0083
 165   2.0000      -0.476661       -12.9706
 166   2.0000      -0.472190       -12.8489
 167   2.0000      -0.468002       -12.7350
 168   2.0000      -0.460192       -12.5225
 169   2.0000      -0.457242       -12.4422
 170   2.0000      -0.451943       -12.2980
 171   2.0000      -0.448722       -12.2104
 172   2.0000      -0.444017       -12.0823
 173   2.0000      -0.439301       -11.9540
 174   2.0000      -0.434939       -11.8353
 175   2.0000      -0.433220       -11.7885
 176   2.0000      -0.426659       -11.6100
 177   2.0000      -0.419859       -11.4249
 178   2.0000      -0.414513       -11.2795
 179   2.0000      -0.403676       -10.9846
 180   2.0000      -0.395523       -10.7627
 181   2.0000      -0.391518       -10.6537
 182   2.0000      -0.383188       -10.4271
 183   2.0000      -0.379297       -10.3212
 184   2.0000      -0.377704       -10.2779
 185   2.0000      -0.376633       -10.2487
 186   2.0000      -0.373720       -10.1694
 187   2.0000      -0.370425       -10.0798
 188   2.0000      -0.368648       -10.0314
 189   2.0000      -0.366297        -9.9674
 190   2.0000      -0.363812        -9.8998
 191   2.0000      -0.360351        -9.8056
 192   2.0000      -0.357166        -9.7190
 193   2.0000      -0.354793        -9.6544
 194   2.0000      -0.347004        -9.4425
 195   2.0000      -0.340853        -9.2751
 196   2.0000      -0.338177        -9.2023
 197   2.0000      -0.326025        -8.8716
 198   2.0000      -0.315869        -8.5952
 199   2.0000      -0.304588        -8.2883
 200   2.0000      -0.284440        -7.7400
 201   2.0000      -0.274911        -7.4807
 202   2.0000      -0.264682        -7.2024
 203   2.0000      -0.218495        -5.9455
 204   0.0000      -0.095448        -2.5973
 205   0.0000      -0.066685        -1.8146
 206   0.0000      -0.062285        -1.6949
 207   0.0000      -0.051476        -1.4007
 208   0.0000      -0.041296        -1.1237

MULLIKEN ATOMIC CHARGES
-----------------------
   0 C :    0.048087
   1 C :   -0.049799
   2 C :   -0.132699
   3 C :    0.133462
   4 O :   -0.183148
   5 N :   -0.117059
   6 C :    0.145597
   7 O :   -0.284341
   8 C :    0.247566
   9 O :   -0.174886
  10 N :   -0.012286
  11 C :   -0.111640
  12 S :    0.265098
  13 C :   -0.019152
  14 N :    0.274488
  15 O :   -0.250138
  16 O :   -0.256068
  17 C :   -0.008639
  18 C :    0.146014
  19 C :   -0.047401
  20 C :    0.015411
  21 C :   -0.002034
  22 C :   -0.047146
  23 C :    0.046787
  24 C :    0.035295
  25 C :   -0.048401
  26 S :    0.025367
  27 C :   -0.065462
  28 C :    0.031545
  29 C :    0.063409
  30 C :   -0.124480
  31 S :    0.057240
  32 C :    0.067436
  33 N :   -0.019338
  34 C :   -0.112657
  35 S :    0.168111
  36 C :   -0.010109
  37 N :    0.281366
  38 O :   -0.252505
  39 O :   -0.271834
  40 C :    0.003277
  41 C :    0.037779
  42 C :    0.027271
  43 C :    0.002432
  44 C :    0.083736
  45 C :   -0.104148
  46 C :   -0.025047
  47 C :    0.241367
  48 O :   -0.251240
  49 N :   -0.111040
  50 C :    0.123370
  51 O :   -0.249058
  52 C :    0.209258
  53 O :   -0.140465
  54 H :    0.019369
  55 H :    0.138792
  56 H :    0.194585
  57 H :    0.007439
  58 H :   -0.002758
  59 H :   -0.007181
  60 H :   -0.009572
  61 H :   -0.008684
  62 H :   -0.001441
  63 H :   -0.000511
  64 H :    0.005228
  65 H :    0.002245
  66 H :    0.143856
  67 H :    0.016526
  68 H :    0.022358
  69 H :    0.003499
  70 H :    0.146169
  71 H :    0.031529
Sum of atomic charges:   -0.0000000

LOEWDIN ATOMIC CHARGES
----------------------
   0 C :    0.076343
   1 C :   -0.139252
   2 C :   -0.187518
   3 C :    0.059400
   4 O :   -0.207286
   5 N :    0.043022
   6 C :    0.142102
   7 O :   -0.064591
   8 C :    0.111530
   9 O :   -0.162072
  10 N :    0.050243
  11 C :   -0.124346
  12 S :    0.542105
  13 C :   -0.201033
  14 N :    0.274201
  15 O :   -0.215509
  16 O :   -0.222075
  17 C :   -0.008890
  18 C :   -0.076787
  19 C :   -0.033268
  20 C :   -0.033428
  21 C :   -0.055691
  22 C :   -0.142614
  23 C :   -0.033512
  24 C :   -0.032244
  25 C :   -0.188612
  26 S :    0.390740
  27 C :   -0.179471
  28 C :   -0.024594
  29 C :   -0.034949
  30 C :   -0.186298
  31 S :    0.358705
  32 C :   -0.009244
  33 N :    0.032966
  34 C :   -0.097792
  35 S :    0.449394
  36 C :   -0.215248
  37 N :    0.273602
  38 O :   -0.218193
  39 O :   -0.237688
  40 C :    0.008723
  41 C :   -0.113701
  42 C :    0.028989
  43 C :   -0.040181
  44 C :    0.088440
  45 C :   -0.135910
  46 C :   -0.126880
  47 C :    0.105455
  48 O :   -0.201338
  49 N :    0.048160
  50 C :    0.139749
  51 O :   -0.050022
  52 C :    0.101532
  53 O :   -0.146030
  54 H :    0.033520
  55 H :    0.094855
  56 H :    0.080736
  57 H :    0.043246
  58 H :    0.010501
  59 H :    0.028720
  60 H :    0.032901
  61 H :    0.034464
  62 H :    0.035940
  63 H :    0.037528
  64 H :    0.034364
  65 H :    0.022055
  66 H :    0.093570
  67 H :    0.048385
  68 H :    0.031069
  69 H :    0.041473
  70 H :    0.081544
  71 H :    0.035994

  Mayer bond orders larger than 0.100000
B(  0-C ,  1-C ) :   1.4826 B(  0-C ,  5-N ) :   1.2262 B(  0-C , 54-H ) :   0.9889
B(  1-C ,  2-C ) :   1.1536 B(  1-C ,  8-C ) :   1.0062 B(  2-C ,  3-C ) :   0.9796
B(  2-C ,  6-C ) :   1.3886 B(  3-C ,  4-O ) :   2.1636 B(  3-C ,  5-N ) :   1.0576
B(  5-N , 55-H ) :   0.9266 B(  6-C ,  7-O ) :   1.1035 B(  6-C , 10-N ) :   1.3342
B(  7-O ,  8-C ) :   0.9712 B(  8-C ,  9-O ) :   2.0983 B( 10-N , 11-C ) :   1.1175
B( 10-N , 56-H ) :   0.7931 B( 11-C , 12-S ) :   1.1864 B( 11-C , 18-C ) :   1.3784
B( 12-S , 13-C ) :   1.1421 B( 13-C , 14-N ) :   0.9572 B( 13-C , 17-C ) :   1.4759
B( 14-N , 15-O ) :   1.5386 B( 14-N , 16-O ) :   1.5261 B( 15-O , 16-O ) :   0.2624
B( 17-C , 18-C ) :   1.2314 B( 17-C , 57-H ) :   0.9994 B( 18-C , 19-C ) :   1.1201
B( 19-C , 20-C ) :   1.6914 B( 19-C , 58-H ) :   0.9196 B( 20-C , 21-C ) :   1.1417
B( 20-C , 59-H ) :   0.9635 B( 21-C , 22-C ) :   1.6098 B( 21-C , 60-H ) :   0.9632
B( 22-C , 23-C ) :   1.1348 B( 22-C , 26-S ) :   1.0279 B( 23-C , 24-C ) :   1.5939
B( 23-C , 61-H ) :   0.9992 B( 24-C , 25-C ) :   1.1818 B( 24-C , 62-H ) :   0.9947
B( 25-C , 26-S ) :   1.0372 B( 25-C , 27-C ) :   1.5183 B( 27-C , 28-C ) :   1.1753
B( 27-C , 31-S ) :   1.0438 B( 28-C , 29-C ) :   1.6212 B( 28-C , 63-H ) :   0.9993
B( 29-C , 30-C ) :   1.1054 B( 29-C , 64-H ) :   0.9913 B( 30-C , 31-S ) :   1.0171
B( 30-C , 32-C ) :   1.6576 B( 32-C , 33-N ) :   1.1255 B( 32-C , 65-H ) :   0.9433
B( 33-N , 34-C ) :   1.2112 B( 33-N , 66-H ) :   0.9085 B( 34-C , 35-S ) :   1.1448
B( 34-C , 41-C ) :   1.3576 B( 35-S , 36-C ) :   1.0696 B( 36-C , 37-N ) :   0.9792
B( 36-C , 40-C ) :   1.4689 B( 37-N , 38-O ) :   1.5325 B( 37-N , 39-O ) :   1.5027
B( 38-O , 39-O ) :   0.2544 B( 40-C , 41-C ) :   1.2581 B( 40-C , 67-H ) :   1.0068
B( 41-C , 42-C ) :   1.0713 B( 42-C , 43-C ) :   1.6480 B( 42-C , 68-H ) :   0.9489
B( 43-C , 44-C ) :   1.1855 B( 43-C , 69-H ) :   0.9558 B( 44-C , 45-C ) :   1.4000
B( 44-C , 49-N ) :   1.1794 B( 45-C , 46-C ) :   1.1569 B( 45-C , 52-C ) :   1.0061
B( 46-C , 47-C ) :   0.9550 B( 46-C , 50-C ) :   1.5333 B( 47-C , 48-O ) :   1.9187
B( 47-C , 49-N ) :   1.1513 B( 48-O , 56-H ) :   0.1596 B( 49-N , 70-H ) :   0.8987
B( 50-C , 51-O ) :   1.1530 B( 50-C , 71-H ) :   0.9985 B( 51-O , 52-C ) :   0.9747
B( 52-C , 53-O ) :   2.2303

-----------------------------------------------------------------------------
         ABSORPTION SPECTRUM VIA TRANSITION ELECTRIC DIPOLE MOMENTS
-----------------------------------------------------------------------------
State   Energy  Wavelength   fosc         T2         TX        TY        TZ
        (cm-1)    (nm)                  (au**2)     (au)      (au)      (au)
-----------------------------------------------------------------------------
   0    9391.9   1064.7   0.098556454   3.45468   1.26034  -1.25566  -0.53809
   1   16456.1    607.7   0.402649835   8.05522  -2.39759   1.43198   0.50616
   2   17709.7    564.7   0.071057528   1.32091   0.66631  -0.61837   0.70325
   3   20042.6    498.9   0.192998613   3.17012   1.65359  -0.42591  -0.50433
   4   21459.1    466.0   0.075071022   1.15169  -0.21697   1.02462  -0.23402
   5   22971.6    435.3   0.207231412   2.96989   1.40401  -0.22415   0.97386
   6   23524.5    425.1   0.037864048   0.52989  -0.58816   0.30838   0.29809
   7   23651.8    422.8   0.199125288   2.77164  -1.52597   0.66268  -0.06263
   8   25038.1    399.4   0.007565744   0.09948   0.12075   0.27231   0.10365
   9   27024.8    370.0   0.391119221   4.76455  -1.77677   0.51184  -1.16002
  10   27593.2    362.4   0.189561691   2.26164   0.13392  -1.06547   1.05285
  11   27994.5    357.2   0.084867317   0.99803  -0.65450  -0.02204  -0.75444
  12   29032.8    344.4   0.066414464   0.75309  -0.43439   0.27117  -0.70062
  13   29835.0    335.2   0.019114340   0.21092   0.34714   0.16333   0.25245
  14   30075.7    332.5   0.168263574   1.84183  -0.88080   0.68885  -0.76909
  15   30649.4    326.3   0.060297389   0.64767  -0.11300  -0.60011   0.52418
  16   31010.4    322.5   0.192444691   2.04302  -0.71100   0.01758  -1.23984
  17   31302.7    319.5   0.147126239   1.54733   0.23983  -0.83020  -0.89475
  18   31750.6    315.0   0.038245557   0.39656  -0.43702   0.00233  -0.45339
  19   31971.0    312.8   0.152176224   1.56699   0.25091   0.27037  -1.19622
  20   32110.1    311.4   0.125097422   1.28257   0.04250   0.08622   1.12842
  21   32995.5    303.1   0.003515051   0.03507   0.04983  -0.16755  -0.06719
  22   33392.9    299.5   0.080181161   0.79049   0.33002  -0.44549  -0.69506
  23   33649.4    297.2   0.128444385   1.25665   0.60395  -0.76812  -0.54945
  24   33884.5    295.1   0.002982783   0.02898   0.06850   0.00149   0.15584
  25   34091.2    293.3   0.098535694   0.95154   0.00867  -0.62975  -0.74491
  26   34256.7    291.9   0.052713202   0.50658  -0.36115   0.23004   0.56853
  27   34929.6    286.3   0.081641760   0.76947  -0.68747   0.39747   0.37266
  28   35313.3    283.2   0.018545360   0.17289  -0.20888   0.33519   0.13003
  29   35785.9    279.4   0.061277748   0.56372  -0.04255  -0.01283  -0.74950
  30   36077.7    277.2   0.043578895   0.39766   0.35216  -0.44383  -0.27688
  31   36167.3    276.5   0.049283923   0.44861   0.47708  -0.39249  -0.25876
  32   36549.5    273.6   0.126460062   1.13906   0.74141  -0.43134  -0.63508
  33   36648.5    272.9   0.297504378   2.67247  -1.33063   0.57228  -0.75788
  34   36872.7    271.2   0.210750231   1.88165   0.38644  -0.47176  -1.22872
  35   37076.0    269.7   0.093371187   0.82908   0.69817  -0.54607   0.20844
  36   37505.2    266.6   0.032997376   0.28964   0.15926   0.29271  -0.42261
  37   37995.0    263.2   0.031072566   0.26923   0.04136  -0.15089  -0.49472
  38   38403.9    260.4   0.007780455   0.06670   0.17019   0.18734  -0.05134
  39   38829.0    257.5   0.006726000   0.05703  -0.14953   0.08916  -0.16345
  40   39319.0    254.3   0.011440306   0.09579   0.25736  -0.13449  -0.10709
  41   39655.2    252.2   0.001428493   0.01186  -0.10205  -0.03090   0.02211
  42   39841.9    251.0   0.095916615   0.79256  -0.58839   0.47730   0.46749
  43   40123.1    249.2   0.048737845   0.39990   0.51536  -0.36645  -0.00454

FINAL SINGLE POINT ENERGY     -3976.336466091693

DIPOLE MOMENT
-------------
                                X             Y             Z
Electronic contribution:     -0.78055       6.16437     -12.35163
Nuclear contribution   :     -0.48709      -6.73883      11.51235
                        -----------------------------------------
Total Dipole Moment    :     -1.26764      -0.57446      -0.83928
                        -----------------------------------------
Magnitude (a.u.)       :      1.62521
Magnitude (Debye)      :      4.13096

Rotational constants in cm-1:     0.002784     0.001035     0.000838
Rotational constants in MHz :    83.472249    31.029145    25.128037

                             ****ORCA TERMINATED NORMALLY****
TOTAL RUN TIME: 0 days 0 hours 15 minutes 50 seconds 381 msec
