                         Program Version 4.2.0 -  RELEASE  -
|  1> # ORCA input file
|  2> # SCF done       -164.828068158210          0.000683830087
|  3> ! CAM-B3LYP def2-SVP def2/J RIJCOSX Grid4 TightSCF
|  4> %maxcore 5000
|  5> %tddft
|  6>     Mode sTDDFT
|  7>     Ethresh 5.0
|  8>     maxcore 5000
|  9> end
| 10>
| 11> %pal
| 12>   nprocs 6
| 13>   end
| 14> * xyz 0 1
| 15>    C       -4.17908         2.57331         2.82477
| 16>    C       -3.11172         2.52620         3.68083
| 17>    C       -1.83585         2.14403         3.24661
| 18>    C       -1.62672         1.80185         1.92816
| 19>    C       -2.72449         1.84814         1.01240
| 20>    C       -4.00826         2.23496         1.46713
| 21>    C       -5.04448         2.25238         0.50949
| 22>    C       -4.77063         1.90574        -0.78703
| 23>    C       -3.45765         1.54097        -1.12674
| 24>    N       -2.47568         1.51114        -0.26693
| 25>    N       -0.44913         1.39903         1.34425
| 26>    C        0.78851         1.18221         1.81769
| 27>    S        1.25497         1.42193         3.46736
| 28>    C        2.86973         0.89467         3.08472
| 29>    N        3.78983         0.88607         4.12887
| 30>    O        4.92921         0.52530         3.89053
| 31>    O        3.37628         1.24657         5.22310
| 32>    C        3.03090         0.55354         1.76948
| 33>    C        1.85409         0.71208         1.01407
| 34>    C        1.70505         0.45518        -0.38309
| 35>    C        2.64066        -0.11092        -1.18443
| 36>    C        2.46636        -0.34747        -2.57601
| 37>    C        3.49283        -0.99827        -3.30760
| 38>    C        3.38891        -1.27121        -4.71453
| 39>    N        4.37324        -1.90641        -5.34958
| 40>    C        5.44770        -2.27385        -4.67753
| 41>    C        5.56235        -1.98615        -3.28499
| 42>    N        4.60042        -1.36959        -2.64067
| 43>    C        6.73147        -2.37110        -2.58087
| 44>    N        7.69186        -2.69823        -2.04928
| 45>    C        6.48124        -2.95518        -5.36046
| 46>    N        7.33450        -3.50455        -5.89421
| 47>    C        2.24633        -0.86963        -5.48743
| 48>    C        1.22111        -0.22331        -4.74614
| 49>    C        1.32149         0.02164        -3.32545
| 50>    N        0.22679         0.62200        -2.85856
| 51>    S       -0.81829         0.85763        -4.06345
| 52>    N        0.07082         0.20559        -5.24252
| 53>    C        2.24263        -1.14378        -6.85187
| 54>    C        1.35913        -0.81913        -7.87116
| 55>    C        1.59690        -1.19083        -9.21100
| 56>    C        0.66708        -0.73041       -10.10337
| 57>    C       -0.34454         0.02758        -9.49705
| 58>    S       -0.10982         0.11642        -7.76726
| 59>    C       -1.40580         0.67849       -10.12746
| 60>    C       -1.69733         0.70853       -11.50210
| 61>    C       -2.77665         1.48416       -11.82831
| 62>    C       -3.39664         2.10343       -10.72641
| 63>    S       -2.56085         1.63171        -9.24611
| 64>    C       -4.47791         2.95682       -10.63771
| 65>    C       -5.21036         3.58184       -11.65863
| 66>    C       -5.00997         3.63033       -13.04976
| 67>    C       -6.00399         4.44573       -13.62258
| 68>    C       -6.23357         4.82811       -14.93296
| 69>    C       -7.31312         5.67930       -15.18314
| 70>    C       -7.79194         6.24238       -16.36237
| 71>    C       -8.92768         7.05104       -16.06355
| 72>    C       -9.15569         6.98730       -14.69675
| 73>    C       -8.17153         6.14371       -14.10266
| 74>    C       -7.95312         5.76861       -12.80411
| 75>    C       -6.85926         4.91482       -12.54329
| 76>    C       -6.36586         4.39092       -11.36765
| 77>    C       -9.71800         7.81649       -16.99743
| 78>    C       -9.50195         7.89882       -18.30762
| 79>    H       -5.15772         2.86728         3.17287
| 80>    H       -3.24297         2.78664         4.71997
| 81>    H       -1.02926         2.12312         3.96002
| 82>    H       -6.04068         2.53951         0.81485
| 83>    H       -5.53994         1.90810        -1.54323
| 84>    H       -3.20300         1.26294        -2.14167
| 85>    H       -0.60737         1.21713         0.34810
| 86>    H        3.97143         0.21261         1.37793
| 87>    H        0.76844         0.73415        -0.84347
| 88>    H        3.59221        -0.43290        -0.78799
| 89>    H        3.11742        -1.69436        -7.18028
| 90>    H        2.45402        -1.78132        -9.48287
| 91>    H        0.70364        -0.91748       -11.16144
| 92>    H       -1.11103         0.16494       -12.22082
| 93>    H       -3.14332         1.59278       -12.83105
| 94>    H       -4.79541         3.20019        -9.63063
| 95>    H       -4.21631         3.16844       -13.60333
| 96>    H       -5.59950         4.48574       -15.73852
| 97>    H       -7.37264         6.09303       -17.34012
| 98>    H       -9.94158         7.49042       -14.16347
| 99>    H       -8.58405         6.11215       -11.99647
|100>    H       -6.76495         4.54509       -10.38117
|101>    H      -10.54601         8.35790       -16.55676
|102>    H       -8.69115         7.38092       -18.79050
|103>    H      -10.13276         8.49314       -18.94549
|104> *
|105>
|106>                          ****END OF INPUT****

CARTESIAN COORDINATES (ANGSTROEM)
---------------------------------
  C     -4.179080    2.573310    2.824770
  C     -3.111720    2.526200    3.680830
  C     -1.835850    2.144030    3.246610
  C     -1.626720    1.801850    1.928160
  C     -2.724490    1.848140    1.012400
  C     -4.008260    2.234960    1.467130
  C     -5.044480    2.252380    0.509490
  C     -4.770630    1.905740   -0.787030
  C     -3.457650    1.540970   -1.126740
  N     -2.475680    1.511140   -0.266930
  N     -0.449130    1.399030    1.344250
  C      0.788510    1.182210    1.817690
  S      1.254970    1.421930    3.467360
  C      2.869730    0.894670    3.084720
  N      3.789830    0.886070    4.128870
  O      4.929210    0.525300    3.890530
  O      3.376280    1.246570    5.223100
  C      3.030900    0.553540    1.769480
  C      1.854090    0.712080    1.014070
  C      1.705050    0.455180   -0.383090
  C      2.640660   -0.110920   -1.184430
  C      2.466360   -0.347470   -2.576010
  C      3.492830   -0.998270   -3.307600
  C      3.388910   -1.271210   -4.714530
  N      4.373240   -1.906410   -5.349580
  C      5.447700   -2.273850   -4.677530
  C      5.562350   -1.986150   -3.284990
  N      4.600420   -1.369590   -2.640670
  C      6.731470   -2.371100   -2.580870
  N      7.691860   -2.698230   -2.049280
  C      6.481240   -2.955180   -5.360460
  N      7.334500   -3.504550   -5.894210
  C      2.246330   -0.869630   -5.487430
  C      1.221110   -0.223310   -4.746140
  C      1.321490    0.021640   -3.325450
  N      0.226790    0.622000   -2.858560
  S     -0.818290    0.857630   -4.063450
  N      0.070820    0.205590   -5.242520
  C      2.242630   -1.143780   -6.851870
  C      1.359130   -0.819130   -7.871160
  C      1.596900   -1.190830   -9.211000
  C      0.667080   -0.730410  -10.103370
  C     -0.344540    0.027580   -9.497050
  S     -0.109820    0.116420   -7.767260
  C     -1.405800    0.678490  -10.127460
  C     -1.697330    0.708530  -11.502100
  C     -2.776650    1.484160  -11.828310
  C     -3.396640    2.103430  -10.726410
  S     -2.560850    1.631710   -9.246110
  C     -4.477910    2.956820  -10.637710
  C     -5.210360    3.581840  -11.658630
  C     -5.009970    3.630330  -13.049760
  C     -6.003990    4.445730  -13.622580
  C     -6.233570    4.828110  -14.932960
  C     -7.313120    5.679300  -15.183140
  C     -7.791940    6.242380  -16.362370
  C     -8.927680    7.051040  -16.063550
  C     -9.155690    6.987300  -14.696750
  C     -8.171530    6.143710  -14.102660
  C     -7.953120    5.768610  -12.804110
  C     -6.859260    4.914820  -12.543290
  C     -6.365860    4.390920  -11.367650
  C     -9.718000    7.816490  -16.997430
  C     -9.501950    7.898820  -18.307620
  H     -5.157720    2.867280    3.172870
  H     -3.242970    2.786640    4.719970
  H     -1.029260    2.123120    3.960020
  H     -6.040680    2.539510    0.814850
  H     -5.539940    1.908100   -1.543230
  H     -3.203000    1.262940   -2.141670
  H     -0.607370    1.217130    0.348100
  H      3.971430    0.212610    1.377930
  H      0.768440    0.734150   -0.843470
  H      3.592210   -0.432900   -0.787990
  H      3.117420   -1.694360   -7.180280
  H      2.454020   -1.781320   -9.482870
  H      0.703640   -0.917480  -11.161440
  H     -1.111030    0.164940  -12.220820
  H     -3.143320    1.592780  -12.831050
  H     -4.795410    3.200190   -9.630630
  H     -4.216310    3.168440  -13.603330
  H     -5.599500    4.485740  -15.738520
  H     -7.372640    6.093030  -17.340120
  H     -9.941580    7.490420  -14.163470
  H     -8.584050    6.112150  -11.996470
  H     -6.764950    4.545090  -10.381170
  H    -10.546010    8.357900  -16.556760
  H     -8.691150    7.380920  -18.790500
  H    -10.132760    8.493140  -18.945490

 Total Charge           Charge          ....    0
 Multiplicity           Mult            ....    1
 Number of Electrons    NEL             ....  462
 Basis Dimension        Dim             .... 1037

ORBITAL ENERGIES
----------------

  NO   OCC          E(Eh)            E(eV)
   0   2.0000     -89.027494     -2422.5613
   1   2.0000     -88.966074     -2420.8900
   2   2.0000     -88.960185     -2420.7297
   3   2.0000     -88.954576     -2420.5771
   4   2.0000     -19.213054      -522.8138
   5   2.0000     -19.212948      -522.8109
   6   2.0000     -14.625133      -397.9701
   7   2.0000     -14.457688      -393.4137
   8   2.0000     -14.445593      -393.0846
   9   2.0000     -14.442366      -392.9968
  10   2.0000     -14.437405      -392.8618
  11   2.0000     -14.435622      -392.8132
  12   2.0000     -14.423073      -392.4718
  13   2.0000     -14.410940      -392.1416
  14   2.0000     -14.408097      -392.0643
  15   2.0000     -10.360253      -281.9168
  16   2.0000     -10.354073      -281.7487
  17   2.0000     -10.352689      -281.7110
  18   2.0000     -10.331873      -281.1446
  19   2.0000     -10.329589      -281.0824
  20   2.0000     -10.329567      -281.0818
  21   2.0000     -10.327825      -281.0344
  22   2.0000     -10.326347      -280.9942
  23   2.0000     -10.326096      -280.9874
  24   2.0000     -10.321321      -280.8574
  25   2.0000     -10.319484      -280.8074
  26   2.0000     -10.318929      -280.7923
  27   2.0000     -10.318619      -280.7839
  28   2.0000     -10.317838      -280.7627
  29   2.0000     -10.317472      -280.7527
  30   2.0000     -10.317359      -280.7496
  31   2.0000     -10.308098      -280.4976
  32   2.0000     -10.305044      -280.4145
  33   2.0000     -10.304611      -280.4027
  34   2.0000     -10.304580      -280.4019
  35   2.0000     -10.303360      -280.3687
  36   2.0000     -10.302393      -280.3424
  37   2.0000     -10.302381      -280.3420
  38   2.0000     -10.301890      -280.3287
  39   2.0000     -10.300830      -280.2998
  40   2.0000     -10.300814      -280.2994
  41   2.0000     -10.294931      -280.1393
  42   2.0000     -10.293305      -280.0951
  43   2.0000     -10.293075      -280.0888
  44   2.0000     -10.292396      -280.0703
  45   2.0000     -10.291817      -280.0546
  46   2.0000     -10.289924      -280.0031
  47   2.0000     -10.287487      -279.9367
  48   2.0000     -10.285564      -279.8844
  49   2.0000     -10.285337      -279.8782
  50   2.0000     -10.283737      -279.8347
  51   2.0000     -10.283488      -279.8279
  52   2.0000     -10.283410      -279.8258
  53   2.0000     -10.282930      -279.8127
  54   2.0000     -10.282628      -279.8045
  55   2.0000     -10.282517      -279.8015
  56   2.0000     -10.282211      -279.7932
  57   2.0000     -10.281541      -279.7750
  58   2.0000     -10.279266      -279.7130
  59   2.0000     -10.276532      -279.6387
  60   2.0000     -10.275487      -279.6102
  61   2.0000     -10.271364      -279.4980
  62   2.0000     -10.264055      -279.2991
  63   2.0000     -10.260430      -279.2005
  64   2.0000      -8.118619      -220.9189
  65   2.0000      -8.061116      -219.3541
  66   2.0000      -8.056615      -219.2316
  67   2.0000      -8.048821      -219.0196
  68   2.0000      -6.090026      -165.7180
  69   2.0000      -6.082296      -165.5077
  70   2.0000      -6.080744      -165.4655
  71   2.0000      -6.030794      -164.1063
  72   2.0000      -6.026408      -163.9869
  73   2.0000      -6.026209      -163.9815
  74   2.0000      -6.022593      -163.8831
  75   2.0000      -6.022198      -163.8723
  76   2.0000      -6.018531      -163.7726
  77   2.0000      -6.017775      -163.7520
  78   2.0000      -6.014113      -163.6523
  79   2.0000      -6.010233      -163.5468
  80   2.0000      -1.292954       -35.1831
  81   2.0000      -1.126670       -30.6583
  82   2.0000      -1.111800       -30.2536
  83   2.0000      -1.098296       -29.8862
  84   2.0000      -1.080743       -29.4085
  85   2.0000      -1.046516       -28.4771
  86   2.0000      -1.024731       -27.8843
  87   2.0000      -1.007511       -27.4158
  88   2.0000      -1.003681       -27.3116
  89   2.0000      -0.994318       -27.0568
  90   2.0000      -0.988443       -26.8969
  91   2.0000      -0.983521       -26.7630
  92   2.0000      -0.983467       -26.7615
  93   2.0000      -0.979887       -26.6641
  94   2.0000      -0.976323       -26.5671
  95   2.0000      -0.957385       -26.0518
  96   2.0000      -0.947820       -25.7915
  97   2.0000      -0.918110       -24.9831
  98   2.0000      -0.909831       -24.7578
  99   2.0000      -0.902207       -24.5503
 100   2.0000      -0.893697       -24.3187
 101   2.0000      -0.888029       -24.1645
 102   2.0000      -0.881838       -23.9960
 103   2.0000      -0.881143       -23.9771
 104   2.0000      -0.868161       -23.6239
 105   2.0000      -0.861434       -23.4408
 106   2.0000      -0.856930       -23.3183
 107   2.0000      -0.852475       -23.1970
 108   2.0000      -0.845284       -23.0013
 109   2.0000      -0.833494       -22.6805
 110   2.0000      -0.831342       -22.6220
 111   2.0000      -0.825545       -22.4642
 112   2.0000      -0.816762       -22.2252
 113   2.0000      -0.809499       -22.0276
 114   2.0000      -0.804398       -21.8888
 115   2.0000      -0.779854       -21.2209
 116   2.0000      -0.772148       -21.0112
 117   2.0000      -0.768548       -20.9133
 118   2.0000      -0.759562       -20.6687
 119   2.0000      -0.746822       -20.3221
 120   2.0000      -0.739816       -20.1314
 121   2.0000      -0.735813       -20.0225
 122   2.0000      -0.722873       -19.6704
 123   2.0000      -0.715274       -19.4636
 124   2.0000      -0.710603       -19.3365
 125   2.0000      -0.696823       -18.9615
 126   2.0000      -0.687160       -18.6986
 127   2.0000      -0.685314       -18.6483
 128   2.0000      -0.680334       -18.5128
 129   2.0000      -0.671015       -18.2593
 130   2.0000      -0.666855       -18.1460
 131   2.0000      -0.662375       -18.0241
 132   2.0000      -0.650401       -17.6983
 133   2.0000      -0.646860       -17.6019
 134   2.0000      -0.643719       -17.5165
 135   2.0000      -0.640764       -17.4361
 136   2.0000      -0.637817       -17.3559
 137   2.0000      -0.631378       -17.1807
 138   2.0000      -0.621725       -16.9180
 139   2.0000      -0.618044       -16.8178
 140   2.0000      -0.613869       -16.7042
 141   2.0000      -0.610992       -16.6259
 142   2.0000      -0.607816       -16.5395
 143   2.0000      -0.606987       -16.5170
 144   2.0000      -0.606481       -16.5032
 145   2.0000      -0.604545       -16.4505
 146   2.0000      -0.599426       -16.3112
 147   2.0000      -0.595868       -16.2144
 148   2.0000      -0.579752       -15.7759
 149   2.0000      -0.572645       -15.5825
 150   2.0000      -0.571248       -15.5444
 151   2.0000      -0.567555       -15.4440
 152   2.0000      -0.566507       -15.4155
 153   2.0000      -0.560239       -15.2449
 154   2.0000      -0.559005       -15.2113
 155   2.0000      -0.550125       -14.9697
 156   2.0000      -0.548267       -14.9191
 157   2.0000      -0.546069       -14.8593
 158   2.0000      -0.540539       -14.7088
 159   2.0000      -0.534584       -14.5468
 160   2.0000      -0.532336       -14.4856
 161   2.0000      -0.530857       -14.4454
 162   2.0000      -0.527163       -14.3448
 163   2.0000      -0.521984       -14.2039
 164   2.0000      -0.516278       -14.0486
 165   2.0000      -0.513386       -13.9699
 166   2.0000      -0.512232       -13.9386
 167   2.0000      -0.510952       -13.9037
 168   2.0000      -0.506159       -13.7733
 169   2.0000      -0.502294       -13.6681
 170   2.0000      -0.501264       -13.6401
 171   2.0000      -0.501072       -13.6349
 172   2.0000      -0.499473       -13.5913
 173   2.0000      -0.494837       -13.4652
 174   2.0000      -0.494746       -13.4627
 175   2.0000      -0.489421       -13.3178
 176   2.0000      -0.483317       -13.1517
 177   2.0000      -0.481302       -13.0969
 178   2.0000      -0.476320       -12.9613
 179   2.0000      -0.475145       -12.9294
 180   2.0000      -0.470323       -12.7981
 181   2.0000      -0.469846       -12.7852
 182   2.0000      -0.466762       -12.7012
 183   2.0000      -0.464577       -12.6418
 184   2.0000      -0.462956       -12.5977
 185   2.0000      -0.461351       -12.5540
 186   2.0000      -0.460826       -12.5397
 187   2.0000      -0.451013       -12.2727
 188   2.0000      -0.450751       -12.2656
 189   2.0000      -0.448230       -12.1970
 190   2.0000      -0.446516       -12.1503
 191   2.0000      -0.439795       -11.9674
 192   2.0000      -0.438371       -11.9287
 193   2.0000      -0.437155       -11.8956
 194   2.0000      -0.435037       -11.8380
 195   2.0000      -0.434986       -11.8366
 196   2.0000      -0.433906       -11.8072
 197   2.0000      -0.425599       -11.5811
 198   2.0000      -0.423469       -11.5232
 199   2.0000      -0.422545       -11.4980
 200   2.0000      -0.421927       -11.4812
 201   2.0000      -0.421025       -11.4567
 202   2.0000      -0.416072       -11.3219
 203   2.0000      -0.414190       -11.2707
 204   2.0000      -0.405084       -11.0229
 205   2.0000      -0.398341       -10.8394
 206   2.0000      -0.389182       -10.5902
 207   2.0000      -0.386343       -10.5129
 208   2.0000      -0.384475       -10.4621
 209   2.0000      -0.381925       -10.3927
 210   2.0000      -0.380480       -10.3534
 211   2.0000      -0.374309       -10.1855
 212   2.0000      -0.361951        -9.8492
 213   2.0000      -0.357247        -9.7212
 214   2.0000      -0.353507        -9.6194
 215   2.0000      -0.353029        -9.6064
 216   2.0000      -0.349877        -9.5206
 217   2.0000      -0.345956        -9.4139
 218   2.0000      -0.341999        -9.3063
 219   2.0000      -0.339057        -9.2262
 220   2.0000      -0.334040        -9.0897
 221   2.0000      -0.331525        -9.0213
 222   2.0000      -0.330570        -8.9953
 223   2.0000      -0.328724        -8.9450
 224   2.0000      -0.317128        -8.6295
 225   2.0000      -0.307375        -8.3641
 226   2.0000      -0.287231        -7.8160
 227   2.0000      -0.283689        -7.7196
 228   2.0000      -0.262145        -7.1333
 229   2.0000      -0.242065        -6.5869
 230   2.0000      -0.198559        -5.4031
 231   0.0000      -0.124560        -3.3894
 232   0.0000      -0.108595        -2.9550
 233   0.0000      -0.066984        -1.8227
 234   0.0000      -0.042376        -1.1531
 235   0.0000      -0.031956        -0.8696

MULLIKEN ATOMIC CHARGES
-----------------------
   0 C :   -0.026693
   1 C :    0.051773
   2 C :   -0.141399
   3 C :    0.148150
   4 C :   -0.015563
   5 C :    0.066377
   6 C :    0.036915
   7 C :    0.005241
   8 C :    0.033488
   9 N :   -0.086628
  10 N :    0.005411
  11 C :   -0.090695
  12 S :    0.120628
  13 C :   -0.004603
  14 N :    0.279564
  15 O :   -0.258888
  16 O :   -0.281594
  17 C :    0.016022
  18 C :    0.129159
  19 C :   -0.040843
  20 C :   -0.077798
  21 C :    0.064932
  22 C :   -0.048872
  23 C :   -0.055952
  24 N :    0.048606
  25 C :   -0.153807
  26 C :   -0.133381
  27 N :    0.042250
  28 C :   -0.215391
  29 N :    0.233392
  30 C :   -0.217675
  31 N :    0.223286
  32 C :    0.115135
  33 C :    0.033910
  34 C :    0.041313
  35 N :   -0.309289
  36 S :    0.502300
  37 N :   -0.316933
  38 C :   -0.139896
  39 C :    0.018037
  40 C :    0.015744
  41 C :    0.037195
  42 C :   -0.033818
  43 S :    0.134670
  44 C :   -0.039975
  45 C :    0.011507
  46 C :    0.037133
  47 C :   -0.072331
  48 S :    0.105249
  49 C :    0.052874
  50 C :    0.063113
  51 C :   -0.034367
  52 C :    0.048217
  53 C :    0.010793
  54 C :    0.042312
  55 C :   -0.009096
  56 C :    0.060117
  57 C :   -0.020268
  58 C :    0.058929
  59 C :    0.007924
  60 C :    0.056678
  61 C :   -0.033108
  62 C :    0.010668
  63 C :   -0.022179
  64 H :   -0.030209
  65 H :   -0.004926
  66 H :   -0.007343
  67 H :   -0.009524
  68 H :   -0.000599
  69 H :   -0.010955
  70 H :    0.152936
  71 H :    0.013142
  72 H :   -0.002608
  73 H :   -0.018884
  74 H :    0.003425
  75 H :   -0.003865
  76 H :   -0.014535
  77 H :   -0.009948
  78 H :   -0.015131
  79 H :   -0.016102
  80 H :   -0.032570
  81 H :   -0.020988
  82 H :   -0.017495
  83 H :   -0.020253
  84 H :   -0.021559
  85 H :   -0.019512
  86 H :   -0.015857
  87 H :    0.009993
  88 H :    0.025398
Sum of atomic charges:   -0.0000000

LOEWDIN ATOMIC CHARGES
----------------------
   0 C :   -0.040557
   1 C :   -0.002316
   2 C :   -0.067360
   3 C :    0.028869
   4 C :   -0.003140
   5 C :   -0.026393
   6 C :    0.025526
   7 C :   -0.047111
   8 C :    0.024826
   9 N :   -0.070561
  10 N :    0.046050
  11 C :   -0.089330
  12 S :    0.457260
  13 C :   -0.219828
  14 N :    0.273555
  15 O :   -0.224873
  16 O :   -0.248879
  17 C :    0.009411
  18 C :   -0.106041
  19 C :   -0.022916
  20 C :   -0.024536
  21 C :   -0.058672
  22 C :   -0.002932
  23 C :   -0.012022
  24 N :   -0.001923
  25 C :   -0.051576
  26 C :   -0.027791
  27 N :   -0.010549
  28 C :   -0.034389
  29 N :   -0.012615
  30 C :   -0.038709
  31 N :   -0.025443
  32 C :   -0.035144
  33 C :   -0.037917
  34 C :   -0.031656
  35 N :   -0.288876
  36 S :    0.627755
  37 N :   -0.287864
  38 C :   -0.039302
  39 C :   -0.132456
  40 C :   -0.037654
  41 C :   -0.027312
  42 C :   -0.204314
  43 S :    0.447415
  44 C :   -0.157057
  45 C :   -0.032743
  46 C :   -0.025412
  47 C :   -0.159919
  48 S :    0.393509
  49 C :   -0.020605
  50 C :   -0.067533
  51 C :    0.011764
  52 C :   -0.058425
  53 C :    0.079239
  54 C :   -0.063644
  55 C :    0.058927
  56 C :   -0.057399
  57 C :    0.026545
  58 C :   -0.059353
  59 C :    0.076448
  60 C :   -0.066503
  61 C :    0.043601
  62 C :   -0.022749
  63 C :   -0.047619
  64 H :    0.027476
  65 H :    0.034754
  66 H :    0.018817
  67 H :    0.034700
  68 H :    0.034125
  69 H :    0.012851
  70 H :    0.085989
  71 H :    0.046479
  72 H :    0.021636
  73 H :    0.027287
  74 H :    0.041123
  75 H :    0.036020
  76 H :    0.030312
  77 H :    0.033904
  78 H :    0.032017
  79 H :    0.031943
  80 H :    0.021130
  81 H :    0.036525
  82 H :    0.027829
  83 H :    0.027064
  84 H :    0.036663
  85 H :    0.026763
  86 H :    0.030522
  87 H :    0.018582
  88 H :    0.026712

  Mayer bond orders larger than 0.100000
B(  0-C ,  1-C ) :   1.4830 B(  0-C ,  5-C ) :   1.2125 B(  0-C , 64-H ) :   1.0046
B(  1-C ,  2-C ) :   1.2498 B(  1-C , 65-H ) :   0.9855 B(  2-C ,  3-C ) :   1.4240
B(  2-C , 66-H ) :   1.0016 B(  3-C ,  4-C ) :   1.2091 B(  3-C , 10-N ) :   1.1757
B(  4-C ,  5-C ) :   1.2876 B(  4-C ,  9-N ) :   1.3859 B(  5-C ,  6-C ) :   1.2695
B(  6-C ,  7-C ) :   1.5219 B(  6-C , 67-H ) :   0.9823 B(  7-C ,  8-C ) :   1.2579
B(  7-C , 68-H ) :   0.9751 B(  8-C ,  9-N ) :   1.6396 B(  8-C , 69-H ) :   0.9737
B(  9-N , 70-H ) :   0.1187 B( 10-N , 11-C ) :   1.2652 B( 10-N , 70-H ) :   0.8418
B( 11-C , 12-S ) :   1.1331 B( 11-C , 18-C ) :   1.3056 B( 12-S , 13-C ) :   1.0560
B( 13-C , 14-N ) :   0.9916 B( 13-C , 17-C ) :   1.4694 B( 14-N , 15-O ) :   1.5233
B( 14-N , 16-O ) :   1.4943 B( 15-O , 16-O ) :   0.2479 B( 17-C , 18-C ) :   1.2489
B( 17-C , 71-H ) :   1.0027 B( 18-C , 19-C ) :   1.0728 B( 19-C , 20-C ) :   1.6232
B( 19-C , 72-H ) :   0.9489 B( 20-C , 21-C ) :   1.2035 B( 20-C , 73-H ) :   0.9611
B( 21-C , 22-C ) :   1.2328 B( 21-C , 32-C ) :   0.1081 B( 21-C , 34-C ) :   1.1582
B( 22-C , 23-C ) :   1.1187 B( 22-C , 27-N ) :   1.4401 B( 23-C , 24-N ) :   1.5137
B( 23-C , 32-C ) :   1.1561 B( 24-N , 25-C ) :   1.6737 B( 25-C , 26-C ) :   1.2363
B( 25-C , 30-C ) :   1.1609 B( 26-C , 27-N ) :   1.7312 B( 26-C , 28-C ) :   1.1537
B( 28-C , 29-N ) :   3.0511 B( 30-C , 31-N ) :   3.0445 B( 32-C , 33-C ) :   1.1215
B( 32-C , 38-C ) :   1.3566 B( 33-C , 34-C ) :   1.1117 B( 33-C , 37-N ) :   1.5181
B( 34-C , 35-N ) :   1.5108 B( 35-N , 36-S ) :   1.2338 B( 35-N , 37-N ) :   0.1346
B( 36-S , 37-N ) :   1.2356 B( 38-C , 39-C ) :   1.3698 B( 38-C , 74-H ) :   0.9417
B( 39-C , 40-C ) :   1.2113 B( 39-C , 43-S ) :   1.0871 B( 40-C , 41-C ) :   1.5037
B( 40-C , 75-H ) :   1.0036 B( 41-C , 42-C ) :   1.2489 B( 41-C , 76-H ) :   0.9935
B( 42-C , 43-S ) :   1.0282 B( 42-C , 44-C ) :   1.3890 B( 44-C , 45-C ) :   1.2402
B( 44-C , 48-S ) :   1.0971 B( 45-C , 46-C ) :   1.5432 B( 45-C , 77-H ) :   0.9945
B( 46-C , 47-C ) :   1.1911 B( 46-C , 78-H ) :   0.9947 B( 47-C , 48-S ) :   1.0316
B( 47-C , 49-C ) :   1.5056 B( 49-C , 50-C ) :   1.2046 B( 49-C , 79-H ) :   0.9505
B( 50-C , 51-C ) :   1.3832 B( 50-C , 61-C ) :   1.1341 B( 51-C , 52-C ) :   1.1780
B( 51-C , 80-H ) :   1.0090 B( 52-C , 53-C ) :   1.3757 B( 52-C , 60-C ) :   1.1307
B( 53-C , 54-C ) :   1.1790 B( 53-C , 81-H ) :   1.0030 B( 54-C , 55-C ) :   1.3862
B( 54-C , 58-C ) :   1.1221 B( 55-C , 56-C ) :   1.1759 B( 55-C , 82-H ) :   1.0087
B( 56-C , 57-C ) :   1.4763 B( 56-C , 62-C ) :   1.0817 B( 57-C , 58-C ) :   1.0986
B( 57-C , 83-H ) :   1.0171 B( 58-C , 59-C ) :   1.4589 B( 59-C , 60-C ) :   1.1259
B( 59-C , 84-H ) :   1.0046 B( 60-C , 61-C ) :   1.4271 B( 61-C , 85-H ) :   1.0165
B( 62-C , 63-C ) :   1.9367 B( 62-C , 86-H ) :   0.9668 B( 63-C , 87-H ) :   0.9533
B( 63-C , 88-H ) :   0.9495

-----------------------------------------------------------------------------
         ABSORPTION SPECTRUM VIA TRANSITION ELECTRIC DIPOLE MOMENTS
-----------------------------------------------------------------------------
State   Energy  Wavelength   fosc         T2         TX        TY        TZ
        (cm-1)    (nm)                  (au**2)     (au)      (au)      (au)
-----------------------------------------------------------------------------
   0    3597.4   2779.8   0.285741997  26.14923   2.59199  -1.35843   4.19350
   1    6001.7   1666.2   0.074328929   4.07719   0.69419  -0.10228   1.89336
   2   11571.2    864.2   0.027313828   0.77710   0.35575  -0.32682  -0.73739
   3   14461.5    691.5   0.636474066  14.48916   2.95570  -2.11559   1.13016
   4   14945.0    669.1   0.439311686   9.67724  -2.06876   1.40150  -1.85291
   5   18813.8    531.5   0.087172766   1.52539  -0.39941   0.49670  -1.05790
   6   20843.7    479.8   0.068687859   1.08488   0.27614  -0.02066  -1.00409
   7   21034.5    475.4   0.248013172   3.88166  -1.88063   0.56626   0.15568
   8   21416.9    466.9   0.118372639   1.81958   1.07375  -0.79806  -0.17243
   9   21766.3    459.4   0.189592594   2.86757   1.15898  -0.77804   0.95863
  10   22025.2    454.0   0.097251880   1.45363  -0.39941   0.43433   1.05141
  11   23878.4    418.8   0.132908806   1.83241  -0.79093   0.93745  -0.57274
  12   24311.0    411.3   0.218415555   2.95772  -0.55593   1.00346   1.28130
  13   24682.8    405.1   0.053157927   0.70901   0.56048  -0.62836   0.00548
  14   25751.0    388.3   0.078500844   1.00359   0.82133  -0.57331  -0.01797
  15   25843.8    386.9   0.068713034   0.87530   0.37088  -0.65160  -0.55961
  16   26417.0    378.5   0.070365504   0.87690   0.58093  -0.63156   0.37492
  17   27578.8    362.6   0.037464684   0.44722  -0.45427   0.49022   0.02322
  18   27689.3    361.2   0.003574358   0.04250   0.20045   0.04123  -0.02486
  19   28597.9    349.7   0.303226504   3.49067  -1.73838   0.21489  -0.65001
  20   28936.1    345.6   0.041531930   0.47252   0.64727  -0.03880   0.22815
  21   29638.9    337.4   0.068911662   0.76543  -0.09851   0.02988  -0.86881
  22   29875.3    334.7   0.086951319   0.95816   0.24472  -0.21761   0.92245
  23   30441.9    328.5   0.209970169   2.27071   1.14456  -0.67165  -0.71385
  24   30980.4    322.8   0.147835925   1.57097   0.02071  -0.34230   1.20556
  25   31109.5    321.4   0.016814506   0.17794   0.03529   0.01423   0.42011
  26   31308.7    319.4   0.226513164   2.38179   0.52515  -0.40741   1.39285
  27   31475.5    317.7   0.277433294   2.90176   1.56381  -0.65796   0.15280
  28   31701.3    315.4   0.033793744   0.35094   0.44060  -0.21330   0.33364
  29   31890.6    313.6   0.119038219   1.22885   0.74585  -0.47450  -0.66888
  30   32473.6    307.9   0.120422211   1.22082   0.33526  -0.50522  -0.92367
  31   32802.0    304.9   0.092266343   0.92602   0.79854  -0.50251  -0.18932
  32   33594.8    297.7   0.184663455   1.80961  -1.12810   0.47118  -0.56125
  33   33812.7    295.7   0.128995775   1.25595   1.03738  -0.41873   0.06684
  34   34199.5    292.4   0.040521829   0.39007  -0.43694   0.25209  -0.36825
  35   34309.6    291.5   0.114988121   1.10335   0.39998  -0.27807   0.93061
  36   34396.6    290.7   0.010812077   0.10348  -0.01972  -0.03744   0.31889
  37   34853.5    286.9   0.029967598   0.28306  -0.18623   0.17456  -0.46681
  38   35582.1    281.0   0.286014460   2.64626   0.21325  -0.33404   1.57772
  39   35897.7    278.6   0.010596130   0.09718  -0.16236  -0.12942   0.23252
  40   36071.5    277.2   0.075087758   0.68530  -0.58443  -0.02811  -0.58562
  41   36183.1    276.4   0.000170199   0.00155  -0.03445   0.01902  -0.00016
  42   36293.7    275.5   0.000088206   0.00080  -0.01023  -0.02491   0.00866
  43   36319.3    275.3   0.004705692   0.04265   0.12754  -0.04149  -0.15705
  44   37134.2    269.3   0.000365220   0.00324  -0.00537  -0.03060   0.04767
  45   37551.5    266.3   0.013055826   0.11446  -0.10286   0.06848   0.31495
  46   37820.8    264.4   0.019191232   0.16705  -0.30873   0.18315   0.19543
  47   37897.5    263.9   0.006096351   0.05296  -0.19706   0.11390   0.03396
  48   38037.1    262.9   0.126110352   1.09149   0.87618  -0.40506  -0.39966
  49   38155.6    262.1   0.025704016   0.22178  -0.31280   0.23624  -0.26101
  50   38347.7    260.8   0.003765101   0.03232   0.16765  -0.06185  -0.01982
  51   38706.4    258.4   0.229620066   1.95300   0.85067  -0.60351   0.93013
  52   38847.2    257.4   0.001591180   0.01348  -0.05392  -0.05881   0.08437
  53   39071.4    255.9   0.116857340   0.98463   0.75812  -0.54267   0.33969
  54   39216.6    255.0   0.000711164   0.00597   0.06348  -0.01154  -0.04251
  55   39317.7    254.3   0.109358383   0.91567   0.24716  -0.20650   0.90108
  56   39586.0    252.6   0.148938178   1.23863   1.00379  -0.48051   0.01178
  57   39698.7    251.9   0.026649044   0.22099  -0.38210   0.02436  -0.27276
  58   39881.1    250.7   0.069889725   0.57693  -0.60820   0.21261  -0.40226
  59   40135.4    249.2   0.007482209   0.06137   0.17195  -0.17758  -0.01651
  60   40242.2    248.5   0.097418463   0.79696  -0.60566   0.37051   0.54117

FINAL SINGLE POINT ENERGY     -4114.306544762543

DIPOLE MOMENT
-------------
                                X             Y             Z
Electronic contribution:     56.38791     -30.94575      49.35719
Nuclear contribution   :    -64.78999      34.16564     -55.44550
                        -----------------------------------------
Total Dipole Moment    :     -8.40208       3.21989      -6.08831
                        -----------------------------------------
Magnitude (a.u.)       :     10.86417
Magnitude (Debye)      :     27.61452

Rotational constants in cm-1:     0.001374     0.000348     0.000283
Rotational constants in MHz :    41.176822    10.421462     8.478717

                             ****ORCA TERMINATED NORMALLY****
TOTAL RUN TIME: 0 days 0 hours 11 minutes 29 seconds 320 msec
