                         Program Version 4.2.0 -  RELEASE  -
|  1> # ORCA input file
|  2> # SCF done       -197.806032107380          0.001503228735
|  3> ! CAM-B3LYP def2-SVP def2/J RIJCOSX Grid4 TightSCF
|  4> %maxcore 5000
|  5> %tddft
|  6>     Mode sTDDFT
|  7>     Ethresh 5.0
|  8>     maxcore 5000
|  9> end
| 10>
| 11> %pal
| 12>   nprocs 6
| 13>   end
| 14> * xyz 0 1
| 15>    C       11.14309        -3.29926        -3.75259
| 16>    C       11.25992        -4.60715        -3.40243
| 17>    S       12.24607        -5.45716        -4.53409
| 18>    C       12.52384        -4.03112        -5.50267
| 19>    C       13.36315        -4.05845        -6.72085
| 20>    C       11.86280        -2.97564        -4.95215
| 21>    C       11.67168        -1.56127        -5.27287
| 22>    O       12.16223        -0.90613        -6.16317
| 23>    C       10.65496        -1.08948        -4.27468
| 24>    C       10.50844        -2.10293        -3.24454
| 25>    C       10.06003        -1.94693        -1.95805
| 26>    C       10.03435        -3.02551        -1.05046
| 27>    N        9.97896        -3.89244        -0.30031
| 28>    C        9.58279        -0.74100        -1.41729
| 29>    N        9.15972         0.21612        -0.94250
| 30>    C        9.97854         0.06304        -4.51848
| 31>    C        8.74521         0.50738        -3.96474
| 32>    C        7.73888        -0.37562        -3.48693
| 33>    C        6.54780         0.10584        -2.85048
| 34>    N        5.66111        -0.76228        -2.36408
| 35>    C        5.88184        -2.05628        -2.48411
| 36>    C        7.02299        -2.53197        -3.19023
| 37>    N        7.90746        -1.69018        -3.67625
| 38>    C        7.25626        -3.91684        -3.38665
| 39>    N        7.46896        -5.03282        -3.52963
| 40>    C        4.94678        -2.96867        -1.93672
| 41>    N        4.20486        -3.73283        -1.51504
| 42>    C        6.28201         1.51026        -2.69315
| 43>    C        7.23413         2.37255        -3.28448
| 44>    C        8.42727         1.87313        -3.92227
| 45>    N        9.17894         2.86713        -4.41604
| 46>    S        8.48004         4.25954        -4.10218
| 47>    N        7.17559         3.70385        -3.34635
| 48>    C        5.14651         1.87745        -1.96277
| 49>    C        4.65750         3.11060        -1.57477
| 50>    C        3.50177         3.24952        -0.76857
| 51>    C        3.20113         4.53878        -0.42770
| 52>    C        4.10800         5.46716        -0.96546
| 53>    S        5.33738         4.68189        -1.91498
| 54>    C        4.14875         6.85464        -0.79635
| 55>    C        3.36305         7.68446         0.01559
| 56>    C        3.77882         8.99236         0.00333
| 57>    C        4.89762         9.23667        -0.81828
| 58>    S        5.36258         7.77442        -1.63628
| 59>    C        5.63249        10.41973        -0.80911
| 60>    C        6.84033        10.68487        -1.43861
| 61>    C        7.68226        11.73858        -0.93782
| 62>    C        9.08749        11.77655        -1.23035
| 63>    N        9.85651        12.72231        -0.67826
| 64>    C        9.30863        13.60776         0.12357
| 65>    C        7.91536        13.56551         0.41727
| 66>    N        7.14452        12.63736        -0.11651
| 67>    C        7.33280        14.52965         1.27579
| 68>    N        6.88891        15.31979         1.97646
| 69>    C       10.12113        14.62641         0.68530
| 70>    N       10.74418        15.46263         1.15795
| 71>    C        9.71514        10.77890        -2.03219
| 72>    C        8.82552         9.95671        -2.77439
| 73>    C        7.41509         9.92547        -2.49737
| 74>    N        6.76583         9.12786        -3.33038
| 75>    S        7.80834         8.47277        -4.37256
| 76>    N        9.14566         9.16680        -3.79237
| 77>    C       11.11417        10.67080        -2.08298
| 78>    C       11.85466         9.57969        -2.47423
| 79>    C       13.25843         9.77066        -2.95740
| 80>    O       13.92056        10.77905        -2.87869
| 81>    C       13.61136         8.48518        -3.57162
| 82>    C       14.66696         7.97836        -4.26216
| 83>    S       14.33936         6.31181        -4.68188
| 84>    C       12.79586         6.33111        -3.90678
| 85>    C       12.54179         7.55167        -3.36553
| 86>    C       11.49982         8.19722        -2.59574
| 87>    C       10.46874         7.51739        -1.96612
| 88>    C       10.20433         6.17538        -2.21143
| 89>    N        9.92728         5.07079        -2.41091
| 90>    C        9.61545         8.06510        -0.99124
| 91>    N        8.89609         8.44334        -0.17893
| 92>    C       15.93039         8.64751        -4.64096
| 93>    H       10.82387        -5.13755        -2.57965
| 94>    H       14.37498        -4.38544        -6.48329
| 95>    H       13.40052        -3.06093        -7.15269
| 96>    H       12.95342        -4.75296        -7.45386
| 97>    H       10.41340         0.71869        -5.26641
| 98>    H        4.56601         1.02842        -1.61780
| 99>    H        2.93380         2.39175        -0.45394
|100>    H        2.36517         4.82672         0.18388
|101>    H        2.54197         7.31642         0.60397
|102>    H        3.32571         9.77584         0.58467
|103>    H        5.29848        11.18089        -0.11392
|104>    H       11.67392        11.56159        -1.81747
|105>    H       12.19258         5.44522        -3.92082
|106>    H       15.91836         9.67011        -4.27053
|107>    H       16.05040         8.65819        -5.72411
|108>    H       16.78586         8.12189        -4.21738
|109> *
|110>
|111>                          ****END OF INPUT****

CARTESIAN COORDINATES (ANGSTROEM)
---------------------------------
  C     11.143090   -3.299260   -3.752590
  C     11.259920   -4.607150   -3.402430
  S     12.246070   -5.457160   -4.534090
  C     12.523840   -4.031120   -5.502670
  C     13.363150   -4.058450   -6.720850
  C     11.862800   -2.975640   -4.952150
  C     11.671680   -1.561270   -5.272870
  O     12.162230   -0.906130   -6.163170
  C     10.654960   -1.089480   -4.274680
  C     10.508440   -2.102930   -3.244540
  C     10.060030   -1.946930   -1.958050
  C     10.034350   -3.025510   -1.050460
  N      9.978960   -3.892440   -0.300310
  C      9.582790   -0.741000   -1.417290
  N      9.159720    0.216120   -0.942500
  C      9.978540    0.063040   -4.518480
  C      8.745210    0.507380   -3.964740
  C      7.738880   -0.375620   -3.486930
  C      6.547800    0.105840   -2.850480
  N      5.661110   -0.762280   -2.364080
  C      5.881840   -2.056280   -2.484110
  C      7.022990   -2.531970   -3.190230
  N      7.907460   -1.690180   -3.676250
  C      7.256260   -3.916840   -3.386650
  N      7.468960   -5.032820   -3.529630
  C      4.946780   -2.968670   -1.936720
  N      4.204860   -3.732830   -1.515040
  C      6.282010    1.510260   -2.693150
  C      7.234130    2.372550   -3.284480
  C      8.427270    1.873130   -3.922270
  N      9.178940    2.867130   -4.416040
  S      8.480040    4.259540   -4.102180
  N      7.175590    3.703850   -3.346350
  C      5.146510    1.877450   -1.962770
  C      4.657500    3.110600   -1.574770
  C      3.501770    3.249520   -0.768570
  C      3.201130    4.538780   -0.427700
  C      4.108000    5.467160   -0.965460
  S      5.337380    4.681890   -1.914980
  C      4.148750    6.854640   -0.796350
  C      3.363050    7.684460    0.015590
  C      3.778820    8.992360    0.003330
  C      4.897620    9.236670   -0.818280
  S      5.362580    7.774420   -1.636280
  C      5.632490   10.419730   -0.809110
  C      6.840330   10.684870   -1.438610
  C      7.682260   11.738580   -0.937820
  C      9.087490   11.776550   -1.230350
  N      9.856510   12.722310   -0.678260
  C      9.308630   13.607760    0.123570
  C      7.915360   13.565510    0.417270
  N      7.144520   12.637360   -0.116510
  C      7.332800   14.529650    1.275790
  N      6.888910   15.319790    1.976460
  C     10.121130   14.626410    0.685300
  N     10.744180   15.462630    1.157950
  C      9.715140   10.778900   -2.032190
  C      8.825520    9.956710   -2.774390
  C      7.415090    9.925470   -2.497370
  N      6.765830    9.127860   -3.330380
  S      7.808340    8.472770   -4.372560
  N      9.145660    9.166800   -3.792370
  C     11.114170   10.670800   -2.082980
  C     11.854660    9.579690   -2.474230
  C     13.258430    9.770660   -2.957400
  O     13.920560   10.779050   -2.878690
  C     13.611360    8.485180   -3.571620
  C     14.666960    7.978360   -4.262160
  S     14.339360    6.311810   -4.681880
  C     12.795860    6.331110   -3.906780
  C     12.541790    7.551670   -3.365530
  C     11.499820    8.197220   -2.595740
  C     10.468740    7.517390   -1.966120
  C     10.204330    6.175380   -2.211430
  N      9.927280    5.070790   -2.410910
  C      9.615450    8.065100   -0.991240
  N      8.896090    8.443340   -0.178930
  C     15.930390    8.647510   -4.640960
  H     10.823870   -5.137550   -2.579650
  H     14.374980   -4.385440   -6.483290
  H     13.400520   -3.060930   -7.152690
  H     12.953420   -4.752960   -7.453860
  H     10.413400    0.718690   -5.266410
  H      4.566010    1.028420   -1.617800
  H      2.933800    2.391750   -0.453940
  H      2.365170    4.826720    0.183880
  H      2.541970    7.316420    0.603970
  H      3.325710    9.775840    0.584670
  H      5.298480   11.180890   -0.113920
  H     11.673920   11.561590   -1.817470
  H     12.192580    5.445220   -3.920820
  H     15.918360    9.670110   -4.270530
  H     16.050400    8.658190   -5.724110
  H     16.785860    8.121890   -4.217380

 Total Charge           Charge          ....    0
 Multiplicity           Mult            ....    1
 Number of Electrons    NEL             ....  564
 Basis Dimension        Dim             .... 1196

ORBITAL ENERGIES
----------------

  NO   OCC          E(Eh)            E(eV)
   0   2.0000     -89.068669     -2423.6817
   1   2.0000     -89.037850     -2422.8431
   2   2.0000     -88.985661     -2421.4229
   3   2.0000     -88.981630     -2421.3133
   4   2.0000     -88.980882     -2421.2929
   5   2.0000     -88.970959     -2421.0229
   6   2.0000     -19.221742      -523.0502
   7   2.0000     -19.205962      -522.6208
   8   2.0000     -14.473561      -393.8456
   9   2.0000     -14.470632      -393.7659
  10   2.0000     -14.461330      -393.5128
  11   2.0000     -14.460086      -393.4789
  12   2.0000     -14.460022      -393.4772
  13   2.0000     -14.455756      -393.3611
  14   2.0000     -14.453901      -393.3107
  15   2.0000     -14.449009      -393.1775
  16   2.0000     -14.439218      -392.9111
  17   2.0000     -14.436637      -392.8409
  18   2.0000     -14.434488      -392.7824
  19   2.0000     -14.426915      -392.5763
  20   2.0000     -14.425203      -392.5297
  21   2.0000     -14.422524      -392.4568
  22   2.0000     -14.419582      -392.3768
  23   2.0000     -14.416605      -392.2958
  24   2.0000     -10.391806      -282.7754
  25   2.0000     -10.390697      -282.7452
  26   2.0000     -10.379033      -282.4279
  27   2.0000     -10.375836      -282.3408
  28   2.0000     -10.372769      -282.2574
  29   2.0000     -10.365806      -282.0679
  30   2.0000     -10.363007      -281.9918
  31   2.0000     -10.359824      -281.9052
  32   2.0000     -10.359163      -281.8871
  33   2.0000     -10.354456      -281.7591
  34   2.0000     -10.353420      -281.7309
  35   2.0000     -10.351852      -281.6882
  36   2.0000     -10.351422      -281.6765
  37   2.0000     -10.350151      -281.6419
  38   2.0000     -10.348695      -281.6023
  39   2.0000     -10.346462      -281.5415
  40   2.0000     -10.346405      -281.5400
  41   2.0000     -10.345896      -281.5262
  42   2.0000     -10.343843      -281.4703
  43   2.0000     -10.341934      -281.4183
  44   2.0000     -10.338408      -281.3224
  45   2.0000     -10.337766      -281.3049
  46   2.0000     -10.336293      -281.2648
  47   2.0000     -10.333732      -281.1952
  48   2.0000     -10.332663      -281.1661
  49   2.0000     -10.332306      -281.1563
  50   2.0000     -10.331170      -281.1254
  51   2.0000     -10.330162      -281.0980
  52   2.0000     -10.328632      -281.0564
  53   2.0000     -10.328513      -281.0531
  54   2.0000     -10.328092      -281.0417
  55   2.0000     -10.326416      -280.9961
  56   2.0000     -10.322954      -280.9019
  57   2.0000     -10.321892      -280.8730
  58   2.0000     -10.321628      -280.8658
  59   2.0000     -10.321572      -280.8643
  60   2.0000     -10.321368      -280.8587
  61   2.0000     -10.320436      -280.8334
  62   2.0000     -10.320024      -280.8221
  63   2.0000     -10.318319      -280.7757
  64   2.0000     -10.317134      -280.7435
  65   2.0000     -10.315362      -280.6953
  66   2.0000     -10.313315      -280.6396
  67   2.0000     -10.312606      -280.6203
  68   2.0000     -10.311992      -280.6036
  69   2.0000     -10.305833      -280.4360
  70   2.0000     -10.304292      -280.3940
  71   2.0000     -10.299109      -280.2530
  72   2.0000     -10.296068      -280.1703
  73   2.0000     -10.289238      -279.9844
  74   2.0000     -10.287686      -279.9422
  75   2.0000     -10.286594      -279.9125
  76   2.0000     -10.279878      -279.7297
  77   2.0000     -10.277905      -279.6760
  78   2.0000      -8.156882      -221.9601
  79   2.0000      -8.129577      -221.2170
  80   2.0000      -8.079973      -219.8672
  81   2.0000      -8.076768      -219.7800
  82   2.0000      -8.076521      -219.7733
  83   2.0000      -8.066973      -219.5135
  84   2.0000      -6.127216      -166.7300
  85   2.0000      -6.121953      -166.5868
  86   2.0000      -6.119026      -166.5072
  87   2.0000      -6.101040      -166.0177
  88   2.0000      -6.093338      -165.8082
  89   2.0000      -6.091438      -165.7564
  90   2.0000      -6.049628      -164.6188
  91   2.0000      -6.046028      -164.5208
  92   2.0000      -6.045969      -164.5192
  93   2.0000      -6.045148      -164.4968
  94   2.0000      -6.041601      -164.4003
  95   2.0000      -6.041428      -164.3956
  96   2.0000      -6.041394      -164.3947
  97   2.0000      -6.039406      -164.3406
  98   2.0000      -6.038260      -164.3094
  99   2.0000      -6.036308      -164.2563
 100   2.0000      -6.031717      -164.1314
 101   2.0000      -6.029348      -164.0669
 102   2.0000      -1.154371       -31.4120
 103   2.0000      -1.141968       -31.0745
 104   2.0000      -1.137098       -30.9420
 105   2.0000      -1.133323       -30.8393
 106   2.0000      -1.121659       -30.5219
 107   2.0000      -1.117666       -30.4132
 108   2.0000      -1.059822       -28.8392
 109   2.0000      -1.043378       -28.3918
 110   2.0000      -1.033312       -28.1179
 111   2.0000      -1.029947       -28.0263
 112   2.0000      -1.028169       -27.9779
 113   2.0000      -1.022481       -27.8231
 114   2.0000      -1.014759       -27.6130
 115   2.0000      -1.013077       -27.5672
 116   2.0000      -1.011728       -27.5305
 117   2.0000      -1.010599       -27.4998
 118   2.0000      -1.008434       -27.4409
 119   2.0000      -1.004590       -27.3363
 120   2.0000      -1.002712       -27.2852
 121   2.0000      -1.000936       -27.2368
 122   2.0000      -0.998817       -27.1792
 123   2.0000      -0.995585       -27.0912
 124   2.0000      -0.991100       -26.9692
 125   2.0000      -0.977208       -26.5912
 126   2.0000      -0.967590       -26.3295
 127   2.0000      -0.956234       -26.0204
 128   2.0000      -0.935364       -25.4526
 129   2.0000      -0.922992       -25.1159
 130   2.0000      -0.919834       -25.0299
 131   2.0000      -0.908982       -24.7347
 132   2.0000      -0.906629       -24.6706
 133   2.0000      -0.901370       -24.5275
 134   2.0000      -0.895460       -24.3667
 135   2.0000      -0.883728       -24.0475
 136   2.0000      -0.877842       -23.8873
 137   2.0000      -0.875652       -23.8277
 138   2.0000      -0.868051       -23.6209
 139   2.0000      -0.863487       -23.4967
 140   2.0000      -0.856130       -23.2965
 141   2.0000      -0.845551       -23.0086
 142   2.0000      -0.842221       -22.9180
 143   2.0000      -0.831438       -22.6246
 144   2.0000      -0.819305       -22.2944
 145   2.0000      -0.811535       -22.0830
 146   2.0000      -0.800146       -21.7731
 147   2.0000      -0.795899       -21.6575
 148   2.0000      -0.792589       -21.5674
 149   2.0000      -0.788257       -21.4496
 150   2.0000      -0.771779       -21.0012
 151   2.0000      -0.758524       -20.6405
 152   2.0000      -0.750146       -20.4125
 153   2.0000      -0.743240       -20.2246
 154   2.0000      -0.737900       -20.0793
 155   2.0000      -0.733243       -19.9526
 156   2.0000      -0.724929       -19.7263
 157   2.0000      -0.715036       -19.4571
 158   2.0000      -0.710183       -19.3251
 159   2.0000      -0.704518       -19.1709
 160   2.0000      -0.702405       -19.1134
 161   2.0000      -0.699914       -19.0456
 162   2.0000      -0.690032       -18.7767
 163   2.0000      -0.686292       -18.6750
 164   2.0000      -0.679307       -18.4849
 165   2.0000      -0.670146       -18.2356
 166   2.0000      -0.669525       -18.2187
 167   2.0000      -0.667062       -18.1517
 168   2.0000      -0.661702       -18.0058
 169   2.0000      -0.658087       -17.9074
 170   2.0000      -0.652183       -17.7468
 171   2.0000      -0.645716       -17.5708
 172   2.0000      -0.637789       -17.3551
 173   2.0000      -0.635687       -17.2979
 174   2.0000      -0.627362       -17.0714
 175   2.0000      -0.626137       -17.0381
 176   2.0000      -0.621368       -16.9083
 177   2.0000      -0.617521       -16.8036
 178   2.0000      -0.605384       -16.4733
 179   2.0000      -0.601583       -16.3699
 180   2.0000      -0.600108       -16.3298
 181   2.0000      -0.597697       -16.2642
 182   2.0000      -0.595310       -16.1992
 183   2.0000      -0.592767       -16.1300
 184   2.0000      -0.583507       -15.8780
 185   2.0000      -0.579841       -15.7783
 186   2.0000      -0.578851       -15.7513
 187   2.0000      -0.571794       -15.5593
 188   2.0000      -0.564116       -15.3504
 189   2.0000      -0.560450       -15.2506
 190   2.0000      -0.555217       -15.1082
 191   2.0000      -0.553872       -15.0716
 192   2.0000      -0.547932       -14.9100
 193   2.0000      -0.546899       -14.8819
 194   2.0000      -0.543988       -14.8027
 195   2.0000      -0.537547       -14.6274
 196   2.0000      -0.533124       -14.5070
 197   2.0000      -0.531961       -14.4754
 198   2.0000      -0.529618       -14.4116
 199   2.0000      -0.526788       -14.3346
 200   2.0000      -0.526048       -14.3145
 201   2.0000      -0.522161       -14.2087
 202   2.0000      -0.520654       -14.1677
 203   2.0000      -0.519277       -14.1302
 204   2.0000      -0.518000       -14.0955
 205   2.0000      -0.515592       -14.0300
 206   2.0000      -0.511513       -13.9190
 207   2.0000      -0.509155       -13.8548
 208   2.0000      -0.507290       -13.8041
 209   2.0000      -0.504899       -13.7390
 210   2.0000      -0.502955       -13.6861
 211   2.0000      -0.500301       -13.6139
 212   2.0000      -0.498718       -13.5708
 213   2.0000      -0.493423       -13.4267
 214   2.0000      -0.491673       -13.3791
 215   2.0000      -0.489756       -13.3269
 216   2.0000      -0.483503       -13.1568
 217   2.0000      -0.483263       -13.1503
 218   2.0000      -0.480534       -13.0760
 219   2.0000      -0.479590       -13.0503
 220   2.0000      -0.476602       -12.9690
 221   2.0000      -0.474577       -12.9139
 222   2.0000      -0.471507       -12.8304
 223   2.0000      -0.469543       -12.7769
 224   2.0000      -0.468248       -12.7417
 225   2.0000      -0.465601       -12.6697
 226   2.0000      -0.463195       -12.6042
 227   2.0000      -0.461170       -12.5491
 228   2.0000      -0.460953       -12.5432
 229   2.0000      -0.460022       -12.5178
 230   2.0000      -0.458211       -12.4686
 231   2.0000      -0.456361       -12.4182
 232   2.0000      -0.454260       -12.3610
 233   2.0000      -0.452859       -12.3229
 234   2.0000      -0.451831       -12.2949
 235   2.0000      -0.450586       -12.2611
 236   2.0000      -0.450183       -12.2501
 237   2.0000      -0.449222       -12.2239
 238   2.0000      -0.448271       -12.1981
 239   2.0000      -0.447615       -12.1802
 240   2.0000      -0.442927       -12.0527
 241   2.0000      -0.442463       -12.0400
 242   2.0000      -0.439835       -11.9685
 243   2.0000      -0.438492       -11.9320
 244   2.0000      -0.437428       -11.9030
 245   2.0000      -0.435826       -11.8594
 246   2.0000      -0.433389       -11.7931
 247   2.0000      -0.432992       -11.7823
 248   2.0000      -0.430566       -11.7163
 249   2.0000      -0.430375       -11.7111
 250   2.0000      -0.429254       -11.6806
 251   2.0000      -0.423173       -11.5151
 252   2.0000      -0.422885       -11.5073
 253   2.0000      -0.421330       -11.4650
 254   2.0000      -0.420026       -11.4295
 255   2.0000      -0.418110       -11.3773
 256   2.0000      -0.413013       -11.2387
 257   2.0000      -0.408428       -11.1139
 258   2.0000      -0.406667       -11.0660
 259   2.0000      -0.405208       -11.0263
 260   2.0000      -0.397909       -10.8277
 261   2.0000      -0.392773       -10.6879
 262   2.0000      -0.379415       -10.3244
 263   2.0000      -0.375856       -10.2276
 264   2.0000      -0.370455       -10.0806
 265   2.0000      -0.367179        -9.9915
 266   2.0000      -0.365655        -9.9500
 267   2.0000      -0.361156        -9.8276
 268   2.0000      -0.360514        -9.8101
 269   2.0000      -0.349025        -9.4975
 270   2.0000      -0.348526        -9.4839
 271   2.0000      -0.345937        -9.4134
 272   2.0000      -0.344452        -9.3730
 273   2.0000      -0.340930        -9.2772
 274   2.0000      -0.332020        -9.0347
 275   2.0000      -0.328287        -8.9331
 276   2.0000      -0.322875        -8.7859
 277   2.0000      -0.315123        -8.5749
 278   2.0000      -0.308432        -8.3929
 279   2.0000      -0.299118        -8.1394
 280   2.0000      -0.279854        -7.6152
 281   2.0000      -0.238743        -6.4965
 282   0.0000      -0.159668        -4.3448
 283   0.0000      -0.119736        -3.2582
 284   0.0000      -0.084435        -2.2976
 285   0.0000      -0.080182        -2.1819
 286   0.0000      -0.077391        -2.1059

MULLIKEN ATOMIC CHARGES
-----------------------
   0 C :    0.018266
   1 C :   -0.125302
   2 S :    0.162834
   3 C :   -0.314808
   4 C :    0.115356
   5 C :    0.066440
   6 C :    0.123922
   7 O :   -0.144107
   8 C :   -0.098103
   9 C :    0.315004
  10 C :   -0.356103
  11 C :   -0.203433
  12 N :    0.172466
  13 C :   -0.175500
  14 N :    0.160512
  15 C :   -0.039196
  16 C :    0.101969
  17 C :   -0.129976
  18 C :    0.013125
  19 N :    0.045948
  20 C :   -0.110576
  21 C :   -0.113852
  22 N :    0.032110
  23 C :   -0.213713
  24 N :    0.248582
  25 C :   -0.224562
  26 N :    0.241544
  27 C :    0.101310
  28 C :    0.063211
  29 C :    0.026896
  30 N :   -0.273137
  31 S :    0.634889
  32 N :   -0.351761
  33 C :   -0.089386
  34 C :    0.003569
  35 C :    0.047496
  36 C :    0.034303
  37 C :   -0.003346
  38 S :    0.170427
  39 C :   -0.049147
  40 C :    0.046937
  41 C :    0.026117
  42 C :    0.011262
  43 S :    0.160863
  44 C :   -0.060553
  45 C :    0.107712
  46 C :   -0.041977
  47 C :   -0.026062
  48 N :    0.048817
  49 C :   -0.124340
  50 C :   -0.139144
  51 N :    0.040848
  52 C :   -0.212580
  53 N :    0.227785
  54 C :   -0.204136
  55 N :    0.239120
  56 C :    0.076334
  57 C :   -0.050786
  58 C :    0.031458
  59 N :   -0.305492
  60 S :    0.488824
  61 N :   -0.271063
  62 C :   -0.025287
  63 C :   -0.127923
  64 C :    0.125895
  65 O :   -0.143646
  66 C :    0.067072
  67 C :   -0.318929
  68 S :    0.142058
  69 C :   -0.156250
  70 C :    0.024831
  71 C :    0.345666
  72 C :   -0.394353
  73 C :   -0.085467
  74 N :    0.052831
  75 C :   -0.189121
  76 N :    0.151216
  77 C :    0.114781
  78 H :    0.055390
  79 H :    0.039858
  80 H :    0.048080
  81 H :    0.040670
  82 H :    0.034728
  83 H :    0.020942
  84 H :    0.012909
  85 H :    0.000441
  86 H :   -0.000784
  87 H :    0.007550
  88 H :    0.014098
  89 H :    0.032119
  90 H :    0.032654
  91 H :    0.049792
  92 H :    0.036818
  93 H :    0.037243
Sum of atomic charges:   -0.0000000

LOEWDIN ATOMIC CHARGES
----------------------
   0 C :   -0.060466
   1 C :   -0.143014
   2 S :    0.476363
   3 C :   -0.127930
   4 C :   -0.057557
   5 C :   -0.104536
   6 C :    0.085400
   7 O :   -0.141933
   8 C :   -0.053751
   9 C :    0.080548
  10 C :   -0.149381
  11 C :   -0.022816
  12 N :   -0.046670
  13 C :   -0.016980
  14 N :   -0.056276
  15 C :    0.064096
  16 C :   -0.030674
  17 C :    0.001116
  18 C :    0.017337
  19 N :   -0.004950
  20 C :   -0.027215
  21 C :   -0.023405
  22 N :    0.002261
  23 C :   -0.034495
  24 N :   -0.003260
  25 C :   -0.037318
  26 N :   -0.003059
  27 C :   -0.029464
  28 C :   -0.026116
  29 C :   -0.024794
  30 N :   -0.300778
  31 S :    0.813614
  32 N :   -0.321293
  33 C :    0.018535
  34 C :   -0.145674
  35 C :    0.006393
  36 C :   -0.034302
  37 C :   -0.143556
  38 S :    0.480865
  39 C :   -0.190130
  40 C :   -0.013064
  41 C :   -0.027729
  42 C :   -0.117745
  43 S :    0.482813
  44 C :   -0.011916
  45 C :   -0.006073
  46 C :    0.003042
  47 C :    0.030079
  48 N :   -0.013089
  49 C :   -0.015941
  50 C :   -0.041307
  51 N :   -0.005346
  52 C :   -0.038145
  53 N :   -0.014756
  54 C :   -0.033341
  55 N :   -0.002624
  56 C :   -0.085794
  57 C :   -0.034019
  58 C :   -0.049890
  59 N :   -0.284730
  60 S :    0.616258
  61 N :   -0.277602
  62 C :    0.080706
  63 C :   -0.097417
  64 C :    0.083032
  65 O :   -0.146137
  66 C :   -0.102153
  67 C :   -0.129090
  68 S :    0.451094
  69 C :   -0.165765
  70 C :   -0.057852
  71 C :    0.085948
  72 C :   -0.178571
  73 C :    0.031701
  74 N :   -0.142291
  75 C :   -0.014935
  76 N :   -0.074262
  77 C :   -0.058129
  78 H :    0.038040
  79 H :    0.044040
  80 H :    0.048507
  81 H :    0.044310
  82 H :    0.053005
  83 H :    0.048039
  84 H :    0.043197
  85 H :    0.037161
  86 H :    0.036910
  87 H :    0.040651
  88 H :    0.046085
  89 H :    0.048511
  90 H :    0.027588
  91 H :    0.049218
  92 H :    0.042340
  93 H :    0.042701

  Mayer bond orders larger than 0.100000
B(  0-C ,  1-C ) :   1.5494 B(  0-C ,  5-C ) :   1.1975 B(  0-C ,  9-C ) :   1.0268
B(  1-C ,  2-S ) :   1.1610 B(  1-C , 78-H ) :   0.9575 B(  2-S ,  3-C ) :   1.1708
B(  3-C ,  4-C ) :   1.0863 B(  3-C ,  5-C ) :   1.5499 B(  4-C , 79-H ) :   0.9430
B(  4-C , 80-H ) :   0.9460 B(  4-C , 81-H ) :   0.9424 B(  5-C ,  6-C ) :   0.9452
B(  6-C ,  7-O ) :   2.2323 B(  6-C ,  8-C ) :   0.9449 B(  8-C ,  9-C ) :   1.0240
B(  8-C , 15-C ) :   1.6724 B(  9-C , 10-C ) :   1.6346 B( 10-C , 11-C ) :   1.1431
B( 10-C , 13-C ) :   1.1718 B( 11-C , 12-N ) :   3.0054 B( 13-C , 14-N ) :   2.9772
B( 15-C , 16-C ) :   1.1108 B( 15-C , 82-H ) :   0.9422 B( 16-C , 17-C ) :   1.1865
B( 16-C , 27-C ) :   0.1108 B( 16-C , 29-C ) :   1.2613 B( 17-C , 18-C ) :   1.1443
B( 17-C , 22-N ) :   1.4835 B( 18-C , 19-N ) :   1.5009 B( 18-C , 27-C ) :   1.1640
B( 19-N , 20-C ) :   1.6745 B( 20-C , 21-C ) :   1.2532 B( 20-C , 25-C ) :   1.1633
B( 21-C , 22-N ) :   1.6496 B( 21-C , 23-C ) :   1.1694 B( 23-C , 24-N ) :   3.0301
B( 25-C , 26-N ) :   3.0428 B( 27-C , 28-C ) :   1.1923 B( 27-C , 33-C ) :   1.2767
B( 28-C , 29-C ) :   1.1152 B( 28-C , 32-N ) :   1.4264 B( 29-C , 30-N ) :   1.4976
B( 30-N , 31-S ) :   1.3497 B( 30-N , 32-N ) :   0.1144 B( 31-S , 32-N ) :   1.3039
B( 31-S , 74-N ) :   0.1183 B( 33-C , 34-C ) :   1.4333 B( 33-C , 83-H ) :   0.9443
B( 34-C , 35-C ) :   1.1865 B( 34-C , 38-S ) :   1.0630 B( 35-C , 36-C ) :   1.5139
B( 35-C , 84-H ) :   1.0029 B( 36-C , 37-C ) :   1.2433 B( 36-C , 85-H ) :   0.9966
B( 37-C , 38-S ) :   1.0940 B( 37-C , 39-C ) :   1.3406 B( 39-C , 40-C ) :   1.2851
B( 39-C , 43-S ) :   1.0857 B( 40-C , 41-C ) :   1.4598 B( 40-C , 86-H ) :   0.9956
B( 41-C , 42-C ) :   1.2614 B( 41-C , 87-H ) :   1.0007 B( 42-C , 43-S ) :   1.1279
B( 42-C , 44-C ) :   1.2945 B( 44-C , 45-C ) :   1.4786 B( 44-C , 88-H ) :   0.9427
B( 45-C , 46-C ) :   1.1061 B( 45-C , 58-C ) :   1.0924 B( 46-C , 47-C ) :   1.1627
B( 46-C , 51-N ) :   1.5343 B( 47-C , 48-N ) :   1.5074 B( 47-C , 56-C ) :   1.1801
B( 48-N , 49-C ) :   1.6837 B( 49-C , 50-C ) :   1.2728 B( 49-C , 54-C ) :   1.1536
B( 50-C , 51-N ) :   1.6471 B( 50-C , 52-C ) :   1.1564 B( 52-C , 53-N ) :   3.0475
B( 54-C , 55-N ) :   3.0496 B( 56-C , 57-C ) :   1.1304 B( 56-C , 62-C ) :   1.2833
B( 57-C , 58-C ) :   1.1102 B( 57-C , 61-N ) :   1.5781 B( 58-C , 59-N ) :   1.5353
B( 59-N , 60-S ) :   1.2273 B( 59-N , 61-N ) :   0.1208 B( 60-S , 61-N ) :   1.2123
B( 62-C , 63-C ) :   1.4388 B( 62-C , 89-H ) :   0.9420 B( 63-C , 64-C ) :   0.9596
B( 63-C , 71-C ) :   1.1692 B( 64-C , 65-O ) :   2.2395 B( 64-C , 66-C ) :   0.9322
B( 66-C , 67-C ) :   1.5701 B( 66-C , 70-C ) :   1.2011 B( 67-C , 68-S ) :   1.1540
B( 67-C , 77-C ) :   1.0858 B( 68-S , 69-C ) :   1.1464 B( 69-C , 70-C ) :   1.5514
B( 69-C , 90-H ) :   0.9621 B( 70-C , 71-C ) :   1.0100 B( 71-C , 72-C ) :   1.4839
B( 72-C , 73-C ) :   1.2367 B( 72-C , 75-C ) :   1.1656 B( 73-C , 74-N ) :   2.7637
B( 75-C , 76-N ) :   2.9897 B( 77-C , 91-H ) :   0.9457 B( 77-C , 92-H ) :   0.9431
B( 77-C , 93-H ) :   0.9433

-----------------------------------------------------------------------------
         ABSORPTION SPECTRUM VIA TRANSITION ELECTRIC DIPOLE MOMENTS
-----------------------------------------------------------------------------
State   Energy  Wavelength   fosc         T2         TX        TY        TZ
        (cm-1)    (nm)                  (au**2)     (au)      (au)      (au)
-----------------------------------------------------------------------------
   0    4240.2   2358.4   0.259078627  20.11520  -0.89798  -4.36785  -0.48036
   1   10525.7    950.1   0.014634516   0.45772   0.48436  -0.38376  -0.27540
   2   12870.8    777.0   0.573208085  14.66163   3.21166  -1.76850  -1.10419
   3   15734.5    635.5   0.201681876   4.21978   1.00329  -1.73393  -0.45460
   4   17913.8    558.2   0.080123356   1.47247  -0.57700   0.91943   0.54239
   5   18177.2    550.1   0.121541174   2.20127   0.89487  -1.14682  -0.29201
   6   19184.8    521.2   0.300860692   5.16279   0.33205  -2.21492  -0.38299
   7   20157.4    496.1   0.336843076   5.50134   1.02907   2.10761  -0.01875
   8   20860.4    479.4   0.014538447   0.22944   0.21733  -0.32598   0.27558
   9   21259.3    470.4   0.188637012   2.92115   1.68904  -0.14406  -0.21801
  10   22393.9    446.5   0.038817444   0.57065  -0.00301  -0.74193  -0.14205
  11   23047.1    433.9   0.026065508   0.37233   0.16515   0.55072  -0.20437
  12   23479.7    425.9   0.003288994   0.04612   0.11513  -0.06492  -0.16925
  13   23785.7    420.4   0.106700070   1.47681   0.91497   0.76518  -0.23267
  14   24090.5    415.1   0.165092475   2.25609   1.16543   0.91477  -0.24707
  15   24395.1    409.9   0.012020096   0.16221   0.37070  -0.15074  -0.04551
  16   24962.2    400.6   0.008636756   0.11391  -0.00094   0.33742   0.00714
  17   25371.9    394.1   0.010615754   0.13774   0.37003  -0.02385  -0.01581
  18   25826.1    387.2   0.063123410   0.80465  -0.49331   0.62431   0.41417
  19   26104.2    383.1   0.012501602   0.15766  -0.12940  -0.34158  -0.15571
  20   26331.3    379.8   0.160309461   2.00430   0.16628  -1.28083  -0.57975
  21   26807.7    373.0   0.046825001   0.57503   0.45422  -0.58876   0.14859
  22   26892.7    371.8   0.116270203   1.42334  -0.63790   0.35877   0.94219
  23   27068.8    369.4   0.005358404   0.06517   0.22417  -0.07436   0.09689
  24   27323.4    366.0   0.142986641   1.72280   0.55188  -1.15893  -0.27407
  25   27361.5    365.5   0.064236341   0.77289  -0.33388  -0.73152   0.35537
  26   27604.9    362.3   0.246134065   2.93536  -1.29595  -1.03291   0.43471
  27   27718.8    360.8   0.023516310   0.27930   0.03622   0.52666  -0.02481
  28   28102.0    355.8   0.042347057   0.49609  -0.59567  -0.00105   0.37585
  29   28582.3    349.9   0.081375045   0.93728   0.59411   0.73979   0.19242
  30   28608.7    349.5   0.210637876   2.42389  -0.00472  -1.19103  -1.00265
  31   28868.7    346.4   0.030015826   0.34229  -0.57786  -0.09131  -0.00574
  32   29596.2    337.9   0.002423366   0.02696  -0.13548   0.03383  -0.08635
  33   29680.3    336.9   0.030762621   0.34122  -0.22879  -0.38574  -0.37427
  34   29817.1    335.4   0.034622854   0.38227   0.27474   0.46438   0.30189
  35   30244.8    330.6   0.009372604   0.10202   0.20855   0.10686  -0.21705
  36   30345.9    329.5   0.014831141   0.16090   0.34114   0.20795   0.03578
  37   30968.4    322.9   0.070900864   0.75372   0.53568  -0.38090  -0.56717
  38   31269.0    319.8   0.159251569   1.67666   0.12082  -1.16542  -0.55123
  39   31391.0    318.6   0.094045837   0.98630   0.06995  -0.54471   0.82747
  40   31699.4    315.5   0.245044800   2.54490  -1.42179  -0.44660   0.56917
  41   32420.8    308.4   0.057089543   0.57971  -0.56968   0.48028   0.15652
  42   32988.7    303.1   0.007217016   0.07202   0.19551  -0.12477   0.13502
  43   33229.7    300.9   0.020255946   0.20068   0.17905  -0.39941  -0.09535
  44   33552.3    298.0   0.100378265   0.98490   0.08906   0.74162   0.65343
  45   33600.3    297.6   0.042507171   0.41648  -0.56590   0.29609   0.09261
  46   33817.8    295.7   0.008576131   0.08349   0.17264   0.20276   0.11211
  47   34040.9    293.8   0.023599542   0.22823  -0.05170  -0.46067   0.11553
  48   34107.5    293.2   0.013015583   0.12563   0.25544  -0.21020  -0.12725
  49   34320.1    291.4   0.056089948   0.53804  -0.22596  -0.68282   0.14400
  50   34523.4    289.7   0.022982051   0.21915   0.40202  -0.07950  -0.22631
  51   34657.2    288.5   0.030503573   0.28976   0.46715   0.20982  -0.16585
  52   34958.0    286.1   0.129666399   1.22111   0.47410   0.94348  -0.32587
  53   35069.7    285.1   0.012091437   0.11351  -0.17383   0.06213   0.28183
  54   35142.8    284.6   0.025791242   0.24161   0.07057   0.48098   0.07272
  55   35251.7    283.7   0.029115011   0.27190  -0.36770   0.36736   0.04178
  56   35466.5    282.0   0.034745164   0.32252  -0.08335   0.52236   0.20666
  57   35551.8    281.3   0.101045467   0.93569  -0.18815  -0.94800  -0.03975
  58   35752.9    279.7   0.109855249   1.01154  -0.21721   0.80642   0.56041
  59   35865.9    278.8   0.165325486   1.51752   0.01674  -1.09664  -0.56092
  60   35972.3    278.0   0.103126585   0.94380   0.07466  -0.76130  -0.59886
  61   36031.9    277.5   0.125195418   1.14387   0.40939   0.98794  -0.01576
  62   36100.0    277.0   0.005184365   0.04728   0.17467   0.06075  -0.11435
  63   36154.3    276.6   0.067503832   0.61467   0.46554  -0.02596  -0.63029
  64   36379.4    274.9   0.074006644   0.66972   0.13160  -0.41851  -0.69083
  65   36513.5    273.9   0.062134267   0.56021   0.02544   0.71344   0.22486
  66   36743.9    272.2   0.010183482   0.09124  -0.27095  -0.00658   0.13336
  67   37000.3    270.3   0.048396910   0.43061   0.50763   0.26220  -0.32277
  68   37150.6    269.2   0.014752285   0.13073  -0.18085   0.28672  -0.12575
  69   37230.0    268.6   0.006654828   0.05885  -0.01703  -0.02281  -0.24091
  70   37360.1    267.7   0.035440746   0.31230  -0.05050  -0.29145  -0.47413
  71   37430.1    267.2   0.400039710   3.51850   1.16208  -0.59391  -1.34735
  72   37527.4    266.5   0.001748962   0.01534  -0.04260  -0.02592   0.11338
  73   37638.7    265.7   0.004344509   0.03800   0.00608  -0.07405  -0.18022
  74   37839.2    264.3   0.011218551   0.09760  -0.22673   0.00726  -0.21482
  75   38159.5    262.1   0.032278716   0.27848   0.49749   0.05324  -0.16776
  76   38254.4    261.4   0.078731337   0.67755  -0.80680  -0.01312   0.16265
  77   38523.6    259.6   0.152582533   1.30393  -0.78231   0.55937   0.61566
  78   38731.1    258.2   0.038245821   0.32509  -0.53557  -0.12477  -0.15062
  79   38903.4    257.0   0.071748406   0.60716  -0.56505  -0.15056   0.51498
  80   38977.3    256.6   0.050624099   0.42758   0.30127  -0.53801  -0.21763
  81   39126.3    255.6   0.008262168   0.06952   0.04646  -0.24857   0.07466
  82   39310.8    254.4   0.058475316   0.48971  -0.41290  -0.51033  -0.24244
  83   39488.7    253.2   0.044737709   0.37297  -0.26233   0.54399   0.09074
  84   39596.0    252.6   0.081936073   0.68124   0.45565  -0.59132  -0.35209
  85   39756.2    251.5   0.020186716   0.16716   0.26756  -0.30475  -0.05195
  86   39863.4    250.9   0.053403475   0.44103   0.55617   0.24670  -0.26616
  87   40092.1    249.4   0.047520390   0.39021  -0.41426  -0.29688   0.36119
  88   40132.3    249.2   0.128016357   1.05014  -0.68550   0.36863   0.66659

FINAL SINGLE POINT ENERGY     -5478.088578466777

DIPOLE MOMENT
-------------
                                X             Y             Z
Electronic contribution:    -15.19000       7.95527       5.40240
Nuclear contribution   :     13.31660      -9.72095      -8.57981
                        -----------------------------------------
Total Dipole Moment    :     -1.87340      -1.76568      -3.17741
                        -----------------------------------------
Magnitude (a.u.)       :      4.08939
Magnitude (Debye)      :     10.39441

Rotational constants in cm-1:     0.001313     0.000416     0.000335
Rotational constants in MHz :    39.348620    12.470993    10.037938

                             ****ORCA TERMINATED NORMALLY****
TOTAL RUN TIME: 0 days 0 hours 12 minutes 16 seconds 992 msec
