                         Program Version 4.2.0 -  RELEASE  -
|  1> # ORCA input file
|  2> # SCF done       -159.465420679212          0.000553051585
|  3> ! CAM-B3LYP def2-SVP def2/J RIJCOSX Grid4 TightSCF
|  4> %maxcore 5000
|  5> %tddft
|  6>     Mode sTDDFT
|  7>     Ethresh 5.0
|  8>     maxcore 5000
|  9> end
| 10>
| 11> %pal
| 12>   nprocs 6
| 13>   end
| 14> * xyz 0 1
| 15>    C       19.39536        -6.88046       -15.50865
| 16>    C       19.12413        -6.67601       -14.21078
| 17>    C       19.50555        -5.56053       -13.39684
| 18>    C       19.07830        -5.63340       -12.11380
| 19>    C       18.33173        -6.80074       -11.81007
| 20>    S       18.19172        -7.81757       -13.22952
| 21>    C       17.76566        -7.14254       -10.59833
| 22>    C       17.79126        -6.41310        -9.39143
| 23>    C       17.11942        -7.01762        -8.36697
| 24>    C       16.53163        -8.25118        -8.70569
| 25>    S       16.86469        -8.63009       -10.38459
| 26>    C       15.78038        -9.06776        -7.87700
| 27>    C       15.21773       -10.27281        -8.25416
| 28>    C       14.42867       -11.06383        -7.43478
| 29>    C       13.81721       -12.28566        -7.76887
| 30>    C       13.05997       -12.82989        -6.76791
| 31>    C       13.03780       -12.05967        -5.59022
| 32>    S       14.02454       -10.62647        -5.78595
| 33>    C       12.34933       -12.30902        -4.41607
| 34>    C       11.46542       -13.36996        -4.12634
| 35>    C       10.91234       -13.30552        -2.88516
| 36>    C       11.32013       -12.18507        -2.10823
| 37>    S       12.46739       -11.23171        -3.04065
| 38>    C       10.93509       -11.96239        -0.81678
| 39>    C       11.27007       -10.92167         0.09342
| 40>    S       11.39955       -11.41889         1.77624
| 41>    C       11.83897        -9.83662         2.25571
| 42>    C       11.85028        -8.96369         1.20881
| 43>    C       11.51261        -9.56707        -0.02935
| 44>    C       11.30567        -8.72447        -1.24582
| 45>    C       12.12349        -7.43977        -1.15171
| 46>    C       11.77568        -6.69591         0.13115
| 47>    C       12.21663        -7.50811         1.35328
| 48>    C       11.58693        -7.00065         2.63459
| 49>    O       12.15894        -6.84447         3.68208
| 50>    O       10.27088        -6.77827         2.46449
| 51>    C        9.52123        -6.34877         3.52059
| 52>    C        8.23481        -5.98800         3.32540
| 53>    C        7.30622        -5.51118         4.29597
| 54>    C        6.08846        -5.20312         3.78149
| 55>    C        5.97072        -5.41700         2.38674
| 56>    S        7.47550        -6.03994         1.73575
| 57>    C        4.86675        -5.18300         1.58978
| 58>    C        3.60949        -4.67476         1.97640
| 59>    C        2.72315        -4.55052         0.94441
| 60>    C        3.22805        -4.95337        -0.30691
| 61>    S        4.88477        -5.50147        -0.13234
| 62>    C        2.55551        -4.93590        -1.51635
| 63>    C        3.08981        -5.34688        -2.72471
| 64>    C        2.41408        -5.32385        -3.93232
| 65>    C        2.90952        -5.73271        -5.18618
| 66>    C        2.02169        -5.59643        -6.21457
| 67>    C        0.77255        -5.06901        -5.82355
| 68>    S        0.76424        -4.75481        -4.09977
| 69>    C       -0.32530        -4.80745        -6.61755
| 70>    C       -0.44475        -5.01083        -8.01715
| 71>    C       -1.64527        -4.65690        -8.53312
| 72>    C       -2.57413        -4.14315        -7.57044
| 73>    S       -1.81207        -4.14432        -5.97186
| 74>    C       -3.82734        -3.71447        -7.78204
| 75>    H       19.96462        -6.16079       -16.06977
| 76>    H       19.05606        -7.75907       -16.02556
| 77>    H       20.08287        -4.75183       -13.80842
| 78>    H       19.27416        -4.88385       -11.36749
| 79>    H       18.29609        -5.46758        -9.30727
| 80>    H       17.02930        -6.60805        -7.37601
| 81>    H       15.62142        -8.72221        -6.86290
| 82>    H       15.38925       -10.62825        -9.26254
| 83>    H       13.94702       -12.72970        -8.74031
| 84>    H       12.52207       -13.75706        -6.85258
| 85>    H       11.25729       -14.14529        -4.84180
| 86>    H       10.21388       -14.02398        -2.49368
| 87>    H       10.35727       -12.76602        -0.37328
| 88>    H       12.07232        -9.63667         3.28294
| 89>    H       10.24145        -8.47165        -1.31035
| 90>    H       11.56524        -9.26528        -2.15292
| 91>    H       11.90849        -6.80853        -2.01500
| 92>    H       13.18790        -7.68245        -1.16577
| 93>    H       10.69662        -6.53741         0.16970
| 94>    H       12.26546        -5.72053         0.15448
| 95>    H       13.30381        -7.43628         1.47875
| 96>    H       10.01404        -6.30408         4.48193
| 97>    H        7.58356        -5.41293         5.32961
| 98>    H        5.26732        -4.82476         4.36360
| 99>    H        3.38956        -4.41351         2.99577
|100>    H        1.71846        -4.18001         1.04900
|101>    H        1.53569        -4.57173        -1.50429
|102>    H        4.10830        -5.71447        -2.73806
|103>    H        3.90891        -6.11638        -5.29457
|104>    H        2.23479        -5.85989        -7.23491
|105>    H        0.36771        -5.41342        -8.59586
|106>    H       -1.91777        -4.73813        -9.57035
|107>    H       -4.25242        -3.72947        -8.76999
|108>    H       -4.44149        -3.34517        -6.98159
|109> *
|110>
|111>                          ****END OF INPUT****

CARTESIAN COORDINATES (ANGSTROEM)
---------------------------------
  C     19.395360   -6.880460  -15.508650
  C     19.124130   -6.676010  -14.210780
  C     19.505550   -5.560530  -13.396840
  C     19.078300   -5.633400  -12.113800
  C     18.331730   -6.800740  -11.810070
  S     18.191720   -7.817570  -13.229520
  C     17.765660   -7.142540  -10.598330
  C     17.791260   -6.413100   -9.391430
  C     17.119420   -7.017620   -8.366970
  C     16.531630   -8.251180   -8.705690
  S     16.864690   -8.630090  -10.384590
  C     15.780380   -9.067760   -7.877000
  C     15.217730  -10.272810   -8.254160
  C     14.428670  -11.063830   -7.434780
  C     13.817210  -12.285660   -7.768870
  C     13.059970  -12.829890   -6.767910
  C     13.037800  -12.059670   -5.590220
  S     14.024540  -10.626470   -5.785950
  C     12.349330  -12.309020   -4.416070
  C     11.465420  -13.369960   -4.126340
  C     10.912340  -13.305520   -2.885160
  C     11.320130  -12.185070   -2.108230
  S     12.467390  -11.231710   -3.040650
  C     10.935090  -11.962390   -0.816780
  C     11.270070  -10.921670    0.093420
  S     11.399550  -11.418890    1.776240
  C     11.838970   -9.836620    2.255710
  C     11.850280   -8.963690    1.208810
  C     11.512610   -9.567070   -0.029350
  C     11.305670   -8.724470   -1.245820
  C     12.123490   -7.439770   -1.151710
  C     11.775680   -6.695910    0.131150
  C     12.216630   -7.508110    1.353280
  C     11.586930   -7.000650    2.634590
  O     12.158940   -6.844470    3.682080
  O     10.270880   -6.778270    2.464490
  C      9.521230   -6.348770    3.520590
  C      8.234810   -5.988000    3.325400
  C      7.306220   -5.511180    4.295970
  C      6.088460   -5.203120    3.781490
  C      5.970720   -5.417000    2.386740
  S      7.475500   -6.039940    1.735750
  C      4.866750   -5.183000    1.589780
  C      3.609490   -4.674760    1.976400
  C      2.723150   -4.550520    0.944410
  C      3.228050   -4.953370   -0.306910
  S      4.884770   -5.501470   -0.132340
  C      2.555510   -4.935900   -1.516350
  C      3.089810   -5.346880   -2.724710
  C      2.414080   -5.323850   -3.932320
  C      2.909520   -5.732710   -5.186180
  C      2.021690   -5.596430   -6.214570
  C      0.772550   -5.069010   -5.823550
  S      0.764240   -4.754810   -4.099770
  C     -0.325300   -4.807450   -6.617550
  C     -0.444750   -5.010830   -8.017150
  C     -1.645270   -4.656900   -8.533120
  C     -2.574130   -4.143150   -7.570440
  S     -1.812070   -4.144320   -5.971860
  C     -3.827340   -3.714470   -7.782040
  H     19.964620   -6.160790  -16.069770
  H     19.056060   -7.759070  -16.025560
  H     20.082870   -4.751830  -13.808420
  H     19.274160   -4.883850  -11.367490
  H     18.296090   -5.467580   -9.307270
  H     17.029300   -6.608050   -7.376010
  H     15.621420   -8.722210   -6.862900
  H     15.389250  -10.628250   -9.262540
  H     13.947020  -12.729700   -8.740310
  H     12.522070  -13.757060   -6.852580
  H     11.257290  -14.145290   -4.841800
  H     10.213880  -14.023980   -2.493680
  H     10.357270  -12.766020   -0.373280
  H     12.072320   -9.636670    3.282940
  H     10.241450   -8.471650   -1.310350
  H     11.565240   -9.265280   -2.152920
  H     11.908490   -6.808530   -2.015000
  H     13.187900   -7.682450   -1.165770
  H     10.696620   -6.537410    0.169700
  H     12.265460   -5.720530    0.154480
  H     13.303810   -7.436280    1.478750
  H     10.014040   -6.304080    4.481930
  H      7.583560   -5.412930    5.329610
  H      5.267320   -4.824760    4.363600
  H      3.389560   -4.413510    2.995770
  H      1.718460   -4.180010    1.049000
  H      1.535690   -4.571730   -1.504290
  H      4.108300   -5.714470   -2.738060
  H      3.908910   -6.116380   -5.294570
  H      2.234790   -5.859890   -7.234910
  H      0.367710   -5.413420   -8.595860
  H     -1.917770   -4.738130   -9.570350
  H     -4.252420   -3.729470   -8.769990
  H     -4.441490   -3.345170   -6.981590

 Total Charge           Charge          ....    0
 Multiplicity           Mult            ....    1
 Number of Electrons    NEL             ....  488
 Basis Dimension        Dim             .... 1046

ORBITAL ENERGIES
----------------

  NO   OCC          E(Eh)            E(eV)
   0   2.0000     -88.941198     -2420.2130
   1   2.0000     -88.940155     -2420.1846
   2   2.0000     -88.938474     -2420.1389
   3   2.0000     -88.937982     -2420.1255
   4   2.0000     -88.937280     -2420.1064
   5   2.0000     -88.936151     -2420.0757
   6   2.0000     -88.935531     -2420.0588
   7   2.0000     -88.933967     -2420.0163
   8   2.0000     -88.931475     -2419.9485
   9   2.0000     -19.281042      -524.6638
  10   2.0000     -19.208926      -522.7015
  11   2.0000     -10.402382      -283.0632
  12   2.0000     -10.331553      -281.1359
  13   2.0000     -10.304399      -280.3969
  14   2.0000     -10.304082      -280.3883
  15   2.0000     -10.303529      -280.3733
  16   2.0000     -10.303336      -280.3680
  17   2.0000     -10.303227      -280.3651
  18   2.0000     -10.301882      -280.3285
  19   2.0000     -10.301763      -280.3252
  20   2.0000     -10.301762      -280.3252
  21   2.0000     -10.301688      -280.3232
  22   2.0000     -10.301475      -280.3174
  23   2.0000     -10.301335      -280.3136
  24   2.0000     -10.299945      -280.2757
  25   2.0000     -10.299531      -280.2645
  26   2.0000     -10.299458      -280.2625
  27   2.0000     -10.297772      -280.2166
  28   2.0000     -10.297306      -280.2039
  29   2.0000     -10.290197      -280.0105
  30   2.0000     -10.284509      -279.8557
  31   2.0000     -10.284089      -279.8443
  32   2.0000     -10.283015      -279.8151
  33   2.0000     -10.282438      -279.7994
  34   2.0000     -10.282306      -279.7958
  35   2.0000     -10.280921      -279.7581
  36   2.0000     -10.280872      -279.7568
  37   2.0000     -10.280401      -279.7439
  38   2.0000     -10.280283      -279.7407
  39   2.0000     -10.279847      -279.7288
  40   2.0000     -10.279186      -279.7109
  41   2.0000     -10.278935      -279.7040
  42   2.0000     -10.278601      -279.6950
  43   2.0000     -10.278260      -279.6857
  44   2.0000     -10.277860      -279.6748
  45   2.0000     -10.277831      -279.6740
  46   2.0000     -10.276721      -279.6438
  47   2.0000     -10.275702      -279.6161
  48   2.0000     -10.275516      -279.6110
  49   2.0000     -10.273712      -279.5619
  50   2.0000     -10.273061      -279.5442
  51   2.0000     -10.271166      -279.4926
  52   2.0000     -10.270646      -279.4785
  53   2.0000     -10.270489      -279.4742
  54   2.0000     -10.268482      -279.4196
  55   2.0000     -10.265199      -279.3303
  56   2.0000     -10.262644      -279.2607
  57   2.0000     -10.261850      -279.2391
  58   2.0000     -10.257755      -279.1277
  59   2.0000     -10.256155      -279.0842
  60   2.0000      -8.037307      -218.7062
  61   2.0000      -8.035926      -218.6687
  62   2.0000      -8.034806      -218.6382
  63   2.0000      -8.034312      -218.6248
  64   2.0000      -8.033378      -218.5993
  65   2.0000      -8.032474      -218.5747
  66   2.0000      -8.031858      -218.5580
  67   2.0000      -8.030627      -218.5245
  68   2.0000      -8.028170      -218.4576
  69   2.0000      -6.006574      -163.4472
  70   2.0000      -6.005677      -163.4228
  71   2.0000      -6.004483      -163.3903
  72   2.0000      -6.004002      -163.3772
  73   2.0000      -6.003276      -163.3574
  74   2.0000      -6.002400      -163.3336
  75   2.0000      -6.002170      -163.3273
  76   2.0000      -6.001616      -163.3123
  77   2.0000      -6.001563      -163.3108
  78   2.0000      -6.000524      -163.2826
  79   2.0000      -6.000432      -163.2801
  80   2.0000      -6.000069      -163.2702
  81   2.0000      -5.999476      -163.2540
  82   2.0000      -5.999256      -163.2480
  83   2.0000      -5.998220      -163.2199
  84   2.0000      -5.997994      -163.2137
  85   2.0000      -5.997606      -163.2032
  86   2.0000      -5.996887      -163.1836
  87   2.0000      -5.996523      -163.1737
  88   2.0000      -5.995781      -163.1535
  89   2.0000      -5.995228      -163.1384
  90   2.0000      -5.994065      -163.1068
  91   2.0000      -5.993961      -163.1040
  92   2.0000      -5.993404      -163.0888
  93   2.0000      -5.992768      -163.0715
  94   2.0000      -5.991212      -163.0292
  95   2.0000      -5.988732      -162.9617
  96   2.0000      -1.209446       -32.9107
  97   2.0000      -1.108500       -30.1638
  98   2.0000      -0.989368       -26.9221
  99   2.0000      -0.987138       -26.8614
 100   2.0000      -0.986917       -26.8554
 101   2.0000      -0.984545       -26.7908
 102   2.0000      -0.978127       -26.6162
 103   2.0000      -0.966477       -26.2992
 104   2.0000      -0.965616       -26.2758
 105   2.0000      -0.963039       -26.2056
 106   2.0000      -0.961152       -26.1543
 107   2.0000      -0.917030       -24.9537
 108   2.0000      -0.898858       -24.4592
 109   2.0000      -0.896823       -24.4038
 110   2.0000      -0.880601       -23.9624
 111   2.0000      -0.877383       -23.8748
 112   2.0000      -0.866714       -23.5845
 113   2.0000      -0.862307       -23.4646
 114   2.0000      -0.853354       -23.2209
 115   2.0000      -0.842978       -22.9386
 116   2.0000      -0.838803       -22.8250
 117   2.0000      -0.837067       -22.7778
 118   2.0000      -0.836557       -22.7639
 119   2.0000      -0.831990       -22.6396
 120   2.0000      -0.828143       -22.5349
 121   2.0000      -0.818576       -22.2746
 122   2.0000      -0.813347       -22.1323
 123   2.0000      -0.813289       -22.1307
 124   2.0000      -0.812357       -22.1054
 125   2.0000      -0.810147       -22.0452
 126   2.0000      -0.801675       -21.8147
 127   2.0000      -0.791810       -21.5463
 128   2.0000      -0.778236       -21.1769
 129   2.0000      -0.765162       -20.8211
 130   2.0000      -0.751203       -20.4413
 131   2.0000      -0.739700       -20.1282
 132   2.0000      -0.726598       -19.7717
 133   2.0000      -0.720234       -19.5986
 134   2.0000      -0.704566       -19.1722
 135   2.0000      -0.698298       -19.0017
 136   2.0000      -0.682539       -18.5728
 137   2.0000      -0.679903       -18.5011
 138   2.0000      -0.669129       -18.2079
 139   2.0000      -0.667447       -18.1621
 140   2.0000      -0.665836       -18.1183
 141   2.0000      -0.659486       -17.9455
 142   2.0000      -0.646895       -17.6029
 143   2.0000      -0.638286       -17.3686
 144   2.0000      -0.634943       -17.2777
 145   2.0000      -0.628909       -17.1135
 146   2.0000      -0.624957       -17.0060
 147   2.0000      -0.620475       -16.8840
 148   2.0000      -0.619909       -16.8686
 149   2.0000      -0.616586       -16.7782
 150   2.0000      -0.612640       -16.6708
 151   2.0000      -0.610999       -16.6261
 152   2.0000      -0.609992       -16.5987
 153   2.0000      -0.601154       -16.3582
 154   2.0000      -0.599707       -16.3189
 155   2.0000      -0.592536       -16.1237
 156   2.0000      -0.590381       -16.0651
 157   2.0000      -0.588196       -16.0056
 158   2.0000      -0.585698       -15.9376
 159   2.0000      -0.584385       -15.9019
 160   2.0000      -0.576032       -15.6746
 161   2.0000      -0.563342       -15.3293
 162   2.0000      -0.557229       -15.1630
 163   2.0000      -0.551746       -15.0138
 164   2.0000      -0.547393       -14.8953
 165   2.0000      -0.546087       -14.8598
 166   2.0000      -0.536517       -14.5994
 167   2.0000      -0.531296       -14.4573
 168   2.0000      -0.520136       -14.1536
 169   2.0000      -0.516755       -14.0616
 170   2.0000      -0.512562       -13.9475
 171   2.0000      -0.512444       -13.9443
 172   2.0000      -0.509646       -13.8682
 173   2.0000      -0.506056       -13.7705
 174   2.0000      -0.499748       -13.5988
 175   2.0000      -0.498443       -13.5633
 176   2.0000      -0.497674       -13.5424
 177   2.0000      -0.493453       -13.4275
 178   2.0000      -0.492795       -13.4096
 179   2.0000      -0.491339       -13.3700
 180   2.0000      -0.489277       -13.3139
 181   2.0000      -0.489178       -13.3112
 182   2.0000      -0.487969       -13.2783
 183   2.0000      -0.487292       -13.2599
 184   2.0000      -0.486345       -13.2341
 185   2.0000      -0.485262       -13.2046
 186   2.0000      -0.484050       -13.1717
 187   2.0000      -0.480819       -13.0837
 188   2.0000      -0.477037       -12.9808
 189   2.0000      -0.475152       -12.9295
 190   2.0000      -0.471719       -12.8361
 191   2.0000      -0.466208       -12.6862
 192   2.0000      -0.462253       -12.5785
 193   2.0000      -0.461103       -12.5472
 194   2.0000      -0.460470       -12.5300
 195   2.0000      -0.459712       -12.5094
 196   2.0000      -0.457072       -12.4376
 197   2.0000      -0.453380       -12.3371
 198   2.0000      -0.451006       -12.2725
 199   2.0000      -0.450700       -12.2642
 200   2.0000      -0.449956       -12.2439
 201   2.0000      -0.449204       -12.2235
 202   2.0000      -0.447805       -12.1854
 203   2.0000      -0.430409       -11.7120
 204   2.0000      -0.429632       -11.6909
 205   2.0000      -0.428411       -11.6577
 206   2.0000      -0.426708       -11.6113
 207   2.0000      -0.425323       -11.5736
 208   2.0000      -0.423425       -11.5220
 209   2.0000      -0.419423       -11.4131
 210   2.0000      -0.417518       -11.3612
 211   2.0000      -0.415381       -11.3031
 212   2.0000      -0.410944       -11.1823
 213   2.0000      -0.408508       -11.1161
 214   2.0000      -0.403158       -10.9705
 215   2.0000      -0.401808       -10.9338
 216   2.0000      -0.396965       -10.8020
 217   2.0000      -0.396365       -10.7856
 218   2.0000      -0.394655       -10.7391
 219   2.0000      -0.394046       -10.7225
 220   2.0000      -0.390049       -10.6138
 221   2.0000      -0.386431       -10.5153
 222   2.0000      -0.384774       -10.4702
 223   2.0000      -0.375303       -10.2125
 224   2.0000      -0.367847       -10.0096
 225   2.0000      -0.350793        -9.5456
 226   2.0000      -0.346011        -9.4154
 227   2.0000      -0.336735        -9.1630
 228   2.0000      -0.331618        -9.0238
 229   2.0000      -0.331296        -9.0150
 230   2.0000      -0.329894        -8.9769
 231   2.0000      -0.329377        -8.9628
 232   2.0000      -0.321965        -8.7611
 233   2.0000      -0.319052        -8.6818
 234   2.0000      -0.315401        -8.5825
 235   2.0000      -0.312794        -8.5116
 236   2.0000      -0.307010        -8.3542
 237   2.0000      -0.298566        -8.1244
 238   2.0000      -0.290239        -7.8978
 239   2.0000      -0.278755        -7.5853
 240   2.0000      -0.240952        -6.5566
 241   2.0000      -0.238029        -6.4771
 242   2.0000      -0.188415        -5.1270
 243   2.0000      -0.187791        -5.1100
 244   0.0000      -0.085399        -2.3238
 245   0.0000      -0.080309        -2.1853
 246   0.0000      -0.035161        -0.9568
 247   0.0000      -0.028666        -0.7801
 248   0.0000       0.003391         0.0923

MULLIKEN ATOMIC CHARGES
-----------------------
   0 C :   -0.031342
   1 C :   -0.064779
   2 C :    0.050149
   3 C :    0.026414
   4 C :   -0.066922
   5 S :    0.078266
   6 C :   -0.042568
   7 C :    0.018178
   8 C :    0.030803
   9 C :   -0.023818
  10 S :    0.073481
  11 C :   -0.015677
  12 C :   -0.012303
  13 C :   -0.025246
  14 C :    0.032628
  15 C :    0.016622
  16 C :   -0.041861
  17 S :    0.069210
  18 C :   -0.063316
  19 C :    0.031366
  20 C :    0.030596
  21 C :   -0.021011
  22 S :    0.090201
  23 C :   -0.022214
  24 C :   -0.178976
  25 S :    0.110897
  26 C :   -0.111717
  27 C :   -0.075437
  28 C :   -0.022977
  29 C :    0.137578
  30 C :    0.022805
  31 C :    0.036512
  32 C :    0.105660
  33 C :    0.137490
  34 O :   -0.194711
  35 O :   -0.241348
  36 C :    0.086381
  37 C :   -0.024510
  38 C :    0.044985
  39 C :    0.024389
  40 C :   -0.059469
  41 S :    0.097894
  42 C :   -0.046049
  43 C :    0.017841
  44 C :    0.033168
  45 C :   -0.024498
  46 S :    0.069932
  47 C :   -0.014672
  48 C :   -0.012561
  49 C :   -0.026626
  50 C :    0.034801
  51 C :    0.016765
  52 C :   -0.043447
  53 S :    0.070613
  54 C :   -0.068256
  55 C :    0.029748
  56 C :    0.045908
  57 C :   -0.061385
  58 S :    0.077226
  59 C :   -0.033476
  60 H :    0.018576
  61 H :    0.020627
  62 H :   -0.013320
  63 H :   -0.012514
  64 H :   -0.016961
  65 H :   -0.014804
  66 H :   -0.008323
  67 H :   -0.007916
  68 H :   -0.014560
  69 H :   -0.016600
  70 H :   -0.015611
  71 H :   -0.013236
  72 H :   -0.005105
  73 H :    0.025590
  74 H :    0.018062
  75 H :   -0.001232
  76 H :    0.003168
  77 H :    0.002538
  78 H :    0.020573
  79 H :    0.004127
  80 H :    0.023783
  81 H :    0.025845
  82 H :   -0.010933
  83 H :   -0.013696
  84 H :   -0.017697
  85 H :   -0.015024
  86 H :   -0.009342
  87 H :   -0.010187
  88 H :   -0.014987
  89 H :   -0.017481
  90 H :   -0.013546
  91 H :   -0.014031
  92 H :    0.017568
  93 H :    0.019312
Sum of atomic charges:   -0.0000000

LOEWDIN ATOMIC CHARGES
----------------------
   0 C :   -0.079708
   1 C :   -0.139337
   2 C :   -0.035219
   3 C :   -0.027445
   4 C :   -0.179560
   5 S :    0.351593
   6 C :   -0.179453
   7 C :   -0.036647
   8 C :   -0.036806
   9 C :   -0.145814
  10 S :    0.369733
  11 C :   -0.065194
  12 C :   -0.062249
  13 C :   -0.147527
  14 C :   -0.035965
  15 C :   -0.037907
  16 C :   -0.178526
  17 S :    0.369155
  18 C :   -0.181789
  19 C :   -0.039023
  20 C :   -0.032405
  21 C :   -0.149137
  22 S :    0.394724
  23 C :   -0.078269
  24 C :   -0.177211
  25 S :    0.428980
  26 C :   -0.188898
  27 C :   -0.063733
  28 C :   -0.055748
  29 C :   -0.031736
  30 C :   -0.026589
  31 C :   -0.023952
  32 C :   -0.040812
  33 C :    0.102748
  34 O :   -0.165530
  35 O :   -0.035623
  36 C :    0.027341
  37 C :   -0.173637
  38 C :   -0.032141
  39 C :   -0.032225
  40 C :   -0.179410
  41 S :    0.364692
  42 C :   -0.181434
  43 C :   -0.037158
  44 C :   -0.037074
  45 C :   -0.145968
  46 S :    0.367446
  47 C :   -0.065021
  48 C :   -0.063653
  49 C :   -0.147010
  50 C :   -0.035924
  51 C :   -0.037818
  52 C :   -0.178932
  53 S :    0.368337
  54 C :   -0.181294
  55 C :   -0.027069
  56 C :   -0.036577
  57 C :   -0.138961
  58 S :    0.350339
  59 C :   -0.081904
  60 H :    0.027887
  61 H :    0.025571
  62 H :    0.032495
  63 H :    0.032017
  64 H :    0.030229
  65 H :    0.033015
  66 H :    0.027450
  67 H :    0.028096
  68 H :    0.033118
  69 H :    0.030613
  70 H :    0.031288
  71 H :    0.032407
  72 H :    0.033310
  73 H :    0.024169
  74 H :    0.035814
  75 H :    0.004726
  76 H :    0.026346
  77 H :    0.022151
  78 H :    0.023760
  79 H :    0.025682
  80 H :    0.045969
  81 H :    0.027253
  82 H :    0.033401
  83 H :    0.031881
  84 H :    0.029915
  85 H :    0.032962
  86 H :    0.027564
  87 H :    0.027542
  88 H :    0.032989
  89 H :    0.029885
  90 H :    0.031704
  91 H :    0.032125
  92 H :    0.027497
  93 H :    0.025101

  Mayer bond orders larger than 0.100000
B(  0-C ,  1-C ) :   1.8535 B(  0-C , 60-H ) :   0.9508 B(  0-C , 61-H ) :   0.9418
B(  1-C ,  2-C ) :   1.0872 B(  1-C ,  5-S ) :   1.0099 B(  2-C ,  3-C ) :   1.6448
B(  2-C , 62-H ) :   0.9929 B(  3-C ,  4-C ) :   1.1706 B(  3-C , 63-H ) :   0.9916
B(  4-C ,  5-S ) :   1.0462 B(  4-C ,  6-C ) :   1.5175 B(  6-C ,  7-C ) :   1.2012
B(  6-C , 10-S ) :   1.0421 B(  7-C ,  8-C ) :   1.5590 B(  7-C , 64-H ) :   0.9935
B(  8-C ,  9-C ) :   1.1792 B(  8-C , 65-H ) :   0.9999 B(  9-C , 10-S ) :   1.0425
B(  9-C , 11-C ) :   1.5186 B( 11-C , 12-C ) :   1.2161 B( 11-C , 66-H ) :   0.9711
B( 12-C , 13-C ) :   1.5142 B( 12-C , 67-H ) :   0.9720 B( 13-C , 14-C ) :   1.1852
B( 13-C , 17-S ) :   1.0420 B( 14-C , 15-C ) :   1.5476 B( 14-C , 68-H ) :   1.0001
B( 15-C , 16-C ) :   1.2133 B( 15-C , 69-H ) :   0.9947 B( 16-C , 17-S ) :   1.0453
B( 16-C , 18-C ) :   1.4882 B( 18-C , 19-C ) :   1.1890 B( 18-C , 22-S ) :   1.0492
B( 19-C , 20-C ) :   1.5964 B( 19-C , 70-H ) :   0.9924 B( 20-C , 21-C ) :   1.1285
B( 20-C , 71-H ) :   0.9971 B( 21-C , 22-S ) :   1.0282 B( 21-C , 23-C ) :   1.6651
B( 23-C , 24-C ) :   1.0957 B( 23-C , 72-H ) :   0.9413 B( 24-C , 25-S ) :   1.1238
B( 24-C , 28-C ) :   1.5184 B( 25-S , 26-C ) :   1.1595 B( 26-C , 27-C ) :   1.5756
B( 26-C , 73-H ) :   0.9554 B( 27-C , 28-C ) :   1.2981 B( 27-C , 32-C ) :   0.9652
B( 28-C , 29-C ) :   1.0648 B( 29-C , 30-C ) :   1.0830 B( 29-C , 74-H ) :   0.9092
B( 29-C , 75-H ) :   0.8896 B( 30-C , 31-C ) :   1.0819 B( 30-C , 76-H ) :   0.9342
B( 30-C , 77-H ) :   0.9418 B( 31-C , 32-C ) :   1.0550 B( 31-C , 78-H ) :   0.9325
B( 31-C , 79-H ) :   0.9363 B( 32-C , 33-C ) :   0.9355 B( 32-C , 80-H ) :   0.8705
B( 33-C , 34-O ) :   2.1147 B( 33-C , 35-O ) :   1.1166 B( 35-O , 36-C ) :   1.0345
B( 36-C , 37-C ) :   1.6410 B( 36-C , 81-H ) :   0.9770 B( 37-C , 38-C ) :   1.1213
B( 37-C , 41-S ) :   1.0128 B( 38-C , 39-C ) :   1.6316 B( 38-C , 82-H ) :   0.9945
B( 39-C , 40-C ) :   1.1821 B( 39-C , 83-H ) :   0.9924 B( 40-C , 41-S ) :   1.0372
B( 40-C , 42-C ) :   1.5092 B( 42-C , 43-C ) :   1.2032 B( 42-C , 46-S ) :   1.0422
B( 43-C , 44-C ) :   1.5605 B( 43-C , 84-H ) :   0.9938 B( 44-C , 45-C ) :   1.1758
B( 44-C , 85-H ) :   0.9995 B( 45-C , 46-S ) :   1.0400 B( 45-C , 47-C ) :   1.5270
B( 47-C , 48-C ) :   1.2081 B( 47-C , 86-H ) :   0.9705 B( 48-C , 49-C ) :   1.5287
B( 48-C , 87-H ) :   0.9710 B( 49-C , 50-C ) :   1.1734 B( 49-C , 53-S ) :   1.0397
B( 50-C , 51-C ) :   1.5647 B( 50-C , 88-H ) :   0.9995 B( 51-C , 52-C ) :   1.1977
B( 51-C , 89-H ) :   0.9938 B( 52-C , 53-S ) :   1.0426 B( 52-C , 54-C ) :   1.5216
B( 54-C , 55-C ) :   1.1693 B( 54-C , 58-S ) :   1.0458 B( 55-C , 56-C ) :   1.6453
B( 55-C , 90-H ) :   0.9914 B( 56-C , 57-C ) :   1.0861 B( 56-C , 91-H ) :   0.9937
B( 57-C , 58-S ) :   1.0093 B( 57-C , 59-C ) :   1.8544 B( 59-C , 92-H ) :   0.9509
B( 59-C , 93-H ) :   0.9418

-----------------------------------------------------------------------------
         ABSORPTION SPECTRUM VIA TRANSITION ELECTRIC DIPOLE MOMENTS
-----------------------------------------------------------------------------
State   Energy  Wavelength   fosc         T2         TX        TY        TZ
        (cm-1)    (nm)                  (au**2)     (au)      (au)      (au)
-----------------------------------------------------------------------------
   0   11140.7    897.6   1.533652107  45.31987   5.07620   2.06795  -3.90841
   1   12446.4    803.4   2.163468439  57.22466  -3.36487   1.50247  -6.60643
   2   14470.9    691.0   0.002176701   0.04952   0.18252   0.12201  -0.03633
   3   15590.3    641.4   0.000819387   0.01730   0.05449   0.09650   0.07086
   4   18345.7    545.1   0.001153289   0.02070  -0.09043  -0.10694   0.03289
   5   19548.0    511.6   0.000138217   0.00233  -0.04073  -0.00223  -0.02577
   6   22727.2    440.0   0.157086242   2.27545   0.33967   1.34776   0.58618
   7   24311.0    411.3   0.008906270   0.12061   0.25145   0.00902  -0.23937
   8   25190.3    397.0   0.000062406   0.00082  -0.00636   0.01814  -0.02112
   9   26075.2    383.5   0.013967413   0.17635  -0.23639  -0.32695   0.11651
  10   26209.5    381.5   0.001449920   0.01821  -0.05180   0.08211   0.09374
  11   26500.4    377.4   0.000897145   0.01115   0.05467   0.06258  -0.06511
  12   27253.9    366.9   0.000102704   0.00124   0.01339   0.00073   0.03257
  13   27950.6    357.8   0.015597261   0.18371  -0.22223   0.01370  -0.36624
  14   30133.4    331.9   0.317612461   3.46997  -0.09388  -1.06907  -1.52257
  15   31377.2    318.7   0.002882055   0.03024   0.01699  -0.16161  -0.06191
  16   31617.9    316.3   0.328990103   3.42551   0.65249  -1.11745  -1.32329
  17   31684.9    315.6   0.168941095   1.75533   0.97274   0.32583   0.83841
  18   31832.2    314.1   0.002555838   0.02643  -0.04412   0.00294   0.15645
  19   31875.8    313.7   0.000160243   0.00165  -0.03288   0.00802   0.02258
  20   32020.7    312.3   0.044449338   0.45699  -0.05683  -0.45422  -0.49745
  21   32453.7    308.1   0.000538680   0.00546  -0.06677   0.00490  -0.03133
  22   32921.7    303.8   0.062005256   0.62004   0.07359   0.70287   0.34728
  23   33191.6    301.3   0.244576011   2.42583  -1.41451   0.50775   0.40889
  24   33317.7    300.1   0.002828691   0.02795  -0.16637  -0.01606  -0.00368
  25   33716.8    296.6   0.013150387   0.12840  -0.17751  -0.06260  -0.30492
  26   33723.8    296.5   0.009356494   0.09134  -0.14233  -0.04194  -0.26329
  27   33850.1    295.4   0.020998920   0.20423   0.24287   0.26204   0.27673
  28   34360.5    291.0   0.001353666   0.01297   0.07337  -0.06657   0.05617
  29   34525.9    289.6   0.001686730   0.01608  -0.08189   0.07056   0.06632
  30   35471.7    281.9   0.002756769   0.02559   0.12093   0.06833  -0.07933
  31   35584.6    281.0   0.080781695   0.74736  -0.45153  -0.71461   0.18112
  32   35713.7    280.0   0.138046159   1.27252   0.63524  -0.42250  -0.83095
  33   36492.1    274.0   0.011095371   0.10010   0.01678   0.00320   0.31592
  34   36516.9    273.8   0.001831458   0.01651  -0.04346   0.07320  -0.09625
  35   36812.7    271.6   0.002302982   0.02060   0.03175  -0.00769  -0.13974
  36   37067.6    269.8   0.046358516   0.41173  -0.18999  -0.00100   0.61289
  37   37176.9    269.0   0.031603500   0.27986   0.30638  -0.02606   0.43048
  38   37644.3    265.6   0.000748795   0.00655   0.03937  -0.00036   0.07070
  39   37795.3    264.6   0.272181855   2.37081   1.41300  -0.41412   0.45028
  40   38173.5    262.0   0.000189065   0.00163  -0.03236  -0.02415   0.00035
  41   38791.6    257.8   0.007745678   0.06574   0.14469   0.03427   0.20887
  42   39053.3    256.1   0.089251886   0.75238  -0.34695   0.18549   0.77304
  43   39916.3    250.5   0.033164014   0.27352  -0.38706  -0.08158   0.34212
  44   39941.7    250.4   0.013245177   0.10917  -0.06813  -0.08713   0.31135

FINAL SINGLE POINT ENERGY     -5617.989741666696

DIPOLE MOMENT
-------------
                                X             Y             Z
Electronic contribution:     -2.60683      -8.79249      12.03596
Nuclear contribution   :      2.50367       8.99896     -12.91295
                        -----------------------------------------
Total Dipole Moment    :     -0.10316       0.20647      -0.87699
                        -----------------------------------------
Magnitude (a.u.)       :      0.90685
Magnitude (Debye)      :      2.30504

Rotational constants in cm-1:     0.000687     0.000331     0.000250
Rotational constants in MHz :    20.581714     9.919050     7.499639

                             ****ORCA TERMINATED NORMALLY****
TOTAL RUN TIME: 0 days 0 hours 16 minutes 26 seconds 406 msec
