                         Program Version 4.2.0 -  RELEASE  -
|  1> # ORCA input file
|  2> # SCF done       -194.657233898659          0.000634589854
|  3> ! CAM-B3LYP def2-SVP def2/J RIJCOSX Grid4 TightSCF
|  4> %maxcore 5000
|  5> %tddft
|  6>     Mode sTDDFT
|  7>     Ethresh 5.0
|  8>     maxcore 5000
|  9> end
| 10>
| 11> %pal
| 12>   nprocs 6
| 13>   end
| 14> * xyz 0 1
| 15>    C       15.24189        -4.46343         0.29295
| 16>    C       14.28841        -4.28482        -0.63074
| 17>    C       14.36868        -3.51100        -1.83755
| 18>    C       13.24267        -3.51734        -2.58265
| 19>    C       12.17898        -4.29053        -2.03645
| 20>    S       12.67913        -5.01399        -0.51582
| 21>    C       10.93153        -4.48879        -2.56753
| 22>    C       10.40647        -3.98106        -3.78546
| 23>    C        9.13665        -4.37338        -4.04368
| 24>    C        8.55316        -5.22285        -3.05447
| 25>    S        9.72414        -5.47431        -1.76153
| 26>    C        7.30826        -5.76526        -3.15462
| 27>    C        6.60249        -6.64453        -2.27098
| 28>    C        5.41701        -7.24202        -2.74538
| 29>    C        4.72689        -8.11945        -1.95128
| 30>    C        5.17660        -8.41286        -0.65081
| 31>    C        6.32629        -7.81131        -0.15895
| 32>    C        7.02810        -6.94223        -0.96722
| 33>    C        4.27452        -9.37250        -0.05636
| 34>    C        3.27317        -9.68597        -0.99076
| 35>    C        3.46784        -8.89555        -2.26443
| 36>    C        3.66486        -9.82095        -3.47849
| 37>    C        4.82773       -10.78927        -3.29842
| 38>    C        2.27803        -7.95209        -2.52112
| 39>    C        2.01897        -7.00061        -1.35925
| 40>    C        2.30674       -10.61403        -0.69174
| 41>    C        2.30894       -11.24999         0.55947
| 42>    C        3.30316       -10.90948         1.48580
| 43>    C        4.28124        -9.98273         1.18982
| 44>    C        1.31656       -12.27038         0.82320
| 45>    C        1.06304       -12.83274         2.01529
| 46>    C        0.14985       -13.92568         2.27120
| 47>    C       -0.19198       -14.23699         3.61008
| 48>    O        0.31926       -13.42282         4.56765
| 49>    C        0.03169       -13.68378         5.92643
| 50>    C        0.77372       -12.64805         6.75728
| 51>    C       -1.03637       -15.30258         3.86714
| 52>    C       -1.52001       -16.11743         2.84524
| 53>    O       -2.35964       -17.11168         3.24970
| 54>    C       -3.51728       -17.41074         2.48584
| 55>    C       -4.72997       -17.37609         3.40883
| 56>    C       -1.13152       -15.87396         1.51594
| 57>    C       -0.34593       -14.74753         1.26960
| 58>    C       -1.40345       -16.77073         0.40868
| 59>    C       -1.34098       -18.11849         0.49874
| 60>    C       -1.52785       -18.99934        -0.59134
| 61>    C       -1.35443       -20.35209        -0.51418
| 62>    C       -1.50650       -21.30469        -1.55679
| 63>    C       -1.22918       -22.58464        -1.19477
| 64>    C       -0.83485       -22.73032         0.15714
| 65>    S       -0.85618       -21.17231         0.96341
| 66>    C       -0.44720       -23.87555         0.81252
| 67>    C       -0.35459       -25.19384         0.30347
| 68>    C        0.09782       -26.10218         1.20384
| 69>    C        0.40087       -25.57529         2.49436
| 70>    S        0.05007       -23.84725         2.49329
| 71>    C        0.91160       -26.31129         3.52039
| 72>    C        1.28454       -25.91827         4.84561
| 73>    C        1.96068       -26.85611         5.66762
| 74>    O        2.20417       -28.07418         5.11826
| 75>    C        2.89041       -29.05897         5.86265
| 76>    C        3.02281       -30.28928         4.97819
| 77>    C        2.34136       -26.50559         6.95396
| 78>    C        2.07244       -25.23975         7.46532
| 79>    O        2.43147       -24.84162         8.71204
| 80>    C        3.11982       -25.73071         9.56588
| 81>    C        3.38635       -24.99660        10.87110
| 82>    C        1.39679       -24.28978         6.67010
| 83>    C        1.01944       -24.66181         5.39062
| 84>    C        1.10947       -22.96948         7.21666
| 85>    C        0.71175       -21.90699         6.52679
| 86>    H       16.20700        -4.00149         0.18184
| 87>    H       15.07764        -5.06771         1.16606
| 88>    H       15.27207        -2.98461        -2.09069
| 89>    H       13.12906        -2.99242        -3.51494
| 90>    H       10.98859        -3.34783        -4.43106
| 91>    H        8.58091        -4.08986        -4.92079
| 92>    H        6.77817        -5.51587        -4.06747
| 93>    H        5.07445        -7.01339        -3.74523
| 94>    H        6.67252        -8.02223         0.84179
| 95>    H        7.91590        -6.47116        -0.57809
| 96>    H        3.83852        -9.20586        -4.36435
| 97>    H        2.74445       -10.38626        -3.64080
| 98>    H        5.75900       -10.24678        -3.15117
| 99>    H        4.93121       -11.42000        -4.17867
|100>    H        4.66356       -11.42801        -2.43341
|101>    H        1.38552        -8.55573        -2.70058
|102>    H        2.47827        -7.37385        -3.42605
|103>    H        1.79392        -7.55683        -0.45200
|104>    H        1.17480        -6.35285        -1.58536
|105>    H        2.89118        -6.37818        -1.17170
|106>    H        1.54101       -10.86691        -1.41233
|107>    H        3.31968       -11.40029         2.44644
|108>    H        5.04703        -9.74531         1.91358
|109>    H        0.75010       -12.58366        -0.04456
|110>    H        1.56826       -12.46963         2.89801
|111>    H        0.36159       -14.69644         6.19528
|112>    H       -1.05006       -13.60726         6.10375
|113>    H        1.84331       -12.72886         6.58305
|114>    H        0.57163       -12.80581         7.81275
|115>    H        0.45187       -11.64867         6.47696
|116>    H       -1.35447       -15.54487         4.86826
|117>    H       -3.40923       -18.41061         2.04834
|118>    H       -3.63727       -16.68812         1.67196
|119>    H       -4.58745       -18.07527         4.22806
|120>    H       -5.62271       -17.65299         2.85499
|121>    H       -4.86161       -16.37876         3.82163
|122>    H       -0.05184       -14.55817         0.24842
|123>    H       -1.54787       -16.31153        -0.56204
|124>    H       -1.09655       -18.57299         1.45070
|125>    H       -1.80958       -18.57991        -1.54855
|126>    H       -1.81290       -21.00305        -2.54344
|127>    H       -1.28851       -23.42889        -1.85882
|128>    H       -0.61951       -25.42680        -0.71269
|129>    H        0.23731       -27.14809         0.99186
|130>    H        1.09065       -27.35443         3.29516
|131>    H        2.32817       -29.30700         6.77400
|132>    H        3.88555       -28.69153         6.15006
|133>    H        2.03769       -30.64887         4.69382
|134>    H        3.54948       -31.07499         5.51210
|135>    H        3.57413       -30.03850         4.07608
|136>    H        2.85642       -27.22536         7.56814
|137>    H        4.06928       -26.03933         9.10600
|138>    H        2.51054       -26.62629         9.75357
|139>    H        3.92275       -25.64483        11.55814
|140>    H        2.44665       -24.69413        11.32492
|141>    H        3.98060       -24.10735        10.68004
|142>    H        0.47345       -23.94844         4.79942
|143>    H        1.26226       -22.88665         8.28394
|144>    H        0.56524       -21.92184         5.46026
|145>    H        0.51732       -20.96763         7.01541
|146> *
|147>
|148>                          ****END OF INPUT****

CARTESIAN COORDINATES (ANGSTROEM)
---------------------------------
  C     15.241890   -4.463430    0.292950
  C     14.288410   -4.284820   -0.630740
  C     14.368680   -3.511000   -1.837550
  C     13.242670   -3.517340   -2.582650
  C     12.178980   -4.290530   -2.036450
  S     12.679130   -5.013990   -0.515820
  C     10.931530   -4.488790   -2.567530
  C     10.406470   -3.981060   -3.785460
  C      9.136650   -4.373380   -4.043680
  C      8.553160   -5.222850   -3.054470
  S      9.724140   -5.474310   -1.761530
  C      7.308260   -5.765260   -3.154620
  C      6.602490   -6.644530   -2.270980
  C      5.417010   -7.242020   -2.745380
  C      4.726890   -8.119450   -1.951280
  C      5.176600   -8.412860   -0.650810
  C      6.326290   -7.811310   -0.158950
  C      7.028100   -6.942230   -0.967220
  C      4.274520   -9.372500   -0.056360
  C      3.273170   -9.685970   -0.990760
  C      3.467840   -8.895550   -2.264430
  C      3.664860   -9.820950   -3.478490
  C      4.827730  -10.789270   -3.298420
  C      2.278030   -7.952090   -2.521120
  C      2.018970   -7.000610   -1.359250
  C      2.306740  -10.614030   -0.691740
  C      2.308940  -11.249990    0.559470
  C      3.303160  -10.909480    1.485800
  C      4.281240   -9.982730    1.189820
  C      1.316560  -12.270380    0.823200
  C      1.063040  -12.832740    2.015290
  C      0.149850  -13.925680    2.271200
  C     -0.191980  -14.236990    3.610080
  O      0.319260  -13.422820    4.567650
  C      0.031690  -13.683780    5.926430
  C      0.773720  -12.648050    6.757280
  C     -1.036370  -15.302580    3.867140
  C     -1.520010  -16.117430    2.845240
  O     -2.359640  -17.111680    3.249700
  C     -3.517280  -17.410740    2.485840
  C     -4.729970  -17.376090    3.408830
  C     -1.131520  -15.873960    1.515940
  C     -0.345930  -14.747530    1.269600
  C     -1.403450  -16.770730    0.408680
  C     -1.340980  -18.118490    0.498740
  C     -1.527850  -18.999340   -0.591340
  C     -1.354430  -20.352090   -0.514180
  C     -1.506500  -21.304690   -1.556790
  C     -1.229180  -22.584640   -1.194770
  C     -0.834850  -22.730320    0.157140
  S     -0.856180  -21.172310    0.963410
  C     -0.447200  -23.875550    0.812520
  C     -0.354590  -25.193840    0.303470
  C      0.097820  -26.102180    1.203840
  C      0.400870  -25.575290    2.494360
  S      0.050070  -23.847250    2.493290
  C      0.911600  -26.311290    3.520390
  C      1.284540  -25.918270    4.845610
  C      1.960680  -26.856110    5.667620
  O      2.204170  -28.074180    5.118260
  C      2.890410  -29.058970    5.862650
  C      3.022810  -30.289280    4.978190
  C      2.341360  -26.505590    6.953960
  C      2.072440  -25.239750    7.465320
  O      2.431470  -24.841620    8.712040
  C      3.119820  -25.730710    9.565880
  C      3.386350  -24.996600   10.871100
  C      1.396790  -24.289780    6.670100
  C      1.019440  -24.661810    5.390620
  C      1.109470  -22.969480    7.216660
  C      0.711750  -21.906990    6.526790
  H     16.207000   -4.001490    0.181840
  H     15.077640   -5.067710    1.166060
  H     15.272070   -2.984610   -2.090690
  H     13.129060   -2.992420   -3.514940
  H     10.988590   -3.347830   -4.431060
  H      8.580910   -4.089860   -4.920790
  H      6.778170   -5.515870   -4.067470
  H      5.074450   -7.013390   -3.745230
  H      6.672520   -8.022230    0.841790
  H      7.915900   -6.471160   -0.578090
  H      3.838520   -9.205860   -4.364350
  H      2.744450  -10.386260   -3.640800
  H      5.759000  -10.246780   -3.151170
  H      4.931210  -11.420000   -4.178670
  H      4.663560  -11.428010   -2.433410
  H      1.385520   -8.555730   -2.700580
  H      2.478270   -7.373850   -3.426050
  H      1.793920   -7.556830   -0.452000
  H      1.174800   -6.352850   -1.585360
  H      2.891180   -6.378180   -1.171700
  H      1.541010  -10.866910   -1.412330
  H      3.319680  -11.400290    2.446440
  H      5.047030   -9.745310    1.913580
  H      0.750100  -12.583660   -0.044560
  H      1.568260  -12.469630    2.898010
  H      0.361590  -14.696440    6.195280
  H     -1.050060  -13.607260    6.103750
  H      1.843310  -12.728860    6.583050
  H      0.571630  -12.805810    7.812750
  H      0.451870  -11.648670    6.476960
  H     -1.354470  -15.544870    4.868260
  H     -3.409230  -18.410610    2.048340
  H     -3.637270  -16.688120    1.671960
  H     -4.587450  -18.075270    4.228060
  H     -5.622710  -17.652990    2.854990
  H     -4.861610  -16.378760    3.821630
  H     -0.051840  -14.558170    0.248420
  H     -1.547870  -16.311530   -0.562040
  H     -1.096550  -18.572990    1.450700
  H     -1.809580  -18.579910   -1.548550
  H     -1.812900  -21.003050   -2.543440
  H     -1.288510  -23.428890   -1.858820
  H     -0.619510  -25.426800   -0.712690
  H      0.237310  -27.148090    0.991860
  H      1.090650  -27.354430    3.295160
  H      2.328170  -29.307000    6.774000
  H      3.885550  -28.691530    6.150060
  H      2.037690  -30.648870    4.693820
  H      3.549480  -31.074990    5.512100
  H      3.574130  -30.038500    4.076080
  H      2.856420  -27.225360    7.568140
  H      4.069280  -26.039330    9.106000
  H      2.510540  -26.626290    9.753570
  H      3.922750  -25.644830   11.558140
  H      2.446650  -24.694130   11.324920
  H      3.980600  -24.107350   10.680040
  H      0.473450  -23.948440    4.799420
  H      1.262260  -22.886650    8.283940
  H      0.565240  -21.921840    5.460260
  H      0.517320  -20.967630    7.015410

 Total Charge           Charge          ....    0
 Multiplicity           Mult            ....    1
 Number of Electrons    NEL             ....  534
 Basis Dimension        Dim             .... 1310

ORBITAL ENERGIES
----------------

  NO   OCC          E(Eh)            E(eV)
   0   2.0000     -88.932433     -2419.9745
   1   2.0000     -88.928024     -2419.8546
   2   2.0000     -88.927220     -2419.8327
   3   2.0000     -88.925420     -2419.7837
   4   2.0000     -19.243953      -523.6546
   5   2.0000     -19.241942      -523.5999
   6   2.0000     -19.236741      -523.4583
   7   2.0000     -19.224469      -523.1244
   8   2.0000     -10.329017      -281.0668
   9   2.0000     -10.327279      -281.0195
  10   2.0000     -10.325922      -280.9826
  11   2.0000     -10.324304      -280.9386
  12   2.0000     -10.321101      -280.8514
  13   2.0000     -10.319719      -280.8138
  14   2.0000     -10.317488      -280.7531
  15   2.0000     -10.305366      -280.4233
  16   2.0000     -10.298130      -280.2264
  17   2.0000     -10.297384      -280.2061
  18   2.0000     -10.296574      -280.1840
  19   2.0000     -10.294378      -280.1243
  20   2.0000     -10.292864      -280.0831
  21   2.0000     -10.291513      -280.0463
  22   2.0000     -10.289624      -279.9949
  23   2.0000     -10.287139      -279.9273
  24   2.0000     -10.280277      -279.7406
  25   2.0000     -10.275722      -279.6166
  26   2.0000     -10.274697      -279.5887
  27   2.0000     -10.274207      -279.5754
  28   2.0000     -10.273254      -279.5495
  29   2.0000     -10.269604      -279.4501
  30   2.0000     -10.269068      -279.4355
  31   2.0000     -10.269020      -279.4342
  32   2.0000     -10.267024      -279.3799
  33   2.0000     -10.266654      -279.3699
  34   2.0000     -10.264556      -279.3128
  35   2.0000     -10.263254      -279.2773
  36   2.0000     -10.261302      -279.2242
  37   2.0000     -10.261139      -279.2198
  38   2.0000     -10.260945      -279.2145
  39   2.0000     -10.260938      -279.2143
  40   2.0000     -10.260792      -279.2103
  41   2.0000     -10.260570      -279.2043
  42   2.0000     -10.260332      -279.1978
  43   2.0000     -10.259350      -279.1711
  44   2.0000     -10.258842      -279.1573
  45   2.0000     -10.258418      -279.1458
  46   2.0000     -10.257983      -279.1339
  47   2.0000     -10.257459      -279.1197
  48   2.0000     -10.257264      -279.1144
  49   2.0000     -10.256835      -279.1027
  50   2.0000     -10.256462      -279.0925
  51   2.0000     -10.256250      -279.0867
  52   2.0000     -10.255917      -279.0777
  53   2.0000     -10.255704      -279.0719
  54   2.0000     -10.255627      -279.0698
  55   2.0000     -10.254746      -279.0458
  56   2.0000     -10.253674      -279.0167
  57   2.0000     -10.253286      -279.0061
  58   2.0000     -10.252718      -278.9906
  59   2.0000     -10.252116      -278.9743
  60   2.0000     -10.251662      -278.9619
  61   2.0000     -10.251611      -278.9605
  62   2.0000     -10.251460      -278.9564
  63   2.0000     -10.251206      -278.9495
  64   2.0000     -10.250267      -278.9239
  65   2.0000     -10.249995      -278.9166
  66   2.0000     -10.249314      -278.8980
  67   2.0000     -10.246963      -278.8340
  68   2.0000     -10.239620      -278.6342
  69   2.0000     -10.234724      -278.5010
  70   2.0000     -10.234504      -278.4950
  71   2.0000      -8.028153      -218.4571
  72   2.0000      -8.023943      -218.3426
  73   2.0000      -8.023616      -218.3337
  74   2.0000      -8.021672      -218.2808
  75   2.0000      -5.997986      -163.2135
  76   2.0000      -5.993962      -163.1040
  77   2.0000      -5.993817      -163.1000
  78   2.0000      -5.993444      -163.0899
  79   2.0000      -5.991439      -163.0353
  80   2.0000      -5.989877      -162.9929
  81   2.0000      -5.989385      -162.9795
  82   2.0000      -5.988933      -162.9672
  83   2.0000      -5.987521      -162.9287
  84   2.0000      -5.984492      -162.8463
  85   2.0000      -5.984395      -162.8437
  86   2.0000      -5.982412      -162.7897
  87   2.0000      -1.149475       -31.2788
  88   2.0000      -1.146851       -31.2074
  89   2.0000      -1.142177       -31.0802
  90   2.0000      -1.128874       -30.7182
  91   2.0000      -0.980765       -26.6880
  92   2.0000      -0.976715       -26.5778
  93   2.0000      -0.972889       -26.4737
  94   2.0000      -0.957761       -26.0620
  95   2.0000      -0.955533       -26.0014
  96   2.0000      -0.941427       -25.6175
  97   2.0000      -0.939955       -25.5775
  98   2.0000      -0.929837       -25.3022
  99   2.0000      -0.905755       -24.6469
 100   2.0000      -0.893291       -24.3077
 101   2.0000      -0.884845       -24.0779
 102   2.0000      -0.878863       -23.9151
 103   2.0000      -0.873813       -23.7777
 104   2.0000      -0.866379       -23.5754
 105   2.0000      -0.861206       -23.4346
 106   2.0000      -0.855829       -23.2883
 107   2.0000      -0.851185       -23.1619
 108   2.0000      -0.844671       -22.9847
 109   2.0000      -0.843263       -22.9464
 110   2.0000      -0.836685       -22.7673
 111   2.0000      -0.834205       -22.6999
 112   2.0000      -0.830285       -22.5932
 113   2.0000      -0.825434       -22.4612
 114   2.0000      -0.824676       -22.4406
 115   2.0000      -0.820440       -22.3253
 116   2.0000      -0.816485       -22.2177
 117   2.0000      -0.811326       -22.0773
 118   2.0000      -0.808526       -22.0011
 119   2.0000      -0.805049       -21.9065
 120   2.0000      -0.801936       -21.8218
 121   2.0000      -0.792745       -21.5717
 122   2.0000      -0.784083       -21.3360
 123   2.0000      -0.776093       -21.1186
 124   2.0000      -0.756510       -20.5857
 125   2.0000      -0.754066       -20.5192
 126   2.0000      -0.747912       -20.3517
 127   2.0000      -0.739889       -20.1334
 128   2.0000      -0.724449       -19.7133
 129   2.0000      -0.722249       -19.6534
 130   2.0000      -0.714203       -19.4345
 131   2.0000      -0.706929       -19.2365
 132   2.0000      -0.706377       -19.2215
 133   2.0000      -0.697565       -18.9817
 134   2.0000      -0.689357       -18.7584
 135   2.0000      -0.682367       -18.5681
 136   2.0000      -0.677547       -18.4370
 137   2.0000      -0.673877       -18.3371
 138   2.0000      -0.665335       -18.1047
 139   2.0000      -0.662610       -18.0305
 140   2.0000      -0.662276       -18.0215
 141   2.0000      -0.659925       -17.9575
 142   2.0000      -0.653667       -17.7872
 143   2.0000      -0.646831       -17.6012
 144   2.0000      -0.640159       -17.4196
 145   2.0000      -0.634420       -17.2634
 146   2.0000      -0.629336       -17.1251
 147   2.0000      -0.622759       -16.9461
 148   2.0000      -0.620271       -16.8784
 149   2.0000      -0.614569       -16.7233
 150   2.0000      -0.614090       -16.7102
 151   2.0000      -0.611544       -16.6410
 152   2.0000      -0.603489       -16.4218
 153   2.0000      -0.600499       -16.3404
 154   2.0000      -0.596404       -16.2290
 155   2.0000      -0.593614       -16.1531
 156   2.0000      -0.588861       -16.0237
 157   2.0000      -0.586565       -15.9612
 158   2.0000      -0.577604       -15.7174
 159   2.0000      -0.573861       -15.6156
 160   2.0000      -0.571593       -15.5538
 161   2.0000      -0.571355       -15.5474
 162   2.0000      -0.566965       -15.4279
 163   2.0000      -0.563404       -15.3310
 164   2.0000      -0.562481       -15.3059
 165   2.0000      -0.561345       -15.2750
 166   2.0000      -0.555109       -15.1053
 167   2.0000      -0.550995       -14.9933
 168   2.0000      -0.548441       -14.9238
 169   2.0000      -0.544543       -14.8178
 170   2.0000      -0.537077       -14.6146
 171   2.0000      -0.530510       -14.4359
 172   2.0000      -0.528982       -14.3943
 173   2.0000      -0.524913       -14.2836
 174   2.0000      -0.519916       -14.1476
 175   2.0000      -0.516182       -14.0460
 176   2.0000      -0.512439       -13.9442
 177   2.0000      -0.510585       -13.8937
 178   2.0000      -0.506378       -13.7793
 179   2.0000      -0.505591       -13.7578
 180   2.0000      -0.505039       -13.7428
 181   2.0000      -0.504643       -13.7320
 182   2.0000      -0.500238       -13.6122
 183   2.0000      -0.498770       -13.5722
 184   2.0000      -0.492791       -13.4095
 185   2.0000      -0.490689       -13.3523
 186   2.0000      -0.488678       -13.2976
 187   2.0000      -0.485881       -13.2215
 188   2.0000      -0.484100       -13.1730
 189   2.0000      -0.482836       -13.1386
 190   2.0000      -0.481080       -13.0908
 191   2.0000      -0.479888       -13.0584
 192   2.0000      -0.478801       -13.0288
 193   2.0000      -0.477153       -12.9840
 194   2.0000      -0.475370       -12.9355
 195   2.0000      -0.473534       -12.8855
 196   2.0000      -0.472292       -12.8517
 197   2.0000      -0.471906       -12.8412
 198   2.0000      -0.469178       -12.7670
 199   2.0000      -0.468787       -12.7563
 200   2.0000      -0.467483       -12.7209
 201   2.0000      -0.465619       -12.6701
 202   2.0000      -0.463344       -12.6082
 203   2.0000      -0.462064       -12.5734
 204   2.0000      -0.460409       -12.5284
 205   2.0000      -0.458952       -12.4887
 206   2.0000      -0.458066       -12.4646
 207   2.0000      -0.456695       -12.4273
 208   2.0000      -0.456442       -12.4204
 209   2.0000      -0.452332       -12.3086
 210   2.0000      -0.449104       -12.2207
 211   2.0000      -0.448257       -12.1977
 212   2.0000      -0.447243       -12.1701
 213   2.0000      -0.445305       -12.1174
 214   2.0000      -0.443723       -12.0743
 215   2.0000      -0.436708       -11.8834
 216   2.0000      -0.436316       -11.8728
 217   2.0000      -0.435668       -11.8551
 218   2.0000      -0.433727       -11.8023
 219   2.0000      -0.428365       -11.6564
 220   2.0000      -0.427279       -11.6269
 221   2.0000      -0.425411       -11.5760
 222   2.0000      -0.424241       -11.5442
 223   2.0000      -0.417524       -11.3614
 224   2.0000      -0.416869       -11.3436
 225   2.0000      -0.413917       -11.2633
 226   2.0000      -0.413361       -11.2481
 227   2.0000      -0.413118       -11.2415
 228   2.0000      -0.411595       -11.2001
 229   2.0000      -0.410535       -11.1712
 230   2.0000      -0.406412       -11.0590
 231   2.0000      -0.404981       -11.0201
 232   2.0000      -0.403879       -10.9901
 233   2.0000      -0.401624       -10.9288
 234   2.0000      -0.397714       -10.8223
 235   2.0000      -0.395398       -10.7593
 236   2.0000      -0.395011       -10.7488
 237   2.0000      -0.391296       -10.6477
 238   2.0000      -0.387997       -10.5579
 239   2.0000      -0.385853       -10.4996
 240   2.0000      -0.385277       -10.4839
 241   2.0000      -0.382906       -10.4194
 242   2.0000      -0.378719       -10.3055
 243   2.0000      -0.376855       -10.2548
 244   2.0000      -0.374177       -10.1819
 245   2.0000      -0.372421       -10.1341
 246   2.0000      -0.370986       -10.0950
 247   2.0000      -0.368838       -10.0366
 248   2.0000      -0.354859        -9.6562
 249   2.0000      -0.353799        -9.6274
 250   2.0000      -0.337489        -9.1835
 251   2.0000      -0.332798        -9.0559
 252   2.0000      -0.327580        -8.9139
 253   2.0000      -0.322720        -8.7816
 254   2.0000      -0.317501        -8.6396
 255   2.0000      -0.313411        -8.5284
 256   2.0000      -0.307198        -8.3593
 257   2.0000      -0.305442        -8.3115
 258   2.0000      -0.300885        -8.1875
 259   2.0000      -0.299757        -8.1568
 260   2.0000      -0.290556        -7.9064
 261   2.0000      -0.277958        -7.5636
 262   2.0000      -0.267193        -7.2707
 263   2.0000      -0.248247        -6.7551
 264   2.0000      -0.233674        -6.3586
 265   2.0000      -0.206703        -5.6247
 266   2.0000      -0.192873        -5.2484
 267   0.0000      -0.054590        -1.4855
 268   0.0000      -0.053776        -1.4633
 269   0.0000      -0.011570        -0.3148
 270   0.0000       0.004582         0.1247
 271   0.0000       0.018720         0.5094

MULLIKEN ATOMIC CHARGES
-----------------------
   0 C :   -0.033598
   1 C :   -0.061664
   2 C :    0.048990
   3 C :    0.031069
   4 C :   -0.069919
   5 S :    0.073509
   6 C :   -0.036777
   7 C :    0.025688
   8 C :    0.035135
   9 C :   -0.006900
  10 S :    0.054129
  11 C :   -0.042678
  12 C :    0.116120
  13 C :   -0.111449
  14 C :    0.018293
  15 C :    0.111347
  16 C :   -0.051858
  17 C :   -0.023069
  18 C :    0.106326
  19 C :    0.019396
  20 C :   -0.139191
  21 C :    0.068036
  22 C :    0.027584
  23 C :    0.072392
  24 C :    0.025624
  25 C :   -0.117178
  26 C :    0.133272
  27 C :   -0.015769
  28 C :   -0.047918
  29 C :   -0.004854
  30 C :    0.018882
  31 C :    0.059104
  32 C :    0.229878
  33 O :   -0.311818
  34 C :    0.135703
  35 C :    0.019784
  36 C :   -0.135327
  37 C :    0.154094
  38 O :   -0.324365
  39 C :    0.154667
  40 C :    0.024356
  41 C :    0.066067
  42 C :   -0.102983
  43 C :   -0.067070
  44 C :    0.021358
  45 C :   -0.036140
  46 C :   -0.012393
  47 C :    0.034207
  48 C :    0.023679
  49 C :   -0.049544
  50 S :    0.058428
  51 C :   -0.034210
  52 C :    0.026349
  53 C :    0.035104
  54 C :   -0.001183
  55 S :    0.033607
  56 C :   -0.038150
  57 C :    0.059191
  58 C :    0.221853
  59 O :   -0.311254
  60 C :    0.133368
  61 C :    0.023920
  62 C :   -0.207955
  63 C :    0.214008
  64 O :   -0.305612
  65 C :    0.131503
  66 C :    0.024015
  67 C :    0.042437
  68 C :   -0.116416
  69 C :    0.001008
  70 C :   -0.018835
  71 H :    0.015853
  72 H :    0.019008
  73 H :   -0.015305
  74 H :   -0.014777
  75 H :   -0.017212
  76 H :   -0.016650
  77 H :   -0.027356
  78 H :   -0.046200
  79 H :   -0.038179
  80 H :   -0.017779
  81 H :   -0.007003
  82 H :   -0.005711
  83 H :    0.021926
  84 H :    0.004634
  85 H :    0.022942
  86 H :   -0.005607
  87 H :   -0.006297
  88 H :    0.023386
  89 H :    0.004445
  90 H :    0.021042
  91 H :   -0.047608
  92 H :   -0.033124
  93 H :   -0.041010
  94 H :   -0.033624
  95 H :   -0.011800
  96 H :    0.019024
  97 H :    0.016764
  98 H :    0.026591
  99 H :    0.016109
 100 H :    0.027383
 101 H :   -0.036965
 102 H :    0.022764
 103 H :    0.023269
 104 H :    0.023468
 105 H :    0.011035
 106 H :    0.012006
 107 H :   -0.039941
 108 H :   -0.014783
 109 H :    0.017826
 110 H :   -0.024645
 111 H :   -0.019786
 112 H :   -0.017326
 113 H :   -0.021727
 114 H :   -0.018317
 115 H :   -0.014345
 116 H :    0.016650
 117 H :    0.016542
 118 H :    0.026620
 119 H :    0.016192
 120 H :    0.028360
 121 H :   -0.039658
 122 H :    0.015689
 123 H :    0.016015
 124 H :    0.015236
 125 H :    0.027400
 126 H :    0.029756
 127 H :   -0.021579
 128 H :   -0.010688
 129 H :    0.016624
 130 H :    0.013036
Sum of atomic charges:   -0.0000000

LOEWDIN ATOMIC CHARGES
----------------------
   0 C :   -0.084132
   1 C :   -0.138637
   2 C :   -0.035515
   3 C :   -0.026159
   4 C :   -0.181053
   5 S :    0.344251
   6 C :   -0.179363
   7 C :   -0.040116
   8 C :   -0.028903
   9 C :   -0.146959
  10 S :    0.371842
  11 C :   -0.049986
  12 C :   -0.030956
  13 C :   -0.020451
  14 C :   -0.000132
  15 C :   -0.015013
  16 C :   -0.018547
  17 C :   -0.025192
  18 C :   -0.024460
  19 C :    0.002195
  20 C :   -0.035042
  21 C :   -0.012655
  22 C :   -0.057716
  23 C :   -0.011679
  24 C :   -0.057790
  25 C :   -0.027968
  26 C :   -0.017905
  27 C :   -0.017261
  28 C :   -0.018150
  29 C :   -0.030843
  30 C :   -0.009695
  31 C :   -0.066230
  32 C :    0.069386
  33 O :   -0.096185
  34 C :    0.081936
  35 C :   -0.060698
  36 C :   -0.096133
  37 C :    0.066628
  38 O :   -0.111318
  39 C :    0.085563
  40 C :   -0.064924
  41 C :   -0.080994
  42 C :    0.008640
  43 C :   -0.023747
  44 C :   -0.033526
  45 C :   -0.065220
  46 C :   -0.145229
  47 C :   -0.040351
  48 C :   -0.032752
  49 C :   -0.185205
  50 S :    0.355098
  51 C :   -0.177679
  52 C :   -0.046156
  53 C :   -0.027376
  54 C :   -0.152886
  55 S :    0.367893
  56 C :   -0.040775
  57 C :   -0.074133
  58 C :    0.078977
  59 O :   -0.095245
  60 C :    0.080897
  61 C :   -0.059925
  62 C :   -0.125681
  63 C :    0.075732
  64 O :   -0.093069
  65 C :    0.080148
  66 C :   -0.059843
  67 C :   -0.069268
  68 C :    0.006432
  69 C :   -0.018997
  70 C :   -0.052320
  71 H :    0.026958
  72 H :    0.025024
  73 H :    0.031868
  74 H :    0.031287
  75 H :    0.029889
  76 H :    0.031537
  77 H :    0.031143
  78 H :    0.021593
  79 H :    0.026443
  80 H :    0.011099
  81 H :    0.017990
  82 H :    0.018442
  83 H :    0.025886
  84 H :    0.022118
  85 H :    0.026279
  86 H :    0.018808
  87 H :    0.018025
  88 H :    0.026390
  89 H :    0.022057
  90 H :    0.025499
  91 H :    0.021218
  92 H :    0.025005
  93 H :    0.025117
  94 H :    0.020150
  95 H :    0.024683
  96 H :    0.014494
  97 H :    0.013768
  98 H :    0.029481
  99 H :    0.030274
 100 H :    0.030097
 101 H :    0.030849
 102 H :    0.017084
 103 H :    0.017671
 104 H :    0.028276
 105 H :    0.027515
 106 H :    0.024492
 107 H :    0.026042
 108 H :    0.024177
 109 H :    0.023905
 110 H :    0.028753
 111 H :    0.030472
 112 H :    0.029948
 113 H :    0.028758
 114 H :    0.030928
 115 H :    0.032160
 116 H :    0.012935
 117 H :    0.013313
 118 H :    0.029872
 119 H :    0.030510
 120 H :    0.030566
 121 H :    0.025532
 122 H :    0.012852
 123 H :    0.012454
 124 H :    0.030029
 125 H :    0.030239
 126 H :    0.031175
 127 H :    0.011890
 128 H :    0.026087
 129 H :    0.019236
 130 H :    0.022178

  Mayer bond orders larger than 0.100000
B(  0-C ,  1-C ) :   1.8670 B(  0-C , 71-H ) :   0.9499 B(  0-C , 72-H ) :   0.9413
B(  1-C ,  2-C ) :   1.0787 B(  1-C ,  5-S ) :   1.0085 B(  2-C ,  3-C ) :   1.6659
B(  2-C , 73-H ) :   0.9923 B(  3-C ,  4-C ) :   1.1484 B(  3-C , 74-H ) :   0.9911
B(  4-C ,  5-S ) :   1.0367 B(  4-C ,  6-C ) :   1.5758 B(  6-C ,  7-C ) :   1.1549
B(  6-C , 10-S ) :   1.0286 B(  7-C ,  8-C ) :   1.6274 B(  7-C , 75-H ) :   0.9920
B(  8-C ,  9-C ) :   1.1156 B(  8-C , 76-H ) :   0.9988 B(  9-C , 10-S ) :   1.0201
B(  9-C , 11-C ) :   1.6189 B( 11-C , 12-C ) :   1.0949 B( 11-C , 77-H ) :   0.9701
B( 12-C , 13-C ) :   1.2649 B( 12-C , 17-C ) :   1.3276 B( 13-C , 14-C ) :   1.3928
B( 13-C , 78-H ) :   1.0126 B( 14-C , 15-C ) :   1.3530 B( 14-C , 20-C ) :   0.9163
B( 15-C , 16-C ) :   1.3365 B( 15-C , 18-C ) :   1.0009 B( 16-C , 17-C ) :   1.4073
B( 16-C , 79-H ) :   0.9896 B( 17-C , 80-H ) :   0.9687 B( 18-C , 19-C ) :   1.3706
B( 18-C , 28-C ) :   1.3277 B( 19-C , 20-C ) :   0.9146 B( 19-C , 25-C ) :   1.3728
B( 20-C , 21-C ) :   1.0411 B( 20-C , 23-C ) :   1.0358 B( 21-C , 22-C ) :   1.1014
B( 21-C , 81-H ) :   0.9385 B( 21-C , 82-H ) :   0.9383 B( 22-C , 83-H ) :   0.9642
B( 22-C , 84-H ) :   0.9640 B( 22-C , 85-H ) :   0.9643 B( 23-C , 24-C ) :   1.1011
B( 23-C , 86-H ) :   0.9392 B( 23-C , 87-H ) :   0.9393 B( 24-C , 88-H ) :   0.9644
B( 24-C , 89-H ) :   0.9638 B( 24-C , 90-H ) :   0.9645 B( 25-C , 26-C ) :   1.2867
B( 25-C , 91-H ) :   1.0138 B( 26-C , 27-C ) :   1.3515 B( 26-C , 29-C ) :   1.0610
B( 27-C , 28-C ) :   1.3959 B( 27-C , 92-H ) :   0.9834 B( 28-C , 93-H ) :   0.9898
B( 29-C , 30-C ) :   1.7052 B( 29-C , 94-H ) :   0.9783 B( 30-C , 31-C ) :   1.0761
B( 30-C , 95-H ) :   0.9660 B( 31-C , 32-C ) :   1.2980 B( 31-C , 42-C ) :   1.3662
B( 32-C , 33-O ) :   1.1600 B( 32-C , 36-C ) :   1.2807 B( 33-O , 34-C ) :   0.9468
B( 34-C , 35-C ) :   1.0943 B( 34-C , 96-H ) :   0.9514 B( 34-C , 97-H ) :   0.9509
B( 35-C , 98-H ) :   0.9694 B( 35-C , 99-H ) :   0.9617 B( 35-C ,100-H ) :   0.9693
B( 36-C , 37-C ) :   1.3158 B( 36-C ,101-H ) :   1.0058 B( 37-C , 38-O ) :   1.1465
B( 37-C , 41-C ) :   1.3088 B( 38-O , 39-C ) :   0.9208 B( 39-C , 40-C ) :   1.1067
B( 39-C ,102-H ) :   0.9491 B( 39-C ,103-H ) :   0.9454 B( 40-C ,104-H ) :   0.9664
B( 40-C ,105-H ) :   0.9620 B( 40-C ,106-H ) :   0.9662 B( 41-C , 42-C ) :   1.3201
B( 41-C , 43-C ) :   1.0097 B( 42-C ,107-H ) :   0.9940 B( 43-C , 44-C ) :   1.7057
B( 43-C ,108-H ) :   0.9733 B( 44-C , 45-C ) :   1.1338 B( 44-C ,109-H ) :   0.9651
B( 45-C , 46-C ) :   1.5962 B( 45-C ,110-H ) :   0.9833 B( 46-C , 47-C ) :   1.1277
B( 46-C , 50-S ) :   1.0249 B( 47-C , 48-C ) :   1.6043 B( 47-C ,111-H ) :   0.9984
B( 48-C , 49-C ) :   1.1764 B( 48-C ,112-H ) :   0.9938 B( 49-C , 50-S ) :   1.0308
B( 49-C , 51-C ) :   1.5369 B( 51-C , 52-C ) :   1.1693 B( 51-C , 55-S ) :   1.0394
B( 52-C , 53-C ) :   1.6125 B( 52-C ,113-H ) :   0.9907 B( 53-C , 54-C ) :   1.1274
B( 53-C ,114-H ) :   0.9982 B( 54-C , 55-S ) :   1.0130 B( 54-C , 56-C ) :   1.6043
B( 56-C , 57-C ) :   1.1174 B( 56-C ,115-H ) :   0.9622 B( 57-C , 58-C ) :   1.3051
B( 57-C , 68-C ) :   1.3211 B( 58-C , 59-O ) :   1.1638 B( 58-C , 62-C ) :   1.2779
B( 59-O , 60-C ) :   0.9481 B( 60-C , 61-C ) :   1.0965 B( 60-C ,116-H ) :   0.9495
B( 60-C ,117-H ) :   0.9492 B( 61-C ,118-H ) :   0.9685 B( 61-C ,119-H ) :   0.9611
B( 61-C ,120-H ) :   0.9685 B( 62-C , 63-C ) :   1.2492 B( 62-C ,121-H ) :   0.9948
B( 63-C , 64-O ) :   1.1731 B( 63-C , 67-C ) :   1.3325 B( 64-O , 65-C ) :   0.9499
B( 65-C , 66-C ) :   1.0964 B( 65-C ,122-H ) :   0.9492 B( 65-C ,123-H ) :   0.9493
B( 66-C ,124-H ) :   0.9610 B( 66-C ,125-H ) :   0.9684 B( 66-C ,126-H ) :   0.9683
B( 67-C , 68-C ) :   1.3944 B( 67-C , 69-C ) :   1.0739 B( 68-C ,127-H ) :   0.9762
B( 69-C , 70-C ) :   1.9495 B( 69-C ,128-H ) :   0.9601 B( 70-C ,129-H ) :   0.9484
B( 70-C ,130-H ) :   0.9507

-----------------------------------------------------------------------------
         ABSORPTION SPECTRUM VIA TRANSITION ELECTRIC DIPOLE MOMENTS
-----------------------------------------------------------------------------
State   Energy  Wavelength   fosc         T2         TX        TY        TZ
        (cm-1)    (nm)                  (au**2)     (au)      (au)      (au)
-----------------------------------------------------------------------------
   0   16425.9    608.8   1.423460593  28.52940   0.62641  -4.75609   2.34876
   1   19733.1    506.8   1.846584991  30.80697   5.12766   2.10021   0.32113
   2   24027.1    416.2   0.011851856   0.16239  -0.04792  -0.36860   0.15567
   3   24834.6    402.7   0.125297648   1.66097   0.33563   0.55377   1.11430
   4   26353.5    379.5   0.034218981   0.42747  -0.30578   0.12667  -0.56384
   5   27780.1    360.0   0.343754721   4.07372  -0.45882  -1.95857  -0.16492
   6   28027.3    356.8   0.311955593   3.66427  -0.40179  -0.85723  -1.66373
   7   28533.6    350.5   0.223354402   2.57699  -0.58389  -0.91664   1.18146
   8   29291.9    341.4   0.329873426   3.70745  -0.16851  -1.01633   1.62669
   9   29686.6    336.9   0.162021447   1.79675   0.45113   1.04175  -0.71274
  10   30799.3    324.7   0.130526562   1.39519   0.52205  -0.05966   1.05788
  11   32820.2    304.7   0.320579462   3.21566  -0.53950  -1.22801  -1.19021
  12   33322.2    300.1   0.154801067   1.52938   0.63210   0.83792  -0.65401
  13   33579.2    297.8   0.102619650   1.00609   0.08285   0.36927   0.92890
  14   34216.5    292.3   0.085014769   0.81796   0.74798   0.46608   0.20312
  15   34597.3    289.0   0.023936661   0.22777   0.03981   0.24271  -0.40899
  16   34692.9    288.2   0.024509554   0.23258  -0.35259  -0.06195  -0.32314
  17   35069.3    285.1   0.097780380   0.91791   0.02551   0.68385   0.67053
  18   35613.8    280.8   0.044182592   0.40842   0.36590   0.33942  -0.39917
  19   35875.2    278.7   0.115202991   1.05717  -0.60023  -0.63404   0.54303
  20   36091.4    277.1   0.059535267   0.54306  -0.52054  -0.45766   0.25030
  21   37084.7    269.7   0.009326519   0.08279  -0.27701  -0.07500  -0.02081
  22   37354.4    267.7   0.000482813   0.00426  -0.05334   0.03494  -0.01377
  23   37453.6    267.0   0.016589998   0.14582  -0.01034   0.10404  -0.36728
  24   37944.7    263.5   0.067924007   0.58932  -0.30852  -0.44541   0.54383
  25   38302.7    261.1   0.006091074   0.05235  -0.20994  -0.08660  -0.02789
  26   38553.9    259.4   0.016127174   0.13771  -0.15731  -0.32054  -0.10107
  27   39510.1    253.1   0.029773174   0.24808   0.16070  -0.15374  -0.44567
  28   39897.9    250.6   0.054858982   0.45266   0.04822   0.43443   0.51148

FINAL SINGLE POINT ENERGY     -4326.394552388577

DIPOLE MOMENT
-------------
                                X             Y             Z
Electronic contribution:     30.51990      27.88630     -31.84627
Nuclear contribution   :    -30.40232     -29.54797      32.19077
                        -----------------------------------------
Total Dipole Moment    :      0.11758      -1.66167       0.34450
                        -----------------------------------------
Magnitude (a.u.)       :      1.70108
Magnitude (Debye)      :      4.32379

Rotational constants in cm-1:     0.001047     0.000186     0.000175
Rotational constants in MHz :    31.387004     5.579747     5.243804

                             ****ORCA TERMINATED NORMALLY****
TOTAL RUN TIME: 0 days 0 hours 12 minutes 14 seconds 799 msec
