                         Program Version 4.2.0 -  RELEASE  -
|  1> # ORCA input file
|  2> # SCF done       -203.034136330703          0.000763072354
|  3> ! CAM-B3LYP def2-SVP def2/J RIJCOSX Grid4 TightSCF
|  4> %maxcore 5000
|  5> %tddft
|  6>     Mode sTDDFT
|  7>     Ethresh 5.0
|  8>     maxcore 5000
|  9> end
| 10>
| 11> %pal
| 12>   nprocs 6
| 13>   end
| 14> * xyz 0 1
| 15>    C       -7.41127        -5.63247        11.61347
| 16>    O       -7.70732        -6.27492        10.63545
| 17>    C       -8.33156        -5.11245        12.64601
| 18>    C       -7.62890        -4.28932        13.54434
| 19>    C       -8.30445        -3.69069        14.59649
| 20>    C       -9.66616        -3.92984        14.73612
| 21>    C      -10.35500        -4.75094        13.83874
| 22>    C       -9.68504        -5.34550        12.77766
| 23>   Br      -12.20362        -5.06378        14.05971
| 24>   Br      -10.58531        -3.12022        16.17448
| 25>    C       -6.22290        -4.24701        13.15549
| 26>    C       -5.22285        -3.60608        13.83283
| 27>    C       -5.42514        -2.83367        14.99829
| 28>    N       -5.53041        -2.19292        15.94366
| 29>    C       -3.85515        -3.63683        13.48050
| 30>    N       -2.72717        -3.62718        13.27029
| 31>    C       -6.07146        -5.08190        11.97390
| 32>    C       -4.95558        -5.22949        11.21776
| 33>    C       -4.77587        -6.20037        10.17469
| 34>    C       -5.23345        -7.50963        10.22986
| 35>    F       -5.84164        -7.95675        11.33185
| 36>    C       -4.99690        -8.45115         9.21467
| 37>    F       -5.47116        -9.68699         9.43277
| 38>    C       -4.26403        -8.17613         8.06770
| 39>    C       -3.73793        -6.85515         8.00496
| 40>    C       -3.98952        -5.88680         9.03641
| 41>    N       -3.42245        -4.71372         8.77290
| 42>    S       -2.63472        -4.81726         7.37676
| 43>    N       -2.99324        -6.34862         7.02384
| 44>    C       -3.98646        -9.08465         6.99033
| 45>    C       -4.71366       -10.18556         6.69709
| 46>    C       -4.51738       -11.10693         5.62719
| 47>    S       -5.59134       -12.48442         5.60434
| 48>    C       -4.81179       -13.15441         4.23750
| 49>    C       -3.79267       -12.37067         3.79648
| 50>    C       -3.62825       -11.19990         4.56659
| 51>    S       -2.34156       -10.06409         4.13530
| 52>    C       -3.22196        -8.57898         4.03542
| 53>    C       -2.56694        -7.40858         3.91306
| 54>    C       -3.08389        -6.07675         3.86702
| 55>    C       -4.28076        -5.56068         4.43423
| 56>    C       -5.26327        -6.33272         5.21139
| 57>    O       -5.40990        -7.51455         5.32370
| 58>    S       -6.39566        -5.20512         6.04988
| 59>    C       -5.80726        -3.81112         5.12528
| 60>    O       -6.33810        -2.73578         5.17077
| 61>    C       -4.59792        -4.19758         4.36961
| 62>    C       -3.83018        -3.24878         3.66976
| 63>    C       -2.62366        -3.74933         3.16662
| 64>    C       -2.26239        -5.08304         3.29000
| 65>    C       -0.90630        -5.22110         2.70419
| 66>    O       -0.20838        -6.17815         2.57251
| 67>    O       -0.50886        -3.96923         2.29870
| 68>    C       -1.47792        -3.03357         2.54586
| 69>    O       -1.32769        -1.87770         2.30116
| 70>    C       -4.29238        -1.89319         3.46606
| 71>    C       -4.18943        -1.24681         2.29476
| 72>    C       -4.74631         0.05259         2.04817
| 73>    C       -5.93653         0.54428         2.45389
| 74>    C       -6.19982         2.01227         2.33330
| 75>    O       -5.55525         2.81004         1.70047
| 76>    C       -7.37605         2.25998         3.19074
| 77>    C       -7.86909         1.03570         3.68064
| 78>    C       -7.09014        -0.06070         3.11001
| 79>    C       -7.51867        -1.35308         3.02490
| 80>    C       -6.87288        -2.38979         2.31951
| 81>    N       -6.43359        -3.29190         1.76261
| 82>    C       -8.72617        -1.82017         3.59487
| 83>    N       -9.69653        -2.25287         4.02511
| 84>    C       -8.94741         1.02668         4.55045
| 85>    C       -9.53032         2.23884         4.89940
| 86>    C       -9.05103         3.44888         4.38742
| 87>    C       -7.95947         3.46440         3.52944
| 88>   Br       -9.87786         5.07880         4.86188
| 89>   Br      -10.99659         2.23110         6.08943
| 90>    H       -7.80842        -3.04814        15.30577
| 91>    H      -10.20463        -5.97981        12.07630
| 92>    H       -4.11188        -4.56625        11.35864
| 93>    H       -3.14916        -8.78286         6.38216
| 94>    H       -5.56488       -10.43090         7.31638
| 95>    H       -5.15375       -14.08445         3.82924
| 96>    H       -3.17393       -12.59892         2.94791
| 97>    H       -4.29209        -8.68023         4.07420
| 98>    H       -1.49215        -7.46400         3.79510
| 99>    H       -4.82373        -1.43293         4.28756
|100>    H       -3.64150        -1.68518         1.47250
|101>    H       -4.12575         0.73743         1.47743
|102>    H       -9.33378         0.11213         4.97059
|103>    H       -7.57555         4.39277         3.13584
|104> *
|105>
|106>                          ****END OF INPUT****

CARTESIAN COORDINATES (ANGSTROEM)
---------------------------------
  C     -7.411270   -5.632470   11.613470
  O     -7.707320   -6.274920   10.635450
  C     -8.331560   -5.112450   12.646010
  C     -7.628900   -4.289320   13.544340
  C     -8.304450   -3.690690   14.596490
  C     -9.666160   -3.929840   14.736120
  C    -10.355000   -4.750940   13.838740
  C     -9.685040   -5.345500   12.777660
  Br   -12.203620   -5.063780   14.059710
  Br   -10.585310   -3.120220   16.174480
  C     -6.222900   -4.247010   13.155490
  C     -5.222850   -3.606080   13.832830
  C     -5.425140   -2.833670   14.998290
  N     -5.530410   -2.192920   15.943660
  C     -3.855150   -3.636830   13.480500
  N     -2.727170   -3.627180   13.270290
  C     -6.071460   -5.081900   11.973900
  C     -4.955580   -5.229490   11.217760
  C     -4.775870   -6.200370   10.174690
  C     -5.233450   -7.509630   10.229860
  F     -5.841640   -7.956750   11.331850
  C     -4.996900   -8.451150    9.214670
  F     -5.471160   -9.686990    9.432770
  C     -4.264030   -8.176130    8.067700
  C     -3.737930   -6.855150    8.004960
  C     -3.989520   -5.886800    9.036410
  N     -3.422450   -4.713720    8.772900
  S     -2.634720   -4.817260    7.376760
  N     -2.993240   -6.348620    7.023840
  C     -3.986460   -9.084650    6.990330
  C     -4.713660  -10.185560    6.697090
  C     -4.517380  -11.106930    5.627190
  S     -5.591340  -12.484420    5.604340
  C     -4.811790  -13.154410    4.237500
  C     -3.792670  -12.370670    3.796480
  C     -3.628250  -11.199900    4.566590
  S     -2.341560  -10.064090    4.135300
  C     -3.221960   -8.578980    4.035420
  C     -2.566940   -7.408580    3.913060
  C     -3.083890   -6.076750    3.867020
  C     -4.280760   -5.560680    4.434230
  C     -5.263270   -6.332720    5.211390
  O     -5.409900   -7.514550    5.323700
  S     -6.395660   -5.205120    6.049880
  C     -5.807260   -3.811120    5.125280
  O     -6.338100   -2.735780    5.170770
  C     -4.597920   -4.197580    4.369610
  C     -3.830180   -3.248780    3.669760
  C     -2.623660   -3.749330    3.166620
  C     -2.262390   -5.083040    3.290000
  C     -0.906300   -5.221100    2.704190
  O     -0.208380   -6.178150    2.572510
  O     -0.508860   -3.969230    2.298700
  C     -1.477920   -3.033570    2.545860
  O     -1.327690   -1.877700    2.301160
  C     -4.292380   -1.893190    3.466060
  C     -4.189430   -1.246810    2.294760
  C     -4.746310    0.052590    2.048170
  C     -5.936530    0.544280    2.453890
  C     -6.199820    2.012270    2.333300
  O     -5.555250    2.810040    1.700470
  C     -7.376050    2.259980    3.190740
  C     -7.869090    1.035700    3.680640
  C     -7.090140   -0.060700    3.110010
  C     -7.518670   -1.353080    3.024900
  C     -6.872880   -2.389790    2.319510
  N     -6.433590   -3.291900    1.762610
  C     -8.726170   -1.820170    3.594870
  N     -9.696530   -2.252870    4.025110
  C     -8.947410    1.026680    4.550450
  C     -9.530320    2.238840    4.899400
  C     -9.051030    3.448880    4.387420
  C     -7.959470    3.464400    3.529440
  Br    -9.877860    5.078800    4.861880
  Br   -10.996590    2.231100    6.089430
  H     -7.808420   -3.048140   15.305770
  H    -10.204630   -5.979810   12.076300
  H     -4.111880   -4.566250   11.358640
  H     -3.149160   -8.782860    6.382160
  H     -5.564880  -10.430900    7.316380
  H     -5.153750  -14.084450    3.829240
  H     -3.173930  -12.598920    2.947910
  H     -4.292090   -8.680230    4.074200
  H     -1.492150   -7.464000    3.795100
  H     -4.823730   -1.432930    4.287560
  H     -3.641500   -1.685180    1.472500
  H     -4.125750    0.737430    1.477430
  H     -9.333780    0.112130    4.970590
  H     -7.575550    4.392770    3.135840

 Total Charge           Charge          ....    0
 Multiplicity           Mult            ....    1
 Number of Electrons    NEL             ....  646
 Basis Dimension        Dim             .... 1208

ORBITAL ENERGIES
----------------

  NO   OCC          E(Eh)            E(eV)
   0   2.0000    -482.881344    -13139.8694
   1   2.0000    -482.881270    -13139.8674
   2   2.0000    -482.880368    -13139.8428
   3   2.0000    -482.879650    -13139.8233
   4   2.0000     -89.044935     -2423.0359
   5   2.0000     -88.972671     -2421.0695
   6   2.0000     -88.966628     -2420.9050
   7   2.0000     -88.960019     -2420.7252
   8   2.0000     -62.558940     -1702.3153
   9   2.0000     -62.558867     -1702.3133
  10   2.0000     -62.557990     -1702.2895
  11   2.0000     -62.557288     -1702.2703
  12   2.0000     -56.392894     -1534.5287
  13   2.0000     -56.392823     -1534.5267
  14   2.0000     -56.391951     -1534.5030
  15   2.0000     -56.391253     -1534.4840
  16   2.0000     -56.390235     -1534.4563
  17   2.0000     -56.390168     -1534.4545
  18   2.0000     -56.390141     -1534.4538
  19   2.0000     -56.390065     -1534.4517
  20   2.0000     -56.389286     -1534.4305
  21   2.0000     -56.389181     -1534.4276
  22   2.0000     -56.388579     -1534.4113
  23   2.0000     -56.388477     -1534.4085
  24   2.0000     -24.815813      -675.2726
  25   2.0000     -24.812677      -675.1873
  26   2.0000     -19.302858      -525.2575
  27   2.0000     -19.258589      -524.0529
  28   2.0000     -19.258412      -524.0480
  29   2.0000     -19.250586      -523.8351
  30   2.0000     -19.249386      -523.8024
  31   2.0000     -19.230920      -523.2999
  32   2.0000     -19.230415      -523.2862
  33   2.0000     -14.461830      -393.5264
  34   2.0000     -14.458950      -393.4480
  35   2.0000     -14.429248      -392.6398
  36   2.0000     -14.426770      -392.5724
  37   2.0000     -14.426058      -392.5530
  38   2.0000     -14.424670      -392.5152
  39   2.0000     -10.444614      -284.2124
  40   2.0000     -10.443874      -284.1923
  41   2.0000     -10.420909      -283.5673
  42   2.0000     -10.420704      -283.5618
  43   2.0000     -10.403674      -283.0984
  44   2.0000     -10.393122      -282.8112
  45   2.0000     -10.381396      -282.4921
  46   2.0000     -10.380922      -282.4792
  47   2.0000     -10.359805      -281.9046
  48   2.0000     -10.359151      -281.8868
  49   2.0000     -10.358917      -281.8805
  50   2.0000     -10.358784      -281.8768
  51   2.0000     -10.358494      -281.8690
  52   2.0000     -10.357874      -281.8521
  53   2.0000     -10.354113      -281.7497
  54   2.0000     -10.353900      -281.7440
  55   2.0000     -10.349187      -281.6157
  56   2.0000     -10.348877      -281.6073
  57   2.0000     -10.348755      -281.6040
  58   2.0000     -10.344785      -281.4959
  59   2.0000     -10.340935      -281.3912
  60   2.0000     -10.340548      -281.3806
  61   2.0000     -10.338814      -281.3334
  62   2.0000     -10.335676      -281.2480
  63   2.0000     -10.331913      -281.1456
  64   2.0000     -10.331063      -281.1225
  65   2.0000     -10.328373      -281.0493
  66   2.0000     -10.328025      -281.0398
  67   2.0000     -10.327815      -281.0341
  68   2.0000     -10.326362      -280.9946
  69   2.0000     -10.326056      -280.9863
  70   2.0000     -10.325191      -280.9627
  71   2.0000     -10.324334      -280.9394
  72   2.0000     -10.322729      -280.8957
  73   2.0000     -10.322061      -280.8776
  74   2.0000     -10.321597      -280.8649
  75   2.0000     -10.318302      -280.7753
  76   2.0000     -10.317922      -280.7649
  77   2.0000     -10.317069      -280.7417
  78   2.0000     -10.317034      -280.7408
  79   2.0000     -10.316902      -280.7372
  80   2.0000     -10.314331      -280.6672
  81   2.0000     -10.313666      -280.6491
  82   2.0000     -10.311734      -280.5965
  83   2.0000     -10.310534      -280.5639
  84   2.0000     -10.309707      -280.5414
  85   2.0000     -10.309452      -280.5345
  86   2.0000     -10.308653      -280.5127
  87   2.0000     -10.303129      -280.3624
  88   2.0000     -10.294569      -280.1295
  89   2.0000     -10.292474      -280.0725
  90   2.0000     -10.291972      -280.0588
  91   2.0000      -8.788255      -239.1406
  92   2.0000      -8.788176      -239.1384
  93   2.0000      -8.787322      -239.1152
  94   2.0000      -8.786623      -239.0962
  95   2.0000      -8.136354      -221.4015
  96   2.0000      -8.068758      -219.5621
  97   2.0000      -8.065552      -219.4748
  98   2.0000      -8.055337      -219.1969
  99   2.0000      -6.624392      -180.2589
 100   2.0000      -6.624314      -180.2567
 101   2.0000      -6.623481      -180.2341
 102   2.0000      -6.622815      -180.2159
 103   2.0000      -6.610373      -179.8774
 104   2.0000      -6.610294      -179.8752
 105   2.0000      -6.609590      -179.8561
 106   2.0000      -6.609505      -179.8538
 107   2.0000      -6.609438      -179.8520
 108   2.0000      -6.608706      -179.8320
 109   2.0000      -6.608629      -179.8299
 110   2.0000      -6.607928      -179.8109
 111   2.0000      -6.107650      -166.1976
 112   2.0000      -6.099971      -165.9886
 113   2.0000      -6.098571      -165.9506
 114   2.0000      -6.037906      -164.2998
 115   2.0000      -6.034416      -164.2048
 116   2.0000      -6.033704      -164.1854
 117   2.0000      -6.031176      -164.1166
 118   2.0000      -6.031127      -164.1153
 119   2.0000      -6.026588      -163.9918
 120   2.0000      -6.025338      -163.9578
 121   2.0000      -6.021238      -163.8462
 122   2.0000      -6.015888      -163.7006
 123   2.0000      -2.740306       -74.5675
 124   2.0000      -2.740233       -74.5655
 125   2.0000      -2.739429       -74.5437
 126   2.0000      -2.738714       -74.5242
 127   2.0000      -2.736539       -74.4650
 128   2.0000      -2.736473       -74.4632
 129   2.0000      -2.735908       -74.4479
 130   2.0000      -2.735812       -74.4452
 131   2.0000      -2.735604       -74.4396
 132   2.0000      -2.734968       -74.4223
 133   2.0000      -2.734944       -74.4216
 134   2.0000      -2.734284       -74.4037
 135   2.0000      -2.724767       -74.1447
 136   2.0000      -2.724749       -74.1442
 137   2.0000      -2.724685       -74.1425
 138   2.0000      -2.724676       -74.1422
 139   2.0000      -2.723805       -74.1185
 140   2.0000      -2.723786       -74.1180
 141   2.0000      -2.723093       -74.0991
 142   2.0000      -2.723086       -74.0989
 143   2.0000      -1.339446       -36.4482
 144   2.0000      -1.320522       -35.9332
 145   2.0000      -1.253721       -34.1155
 146   2.0000      -1.184514       -32.2323
 147   2.0000      -1.180143       -32.1133
 148   2.0000      -1.178697       -32.0740
 149   2.0000      -1.147281       -31.2191
 150   2.0000      -1.146856       -31.2075
 151   2.0000      -1.146553       -31.1993
 152   2.0000      -1.140542       -31.0357
 153   2.0000      -1.033397       -28.1202
 154   2.0000      -1.032369       -28.0922
 155   2.0000      -1.027904       -27.9707
 156   2.0000      -1.017186       -27.6790
 157   2.0000      -1.015857       -27.6429
 158   2.0000      -1.006225       -27.3808
 159   2.0000      -1.005129       -27.3509
 160   2.0000      -1.004839       -27.3431
 161   2.0000      -1.003296       -27.3011
 162   2.0000      -0.994748       -27.0685
 163   2.0000      -0.985037       -26.8042
 164   2.0000      -0.982624       -26.7386
 165   2.0000      -0.966981       -26.3129
 166   2.0000      -0.954945       -25.9854
 167   2.0000      -0.937593       -25.5132
 168   2.0000      -0.931482       -25.3469
 169   2.0000      -0.927445       -25.2371
 170   2.0000      -0.926039       -25.1988
 171   2.0000      -0.919402       -25.0182
 172   2.0000      -0.917323       -24.9616
 173   2.0000      -0.914773       -24.8922
 174   2.0000      -0.905796       -24.6480
 175   2.0000      -0.897001       -24.4086
 176   2.0000      -0.884452       -24.0672
 177   2.0000      -0.881754       -23.9938
 178   2.0000      -0.880069       -23.9479
 179   2.0000      -0.861688       -23.4477
 180   2.0000      -0.859127       -23.3780
 181   2.0000      -0.858948       -23.3732
 182   2.0000      -0.853732       -23.2312
 183   2.0000      -0.840604       -22.8740
 184   2.0000      -0.821497       -22.3541
 185   2.0000      -0.812768       -22.1165
 186   2.0000      -0.807098       -21.9623
 187   2.0000      -0.790820       -21.5193
 188   2.0000      -0.786043       -21.3893
 189   2.0000      -0.778944       -21.1961
 190   2.0000      -0.775245       -21.0955
 191   2.0000      -0.772531       -21.0217
 192   2.0000      -0.767137       -20.8749
 193   2.0000      -0.763830       -20.7849
 194   2.0000      -0.741293       -20.1716
 195   2.0000      -0.738257       -20.0890
 196   2.0000      -0.733975       -19.9725
 197   2.0000      -0.714667       -19.4471
 198   2.0000      -0.713771       -19.4227
 199   2.0000      -0.703784       -19.1509
 200   2.0000      -0.702663       -19.1204
 201   2.0000      -0.696185       -18.9442
 202   2.0000      -0.692518       -18.8444
 203   2.0000      -0.689709       -18.7679
 204   2.0000      -0.682967       -18.5845
 205   2.0000      -0.674546       -18.3553
 206   2.0000      -0.668433       -18.1890
 207   2.0000      -0.666098       -18.1254
 208   2.0000      -0.653156       -17.7733
 209   2.0000      -0.652379       -17.7521
 210   2.0000      -0.648465       -17.6456
 211   2.0000      -0.646722       -17.5982
 212   2.0000      -0.640329       -17.4242
 213   2.0000      -0.632543       -17.2124
 214   2.0000      -0.628379       -17.0991
 215   2.0000      -0.625104       -17.0099
 216   2.0000      -0.624639       -16.9973
 217   2.0000      -0.617618       -16.8062
 218   2.0000      -0.615494       -16.7484
 219   2.0000      -0.610746       -16.6193
 220   2.0000      -0.608812       -16.5666
 221   2.0000      -0.601229       -16.3603
 222   2.0000      -0.600730       -16.3467
 223   2.0000      -0.592666       -16.1273
 224   2.0000      -0.589153       -16.0317
 225   2.0000      -0.584163       -15.8959
 226   2.0000      -0.582110       -15.8400
 227   2.0000      -0.580273       -15.7900
 228   2.0000      -0.570466       -15.5232
 229   2.0000      -0.568433       -15.4679
 230   2.0000      -0.568060       -15.4577
 231   2.0000      -0.566776       -15.4228
 232   2.0000      -0.563923       -15.3451
 233   2.0000      -0.562892       -15.3171
 234   2.0000      -0.560478       -15.2514
 235   2.0000      -0.558124       -15.1873
 236   2.0000      -0.555504       -15.1160
 237   2.0000      -0.554671       -15.0934
 238   2.0000      -0.552552       -15.0357
 239   2.0000      -0.551474       -15.0064
 240   2.0000      -0.548244       -14.9185
 241   2.0000      -0.543550       -14.7908
 242   2.0000      -0.540699       -14.7132
 243   2.0000      -0.538342       -14.6490
 244   2.0000      -0.535657       -14.5760
 245   2.0000      -0.531488       -14.4625
 246   2.0000      -0.529138       -14.3986
 247   2.0000      -0.527245       -14.3471
 248   2.0000      -0.524713       -14.2782
 249   2.0000      -0.520273       -14.1574
 250   2.0000      -0.517886       -14.0924
 251   2.0000      -0.513943       -13.9851
 252   2.0000      -0.510066       -13.8796
 253   2.0000      -0.508716       -13.8429
 254   2.0000      -0.508116       -13.8265
 255   2.0000      -0.505238       -13.7482
 256   2.0000      -0.503180       -13.6922
 257   2.0000      -0.501490       -13.6462
 258   2.0000      -0.498540       -13.5660
 259   2.0000      -0.497205       -13.5296
 260   2.0000      -0.495476       -13.4826
 261   2.0000      -0.493443       -13.4273
 262   2.0000      -0.491812       -13.3829
 263   2.0000      -0.489179       -13.3112
 264   2.0000      -0.485578       -13.2132
 265   2.0000      -0.483642       -13.1606
 266   2.0000      -0.477356       -12.9895
 267   2.0000      -0.471260       -12.8236
 268   2.0000      -0.469718       -12.7817
 269   2.0000      -0.468966       -12.7612
 270   2.0000      -0.466982       -12.7072
 271   2.0000      -0.465614       -12.6700
 272   2.0000      -0.463993       -12.6259
 273   2.0000      -0.462361       -12.5815
 274   2.0000      -0.458143       -12.4667
 275   2.0000      -0.456358       -12.4181
 276   2.0000      -0.454698       -12.3730
 277   2.0000      -0.452767       -12.3204
 278   2.0000      -0.449129       -12.2214
 279   2.0000      -0.444255       -12.0888
 280   2.0000      -0.442649       -12.0451
 281   2.0000      -0.439854       -11.9690
 282   2.0000      -0.437674       -11.9097
 283   2.0000      -0.436938       -11.8897
 284   2.0000      -0.434388       -11.8203
 285   2.0000      -0.434089       -11.8122
 286   2.0000      -0.427804       -11.6411
 287   2.0000      -0.426500       -11.6057
 288   2.0000      -0.424150       -11.5417
 289   2.0000      -0.421365       -11.4659
 290   2.0000      -0.420054       -11.4302
 291   2.0000      -0.417831       -11.3697
 292   2.0000      -0.408711       -11.1216
 293   2.0000      -0.405211       -11.0263
 294   2.0000      -0.404767       -11.0143
 295   2.0000      -0.403390       -10.9768
 296   2.0000      -0.401363       -10.9217
 297   2.0000      -0.394771       -10.7423
 298   2.0000      -0.394561       -10.7366
 299   2.0000      -0.394039       -10.7223
 300   2.0000      -0.393455       -10.7065
 301   2.0000      -0.387967       -10.5571
 302   2.0000      -0.387032       -10.5317
 303   2.0000      -0.383204       -10.4275
 304   2.0000      -0.378631       -10.3031
 305   2.0000      -0.368636       -10.0311
 306   2.0000      -0.362060        -9.8522
 307   2.0000      -0.360858        -9.8195
 308   2.0000      -0.357967        -9.7408
 309   2.0000      -0.356684        -9.7059
 310   2.0000      -0.352792        -9.5999
 311   2.0000      -0.350149        -9.5280
 312   2.0000      -0.347924        -9.4675
 313   2.0000      -0.343770        -9.3545
 314   2.0000      -0.342235        -9.3127
 315   2.0000      -0.340470        -9.2646
 316   2.0000      -0.338795        -9.2191
 317   2.0000      -0.323410        -8.8004
 318   2.0000      -0.320926        -8.7328
 319   2.0000      -0.315559        -8.5868
 320   2.0000      -0.314392        -8.5550
 321   2.0000      -0.287545        -7.8245
 322   2.0000      -0.272804        -7.4234
 323   0.0000      -0.114178        -3.1069
 324   0.0000      -0.106153        -2.8886
 325   0.0000      -0.099346        -2.7034
 326   0.0000      -0.082608        -2.2479
 327   0.0000      -0.077255        -2.1022

MULLIKEN ATOMIC CHARGES
-----------------------
   0 C :    0.149479
   1 O :   -0.133045
   2 C :   -0.020617
   3 C :    0.037858
   4 C :   -0.010026
   5 C :   -0.024030
   6 C :   -0.014194
   7 C :   -0.016451
   8 Br:    0.019986
   9 Br:    0.026053
  10 C :    0.301378
  11 C :   -0.324692
  12 C :   -0.188819
  13 N :    0.163330
  14 C :   -0.195637
  15 N :    0.166463
  16 C :   -0.078522
  17 C :   -0.033695
  18 C :   -0.025631
  19 C :    0.227068
  20 F :   -0.153576
  21 C :    0.145666
  22 F :   -0.167163
  23 C :    0.038804
  24 C :    0.012237
  25 C :    0.021611
  26 N :   -0.258480
  27 S :    0.502096
  28 N :   -0.305757
  29 C :   -0.024068
  30 C :    0.087338
  31 C :   -0.129332
  32 S :    0.141376
  33 C :   -0.051442
  34 C :    0.047677
  35 C :   -0.069472
  36 S :    0.098072
  37 C :   -0.109841
  38 C :    0.001888
  39 C :    0.096869
  40 C :    0.029362
  41 C :    0.027776
  42 O :   -0.133191
  43 S :    0.052214
  44 C :    0.052928
  45 O :   -0.153830
  46 C :    0.055393
  47 C :    0.021241
  48 C :   -0.092081
  49 C :   -0.090217
  50 C :    0.238749
  51 O :   -0.102610
  52 O :   -0.222433
  53 C :    0.226569
  54 O :   -0.096790
  55 C :   -0.023799
  56 C :    0.050813
  57 C :    0.010621
  58 C :   -0.109706
  59 C :    0.136324
  60 O :   -0.123583
  61 C :   -0.003049
  62 C :    0.015299
  63 C :    0.279290
  64 C :   -0.308498
  65 C :   -0.201632
  66 N :    0.169355
  67 C :   -0.191774
  68 N :    0.178394
  69 C :   -0.005337
  70 C :   -0.023588
  71 C :   -0.016375
  72 C :   -0.016595
  73 Br:    0.019206
  74 Br:    0.025536
  75 H :    0.009352
  76 H :    0.008970
  77 H :    0.049840
  78 H :    0.025525
  79 H :    0.001221
  80 H :    0.039916
  81 H :   -0.002928
  82 H :    0.078422
  83 H :    0.024730
  84 H :    0.044122
  85 H :    0.027832
  86 H :    0.043294
  87 H :    0.015352
  88 H :    0.009611
Sum of atomic charges:    0.0000000

LOEWDIN ATOMIC CHARGES
----------------------
   0 C :    0.081302
   1 O :   -0.126044
   2 C :   -0.041089
   3 C :   -0.012223
   4 C :   -0.006279
   5 C :   -0.117926
   6 C :   -0.121476
   7 C :    0.008577
   8 Br:    0.142643
   9 Br:    0.144989
  10 C :    0.071765
  11 C :   -0.122825
  12 C :   -0.019515
  13 N :   -0.038535
  14 C :   -0.021958
  15 N :   -0.037058
  16 C :   -0.079684
  17 C :    0.082767
  18 C :   -0.076119
  19 C :    0.104275
  20 F :   -0.025201
  21 C :    0.068070
  22 F :   -0.038693
  23 C :   -0.029391
  24 C :   -0.047607
  25 C :   -0.040279
  26 N :   -0.278364
  27 S :    0.641166
  28 N :   -0.278754
  29 C :   -0.020449
  30 C :   -0.013682
  31 C :   -0.181827
  32 S :    0.464541
  33 C :   -0.173249
  34 C :   -0.070018
  35 C :   -0.200228
  36 S :    0.391497
  37 C :   -0.109661
  38 C :   -0.083709
  39 C :    0.040365
  40 C :   -0.059251
  41 C :   -0.034133
  42 O :   -0.098331
  43 S :    0.330516
  44 C :   -0.042769
  45 O :   -0.122202
  46 C :   -0.045669
  47 C :    0.022805
  48 C :   -0.043439
  49 C :   -0.050088
  50 C :    0.109695
  51 O :   -0.093852
  52 O :   -0.050546
  53 C :    0.104114
  54 O :   -0.095676
  55 C :   -0.001296
  56 C :    0.009635
  57 C :    0.068195
  58 C :   -0.074786
  59 C :    0.084648
  60 O :   -0.124516
  61 C :   -0.046423
  62 C :   -0.007744
  63 C :    0.063623
  64 C :   -0.113925
  65 C :   -0.012588
  66 N :   -0.052831
  67 C :   -0.019870
  68 N :   -0.037810
  69 C :   -0.006506
  70 C :   -0.116692
  71 C :   -0.123294
  72 C :    0.009198
  73 Br:    0.141620
  74 Br:    0.145747
  75 H :    0.045139
  76 H :    0.047483
  77 H :    0.051459
  78 H :    0.031089
  79 H :    0.028797
  80 H :    0.029268
  81 H :    0.033843
  82 H :    0.027297
  83 H :    0.035669
  84 H :    0.036860
  85 H :    0.040164
  86 H :    0.053508
  87 H :    0.046232
  88 H :    0.047515

  Mayer bond orders larger than 0.100000
B(  0-C ,  1-O ) :   2.2364 B(  0-C ,  2-C ) :   0.9452 B(  0-C , 16-C ) :   0.9321
B(  2-C ,  3-C ) :   1.3261 B(  2-C ,  7-C ) :   1.3689 B(  3-C ,  4-C ) :   1.3582
B(  3-C , 10-C ) :   1.0023 B(  4-C ,  5-C ) :   1.3758 B(  4-C , 75-H ) :   0.9797
B(  5-C ,  6-C ) :   1.4140 B(  5-C ,  9-Br) :   1.0601 B(  6-C ,  7-C ) :   1.3546
B(  6-C ,  8-Br) :   1.0376 B(  7-C , 76-H ) :   1.0086 B( 10-C , 11-C ) :   1.6656
B( 10-C , 16-C ) :   1.0465 B( 11-C , 12-C ) :   1.1355 B( 11-C , 14-C ) :   1.1407
B( 12-C , 13-N ) :   2.9737 B( 14-C , 15-N ) :   2.9807 B( 16-C , 17-C ) :   1.6687
B( 17-C , 18-C ) :   1.0978 B( 17-C , 77-H ) :   0.9386 B( 18-C , 19-C ) :   1.3836
B( 18-C , 23-C ) :   0.1181 B( 18-C , 25-C ) :   1.1686 B( 19-C , 20-F ) :   1.1639
B( 19-C , 21-C ) :   1.1512 B( 21-C , 22-F ) :   1.1370 B( 21-C , 23-C ) :   1.3571
B( 23-C , 24-C ) :   1.1558 B( 23-C , 29-C ) :   1.1573 B( 24-C , 25-C ) :   1.1395
B( 24-C , 28-N ) :   1.5264 B( 25-C , 26-N ) :   1.5833 B( 26-N , 27-S ) :   1.2541
B( 26-N , 28-N ) :   0.1436 B( 27-S , 28-N ) :   1.2450 B( 29-C , 30-C ) :   1.6648
B( 29-C , 78-H ) :   0.9546 B( 30-C , 31-C ) :   1.1494 B( 30-C , 79-H ) :   0.9440
B( 31-C , 32-S ) :   1.1590 B( 31-C , 35-C ) :   1.4715 B( 32-S , 33-C ) :   1.1758
B( 33-C , 34-C ) :   1.5602 B( 33-C , 80-H ) :   0.9716 B( 34-C , 35-C ) :   1.2727
B( 34-C , 81-H ) :   0.9957 B( 35-C , 36-S ) :   1.0083 B( 36-S , 37-C ) :   1.0764
B( 37-C , 38-C ) :   1.6857 B( 37-C , 82-H ) :   0.9328 B( 38-C , 39-C ) :   1.2025
B( 38-C , 83-H ) :   0.9273 B( 39-C , 40-C ) :   1.2926 B( 39-C , 49-C ) :   1.3071
B( 40-C , 41-C ) :   0.8350 B( 40-C , 46-C ) :   1.3253 B( 41-C , 42-O ) :   2.1121
B( 41-C , 43-S ) :   1.0288 B( 43-S , 44-C ) :   1.0579 B( 43-S , 45-O ) :   0.1061
B( 44-C , 45-O ) :   2.0846 B( 44-C , 46-C ) :   0.8489 B( 46-C , 47-C ) :   1.3789
B( 47-C , 48-C ) :   1.3412 B( 47-C , 55-C ) :   1.0872 B( 48-C , 49-C ) :   1.3625
B( 48-C , 53-C ) :   0.8965 B( 49-C , 50-C ) :   0.9152 B( 50-C , 51-O ) :   2.2156
B( 50-C , 52-O ) :   1.0570 B( 52-O , 53-C ) :   1.0596 B( 53-C , 54-O ) :   2.2632
B( 55-C , 56-C ) :   1.7741 B( 55-C , 84-H ) :   0.9380 B( 56-C , 57-C ) :   1.0823
B( 56-C , 85-H ) :   0.9381 B( 57-C , 58-C ) :   1.7715 B( 57-C , 86-H ) :   0.9284
B( 58-C , 59-C ) :   0.9275 B( 58-C , 63-C ) :   1.0021 B( 59-C , 60-O ) :   2.2875
B( 59-C , 61-C ) :   0.9215 B( 61-C , 62-C ) :   1.3259 B( 61-C , 72-C ) :   1.3655
B( 62-C , 63-C ) :   1.0053 B( 62-C , 69-C ) :   1.3660 B( 63-C , 64-C ) :   1.7017
B( 64-C , 65-C ) :   1.1696 B( 64-C , 67-C ) :   1.1199 B( 65-C , 66-N ) :   2.9723
B( 67-C , 68-N ) :   3.0040 B( 69-C , 70-C ) :   1.3753 B( 69-C , 87-H ) :   0.9827
B( 70-C , 71-C ) :   1.4117 B( 70-C , 74-Br) :   1.0559 B( 71-C , 72-C ) :   1.3630
B( 71-C , 73-Br) :   1.0365 B( 72-C , 88-H ) :   1.0084

-----------------------------------------------------------------------------
         ABSORPTION SPECTRUM VIA TRANSITION ELECTRIC DIPOLE MOMENTS
-----------------------------------------------------------------------------
State   Energy  Wavelength   fosc         T2         TX        TY        TZ
        (cm-1)    (nm)                  (au**2)     (au)      (au)      (au)
-----------------------------------------------------------------------------
   0   18258.9    547.7   0.398488117   7.18483  -0.85713   1.32515   2.16660
   1   19737.5    506.6   0.334184695   5.57403   0.04463   1.30550   1.96665
   2   21172.1    472.3   0.060444089   0.93986  -0.43764  -0.35425   0.78920
   3   23590.9    423.9   0.280677431   3.91687  -0.58989   1.68773   0.84879
   4   23884.7    418.7   0.301161300   4.15103   1.01394  -1.76212   0.13370
   5   25393.9    393.8   0.035138747   0.45555   0.51910  -0.36653   0.22746
   6   26181.5    381.9   0.012995644   0.16341   0.14882  -0.36511   0.08920
   7   26396.3    378.8   0.038777704   0.48363  -0.48817   0.48664   0.09225
   8   27089.9    369.1   0.001326029   0.01611  -0.03106   0.11413   0.04608
   9   28068.9    356.3   0.109290221   1.28183  -0.15698   1.10320   0.20034
  10   28518.8    350.6   0.104941887   1.21141  -0.28130  -1.04056   0.22252
  11   28825.6    346.9   0.125507445   1.43340   1.16057  -0.24126   0.16813
  12   29196.0    342.5   0.272638900   3.07425   0.15913  -1.73887  -0.15889
  13   29287.3    341.4   0.040231066   0.45223  -0.34386  -0.54929   0.17964
  14   30054.6    332.7   0.031005143   0.33962   0.35493   0.32108   0.33250
  15   30492.4    328.0   0.176705833   1.90781  -0.74341  -0.79467   0.85068
  16   30981.6    322.8   0.067445706   0.71668   0.47812  -0.53430  -0.45011
  17   31513.7    317.3   0.010098005   0.10549  -0.02479   0.26343  -0.18836
  18   31698.6    315.5   0.249790481   2.59425  -0.78073   1.40838   0.03412
  19   31759.6    314.9   0.155882302   1.61584   0.04188   1.22404  -0.34030
  20   32052.8    312.0   0.041823872   0.42957   0.24717   0.58018   0.17851
  21   32211.9    310.4   0.042368590   0.43301  -0.48156   0.42175   0.15246
  22   32473.9    307.9   0.023621701   0.23947   0.12319   0.45566  -0.12912
  23   32721.0    305.6   0.004677429   0.04706  -0.19788  -0.07985   0.03906
  24   32902.5    303.9   0.043689810   0.43715  -0.31319  -0.54858   0.19524
  25   33157.9    301.6   0.007180679   0.07129   0.16065   0.21326  -0.00264
  26   33293.9    300.4   0.049736079   0.49179   0.34216  -0.54919  -0.27039
  27   33378.7    299.6   0.083743184   0.82595  -0.30347   0.84134   0.16125
  28   33609.5    297.5   0.159707196   1.56436   1.10136  -0.29742  -0.51275
  29   34094.4    293.3   0.174363570   1.68363   0.68792  -1.04148  -0.35458
  30   34246.6    292.0   0.019771671   0.19006   0.29165   0.29555  -0.13286
  31   34459.0    290.2   0.182897550   1.74735   0.19653   1.19187   0.53682
  32   34660.7    288.5   0.290569532   2.75986  -1.28210  -0.73469  -0.75916
  33   34776.2    287.6   0.098457603   0.93206   0.93658  -0.04002   0.23082
  34   34862.4    286.8   0.042104368   0.39760  -0.05165  -0.59829   0.19229
  35   35057.6    285.2   0.064436773   0.60510  -0.68936  -0.18601  -0.30868
  36   35174.9    284.3   0.063859424   0.59768  -0.51260   0.57869   0.00621
  37   35315.7    283.2   0.113380722   1.05693  -0.78829  -0.63878  -0.16578
  38   35560.5    281.2   0.067313734   0.62318  -0.07166  -0.77590  -0.12658
  39   35799.4    279.3   0.007020297   0.06456   0.08617  -0.21226   0.10991
  40   35861.7    278.8   0.018977039   0.17421   0.20605   0.02402   0.36218
  41   36004.3    277.7   0.078371330   0.71660   0.09743   0.83779  -0.07228
  42   36078.7    277.2   0.267533352   2.44120   0.13558   1.42055   0.63629
  43   36252.0    275.8   0.042919996   0.38977  -0.45260  -0.39538   0.16911
  44   36543.8    273.6   0.007546834   0.06799   0.08716   0.06024   0.23825
  45   36726.0    272.3   0.014952711   0.13404   0.28064   0.19810   0.12663
  46   36851.8    271.4   0.007083553   0.06328  -0.06344  -0.07549  -0.23142
  47   37000.0    270.3   0.214985482   1.91286   0.85824   1.06083   0.22564
  48   37106.5    269.5   0.006007174   0.05330  -0.15719  -0.16791  -0.01985
  49   37533.4    266.4   0.033725963   0.29582  -0.20020  -0.40713  -0.29997
  50   37585.5    266.1   0.063072648   0.55245   0.27335  -0.49431  -0.48310
  51   37899.2    263.9   0.034643141   0.30093  -0.12146   0.47980   0.23657
  52   38018.5    263.0   0.014263604   0.12351  -0.01155   0.30876   0.16746
  53   38094.8    262.5   0.018764402   0.16216  -0.13852   0.21029   0.31424
  54   38303.0    261.1   0.043869564   0.37706   0.11944   0.60172   0.02698
  55   38388.1    260.5   0.041759518   0.35812   0.18129  -0.23811  -0.51823
  56   38633.6    258.8   0.016688147   0.14221   0.02247   0.19567   0.32158
  57   38876.9    257.2   0.030944995   0.26204   0.41812   0.11201  -0.27327
  58   39017.1    256.3   0.000806399   0.00680  -0.00958  -0.04480   0.06860
  59   39182.1    255.2   0.009633336   0.08094   0.04948  -0.06229  -0.27315
  60   39423.6    253.7   0.017241769   0.14398  -0.28643  -0.07082   0.23858
  61   39672.1    252.1   0.057145191   0.47421   0.45466  -0.02248  -0.51671
  62   39749.3    251.6   0.016439389   0.13615  -0.12763   0.02144   0.34555
  63   39868.0    250.8   0.002494576   0.02060   0.00162   0.14046  -0.02944
  64   39970.0    250.2   0.053619999   0.44164  -0.46850   0.46687  -0.06462
  65   40033.0    249.8   0.025427406   0.20910   0.41687  -0.00131  -0.18793
  66   40233.9    248.5   0.115839541   0.94785   0.74800   0.25295  -0.56953

FINAL SINGLE POINT ENERGY    -14929.001960838414

DIPOLE MOMENT
-------------
                                X             Y             Z
Electronic contribution:   -176.73453     138.75961     128.55968
Nuclear contribution   :    175.90670    -140.37478    -129.42888
                        -----------------------------------------
Total Dipole Moment    :     -0.82783      -1.61517      -0.86920
                        -----------------------------------------
Magnitude (a.u.)       :      2.01236
Magnitude (Debye)      :      5.11501

Rotational constants in cm-1:     0.000481     0.000468     0.000274
Rotational constants in MHz :    14.409402    14.018718     8.220541

                             ****ORCA TERMINATED NORMALLY****
TOTAL RUN TIME: 0 days 0 hours 10 minutes 8 seconds 456 msec
