                         Program Version 4.2.0 -  RELEASE  -
|  1> # ORCA input file
|  2> # SCF done       -133.996436191850          0.000611087918
|  3> ! CAM-B3LYP def2-SVP def2/J RIJCOSX Grid4 TightSCF
|  4> %maxcore 5000
|  5> %tddft
|  6>     Mode sTDDFT
|  7>     Ethresh 5.0
|  8>     maxcore 5000
|  9> end
| 10>
| 11> %pal
| 12>   nprocs 6
| 13>   end
| 14> * xyz 0 1
| 15>    C        1.95476        -0.81737        -0.78089
| 16>    O        1.35359        -1.29848        -1.70807
| 17>    C        3.07706         0.14788        -0.88099
| 18>    C        3.44196         0.59382         0.39977
| 19>    C        4.46813         1.51612         0.53556
| 20>    C        5.11061         1.97019        -0.61006
| 21>    C        4.74016         1.51948        -1.87787
| 22>    C        3.70864         0.60060        -2.01990
| 23>   Br        5.63720         2.15456        -3.41513
| 24>   Br        6.51263         3.22615        -0.42744
| 25>    C        2.59606        -0.06726         1.39114
| 26>    C        2.69522         0.10286         2.74879
| 27>    C        3.61402         0.97486         3.37058
| 28>    N        4.33480         1.66640         3.93641
| 29>    C        1.91694        -0.55537         3.72428
| 30>    N        1.33581        -1.04519         4.58538
| 31>    C        1.69200        -0.95012         0.67884
| 32>    C        0.69908        -1.69428         1.24760
| 33>    C       -0.09831        -2.67258         0.61455
| 34>    S       -1.57445        -3.27115         1.40735
| 35>    C       -1.72651        -4.33506         0.02171
| 36>    N       -0.73695        -4.18790        -0.83085
| 37>    N        0.13134        -3.29469        -0.50696
| 38>    C       -2.80236        -5.24360        -0.14088
| 39>    C       -2.91016        -6.01345        -1.24995
| 40>    C       -3.94113        -6.95993        -1.53234
| 41>    C       -3.94868        -7.66166        -2.75608
| 42>    N       -4.85672        -8.54463        -3.07633
| 43>    C       -5.82612        -8.78545        -2.17806
| 44>    N       -5.92403        -8.17304        -0.98151
| 45>    C       -5.00848        -7.28938        -0.67512
| 46>    C       -6.81540        -9.75426        -2.49951
| 47>    N       -7.82786       -10.06430        -1.61770
| 48>    C       -8.60229       -11.02164        -2.18031
| 49>    C       -9.71947       -11.82843        -1.98252
| 50>    C       -9.84807       -12.60837        -3.13879
| 51>    N       -8.83837       -12.28455        -4.02138
| 52>    C       -8.05935       -11.31965        -3.46156
| 53>    C       -6.93993       -10.52616        -3.66193
| 54>    C      -10.79971       -13.60609        -3.47469
| 55>    C      -11.81612       -14.01798        -2.67673
| 56>    C      -12.75762       -15.02483        -3.00786
| 57>    N      -13.75074       -15.38161        -2.11454
| 58>    C      -14.50422       -16.36569        -2.66958
| 59>    C      -15.59661       -17.20836        -2.45742
| 60>    C      -15.71668       -17.98029        -3.60998
| 61>    N      -14.73010       -17.62524        -4.50624
| 62>    C      -13.97482       -16.63896        -3.95273
| 63>    C      -12.88313       -15.80166        -4.16567
| 64>    C      -16.66061       -19.00941        -3.94148
| 65>    C      -17.65028       -19.43524        -3.15764
| 66>    H        4.78112         1.89180         1.49600
| 67>    H        3.40841         0.24423        -2.99306
| 68>    H        0.47601        -1.54799         2.29613
| 69>    H       -3.52865        -5.28142         0.65700
| 70>    H       -2.14246        -5.90377        -2.00522
| 71>    H       -3.17562        -7.48253        -3.49427
| 72>    H       -5.11932        -6.82181         0.29539
| 73>    H       -7.91828        -9.62152        -0.71915
| 74>    H      -10.36267       -11.86146        -1.12718
| 75>    H       -8.71258       -12.70953        -4.92361
| 76>    H       -6.27925       -10.47599        -4.50236
| 77>    H      -10.68055       -14.06501        -4.44662
| 78>    H      -11.93406       -13.55992        -1.70395
| 79>    H      -13.87301       -14.96905        -1.20609
| 80>    H      -16.22607       -17.26618        -1.59318
| 81>    H      -14.60781       -18.04126        -5.41331
| 82>    H      -12.25482       -15.74743        -5.03133
| 83>    H      -16.52739       -19.45643        -4.91988
| 84>    H      -17.81964       -19.01983        -2.18019
| 85>    H      -18.32184       -20.21329        -3.47400
| 86> *
| 87>
| 88>                          ****END OF INPUT****

CARTESIAN COORDINATES (ANGSTROEM)
---------------------------------
  C      1.954760   -0.817370   -0.780890
  O      1.353590   -1.298480   -1.708070
  C      3.077060    0.147880   -0.880990
  C      3.441960    0.593820    0.399770
  C      4.468130    1.516120    0.535560
  C      5.110610    1.970190   -0.610060
  C      4.740160    1.519480   -1.877870
  C      3.708640    0.600600   -2.019900
  Br     5.637200    2.154560   -3.415130
  Br     6.512630    3.226150   -0.427440
  C      2.596060   -0.067260    1.391140
  C      2.695220    0.102860    2.748790
  C      3.614020    0.974860    3.370580
  N      4.334800    1.666400    3.936410
  C      1.916940   -0.555370    3.724280
  N      1.335810   -1.045190    4.585380
  C      1.692000   -0.950120    0.678840
  C      0.699080   -1.694280    1.247600
  C     -0.098310   -2.672580    0.614550
  S     -1.574450   -3.271150    1.407350
  C     -1.726510   -4.335060    0.021710
  N     -0.736950   -4.187900   -0.830850
  N      0.131340   -3.294690   -0.506960
  C     -2.802360   -5.243600   -0.140880
  C     -2.910160   -6.013450   -1.249950
  C     -3.941130   -6.959930   -1.532340
  C     -3.948680   -7.661660   -2.756080
  N     -4.856720   -8.544630   -3.076330
  C     -5.826120   -8.785450   -2.178060
  N     -5.924030   -8.173040   -0.981510
  C     -5.008480   -7.289380   -0.675120
  C     -6.815400   -9.754260   -2.499510
  N     -7.827860  -10.064300   -1.617700
  C     -8.602290  -11.021640   -2.180310
  C     -9.719470  -11.828430   -1.982520
  C     -9.848070  -12.608370   -3.138790
  N     -8.838370  -12.284550   -4.021380
  C     -8.059350  -11.319650   -3.461560
  C     -6.939930  -10.526160   -3.661930
  C    -10.799710  -13.606090   -3.474690
  C    -11.816120  -14.017980   -2.676730
  C    -12.757620  -15.024830   -3.007860
  N    -13.750740  -15.381610   -2.114540
  C    -14.504220  -16.365690   -2.669580
  C    -15.596610  -17.208360   -2.457420
  C    -15.716680  -17.980290   -3.609980
  N    -14.730100  -17.625240   -4.506240
  C    -13.974820  -16.638960   -3.952730
  C    -12.883130  -15.801660   -4.165670
  C    -16.660610  -19.009410   -3.941480
  C    -17.650280  -19.435240   -3.157640
  H      4.781120    1.891800    1.496000
  H      3.408410    0.244230   -2.993060
  H      0.476010   -1.547990    2.296130
  H     -3.528650   -5.281420    0.657000
  H     -2.142460   -5.903770   -2.005220
  H     -3.175620   -7.482530   -3.494270
  H     -5.119320   -6.821810    0.295390
  H     -7.918280   -9.621520   -0.719150
  H    -10.362670  -11.861460   -1.127180
  H     -8.712580  -12.709530   -4.923610
  H     -6.279250  -10.475990   -4.502360
  H    -10.680550  -14.065010   -4.446620
  H    -11.934060  -13.559920   -1.703950
  H    -13.873010  -14.969050   -1.206090
  H    -16.226070  -17.266180   -1.593180
  H    -14.607810  -18.041260   -5.413310
  H    -12.254820  -15.747430   -5.031330
  H    -16.527390  -19.456430   -4.919880
  H    -17.819640  -19.019830   -2.180190
  H    -18.321840  -20.213290   -3.474000

 Total Charge           Charge          ....    0
 Multiplicity           Mult            ....    1
 Number of Electrons    NEL             ....  406
 Basis Dimension        Dim             ....  854

ORBITAL ENERGIES
----------------

  NO   OCC          E(Eh)            E(eV)
   0   2.0000    -482.875372    -13139.7069
   1   2.0000    -482.873566    -13139.6577
   2   2.0000     -88.976614     -2421.1768
   3   2.0000     -62.552960     -1702.1526
   4   2.0000     -62.551145     -1702.1032
   5   2.0000     -56.386908     -1534.3658
   6   2.0000     -56.385107     -1534.3168
   7   2.0000     -56.384264     -1534.2938
   8   2.0000     -56.384161     -1534.2910
   9   2.0000     -56.382438     -1534.2441
  10   2.0000     -56.382346     -1534.2416
  11   2.0000     -19.215922      -522.8918
  12   2.0000     -14.450713      -393.2239
  13   2.0000     -14.448171      -393.1547
  14   2.0000     -14.447598      -393.1391
  15   2.0000     -14.447026      -393.1236
  16   2.0000     -14.446362      -393.1055
  17   2.0000     -14.438482      -392.8911
  18   2.0000     -14.423608      -392.4863
  19   2.0000     -14.420004      -392.3883
  20   2.0000     -14.411963      -392.1694
  21   2.0000     -14.406090      -392.0096
  22   2.0000     -10.369173      -282.1595
  23   2.0000     -10.352247      -281.6990
  24   2.0000     -10.351492      -281.6784
  25   2.0000     -10.351114      -281.6681
  26   2.0000     -10.350994      -281.6649
  27   2.0000     -10.349084      -281.6129
  28   2.0000     -10.344572      -281.4901
  29   2.0000     -10.343612      -281.4640
  30   2.0000     -10.328719      -281.0587
  31   2.0000     -10.326761      -281.0054
  32   2.0000     -10.325603      -280.9740
  33   2.0000     -10.322288      -280.8837
  34   2.0000     -10.322197      -280.8813
  35   2.0000     -10.316389      -280.7232
  36   2.0000     -10.310045      -280.5506
  37   2.0000     -10.309773      -280.5432
  38   2.0000     -10.308698      -280.5139
  39   2.0000     -10.303870      -280.3826
  40   2.0000     -10.300910      -280.3020
  41   2.0000     -10.300270      -280.2846
  42   2.0000     -10.294393      -280.1247
  43   2.0000     -10.292529      -280.0740
  44   2.0000     -10.291394      -280.0431
  45   2.0000     -10.289529      -279.9923
  46   2.0000     -10.289247      -279.9846
  47   2.0000     -10.287679      -279.9420
  48   2.0000     -10.284249      -279.8486
  49   2.0000     -10.280586      -279.7490
  50   2.0000     -10.279838      -279.7286
  51   2.0000     -10.276385      -279.6346
  52   2.0000     -10.272730      -279.5352
  53   2.0000     -10.271010      -279.4884
  54   2.0000     -10.261118      -279.2192
  55   2.0000     -10.256379      -279.0902
  56   2.0000     -10.254309      -279.0339
  57   2.0000     -10.253925      -279.0235
  58   2.0000     -10.251062      -278.9456
  59   2.0000      -8.782261      -238.9775
  60   2.0000      -8.780439      -238.9279
  61   2.0000      -8.072860      -219.6737
  62   2.0000      -6.618379      -180.0953
  63   2.0000      -6.616580      -180.0463
  64   2.0000      -6.604415      -179.7153
  65   2.0000      -6.603579      -179.6925
  66   2.0000      -6.602540      -179.6642
  67   2.0000      -6.601787      -179.6437
  68   2.0000      -6.041415      -164.3953
  69   2.0000      -6.038232      -164.3086
  70   2.0000      -6.035282      -164.2284
  71   2.0000      -2.734279       -74.4035
  72   2.0000      -2.732527       -74.3558
  73   2.0000      -2.730541       -74.3018
  74   2.0000      -2.729921       -74.2849
  75   2.0000      -2.728686       -74.2513
  76   2.0000      -2.728102       -74.2354
  77   2.0000      -2.718794       -73.9821
  78   2.0000      -2.718778       -73.9817
  79   2.0000      -2.716937       -73.9316
  80   2.0000      -2.716930       -73.9314
  81   2.0000      -1.150393       -31.3038
  82   2.0000      -1.132720       -30.8229
  83   2.0000      -1.088506       -29.6198
  84   2.0000      -1.078605       -29.3503
  85   2.0000      -1.076144       -29.2834
  86   2.0000      -1.043688       -28.4002
  87   2.0000      -1.042544       -28.3691
  88   2.0000      -1.026582       -27.9347
  89   2.0000      -1.010167       -27.4880
  90   2.0000      -0.999625       -27.2012
  91   2.0000      -0.978949       -26.6385
  92   2.0000      -0.978740       -26.6329
  93   2.0000      -0.952154       -25.9094
  94   2.0000      -0.934566       -25.4308
  95   2.0000      -0.920117       -25.0376
  96   2.0000      -0.912104       -24.8196
  97   2.0000      -0.910523       -24.7766
  98   2.0000      -0.896345       -24.3908
  99   2.0000      -0.890091       -24.2206
 100   2.0000      -0.878364       -23.9015
 101   2.0000      -0.868464       -23.6321
 102   2.0000      -0.858820       -23.3697
 103   2.0000      -0.853826       -23.2338
 104   2.0000      -0.852318       -23.1928
 105   2.0000      -0.850934       -23.1551
 106   2.0000      -0.844460       -22.9789
 107   2.0000      -0.836216       -22.7546
 108   2.0000      -0.805429       -21.9168
 109   2.0000      -0.786551       -21.4031
 110   2.0000      -0.781704       -21.2712
 111   2.0000      -0.767031       -20.8720
 112   2.0000      -0.750287       -20.4163
 113   2.0000      -0.743349       -20.2276
 114   2.0000      -0.727894       -19.8070
 115   2.0000      -0.726540       -19.7701
 116   2.0000      -0.707721       -19.2581
 117   2.0000      -0.697800       -18.9881
 118   2.0000      -0.693408       -18.8686
 119   2.0000      -0.690259       -18.7829
 120   2.0000      -0.683818       -18.6076
 121   2.0000      -0.682653       -18.5759
 122   2.0000      -0.678377       -18.4596
 123   2.0000      -0.669265       -18.2116
 124   2.0000      -0.661387       -17.9973
 125   2.0000      -0.653022       -17.7696
 126   2.0000      -0.640190       -17.4205
 127   2.0000      -0.634415       -17.2633
 128   2.0000      -0.622432       -16.9372
 129   2.0000      -0.618910       -16.8414
 130   2.0000      -0.616938       -16.7877
 131   2.0000      -0.604845       -16.4587
 132   2.0000      -0.600389       -16.3374
 133   2.0000      -0.591956       -16.1079
 134   2.0000      -0.579612       -15.7720
 135   2.0000      -0.576784       -15.6951
 136   2.0000      -0.571388       -15.5483
 137   2.0000      -0.555962       -15.1285
 138   2.0000      -0.553918       -15.0729
 139   2.0000      -0.551417       -15.0048
 140   2.0000      -0.549433       -14.9508
 141   2.0000      -0.544219       -14.8090
 142   2.0000      -0.539349       -14.6764
 143   2.0000      -0.537129       -14.6160
 144   2.0000      -0.535391       -14.5687
 145   2.0000      -0.530769       -14.4430
 146   2.0000      -0.523664       -14.2496
 147   2.0000      -0.522869       -14.2280
 148   2.0000      -0.520477       -14.1629
 149   2.0000      -0.519180       -14.1276
 150   2.0000      -0.514872       -14.0104
 151   2.0000      -0.511649       -13.9227
 152   2.0000      -0.508632       -13.8406
 153   2.0000      -0.505570       -13.7572
 154   2.0000      -0.503598       -13.7036
 155   2.0000      -0.502579       -13.6759
 156   2.0000      -0.499303       -13.5867
 157   2.0000      -0.490272       -13.3410
 158   2.0000      -0.489461       -13.3189
 159   2.0000      -0.487148       -13.2560
 160   2.0000      -0.483882       -13.1671
 161   2.0000      -0.474823       -12.9206
 162   2.0000      -0.473869       -12.8946
 163   2.0000      -0.467801       -12.7295
 164   2.0000      -0.466573       -12.6961
 165   2.0000      -0.461529       -12.5588
 166   2.0000      -0.460296       -12.5253
 167   2.0000      -0.458811       -12.4849
 168   2.0000      -0.454425       -12.3655
 169   2.0000      -0.448183       -12.1957
 170   2.0000      -0.442474       -12.0403
 171   2.0000      -0.438112       -11.9216
 172   2.0000      -0.434985       -11.8365
 173   2.0000      -0.433247       -11.7893
 174   2.0000      -0.431107       -11.7310
 175   2.0000      -0.429910       -11.6984
 176   2.0000      -0.427575       -11.6349
 177   2.0000      -0.425809       -11.5868
 178   2.0000      -0.414281       -11.2732
 179   2.0000      -0.405250       -11.0274
 180   2.0000      -0.398437       -10.8420
 181   2.0000      -0.395835       -10.7712
 182   2.0000      -0.395816       -10.7707
 183   2.0000      -0.388408       -10.5691
 184   2.0000      -0.384403       -10.4601
 185   2.0000      -0.383307       -10.4303
 186   2.0000      -0.379810       -10.3352
 187   2.0000      -0.374034       -10.1780
 188   2.0000      -0.370240       -10.0748
 189   2.0000      -0.347677        -9.4608
 190   2.0000      -0.346332        -9.4242
 191   2.0000      -0.340223        -9.2579
 192   2.0000      -0.337518        -9.1843
 193   2.0000      -0.328768        -8.9462
 194   2.0000      -0.321639        -8.7522
 195   2.0000      -0.315279        -8.5792
 196   2.0000      -0.313851        -8.5403
 197   2.0000      -0.308198        -8.3865
 198   2.0000      -0.285766        -7.7761
 199   2.0000      -0.280685        -7.6378
 200   2.0000      -0.279372        -7.6021
 201   2.0000      -0.246677        -6.7124
 202   2.0000      -0.202522        -5.5109
 203   0.0000      -0.103794        -2.8244
 204   0.0000      -0.069377        -1.8878
 205   0.0000      -0.052676        -1.4334
 206   0.0000      -0.022075        -0.6007
 207   0.0000      -0.003085        -0.0839

MULLIKEN ATOMIC CHARGES
-----------------------
   0 C :    0.140182
   1 O :   -0.090587
   2 C :   -0.025211
   3 C :    0.035437
   4 C :   -0.006327
   5 C :   -0.025129
   6 C :   -0.013824
   7 C :   -0.016682
   8 Br:    0.015422
   9 Br:    0.020109
  10 C :    0.306601
  11 C :   -0.342553
  12 C :   -0.185961
  13 N :    0.158333
  14 C :   -0.186725
  15 N :    0.158782
  16 C :   -0.071662
  17 C :    0.061539
  18 C :   -0.150678
  19 S :    0.106921
  20 C :   -0.074460
  21 N :   -0.065035
  22 N :    0.021824
  23 C :    0.046484
  24 C :    0.026726
  25 C :    0.004358
  26 C :    0.037124
  27 N :   -0.042493
  28 C :   -0.100533
  29 N :   -0.092389
  30 C :    0.049411
  31 C :    0.117368
  32 N :   -0.015035
  33 C :    0.128573
  34 C :   -0.189065
  35 C :    0.123186
  36 N :   -0.039431
  37 C :    0.115635
  38 C :   -0.163912
  39 C :   -0.015979
  40 C :    0.005608
  41 C :    0.105546
  42 N :   -0.039709
  43 C :    0.098208
  44 C :   -0.167077
  45 C :    0.085882
  46 N :   -0.039638
  47 C :    0.110011
  48 C :   -0.179311
  49 C :    0.003224
  50 C :   -0.030187
  51 H :    0.005980
  52 H :    0.007725
  53 H :    0.016274
  54 H :   -0.011921
  55 H :    0.022058
  56 H :    0.006437
  57 H :   -0.000802
  58 H :    0.122912
  59 H :   -0.042511
  60 H :    0.118975
  61 H :   -0.027115
  62 H :   -0.039438
  63 H :   -0.036681
  64 H :    0.116400
  65 H :   -0.044081
  66 H :    0.115945
  67 H :   -0.044572
  68 H :   -0.029103
  69 H :    0.011292
  70 H :    0.019326
Sum of atomic charges:   -0.0000000

LOEWDIN ATOMIC CHARGES
----------------------
   0 C :    0.075032
   1 O :   -0.097968
   2 C :   -0.038470
   3 C :   -0.015544
   4 C :   -0.006658
   5 C :   -0.119935
   6 C :   -0.120816
   7 C :    0.006631
   8 Br:    0.138504
   9 Br:    0.139589
  10 C :    0.073684
  11 C :   -0.131042
  12 C :   -0.019017
  13 N :   -0.043059
  14 C :   -0.021880
  15 N :   -0.044277
  16 C :   -0.071886
  17 C :    0.037868
  18 C :   -0.172047
  19 S :    0.392630
  20 C :   -0.124152
  21 N :   -0.083932
  22 N :   -0.015407
  23 C :   -0.081046
  24 C :    0.045118
  25 C :   -0.108393
  26 C :    0.061271
  27 N :   -0.086973
  28 C :    0.033515
  29 N :   -0.105824
  30 C :    0.064794
  31 C :   -0.034629
  32 N :    0.081941
  33 C :   -0.003482
  34 C :   -0.112541
  35 C :    0.016296
  36 N :    0.066074
  37 C :   -0.030915
  38 C :   -0.056429
  39 C :   -0.052050
  40 C :   -0.024774
  41 C :   -0.010947
  42 N :    0.068325
  43 C :   -0.024611
  44 C :   -0.099162
  45 C :   -0.007689
  46 N :    0.067735
  47 C :   -0.028463
  48 C :   -0.097188
  49 C :   -0.035640
  50 C :   -0.053537
  51 H :    0.044069
  52 H :    0.046887
  53 H :    0.045802
  54 H :    0.028354
  55 H :    0.042350
  56 H :    0.026698
  57 H :    0.022154
  58 H :    0.086919
  59 H :    0.019710
  60 H :    0.087641
  61 H :    0.029679
  62 H :    0.023806
  63 H :    0.025415
  64 H :    0.086331
  65 H :    0.021042
  66 H :    0.086144
  67 H :    0.019013
  68 H :    0.025202
  69 H :    0.020521
  70 H :    0.023637

  Mayer bond orders larger than 0.100000
B(  0-C ,  1-O ) :   2.2990 B(  0-C ,  2-C ) :   0.9307 B(  0-C , 16-C ) :   0.9146
B(  2-C ,  3-C ) :   1.3309 B(  2-C ,  7-C ) :   1.3749 B(  3-C ,  4-C ) :   1.3585
B(  3-C , 10-C ) :   0.9948 B(  4-C ,  5-C ) :   1.3776 B(  4-C , 51-H ) :   0.9791
B(  5-C ,  6-C ) :   1.4175 B(  5-C ,  9-Br) :   1.0570 B(  6-C ,  7-C ) :   1.3538
B(  6-C ,  8-Br) :   1.0343 B(  7-C , 52-H ) :   1.0083 B( 10-C , 11-C ) :   1.6382
B( 10-C , 16-C ) :   1.0787 B( 11-C , 12-C ) :   1.1422 B( 11-C , 14-C ) :   1.1419
B( 12-C , 13-N ) :   2.9678 B( 14-C , 15-N ) :   2.9681 B( 16-C , 17-C ) :   1.6490
B( 17-C , 18-C ) :   1.1614 B( 17-C , 53-H ) :   0.9145 B( 18-C , 19-S ) :   1.0573
B( 18-C , 22-N ) :   1.6264 B( 19-S , 20-C ) :   1.1295 B( 19-S , 22-N ) :   0.1100
B( 20-C , 21-N ) :   1.5908 B( 20-C , 23-C ) :   1.1334 B( 21-N , 22-N ) :   1.2836
B( 23-C , 24-C ) :   1.6796 B( 23-C , 54-H ) :   0.9461 B( 24-C , 25-C ) :   1.0887
B( 24-C , 55-H ) :   0.9815 B( 25-C , 26-C ) :   1.2653 B( 25-C , 30-C ) :   1.2823
B( 26-C , 27-N ) :   1.6136 B( 26-C , 56-H ) :   0.9876 B( 27-N , 28-C ) :   1.5769
B( 27-N , 31-C ) :  -0.1111 B( 28-C , 29-N ) :   1.4577 B( 28-C , 31-C ) :   1.0649
B( 29-N , 30-C ) :   1.6131 B( 30-C , 57-H ) :   0.9789 B( 31-C , 32-N ) :   1.2051
B( 31-C , 38-C ) :   1.3711 B( 32-N , 33-C ) :   1.1942 B( 32-N , 58-H ) :   0.9223
B( 33-C , 34-C ) :   1.2525 B( 33-C , 37-C ) :   1.2861 B( 34-C , 35-C ) :   1.4041
B( 34-C , 59-H ) :   1.0311 B( 35-C , 36-N ) :   1.1864 B( 35-C , 39-C ) :   1.1017
B( 36-N , 37-C ) :   1.1432 B( 36-N , 60-H ) :   0.9371 B( 37-C , 38-C ) :   1.2643
B( 38-C , 61-H ) :   1.0429 B( 39-C , 40-C ) :   1.6766 B( 39-C , 62-H ) :   0.9656
B( 40-C , 41-C ) :   1.1110 B( 40-C , 63-H ) :   0.9652 B( 41-C , 42-N ) :   1.1677
B( 41-C , 48-C ) :   1.4078 B( 42-N , 43-C ) :   1.1659 B( 42-N , 64-H ) :   0.9382
B( 43-C , 44-C ) :   1.2509 B( 43-C , 47-C ) :   1.3281 B( 44-C , 45-C ) :   1.4391
B( 44-C , 65-H ) :   1.0307 B( 45-C , 46-N ) :   1.1741 B( 45-C , 49-C ) :   1.0876
B( 46-N , 47-C ) :   1.1609 B( 46-N , 66-H ) :   0.9384 B( 47-C , 48-C ) :   1.2557
B( 48-C , 67-H ) :   1.0295 B( 49-C , 50-C ) :   1.9370 B( 49-C , 68-H ) :   0.9558
B( 50-C , 69-H ) :   0.9544 B( 50-C , 70-H ) :   0.9492

-----------------------------------------------------------------------------
         ABSORPTION SPECTRUM VIA TRANSITION ELECTRIC DIPOLE MOMENTS
-----------------------------------------------------------------------------
State   Energy  Wavelength   fosc         T2         TX        TY        TZ
        (cm-1)    (nm)                  (au**2)     (au)      (au)      (au)
-----------------------------------------------------------------------------
   0   13152.1    760.3   1.419550322  35.53291   4.12749   4.10604   1.27950
   1   19501.6    512.8   1.546760118  26.11124   3.63702   3.48950   0.84065
   2   20924.0    477.9   0.024660203   0.38800  -0.12377  -0.17538  -0.58474
   3   21947.9    455.6   0.088167326   1.32248   0.60604   0.85697   0.46988
   4   23180.2    431.4   0.250548827   3.55836  -1.39825  -1.23628  -0.27361
   5   25945.9    385.4   0.098320710   1.24753   0.73738   0.76391   0.34676
   6   26894.6    371.8   0.242984178   2.97433  -1.27738  -1.14189   0.19680
   7   27376.5    365.3   0.138462297   1.66506   0.93029   0.84285   0.29868
   8   28098.1    355.9   0.078933977   0.92483  -0.27394  -0.39082  -0.83489
   9   28524.5    350.6   0.141148427   1.62905   0.66413   0.47543  -0.98079
  10   28976.3    345.1   0.119387640   1.35641  -0.74263  -0.88211   0.16371
  11   29395.5    340.2   0.068098124   0.76266   0.67222   0.55331  -0.06798
  12   29706.6    336.6   0.009359199   0.10372  -0.06002   0.12937   0.28876
  13   30994.4    322.6   0.051821649   0.55043   0.15156   0.13126  -0.71431
  14   31205.1    320.5   0.000253898   0.00268  -0.01443  -0.04933  -0.00609
  15   32174.9    310.8   0.008658182   0.08859  -0.10081  -0.20642   0.18925
  16   32512.5    307.6   0.038885904   0.39375   0.37913   0.22168  -0.44818
  17   33890.4    295.1   0.066843462   0.64932  -0.38350  -0.44649   0.55036
  18   34123.9    293.0   0.037383644   0.36066   0.34890   0.34626  -0.34500
  19   34324.4    291.3   0.116823395   1.12048   0.77367   0.46663  -0.55151
  20   34503.2    289.8   0.015502621   0.14792  -0.35473  -0.07660  -0.12736
  21   34837.9    287.0   0.285959465   2.70227  -0.77712  -0.54820   1.34083
  22   35710.6    280.0   0.299225782   2.75853   0.52081   0.59586   1.46022
  23   35850.3    278.9   0.122241976   1.12254   0.17875   0.45560   0.93969
  24   36695.6    272.5   0.001733024   0.01555   0.03949   0.03310   0.11355
  25   37097.1    269.6   0.062587421   0.55542   0.55368   0.20359  -0.45543
  26   37216.3    268.7   0.044888817   0.39708   0.52632   0.26414  -0.22427
  27   37413.8    267.3   0.045160794   0.39738   0.31134   0.35137  -0.42069
  28   37947.6    263.5   0.021864170   0.18968   0.24784   0.28569   0.21595
  29   38775.9    257.9   0.024077487   0.20442  -0.28792  -0.33280  -0.10375
  30   39253.9    254.8   0.165761533   1.39020  -0.92935  -0.67767   0.25934
  31   39346.1    254.2   0.002173817   0.01819   0.12446   0.03548  -0.03794
  32   39677.7    252.0   0.018070945   0.14994  -0.05731  -0.21221  -0.31878
  33   40001.0    250.0   0.072198431   0.59420  -0.60288  -0.46460  -0.12201

FINAL SINGLE POINT ENERGY     -7588.023671579635

DIPOLE MOMENT
-------------
                                X             Y             Z
Electronic contribution:    269.63313     254.66261       4.83387
Nuclear contribution   :   -272.68018    -257.24996      -6.33878
                        -----------------------------------------
Total Dipole Moment    :     -3.04704      -2.58735      -1.50491
                        -----------------------------------------
Magnitude (a.u.)       :      4.27125
Magnitude (Debye)      :     10.85666

Rotational constants in cm-1:     0.005767     0.000193     0.000187
Rotational constants in MHz :   172.898346     5.794646     5.613366

                             ****ORCA TERMINATED NORMALLY****
TOTAL RUN TIME: 0 days 0 hours 4 minutes 44 seconds 735 msec
