                         Program Version 4.2.0 -  RELEASE  -
|  1> # ORCA input file
|  2> # SCF done       -150.086321504683          0.000765013529
|  3> ! CAM-B3LYP def2-SVP def2/J RIJCOSX Grid4 TightSCF
|  4> %maxcore 5000
|  5> %tddft
|  6>     Mode sTDDFT
|  7>     Ethresh 5.0
|  8>     maxcore 5000
|  9> end
| 10>
| 11> %pal
| 12>   nprocs 6
| 13>   end
| 14> * xyz 0 1
| 15>    C        1.49197         0.15710        -3.32547
| 16>    C        0.39792         0.82660        -3.78065
| 17>    S       -0.72923        -0.25055        -4.51875
| 18>    C        0.28874        -1.63711        -4.20298
| 19>   Cl       -0.17077        -3.19559        -4.67686
| 20>    C        1.43186        -1.25408        -3.56857
| 21>    C        2.63140        -1.90643        -3.03363
| 22>    O        2.85378        -3.08825        -2.91819
| 23>    C        3.46150        -0.77870        -2.50033
| 24>    C        2.73768         0.47422        -2.65805
| 25>    C        3.15149         1.73247        -2.31842
| 26>    C        2.34328         2.86374        -2.56134
| 27>    N        1.69633         3.79275        -2.74640
| 28>    C        4.38752         2.04850        -1.71912
| 29>    N        5.38223         2.36402        -1.24147
| 30>    C        4.64409        -0.96315        -1.87008
| 31>    N        5.35407        -2.13188        -1.96992
| 32>    C        5.53594        -2.87142        -3.17951
| 33>    O        5.13569        -2.51062        -4.25114
| 34>    C        6.39169        -3.99074        -2.81094
| 35>    C        6.77389        -3.88784        -1.51054
| 36>    C        6.13167        -2.66012        -0.94320
| 37>    O        6.21468        -2.18174         0.15776
| 38>    C        7.64993        -4.74811        -0.79716
| 39>    C        7.99573        -4.55527         0.50356
| 40>    C        8.91784        -5.38510         1.18633
| 41>    N        9.26410        -5.20863         2.50630
| 42>    C        8.69337        -4.25072         3.42360
| 43>    C        7.30435        -4.67302         3.89455
| 44>    C       10.23624        -6.12932         2.92484
| 45>    O       10.69637        -6.15993         4.04957
| 46>    C       10.50334        -6.92811         1.74774
| 47>    C        9.67310        -6.45321         0.70256
| 48>    C        9.95066        -7.24255        -0.47824
| 49>    O        9.48948        -7.22120        -1.60151
| 50>    N       10.94263        -8.14956        -0.06449
| 51>    C       11.52598        -9.08728        -0.99368
| 52>    C       12.86299        -8.58976        -1.53825
| 53>    C       11.29014        -7.96774         1.25289
| 54>    C       12.28991        -8.72983         1.91517
| 55>    C       12.61921        -8.52242         3.21119
| 56>    C       13.65282        -9.22394         3.92077
| 57>    C       14.27267       -10.40955         3.49373
| 58>    N       15.25855       -10.97263         4.15263
| 59>    C       15.64917       -10.40285         5.28957
| 60>    N       15.09420        -9.31756         5.82402
| 61>    C       14.12846        -8.73770         5.15243
| 62>    C       16.77150       -11.02122         6.01223
| 63>    N       17.38100       -10.28024         6.93231
| 64>    C       18.39092       -10.84254         7.57093
| 65>    C       18.81169       -12.13634         7.31062
| 66>    C       18.10907       -12.83860         6.32414
| 67>    N       17.09159       -12.26330         5.68599
| 68>    C       18.40232       -14.20714         5.91385
| 69>    C       19.36206       -14.97957         6.40716
| 70>    H        0.17257         1.87357        -3.73310
| 71>    H        5.10083        -0.20374        -1.24568
| 72>    H        6.68830        -4.74442        -3.51583
| 73>    H        8.05929        -5.58372        -1.35056
| 74>    H        7.56942        -3.72418         1.04548
| 75>    H        8.65824        -3.26541         2.95131
| 76>    H        9.37559        -4.20982         4.27731
| 77>    H        6.61274        -4.74226         3.05809
| 78>    H        6.92153        -3.94344         4.60242
| 79>    H        7.35497        -5.64172         4.38611
| 80>    H       10.81069        -9.18357        -1.81525
| 81>    H       11.63783       -10.06104        -0.50940
| 82>    H       12.72256        -7.64474        -2.05698
| 83>    H       13.26647        -9.31423        -2.24008
| 84>    H       13.58248        -8.43985        -0.73620
| 85>    H       12.80433        -9.48257         1.33593
| 86>    H       12.10480        -7.75093         3.77031
| 87>    H       13.95318       -10.93129         2.60009
| 88>    H       13.70682        -7.84189         5.59215
| 89>    H       18.87789       -10.22542         8.31565
| 90>    H       19.63904       -12.57286         7.84415
| 91>    H       17.74437       -14.56771         5.13569
| 92>    H       20.03442       -14.65339         7.18291
| 93>    H       19.51081       -15.98302         6.04709
| 94> *
| 95>
| 96>                          ****END OF INPUT****

CARTESIAN COORDINATES (ANGSTROEM)
---------------------------------
  C      1.491970    0.157100   -3.325470
  C      0.397920    0.826600   -3.780650
  S     -0.729230   -0.250550   -4.518750
  C      0.288740   -1.637110   -4.202980
  Cl    -0.170770   -3.195590   -4.676860
  C      1.431860   -1.254080   -3.568570
  C      2.631400   -1.906430   -3.033630
  O      2.853780   -3.088250   -2.918190
  C      3.461500   -0.778700   -2.500330
  C      2.737680    0.474220   -2.658050
  C      3.151490    1.732470   -2.318420
  C      2.343280    2.863740   -2.561340
  N      1.696330    3.792750   -2.746400
  C      4.387520    2.048500   -1.719120
  N      5.382230    2.364020   -1.241470
  C      4.644090   -0.963150   -1.870080
  N      5.354070   -2.131880   -1.969920
  C      5.535940   -2.871420   -3.179510
  O      5.135690   -2.510620   -4.251140
  C      6.391690   -3.990740   -2.810940
  C      6.773890   -3.887840   -1.510540
  C      6.131670   -2.660120   -0.943200
  O      6.214680   -2.181740    0.157760
  C      7.649930   -4.748110   -0.797160
  C      7.995730   -4.555270    0.503560
  C      8.917840   -5.385100    1.186330
  N      9.264100   -5.208630    2.506300
  C      8.693370   -4.250720    3.423600
  C      7.304350   -4.673020    3.894550
  C     10.236240   -6.129320    2.924840
  O     10.696370   -6.159930    4.049570
  C     10.503340   -6.928110    1.747740
  C      9.673100   -6.453210    0.702560
  C      9.950660   -7.242550   -0.478240
  O      9.489480   -7.221200   -1.601510
  N     10.942630   -8.149560   -0.064490
  C     11.525980   -9.087280   -0.993680
  C     12.862990   -8.589760   -1.538250
  C     11.290140   -7.967740    1.252890
  C     12.289910   -8.729830    1.915170
  C     12.619210   -8.522420    3.211190
  C     13.652820   -9.223940    3.920770
  C     14.272670  -10.409550    3.493730
  N     15.258550  -10.972630    4.152630
  C     15.649170  -10.402850    5.289570
  N     15.094200   -9.317560    5.824020
  C     14.128460   -8.737700    5.152430
  C     16.771500  -11.021220    6.012230
  N     17.381000  -10.280240    6.932310
  C     18.390920  -10.842540    7.570930
  C     18.811690  -12.136340    7.310620
  C     18.109070  -12.838600    6.324140
  N     17.091590  -12.263300    5.685990
  C     18.402320  -14.207140    5.913850
  C     19.362060  -14.979570    6.407160
  H      0.172570    1.873570   -3.733100
  H      5.100830   -0.203740   -1.245680
  H      6.688300   -4.744420   -3.515830
  H      8.059290   -5.583720   -1.350560
  H      7.569420   -3.724180    1.045480
  H      8.658240   -3.265410    2.951310
  H      9.375590   -4.209820    4.277310
  H      6.612740   -4.742260    3.058090
  H      6.921530   -3.943440    4.602420
  H      7.354970   -5.641720    4.386110
  H     10.810690   -9.183570   -1.815250
  H     11.637830  -10.061040   -0.509400
  H     12.722560   -7.644740   -2.056980
  H     13.266470   -9.314230   -2.240080
  H     13.582480   -8.439850   -0.736200
  H     12.804330   -9.482570    1.335930
  H     12.104800   -7.750930    3.770310
  H     13.953180  -10.931290    2.600090
  H     13.706820   -7.841890    5.592150
  H     18.877890  -10.225420    8.315650
  H     19.639040  -12.572860    7.844150
  H     17.744370  -14.567710    5.135690
  H     20.034420  -14.653390    7.182910
  H     19.510810  -15.983020    6.047090

 Total Charge           Charge          ....    0
 Multiplicity           Mult            ....    1
 Number of Electrons    NEL             ....  394
 Basis Dimension        Dim             ....  898

ORBITAL ENERGIES
----------------

  NO   OCC          E(Eh)            E(eV)
   0   2.0000    -101.615563     -2765.1000
   1   2.0000     -88.992391     -2421.6061
   2   2.0000     -19.240246      -523.5537
   3   2.0000     -19.228515      -523.2345
   4   2.0000     -19.219621      -522.9925
   5   2.0000     -19.203649      -522.5579
   6   2.0000     -19.193779      -522.2893
   7   2.0000     -14.483389      -394.1131
   8   2.0000     -14.462687      -393.5497
   9   2.0000     -14.457598      -393.4112
  10   2.0000     -14.420690      -392.4069
  11   2.0000     -14.419414      -392.3722
  12   2.0000     -14.412169      -392.1751
  13   2.0000     -14.410082      -392.1183
  14   2.0000     -14.404609      -391.9693
  15   2.0000     -14.403821      -391.9479
  16   2.0000     -10.416893      -283.4581
  17   2.0000     -10.407728      -283.2087
  18   2.0000     -10.384764      -282.5838
  19   2.0000     -10.377688      -282.3913
  20   2.0000     -10.377236      -282.3790
  21   2.0000     -10.374450      -282.3031
  22   2.0000     -10.358576      -281.8712
  23   2.0000     -10.350039      -281.6389
  24   2.0000     -10.349559      -281.6258
  25   2.0000     -10.347714      -281.5756
  26   2.0000     -10.342065      -281.4219
  27   2.0000     -10.341645      -281.4105
  28   2.0000     -10.335961      -281.2558
  29   2.0000     -10.328970      -281.0656
  30   2.0000     -10.326767      -281.0056
  31   2.0000     -10.324949      -280.9561
  32   2.0000     -10.324237      -280.9368
  33   2.0000     -10.322997      -280.9030
  34   2.0000     -10.322491      -280.8893
  35   2.0000     -10.321488      -280.8620
  36   2.0000     -10.316735      -280.7326
  37   2.0000     -10.316636      -280.7299
  38   2.0000     -10.312002      -280.6039
  39   2.0000     -10.309137      -280.5259
  40   2.0000     -10.308969      -280.5213
  41   2.0000     -10.307221      -280.4738
  42   2.0000     -10.302681      -280.3502
  43   2.0000     -10.301149      -280.3085
  44   2.0000     -10.299442      -280.2621
  45   2.0000     -10.298693      -280.2417
  46   2.0000     -10.298474      -280.2357
  47   2.0000     -10.298147      -280.2268
  48   2.0000     -10.285118      -279.8723
  49   2.0000     -10.277873      -279.6751
  50   2.0000     -10.276078      -279.6263
  51   2.0000     -10.271749      -279.5085
  52   2.0000     -10.270793      -279.4825
  53   2.0000     -10.266992      -279.3791
  54   2.0000     -10.263946      -279.2962
  55   2.0000      -9.570357      -260.4226
  56   2.0000      -8.088123      -220.0890
  57   2.0000      -7.340959      -199.7576
  58   2.0000      -7.330414      -199.4707
  59   2.0000      -7.329880      -199.4562
  60   2.0000      -6.057507      -164.8332
  61   2.0000      -6.052901      -164.7078
  62   2.0000      -6.050362      -164.6387
  63   2.0000      -1.182987       -32.1907
  64   2.0000      -1.157243       -31.4902
  65   2.0000      -1.142900       -31.0999
  66   2.0000      -1.135297       -30.8930
  67   2.0000      -1.132908       -30.8280
  68   2.0000      -1.094569       -29.7847
  69   2.0000      -1.075402       -29.2632
  70   2.0000      -1.072163       -29.1750
  71   2.0000      -1.071071       -29.1453
  72   2.0000      -1.061865       -28.8948
  73   2.0000      -1.037024       -28.2189
  74   2.0000      -1.016992       -27.6738
  75   2.0000      -0.998603       -27.1734
  76   2.0000      -0.987980       -26.8843
  77   2.0000      -0.984522       -26.7902
  78   2.0000      -0.972855       -26.4727
  79   2.0000      -0.964109       -26.2347
  80   2.0000      -0.949013       -25.8240
  81   2.0000      -0.938043       -25.5254
  82   2.0000      -0.931356       -25.3435
  83   2.0000      -0.911226       -24.7957
  84   2.0000      -0.904615       -24.6158
  85   2.0000      -0.901918       -24.5424
  86   2.0000      -0.881256       -23.9802
  87   2.0000      -0.871446       -23.7133
  88   2.0000      -0.861595       -23.4452
  89   2.0000      -0.848793       -23.0968
  90   2.0000      -0.831864       -22.6362
  91   2.0000      -0.825661       -22.4674
  92   2.0000      -0.820217       -22.3192
  93   2.0000      -0.803666       -21.8689
  94   2.0000      -0.789541       -21.4845
  95   2.0000      -0.769032       -20.9264
  96   2.0000      -0.765749       -20.8371
  97   2.0000      -0.759760       -20.6741
  98   2.0000      -0.754417       -20.5287
  99   2.0000      -0.753920       -20.5152
 100   2.0000      -0.739077       -20.1113
 101   2.0000      -0.727086       -19.7850
 102   2.0000      -0.720325       -19.6010
 103   2.0000      -0.717027       -19.5113
 104   2.0000      -0.712308       -19.3829
 105   2.0000      -0.703924       -19.1547
 106   2.0000      -0.684866       -18.6362
 107   2.0000      -0.675990       -18.3946
 108   2.0000      -0.669569       -18.2199
 109   2.0000      -0.663136       -18.0448
 110   2.0000      -0.657590       -17.8939
 111   2.0000      -0.653881       -17.7930
 112   2.0000      -0.637752       -17.3541
 113   2.0000      -0.631853       -17.1936
 114   2.0000      -0.621590       -16.9143
 115   2.0000      -0.616519       -16.7763
 116   2.0000      -0.613467       -16.6933
 117   2.0000      -0.609198       -16.5771
 118   2.0000      -0.601789       -16.3755
 119   2.0000      -0.598052       -16.2738
 120   2.0000      -0.588178       -16.0051
 121   2.0000      -0.583443       -15.8763
 122   2.0000      -0.581225       -15.8159
 123   2.0000      -0.578789       -15.7497
 124   2.0000      -0.575869       -15.6702
 125   2.0000      -0.570278       -15.5181
 126   2.0000      -0.560155       -15.2426
 127   2.0000      -0.555443       -15.1144
 128   2.0000      -0.547619       -14.9015
 129   2.0000      -0.546275       -14.8649
 130   2.0000      -0.537962       -14.6387
 131   2.0000      -0.537573       -14.6281
 132   2.0000      -0.536067       -14.5871
 133   2.0000      -0.534799       -14.5526
 134   2.0000      -0.534360       -14.5407
 135   2.0000      -0.531859       -14.4726
 136   2.0000      -0.531070       -14.4511
 137   2.0000      -0.529516       -14.4089
 138   2.0000      -0.528769       -14.3885
 139   2.0000      -0.521390       -14.1878
 140   2.0000      -0.521133       -14.1808
 141   2.0000      -0.519184       -14.1277
 142   2.0000      -0.516248       -14.0478
 143   2.0000      -0.511062       -13.9067
 144   2.0000      -0.509586       -13.8665
 145   2.0000      -0.505396       -13.7525
 146   2.0000      -0.505068       -13.7436
 147   2.0000      -0.503195       -13.6926
 148   2.0000      -0.501322       -13.6417
 149   2.0000      -0.498299       -13.5594
 150   2.0000      -0.493501       -13.4288
 151   2.0000      -0.485685       -13.2162
 152   2.0000      -0.481100       -13.0914
 153   2.0000      -0.480205       -13.0671
 154   2.0000      -0.477214       -12.9857
 155   2.0000      -0.473049       -12.8723
 156   2.0000      -0.470576       -12.8050
 157   2.0000      -0.462287       -12.5795
 158   2.0000      -0.457311       -12.4441
 159   2.0000      -0.456011       -12.4087
 160   2.0000      -0.452758       -12.3202
 161   2.0000      -0.452061       -12.3012
 162   2.0000      -0.450312       -12.2536
 163   2.0000      -0.447098       -12.1661
 164   2.0000      -0.444881       -12.1058
 165   2.0000      -0.443067       -12.0565
 166   2.0000      -0.439016       -11.9462
 167   2.0000      -0.434213       -11.8155
 168   2.0000      -0.434042       -11.8109
 169   2.0000      -0.431957       -11.7541
 170   2.0000      -0.429650       -11.6914
 171   2.0000      -0.421400       -11.4669
 172   2.0000      -0.418364       -11.3843
 173   2.0000      -0.415620       -11.3096
 174   2.0000      -0.406559       -11.0630
 175   2.0000      -0.401698       -10.9308
 176   2.0000      -0.399286       -10.8651
 177   2.0000      -0.396923       -10.8008
 178   2.0000      -0.394307       -10.7296
 179   2.0000      -0.387492       -10.5442
 180   2.0000      -0.379524       -10.3274
 181   2.0000      -0.370672       -10.0865
 182   2.0000      -0.364808        -9.9269
 183   2.0000      -0.361944        -9.8490
 184   2.0000      -0.355445        -9.6722
 185   2.0000      -0.345876        -9.4118
 186   2.0000      -0.340082        -9.2541
 187   2.0000      -0.338619        -9.2143
 188   2.0000      -0.335605        -9.1323
 189   2.0000      -0.331058        -9.0086
 190   2.0000      -0.328269        -8.9326
 191   2.0000      -0.322627        -8.7791
 192   2.0000      -0.322259        -8.7691
 193   2.0000      -0.310822        -8.4579
 194   2.0000      -0.304241        -8.2788
 195   2.0000      -0.304089        -8.2747
 196   2.0000      -0.246164        -6.6985
 197   0.0000      -0.105056        -2.8587
 198   0.0000      -0.087239        -2.3739
 199   0.0000      -0.064776        -1.7627
 200   0.0000      -0.047045        -1.2801
 201   0.0000      -0.031970        -0.8699

MULLIKEN ATOMIC CHARGES
-----------------------
   0 C :    0.025029
   1 C :   -0.127758
   2 S :    0.186833
   3 C :   -0.171467
   4 Cl:    0.000762
   5 C :    0.080765
   6 C :    0.165691
   7 O :   -0.133712
   8 C :   -0.099966
   9 C :    0.297870
  10 C :   -0.320337
  11 C :   -0.194374
  12 N :    0.155616
  13 C :   -0.202006
  14 N :    0.166869
  15 C :    0.082548
  16 N :   -0.248012
  17 C :    0.251010
  18 O :   -0.134578
  19 C :   -0.084258
  20 C :    0.024536
  21 C :    0.223410
  22 O :   -0.152859
  23 C :   -0.015001
  24 C :   -0.009771
  25 C :    0.137001
  26 N :   -0.255279
  27 C :    0.092942
  28 C :    0.003674
  29 C :    0.165412
  30 O :   -0.212412
  31 C :   -0.073160
  32 C :   -0.056660
  33 C :    0.164099
  34 O :   -0.200910
  35 N :   -0.259550
  36 C :    0.096828
  37 C :    0.002594
  38 C :    0.140746
  39 C :   -0.011644
  40 C :    0.025356
  41 C :    0.006071
  42 C :    0.033173
  43 N :   -0.016277
  44 C :   -0.071052
  45 N :   -0.010272
  46 C :    0.037940
  47 C :   -0.070982
  48 N :   -0.030861
  49 C :    0.070444
  50 C :   -0.041699
  51 C :    0.026026
  52 N :   -0.018909
  53 C :    0.034029
  54 C :   -0.002201
  55 H :    0.055090
  56 H :    0.052218
  57 H :    0.023091
  58 H :    0.010288
  59 H :    0.012594
  60 H :    0.034061
  61 H :    0.044695
  62 H :    0.019515
  63 H :    0.028446
  64 H :    0.026300
  65 H :    0.044772
  66 H :    0.025133
  67 H :    0.030561
  68 H :    0.027524
  69 H :    0.018455
  70 H :   -0.024339
  71 H :    0.021853
  72 H :    0.003248
  73 H :    0.020738
  74 H :    0.007017
  75 H :   -0.008489
  76 H :    0.003125
  77 H :    0.018776
  78 H :    0.034024
Sum of atomic charges:   -0.0000000

LOEWDIN ATOMIC CHARGES
----------------------
   0 C :   -0.058935
   1 C :   -0.148134
   2 S :    0.476357
   3 C :   -0.272362
   4 Cl:    0.192956
   5 C :   -0.113272
   6 C :    0.085285
   7 O :   -0.132145
   8 C :   -0.095250
   9 C :    0.078180
  10 C :   -0.134191
  11 C :   -0.015322
  12 N :   -0.050132
  13 C :   -0.024028
  14 N :   -0.042415
  15 C :    0.123466
  16 N :   -0.019567
  17 C :    0.099035
  18 O :   -0.118107
  19 C :   -0.010035
  20 C :   -0.024513
  21 C :    0.110451
  22 O :   -0.134695
  23 C :    0.005619
  24 C :   -0.007110
  25 C :    0.063217
  26 N :    0.004170
  27 C :    0.036908
  28 C :   -0.059964
  29 C :    0.078197
  30 O :   -0.203955
  31 C :   -0.125547
  32 C :   -0.106907
  33 C :    0.083893
  34 O :   -0.191760
  35 N :    0.000438
  36 C :    0.036462
  37 C :   -0.060889
  38 C :    0.086848
  39 C :   -0.050271
  40 C :    0.043806
  41 C :   -0.077388
  42 C :    0.055683
  43 N :   -0.055637
  44 C :    0.020360
  45 N :   -0.053073
  46 C :    0.060964
  47 C :    0.007420
  48 N :   -0.064769
  49 C :    0.045874
  50 C :   -0.050811
  51 C :    0.032350
  52 N :   -0.063283
  53 C :   -0.026093
  54 C :   -0.018549
  55 H :    0.038105
  56 H :    0.044441
  57 H :    0.047781
  58 H :    0.040105
  59 H :    0.035604
  60 H :    0.027349
  61 H :    0.038076
  62 H :    0.023758
  63 H :    0.033122
  64 H :    0.030961
  65 H :    0.038416
  66 H :    0.023893
  67 H :    0.032880
  68 H :    0.032223
  69 H :    0.022814
  70 H :    0.027526
  71 H :    0.039902
  72 H :    0.022599
  73 H :    0.032195
  74 H :    0.026482
  75 H :    0.031826
  76 H :    0.037991
  77 H :    0.022074
  78 H :    0.031048

  Mayer bond orders larger than 0.100000
B(  0-C ,  1-C ) :   1.5434 B(  0-C ,  5-C ) :   1.2271 B(  0-C ,  9-C ) :   1.0068
B(  1-C ,  2-S ) :   1.1655 B(  1-C , 55-H ) :   0.9538 B(  2-S ,  3-C ) :   1.1481
B(  3-C ,  4-Cl) :   1.1290 B(  3-C ,  5-C ) :   1.4808 B(  5-C ,  6-C ) :   0.9522
B(  6-C ,  7-O ) :   2.2509 B(  6-C ,  8-C ) :   0.9186 B(  8-C ,  9-C ) :   1.0921
B(  8-C , 15-C ) :   1.6440 B(  9-C , 10-C ) :   1.6659 B( 10-C , 11-C ) :   1.1444
B( 10-C , 13-C ) :   1.1363 B( 11-C , 12-N ) :   2.9928 B( 13-C , 14-N ) :   2.9862
B( 15-C , 16-N ) :   1.0886 B( 15-C , 56-H ) :   0.9486 B( 16-N , 17-C ) :   0.9245
B( 16-N , 21-C ) :   1.0350 B( 17-C , 18-O ) :   2.1869 B( 17-C , 19-C ) :   0.9771
B( 19-C , 20-C ) :   1.6062 B( 19-C , 57-H ) :   1.0272 B( 20-C , 21-C ) :   0.8915
B( 20-C , 23-C ) :   1.1405 B( 21-C , 22-O ) :   2.1467 B( 23-C , 24-C ) :   1.5904
B( 23-C , 58-H ) :   0.9650 B( 24-C , 25-C ) :   1.1346 B( 24-C , 59-H ) :   0.9533
B( 25-C , 26-N ) :   1.1584 B( 25-C , 32-C ) :   1.3486 B( 26-N , 27-C ) :   0.9402
B( 26-N , 29-C ) :   1.0702 B( 27-C , 28-C ) :   1.1233 B( 27-C , 60-H ) :   0.9496
B( 27-C , 61-H ) :   0.9277 B( 28-C , 62-H ) :   0.9680 B( 28-C , 63-H ) :   0.9677
B( 28-C , 64-H ) :   0.9635 B( 29-C , 30-O ) :   2.0205 B( 29-C , 31-C ) :   0.9878
B( 30-O , 71-H ) :   0.1175 B( 31-C , 32-C ) :   1.2601 B( 31-C , 38-C ) :   1.3342
B( 32-C , 33-C ) :   0.9760 B( 33-C , 34-O ) :   2.0409 B( 33-C , 35-N ) :   1.0576
B( 34-O , 58-H ) :   0.1053 B( 35-N , 36-C ) :   0.9431 B( 35-N , 38-C ) :   1.1655
B( 36-C , 37-C ) :   1.1218 B( 36-C , 65-H ) :   0.9283 B( 36-C , 66-H ) :   0.9500
B( 37-C , 67-H ) :   0.9631 B( 37-C , 68-H ) :   0.9678 B( 37-C , 69-H ) :   0.9684
B( 38-C , 39-C ) :   1.1534 B( 39-C , 40-C ) :   1.6282 B( 39-C , 70-H ) :   0.9590
B( 40-C , 41-C ) :   1.0665 B( 40-C , 71-H ) :   0.9557 B( 41-C , 42-C ) :   1.3009
B( 41-C , 46-C ) :   1.2989 B( 42-C , 43-N ) :   1.5882 B( 42-C , 72-H ) :   0.9851
B( 43-N , 44-C ) :   1.5837 B( 44-C , 45-N ) :   1.5890 B( 44-C , 47-C ) :   0.9011
B( 45-N , 46-C ) :   1.5758 B( 46-C , 73-H ) :   0.9888 B( 47-C , 48-N ) :   1.6077
B( 47-C , 52-N ) :   1.6111 B( 48-N , 49-C ) :   1.5387 B( 49-C , 50-C ) :   1.3910
B( 49-C , 74-H ) :   0.9809 B( 50-C , 51-C ) :   1.3519 B( 50-C , 75-H ) :   0.9689
B( 51-C , 52-N ) :   1.5024 B( 51-C , 53-C ) :   1.0650 B( 53-C , 54-C ) :   1.9392
B( 53-C , 76-H ) :   0.9619 B( 54-C , 77-H ) :   0.9490 B( 54-C , 78-H ) :   0.9512

-----------------------------------------------------------------------------
         ABSORPTION SPECTRUM VIA TRANSITION ELECTRIC DIPOLE MOMENTS
-----------------------------------------------------------------------------
State   Energy  Wavelength   fosc         T2         TX        TY        TZ
        (cm-1)    (nm)                  (au**2)     (au)      (au)      (au)
-----------------------------------------------------------------------------
   0   14997.2    666.8   0.767995099  16.85864  -2.85762   2.57280  -1.43991
   1   22874.2    437.2   0.078456946   1.12918  -0.73766   0.76399  -0.03685
   2   23846.7    419.3   0.011921922   0.16459   0.29127  -0.16938  -0.22596
   3   26030.4    384.2   0.002119741   0.02681  -0.10936   0.01947  -0.12029
   4   26304.5    380.2   0.000450177   0.00563  -0.05202   0.00100   0.05410
   5   27235.2    367.2   0.048348311   0.58442   0.48537  -0.46547   0.36355
   6   28231.5    354.2   0.009957043   0.11611  -0.27154   0.17967  -0.10046
   7   28647.3    349.1   0.102582134   1.17886   0.37790  -1.01128   0.11563
   8   30131.7    331.9   0.376778963   4.11660   1.39365  -0.91489   1.15642
   9   30410.5    328.8   0.025285169   0.27373   0.13038   0.50627   0.02051
  10   30506.2    327.8   0.021661725   0.23377  -0.26395  -0.34261  -0.21613
  11   31585.3    316.6   0.543232811   5.66209   1.38295  -0.97650   1.67212
  12   31716.2    315.3   0.005504813   0.05714   0.17052  -0.09538   0.13771
  13   32176.5    310.8   0.156138486   1.59752   0.66262   0.16455   1.06366
  14   32436.5    308.3   0.249811412   2.53544  -0.94912   0.59033  -1.13408
  15   32685.7    305.9   0.086952976   0.87579   0.35928  -0.84985  -0.15640
  16   32950.4    303.5   0.037752851   0.37719   0.47412  -0.31005   0.23721
  17   33824.1    295.6   0.038933825   0.37895  -0.29503  -0.21915  -0.49384
  18   33994.9    294.2   0.006430572   0.06227   0.13290  -0.03468  -0.20835
  19   35090.5    285.0   0.134593519   1.26273   0.75704  -0.19288   0.80772
  20   35160.5    284.4   0.016392921   0.15349   0.08868  -0.11139   0.36499
  21   35640.0    280.6   0.041902085   0.38706   0.54365  -0.28392  -0.10434
  22   36024.3    277.6   0.014235467   0.13009   0.29204   0.14351   0.15560
  23   36043.6    277.4   0.003122819   0.02852   0.06163   0.02286   0.15557
  24   36796.5    271.8   0.005657341   0.05062  -0.21316  -0.01714   0.06990
  25   37060.6    269.8   0.062626322   0.55631  -0.37173   0.02513  -0.64614
  26   37240.3    268.5   0.313619097   2.77246   1.24644   0.72968   0.82850
  27   37490.0    266.7   0.283173090   2.48663   1.30562   0.81838   0.33503
  28   37661.1    265.5   0.021428689   0.18732  -0.02465   0.41758   0.11106
  29   37743.7    264.9   0.013053711   0.11386  -0.25814  -0.18056  -0.12090
  30   37960.0    263.4   0.235312995   2.04077   1.03846   0.67246   0.71426
  31   38193.7    261.8   0.049308563   0.42502  -0.24281   0.05651  -0.60239
  32   38866.4    257.3   0.056599089   0.47941  -0.41882  -0.41317  -0.36509
  33   39677.7    252.0   0.015012771   0.12456   0.19199  -0.17850   0.23631
  34   40019.0    249.9   0.044409445   0.36533   0.40230  -0.42903   0.13935
  35   40082.8    249.5   0.008845137   0.07265   0.12327   0.06857  -0.22968

FINAL SINGLE POINT ENERGY     -3224.633093881963

DIPOLE MOMENT
-------------
                                X             Y             Z
Electronic contribution:    -79.71617      53.54134     -44.49584
Nuclear contribution   :     80.66897     -56.35224      44.58653
                        -----------------------------------------
Total Dipole Moment    :      0.95280      -2.81090       0.09069
                        -----------------------------------------
Magnitude (a.u.)       :      2.96938
Magnitude (Debye)      :      7.54756

Rotational constants in cm-1:     0.004990     0.000331     0.000320
Rotational constants in MHz :   149.608534     9.922865     9.590058

                             ****ORCA TERMINATED NORMALLY****
TOTAL RUN TIME: 0 days 0 hours 5 minutes 15 seconds 777 msec
