                         Program Version 4.2.0 -  RELEASE  -
|  1> # ORCA input file
|  2> # SCF done       -177.098902690018          0.000634452286
|  3> ! CAM-B3LYP def2-SVP def2/J RIJCOSX Grid4 TightSCF
|  4> %maxcore 5000
|  5> %tddft
|  6>     Mode sTDDFT
|  7>     Ethresh 5.0
|  8>     maxcore 5000
|  9> end
| 10>
| 11> %pal
| 12>   nprocs 6
| 13>   end
| 14> * xyz 0 1
| 15>    C        2.67192         7.69422        -8.47007
| 16>    N        2.43452         8.74752        -7.64311
| 17>    C        3.06806        10.03981        -7.71855
| 18>    C        2.45950        10.89821        -8.82465
| 19>    C        1.41261         8.45261        -6.71396
| 20>    O        1.02968         9.24255        -5.87026
| 21>    C        1.03304         7.09848        -7.03009
| 22>    C        1.84299         6.66347        -8.12785
| 23>    C        1.46347         5.30097        -8.44955
| 24>    O        1.85570         4.52248        -9.28929
| 25>    N        0.44119         5.00533        -7.52665
| 26>    C       -0.17411         3.70020        -7.48468
| 27>    C        0.39806         2.83874        -6.36209
| 28>    C        0.18103         6.05923        -6.68042
| 29>    C       -0.81707         6.01459        -5.67123
| 30>    C       -1.05490         7.05809        -4.83719
| 31>    C       -2.05320         7.04505        -3.83057
| 32>    S       -2.25000         8.47087        -2.82632
| 33>    C       -2.97170         6.08601        -3.44533
| 34>    C       -3.36485         4.71793        -3.81861
| 35>    O       -2.93043         3.97900        -4.67327
| 36>    N       -4.40707         4.39295        -2.96338
| 37>    C       -5.06419         3.10383        -2.97292
| 38>    C       -4.34336         2.10937        -2.06935
| 39>    C       -4.73261         5.40321        -2.06028
| 40>    O       -5.60395         5.33104        -1.22949
| 41>    C       -3.80495         6.49377        -2.37952
| 42>    C       -3.56383         7.76487        -1.90608
| 43>    C       -4.23637         8.43414        -0.85329
| 44>    C       -3.91608         9.67443        -0.42201
| 45>    C       -4.58976        10.35493         0.62787
| 46>    O       -5.65334         9.81490         1.26212
| 47>    C       -6.06713        10.69180         2.18534
| 48>    C       -5.29312        11.81236         2.18911
| 49>    C       -4.33298        11.60833         1.17016
| 50>    S       -2.99731        12.64187         0.70322
| 51>    C       -3.75977        14.19557         0.58039
| 52>    C       -5.08901        14.52299         0.59821
| 53>    C       -5.20753        15.92984         0.43261
| 54>    C       -3.83489        16.44903         0.30308
| 55>    C       -2.97635        15.39592         0.39992
| 56>    C       -3.45491        17.78278         0.13202
| 57>    N       -3.11485        18.87131        -0.01264
| 58>    C       -6.37070        16.67131         0.39766
| 59>    C       -6.51027        18.05816         0.14692
| 60>    C       -7.84954        18.40029         0.19138
| 61>    C       -8.60114        17.19301         0.49477
| 62>    C       -7.73533        16.15275         0.61791
| 63>    C       -8.08899        14.84063         0.94375
| 64>    N       -8.40282        13.77191         1.22944
| 65>    C       -8.45670        19.66307        -0.00773
| 66>    C       -7.78147        20.80890        -0.29418
| 67>    C       -8.38063        22.06995        -0.49431
| 68>    S      -10.12687        22.29803        -0.37572
| 69>    C       -7.73008        23.25892        -0.79880
| 70>    C       -8.61056        24.32511        -0.93338
| 71>    C       -8.55066        25.75024        -1.23197
| 72>    S       -7.21927        26.64317        -1.54551
| 73>    C       -9.95406        23.95706        -0.73022
| 74>    C      -10.76333        25.11025        -0.88941
| 75>    S      -12.40819        25.55851        -0.82369
| 76>    C       -9.93105        26.20112        -1.19312
| 77>    C      -10.63790        27.39247        -1.37088
| 78>    C      -11.99633        27.22352        -1.20537
| 79>    C      -13.05915        28.18410        -1.30126
| 80>    C      -12.90296        29.47667        -1.58444
| 81>    H        3.42069         7.75241        -9.23833
| 82>    H        4.14017         9.90293        -7.88704
| 83>    H        2.91399        10.52019        -6.74856
| 84>    H        2.57181        10.41327        -9.79200
| 85>    H        2.95461        11.86461        -8.85792
| 86>    H        1.40055        11.05489        -8.63438
| 87>    H        0.04034         3.23596        -8.45141
| 88>    H       -1.25588         3.80505        -7.37052
| 89>    H        1.47245         2.72597        -6.48727
| 90>    H       -0.06246         1.85539        -6.38678
| 91>    H        0.20224         3.28841        -5.39173
| 92>    H       -1.40544         5.11367        -5.58015
| 93>    H       -0.46863         7.96410        -4.92060
| 94>    H       -5.07108         2.74480        -4.00494
| 95>    H       -6.08832         3.26011        -2.62594
| 96>    H       -3.32179         1.96210        -2.41235
| 97>    H       -4.85993         1.15403        -2.08753
| 98>    H       -4.32427         2.47789        -1.04624
| 99>    H       -5.04476         7.88413        -0.39059
|100>    H       -3.09913        10.21729        -0.87919
|101>    H       -6.91711        10.41960         2.77873
|102>    H       -5.38898        12.66590         2.82695
|103>    H       -5.91391        13.84667         0.68975
|104>    H       -1.90395        15.42581         0.35662
|105>    H       -5.69171        18.71898        -0.05617
|106>    H       -9.66968        17.15055         0.60451
|107>    H       -9.53662        19.70182         0.07591
|108>    H       -6.70400        20.78613        -0.38310
|109>    H       -6.66351        23.32704        -0.91338
|110>    H      -10.17886        28.33394        -1.60839
|111>    H      -14.05075        27.78855        -1.12271
|112>    H      -11.93621        29.91171        -1.76834
|113>    H      -13.74747        30.13983        -1.63977
|114> *
|115>
|116>                          ****END OF INPUT****

CARTESIAN COORDINATES (ANGSTROEM)
---------------------------------
  C      2.671920    7.694220   -8.470070
  N      2.434520    8.747520   -7.643110
  C      3.068060   10.039810   -7.718550
  C      2.459500   10.898210   -8.824650
  C      1.412610    8.452610   -6.713960
  O      1.029680    9.242550   -5.870260
  C      1.033040    7.098480   -7.030090
  C      1.842990    6.663470   -8.127850
  C      1.463470    5.300970   -8.449550
  O      1.855700    4.522480   -9.289290
  N      0.441190    5.005330   -7.526650
  C     -0.174110    3.700200   -7.484680
  C      0.398060    2.838740   -6.362090
  C      0.181030    6.059230   -6.680420
  C     -0.817070    6.014590   -5.671230
  C     -1.054900    7.058090   -4.837190
  C     -2.053200    7.045050   -3.830570
  S     -2.250000    8.470870   -2.826320
  C     -2.971700    6.086010   -3.445330
  C     -3.364850    4.717930   -3.818610
  O     -2.930430    3.979000   -4.673270
  N     -4.407070    4.392950   -2.963380
  C     -5.064190    3.103830   -2.972920
  C     -4.343360    2.109370   -2.069350
  C     -4.732610    5.403210   -2.060280
  O     -5.603950    5.331040   -1.229490
  C     -3.804950    6.493770   -2.379520
  C     -3.563830    7.764870   -1.906080
  C     -4.236370    8.434140   -0.853290
  C     -3.916080    9.674430   -0.422010
  C     -4.589760   10.354930    0.627870
  O     -5.653340    9.814900    1.262120
  C     -6.067130   10.691800    2.185340
  C     -5.293120   11.812360    2.189110
  C     -4.332980   11.608330    1.170160
  S     -2.997310   12.641870    0.703220
  C     -3.759770   14.195570    0.580390
  C     -5.089010   14.522990    0.598210
  C     -5.207530   15.929840    0.432610
  C     -3.834890   16.449030    0.303080
  C     -2.976350   15.395920    0.399920
  C     -3.454910   17.782780    0.132020
  N     -3.114850   18.871310   -0.012640
  C     -6.370700   16.671310    0.397660
  C     -6.510270   18.058160    0.146920
  C     -7.849540   18.400290    0.191380
  C     -8.601140   17.193010    0.494770
  C     -7.735330   16.152750    0.617910
  C     -8.088990   14.840630    0.943750
  N     -8.402820   13.771910    1.229440
  C     -8.456700   19.663070   -0.007730
  C     -7.781470   20.808900   -0.294180
  C     -8.380630   22.069950   -0.494310
  S    -10.126870   22.298030   -0.375720
  C     -7.730080   23.258920   -0.798800
  C     -8.610560   24.325110   -0.933380
  C     -8.550660   25.750240   -1.231970
  S     -7.219270   26.643170   -1.545510
  C     -9.954060   23.957060   -0.730220
  C    -10.763330   25.110250   -0.889410
  S    -12.408190   25.558510   -0.823690
  C     -9.931050   26.201120   -1.193120
  C    -10.637900   27.392470   -1.370880
  C    -11.996330   27.223520   -1.205370
  C    -13.059150   28.184100   -1.301260
  C    -12.902960   29.476670   -1.584440
  H      3.420690    7.752410   -9.238330
  H      4.140170    9.902930   -7.887040
  H      2.913990   10.520190   -6.748560
  H      2.571810   10.413270   -9.792000
  H      2.954610   11.864610   -8.857920
  H      1.400550   11.054890   -8.634380
  H      0.040340    3.235960   -8.451410
  H     -1.255880    3.805050   -7.370520
  H      1.472450    2.725970   -6.487270
  H     -0.062460    1.855390   -6.386780
  H      0.202240    3.288410   -5.391730
  H     -1.405440    5.113670   -5.580150
  H     -0.468630    7.964100   -4.920600
  H     -5.071080    2.744800   -4.004940
  H     -6.088320    3.260110   -2.625940
  H     -3.321790    1.962100   -2.412350
  H     -4.859930    1.154030   -2.087530
  H     -4.324270    2.477890   -1.046240
  H     -5.044760    7.884130   -0.390590
  H     -3.099130   10.217290   -0.879190
  H     -6.917110   10.419600    2.778730
  H     -5.388980   12.665900    2.826950
  H     -5.913910   13.846670    0.689750
  H     -1.903950   15.425810    0.356620
  H     -5.691710   18.718980   -0.056170
  H     -9.669680   17.150550    0.604510
  H     -9.536620   19.701820    0.075910
  H     -6.704000   20.786130   -0.383100
  H     -6.663510   23.327040   -0.913380
  H    -10.178860   28.333940   -1.608390
  H    -14.050750   27.788550   -1.122710
  H    -11.936210   29.911710   -1.768340
  H    -13.747470   30.139830   -1.639770

 Total Charge           Charge          ....    0
 Multiplicity           Mult            ....    1
 Number of Electrons    NEL             ....  494
 Basis Dimension        Dim             .... 1109

ORBITAL ENERGIES
----------------

  NO   OCC          E(Eh)            E(eV)
   0   2.0000     -88.982870     -2421.3470
   1   2.0000     -88.981191     -2421.3013
   2   2.0000     -88.970929     -2421.0221
   3   2.0000     -88.960109     -2420.7276
   4   2.0000     -88.915393     -2419.5108
   5   2.0000     -19.298884      -525.1493
   6   2.0000     -19.213720      -522.8319
   7   2.0000     -19.208367      -522.6862
   8   2.0000     -19.184626      -522.0402
   9   2.0000     -19.178194      -521.8652
  10   2.0000     -14.452266      -393.2661
  11   2.0000     -14.447543      -393.1376
  12   2.0000     -14.442265      -392.9940
  13   2.0000     -14.406507      -392.0210
  14   2.0000     -14.406478      -392.0202
  15   2.0000     -10.395649      -282.8800
  16   2.0000     -10.390372      -282.7364
  17   2.0000     -10.366174      -282.0779
  18   2.0000     -10.364545      -282.0336
  19   2.0000     -10.343700      -281.4664
  20   2.0000     -10.340441      -281.3777
  21   2.0000     -10.333143      -281.1791
  22   2.0000     -10.332647      -281.1656
  23   2.0000     -10.328677      -281.0576
  24   2.0000     -10.327461      -281.0245
  25   2.0000     -10.326673      -281.0030
  26   2.0000     -10.322946      -280.9016
  27   2.0000     -10.321617      -280.8655
  28   2.0000     -10.318429      -280.7787
  29   2.0000     -10.316108      -280.7156
  30   2.0000     -10.315225      -280.6916
  31   2.0000     -10.314866      -280.6818
  32   2.0000     -10.314696      -280.6772
  33   2.0000     -10.313364      -280.6409
  34   2.0000     -10.310721      -280.5690
  35   2.0000     -10.309001      -280.5222
  36   2.0000     -10.308921      -280.5200
  37   2.0000     -10.308296      -280.5030
  38   2.0000     -10.307693      -280.4866
  39   2.0000     -10.305007      -280.4135
  40   2.0000     -10.303902      -280.3834
  41   2.0000     -10.303727      -280.3787
  42   2.0000     -10.300869      -280.3009
  43   2.0000     -10.297022      -280.1962
  44   2.0000     -10.296751      -280.1888
  45   2.0000     -10.296747      -280.1887
  46   2.0000     -10.295035      -280.1421
  47   2.0000     -10.292148      -280.0636
  48   2.0000     -10.291935      -280.0578
  49   2.0000     -10.290629      -280.0223
  50   2.0000     -10.290486      -280.0184
  51   2.0000     -10.289695      -279.9968
  52   2.0000     -10.289492      -279.9913
  53   2.0000     -10.288383      -279.9611
  54   2.0000     -10.288343      -279.9601
  55   2.0000     -10.287846      -279.9465
  56   2.0000     -10.282542      -279.8022
  57   2.0000     -10.278868      -279.7022
  58   2.0000     -10.275396      -279.6078
  59   2.0000     -10.273992      -279.5695
  60   2.0000     -10.271857      -279.5114
  61   2.0000     -10.260719      -279.2084
  62   2.0000     -10.257359      -279.1169
  63   2.0000     -10.252530      -278.9855
  64   2.0000     -10.251943      -278.9695
  65   2.0000     -10.250794      -278.9383
  66   2.0000      -8.077507      -219.8001
  67   2.0000      -8.076095      -219.7617
  68   2.0000      -8.066225      -219.4931
  69   2.0000      -8.054969      -219.1869
  70   2.0000      -8.011110      -217.9934
  71   2.0000      -6.046667      -164.5382
  72   2.0000      -6.045206      -164.4984
  73   2.0000      -6.042630      -164.4283
  74   2.0000      -6.041132      -164.3876
  75   2.0000      -6.039928      -164.3548
  76   2.0000      -6.038632      -164.3195
  77   2.0000      -6.035493      -164.2341
  78   2.0000      -6.031336      -164.1210
  79   2.0000      -6.028326      -164.0391
  80   2.0000      -6.025177      -163.9534
  81   2.0000      -6.020878      -163.8364
  82   2.0000      -6.015420      -163.6879
  83   2.0000      -5.980675      -162.7424
  84   2.0000      -5.979334      -162.7059
  85   2.0000      -5.969930      -162.4501
  86   2.0000      -1.219563       -33.1860
  87   2.0000      -1.156776       -31.4775
  88   2.0000      -1.132808       -30.8253
  89   2.0000      -1.124472       -30.5984
  90   2.0000      -1.117124       -30.3985
  91   2.0000      -1.055145       -28.7119
  92   2.0000      -1.047947       -28.5161
  93   2.0000      -1.046168       -28.4677
  94   2.0000      -1.030956       -28.0537
  95   2.0000      -1.012792       -27.5595
  96   2.0000      -0.998498       -27.1705
  97   2.0000      -0.997867       -27.1533
  98   2.0000      -0.990009       -26.9395
  99   2.0000      -0.983865       -26.7723
 100   2.0000      -0.978838       -26.6355
 101   2.0000      -0.942903       -25.6577
 102   2.0000      -0.939351       -25.5611
 103   2.0000      -0.923291       -25.1240
 104   2.0000      -0.918179       -24.9849
 105   2.0000      -0.906701       -24.6726
 106   2.0000      -0.904888       -24.6233
 107   2.0000      -0.890427       -24.2297
 108   2.0000      -0.890085       -24.2204
 109   2.0000      -0.878799       -23.9133
 110   2.0000      -0.867446       -23.6044
 111   2.0000      -0.863590       -23.4995
 112   2.0000      -0.856150       -23.2970
 113   2.0000      -0.850140       -23.1335
 114   2.0000      -0.844716       -22.9859
 115   2.0000      -0.835622       -22.7384
 116   2.0000      -0.834778       -22.7155
 117   2.0000      -0.828299       -22.5392
 118   2.0000      -0.822917       -22.3927
 119   2.0000      -0.813393       -22.1336
 120   2.0000      -0.811648       -22.0861
 121   2.0000      -0.795073       -21.6350
 122   2.0000      -0.786861       -21.4116
 123   2.0000      -0.773730       -21.0543
 124   2.0000      -0.766342       -20.8532
 125   2.0000      -0.752706       -20.4822
 126   2.0000      -0.749809       -20.4033
 127   2.0000      -0.740586       -20.1524
 128   2.0000      -0.738446       -20.0941
 129   2.0000      -0.721071       -19.6213
 130   2.0000      -0.719670       -19.5832
 131   2.0000      -0.712999       -19.4017
 132   2.0000      -0.703935       -19.1550
 133   2.0000      -0.701441       -19.0872
 134   2.0000      -0.698163       -18.9980
 135   2.0000      -0.693722       -18.8771
 136   2.0000      -0.674918       -18.3654
 137   2.0000      -0.671508       -18.2727
 138   2.0000      -0.664446       -18.0805
 139   2.0000      -0.659584       -17.9482
 140   2.0000      -0.649649       -17.6778
 141   2.0000      -0.644983       -17.5509
 142   2.0000      -0.643819       -17.5192
 143   2.0000      -0.637856       -17.3570
 144   2.0000      -0.636097       -17.3091
 145   2.0000      -0.633560       -17.2400
 146   2.0000      -0.627917       -17.0865
 147   2.0000      -0.622573       -16.9411
 148   2.0000      -0.610237       -16.6054
 149   2.0000      -0.608641       -16.5620
 150   2.0000      -0.596541       -16.2327
 151   2.0000      -0.594708       -16.1828
 152   2.0000      -0.583018       -15.8647
 153   2.0000      -0.581602       -15.8262
 154   2.0000      -0.576199       -15.6792
 155   2.0000      -0.573741       -15.6123
 156   2.0000      -0.570029       -15.5113
 157   2.0000      -0.566035       -15.4026
 158   2.0000      -0.563428       -15.3316
 159   2.0000      -0.562137       -15.2965
 160   2.0000      -0.556398       -15.1403
 161   2.0000      -0.553373       -15.0580
 162   2.0000      -0.551742       -15.0137
 163   2.0000      -0.543787       -14.7972
 164   2.0000      -0.543626       -14.7928
 165   2.0000      -0.536990       -14.6122
 166   2.0000      -0.530532       -14.4365
 167   2.0000      -0.529903       -14.4194
 168   2.0000      -0.526817       -14.3354
 169   2.0000      -0.526232       -14.3195
 170   2.0000      -0.522456       -14.2167
 171   2.0000      -0.519684       -14.1413
 172   2.0000      -0.519406       -14.1337
 173   2.0000      -0.518694       -14.1144
 174   2.0000      -0.516882       -14.0651
 175   2.0000      -0.513031       -13.9603
 176   2.0000      -0.511948       -13.9308
 177   2.0000      -0.507989       -13.8231
 178   2.0000      -0.507035       -13.7971
 179   2.0000      -0.503079       -13.6895
 180   2.0000      -0.501096       -13.6355
 181   2.0000      -0.497182       -13.5290
 182   2.0000      -0.496682       -13.5154
 183   2.0000      -0.493654       -13.4330
 184   2.0000      -0.492115       -13.3911
 185   2.0000      -0.490004       -13.3337
 186   2.0000      -0.487963       -13.2782
 187   2.0000      -0.484778       -13.1915
 188   2.0000      -0.482254       -13.1228
 189   2.0000      -0.481594       -13.1048
 190   2.0000      -0.481074       -13.0907
 191   2.0000      -0.480160       -13.0658
 192   2.0000      -0.472903       -12.8684
 193   2.0000      -0.468675       -12.7533
 194   2.0000      -0.466974       -12.7070
 195   2.0000      -0.463600       -12.6152
 196   2.0000      -0.462734       -12.5916
 197   2.0000      -0.462136       -12.5754
 198   2.0000      -0.457859       -12.4590
 199   2.0000      -0.457427       -12.4472
 200   2.0000      -0.455236       -12.3876
 201   2.0000      -0.453417       -12.3381
 202   2.0000      -0.451249       -12.2791
 203   2.0000      -0.448981       -12.2174
 204   2.0000      -0.445533       -12.1236
 205   2.0000      -0.444999       -12.1091
 206   2.0000      -0.442157       -12.0317
 207   2.0000      -0.438584       -11.9345
 208   2.0000      -0.437912       -11.9162
 209   2.0000      -0.437757       -11.9120
 210   2.0000      -0.434841       -11.8326
 211   2.0000      -0.433744       -11.8028
 212   2.0000      -0.432940       -11.7809
 213   2.0000      -0.430512       -11.7148
 214   2.0000      -0.428447       -11.6586
 215   2.0000      -0.427262       -11.6264
 216   2.0000      -0.427209       -11.6250
 217   2.0000      -0.425254       -11.5718
 218   2.0000      -0.424386       -11.5481
 219   2.0000      -0.417154       -11.3513
 220   2.0000      -0.413752       -11.2588
 221   2.0000      -0.406420       -11.0593
 222   2.0000      -0.401589       -10.9278
 223   2.0000      -0.398624       -10.8471
 224   2.0000      -0.393644       -10.7116
 225   2.0000      -0.392402       -10.6778
 226   2.0000      -0.380479       -10.3534
 227   2.0000      -0.365782        -9.9534
 228   2.0000      -0.360735        -9.8161
 229   2.0000      -0.354834        -9.6555
 230   2.0000      -0.350377        -9.5343
 231   2.0000      -0.344600        -9.3770
 232   2.0000      -0.341362        -9.2889
 233   2.0000      -0.339187        -9.2297
 234   2.0000      -0.333224        -9.0675
 235   2.0000      -0.329053        -8.9540
 236   2.0000      -0.322002        -8.7621
 237   2.0000      -0.321275        -8.7423
 238   2.0000      -0.318421        -8.6647
 239   2.0000      -0.314337        -8.5535
 240   2.0000      -0.305734        -8.3194
 241   2.0000      -0.298682        -8.1275
 242   2.0000      -0.294524        -8.0144
 243   2.0000      -0.281088        -7.6488
 244   2.0000      -0.263242        -7.1632
 245   2.0000      -0.240513        -6.5447
 246   2.0000      -0.236291        -6.4298
 247   0.0000      -0.118500        -3.2245
 248   0.0000      -0.094402        -2.5688
 249   0.0000      -0.080152        -2.1810
 250   0.0000      -0.050287        -1.3684
 251   0.0000      -0.034776        -0.9463

MULLIKEN ATOMIC CHARGES
-----------------------
   0 C :    0.033101
   1 N :   -0.257326
   2 C :    0.112774
   3 C :    0.001591
   4 C :    0.173531
   5 O :   -0.217621
   6 C :   -0.107534
   7 C :    0.005439
   8 C :    0.164111
   9 O :   -0.186871
  10 N :   -0.270377
  11 C :    0.098211
  12 C :    0.012169
  13 C :    0.152644
  14 C :   -0.027802
  15 C :    0.067558
  16 C :   -0.149293
  17 S :    0.161609
  18 C :    0.013231
  19 C :    0.207918
  20 O :   -0.187564
  21 N :   -0.306426
  22 C :    0.136398
  23 C :   -0.007698
  24 C :    0.181162
  25 O :   -0.163836
  26 C :    0.015586
  27 C :   -0.119074
  28 C :   -0.004581
  29 C :   -0.024519
  30 C :    0.131925
  31 O :   -0.181888
  32 C :    0.167659
  33 C :   -0.026627
  34 C :   -0.075303
  35 S :    0.119999
  36 C :   -0.001288
  37 C :   -0.134337
  38 C :    0.123023
  39 C :   -0.097185
  40 C :    0.004141
  41 C :   -0.171961
  42 N :    0.124392
  43 C :    0.117377
  44 C :   -0.136599
  45 C :    0.126207
  46 C :   -0.011481
  47 C :   -0.096818
  48 C :   -0.176150
  49 N :    0.125818
  50 C :   -0.032937
  51 C :    0.039532
  52 C :   -0.060737
  53 S :    0.165881
  54 C :   -0.013040
  55 C :    0.067747
  56 C :    0.001697
  57 S :   -0.081086
  58 C :   -0.082906
  59 C :   -0.101441
  60 S :    0.179794
  61 C :    0.045958
  62 C :    0.007702
  63 C :   -0.101973
  64 C :    0.040105
  65 C :   -0.018667
  66 H :    0.014945
  67 H :    0.017312
  68 H :    0.039509
  69 H :    0.013914
  70 H :    0.021517
  71 H :    0.030759
  72 H :    0.037424
  73 H :    0.036281
  74 H :    0.022530
  75 H :    0.020875
  76 H :    0.015646
  77 H :   -0.006455
  78 H :   -0.001454
  79 H :    0.029345
  80 H :    0.032473
  81 H :    0.025356
  82 H :    0.022347
  83 H :    0.027035
  84 H :    0.024850
  85 H :    0.009446
  86 H :    0.025511
  87 H :    0.008053
  88 H :    0.018718
  89 H :    0.002180
  90 H :   -0.004733
  91 H :   -0.005475
  92 H :   -0.017253
  93 H :    0.011150
  94 H :    0.001269
  95 H :   -0.012467
  96 H :   -0.007387
  97 H :    0.022601
  98 H :    0.031136
Sum of atomic charges:   -0.0000000

LOEWDIN ATOMIC CHARGES
----------------------
   0 C :    0.086991
   1 N :    0.000163
   2 C :    0.038516
   3 C :   -0.060555
   4 C :    0.076496
   5 O :   -0.209166
   6 C :   -0.130384
   7 C :   -0.127043
   8 C :    0.081466
   9 O :   -0.191035
  10 N :   -0.005715
  11 C :    0.036535
  12 C :   -0.059170
  13 C :    0.083509
  14 C :   -0.025920
  15 C :   -0.002221
  16 C :   -0.132814
  17 S :    0.463420
  18 C :   -0.091320
  19 C :    0.096071
  20 O :   -0.173011
  21 N :   -0.031040
  22 C :    0.043615
  23 C :   -0.059746
  24 C :    0.089678
  25 O :   -0.163569
  26 C :   -0.095177
  27 C :   -0.128633
  28 C :   -0.033099
  29 C :   -0.026387
  30 C :    0.010522
  31 O :    0.029022
  32 C :    0.065400
  33 C :   -0.072899
  34 C :   -0.205966
  35 S :    0.392256
  36 C :   -0.159463
  37 C :   -0.074522
  38 C :    0.031035
  39 C :   -0.077480
  40 C :    0.027735
  41 C :   -0.028235
  42 N :   -0.068758
  43 C :    0.034954
  44 C :   -0.044868
  45 C :   -0.011436
  46 C :    0.050442
  47 C :   -0.081603
  48 C :   -0.028653
  49 N :   -0.072372
  50 C :   -0.050533
  51 C :    0.002367
  52 C :   -0.171915
  53 S :    0.464086
  54 C :   -0.006279
  55 C :   -0.091749
  56 C :   -0.126821
  57 S :    0.106811
  58 C :   -0.169149
  59 C :   -0.195030
  60 S :    0.469408
  61 C :   -0.078754
  62 C :   -0.020904
  63 C :   -0.165137
  64 C :   -0.045613
  65 C :   -0.033086
  66 H :    0.032128
  67 H :    0.024480
  68 H :    0.035487
  69 H :    0.022415
  70 H :    0.029381
  71 H :    0.031746
  72 H :    0.035580
  73 H :    0.028166
  74 H :    0.028696
  75 H :    0.030702
  76 H :    0.022860
  77 H :    0.031558
  78 H :    0.035380
  79 H :    0.031413
  80 H :    0.032804
  81 H :    0.027476
  82 H :    0.030204
  83 H :    0.028472
  84 H :    0.046447
  85 H :    0.028924
  86 H :    0.030922
  87 H :    0.037649
  88 H :    0.034161
  89 H :    0.037322
  90 H :    0.029351
  91 H :    0.035323
  92 H :    0.021107
  93 H :    0.044896
  94 H :    0.041872
  95 H :    0.036916
  96 H :    0.029440
  97 H :    0.024107
  98 H :    0.029345

  Mayer bond orders larger than 0.100000
B(  0-C ,  1-N ) :   1.1860 B(  0-C ,  7-C ) :   1.4590 B(  0-C , 66-H ) :   0.9903
B(  1-N ,  2-C ) :   0.9443 B(  1-N ,  4-C ) :   1.0600 B(  2-C ,  3-C ) :   1.1205
B(  2-C , 67-H ) :   0.9534 B(  2-C , 68-H ) :   0.9348 B(  3-C , 69-H ) :   0.9687
B(  3-C , 70-H ) :   0.9686 B(  3-C , 71-H ) :   0.9671 B(  4-C ,  5-O ) :   2.0136
B(  4-C ,  6-C ) :   1.0058 B(  5-O , 78-H ) :   0.1133 B(  6-C ,  7-C ) :   1.2055
B(  6-C , 13-C ) :   1.3662 B(  7-C ,  8-C ) :   0.9441 B(  8-C ,  9-O ) :   2.1761
B(  8-C , 10-N ) :   1.0236 B( 10-N , 11-C ) :   0.9419 B( 10-N , 13-C ) :   1.1606
B( 11-C , 12-C ) :   1.1254 B( 11-C , 72-H ) :   0.9278 B( 11-C , 73-H ) :   0.9478
B( 12-C , 74-H ) :   0.9639 B( 12-C , 75-H ) :   0.9672 B( 12-C , 76-H ) :   0.9670
B( 13-C , 14-C ) :   1.1583 B( 14-C , 15-C ) :   1.6161 B( 14-C , 77-H ) :   0.9405
B( 15-C , 16-C ) :   1.1393 B( 15-C , 78-H ) :   0.9353 B( 16-C , 17-S ) :   1.1301
B( 16-C , 18-C ) :   1.4859 B( 17-S , 27-C ) :   1.1053 B( 18-C , 19-C ) :   0.9017
B( 18-C , 26-C ) :   1.2623 B( 19-C , 20-O ) :   2.0712 B( 19-C , 21-N ) :   1.1037
B( 20-O , 77-H ) :   0.1006 B( 21-N , 22-C ) :   0.9198 B( 21-N , 24-C ) :   1.0568
B( 22-C , 23-C ) :   1.1283 B( 22-C , 79-H ) :   0.9414 B( 22-C , 80-H ) :   0.9402
B( 23-C , 81-H ) :   0.9688 B( 23-C , 82-H ) :   0.9701 B( 23-C , 83-H ) :   0.9686
B( 24-C , 25-O ) :   2.1864 B( 24-C , 26-C ) :   0.9026 B( 26-C , 27-C ) :   1.4991
B( 27-C , 28-C ) :   1.1573 B( 28-C , 29-C ) :   1.6242 B( 28-C , 84-H ) :   0.9823
B( 29-C , 30-C ) :   1.1715 B( 29-C , 85-H ) :   0.9515 B( 30-C , 31-O ) :   1.1730
B( 30-C , 34-C ) :   1.4713 B( 31-O , 32-C ) :   1.1424 B( 32-C , 33-C ) :   1.5494
B( 32-C , 86-H ) :   1.0029 B( 33-C , 34-C ) :   1.2365 B( 33-C , 87-H ) :   1.0094
B( 34-C , 35-S ) :   0.9950 B( 35-S , 36-C ) :   1.0105 B( 36-C , 37-C ) :   1.5605
B( 36-C , 40-C ) :   1.0807 B( 37-C , 38-C ) :   1.1400 B( 37-C , 88-H ) :   1.0032
B( 38-C , 39-C ) :   1.1145 B( 38-C , 43-C ) :   1.3963 B( 39-C , 40-C ) :   1.6693
B( 39-C , 41-C ) :   1.0994 B( 40-C , 89-H ) :   1.0168 B( 41-C , 42-N ) :   2.9645
B( 43-C , 44-C ) :   1.1597 B( 43-C , 47-C ) :   1.0986 B( 44-C , 45-C ) :   1.5144
B( 44-C , 90-H ) :   0.9960 B( 45-C , 46-C ) :   1.0344 B( 45-C , 50-C ) :   1.1404
B( 46-C , 47-C ) :   1.6633 B( 46-C , 91-H ) :   1.0245 B( 47-C , 48-C ) :   1.0899
B( 48-C , 49-N ) :   2.9655 B( 50-C , 51-C ) :   1.5940 B( 50-C , 92-H ) :   0.9682
B( 51-C , 52-C ) :   1.1939 B( 51-C , 93-H ) :   0.9800 B( 52-C , 53-S ) :   1.0689
B( 52-C , 54-C ) :   1.4151 B( 53-S , 58-C ) :   1.1382 B( 54-C , 55-C ) :   1.2894
B( 54-C , 94-H ) :   1.0075 B( 55-C , 56-C ) :   1.0161 B( 55-C , 58-C ) :   1.4388
B( 56-C , 57-S ) :   1.7616 B( 56-C , 61-C ) :   1.0237 B( 58-C , 59-C ) :   1.1663
B( 59-C , 60-S ) :   1.1218 B( 59-C , 61-C ) :   1.4513 B( 60-S , 63-C ) :   1.1090
B( 61-C , 62-C ) :   1.2990 B( 62-C , 63-C ) :   1.4877 B( 62-C , 95-H ) :   0.9959
B( 63-C , 64-C ) :   1.0936 B( 64-C , 65-C ) :   1.9490 B( 64-C , 96-H ) :   0.9541
B( 65-C , 97-H ) :   0.9549 B( 65-C , 98-H ) :   0.9502

-----------------------------------------------------------------------------
         ABSORPTION SPECTRUM VIA TRANSITION ELECTRIC DIPOLE MOMENTS
-----------------------------------------------------------------------------
State   Energy  Wavelength   fosc         T2         TX        TY        TZ
        (cm-1)    (nm)                  (au**2)     (au)      (au)      (au)
-----------------------------------------------------------------------------
   0   11421.2    875.6   0.794237308  22.89359  -2.68857   3.95433  -0.16871
   1   13229.2    755.9   0.059806537   1.48830  -0.80144   0.91222   0.11763
   2   15505.7    644.9   0.037204053   0.78990   0.39572  -0.39502  -0.69085
   3   17692.2    565.2   0.000000176   0.00000  -0.00170  -0.00035  -0.00050
   4   17813.8    561.4   0.009054021   0.16732   0.02462   0.11862   0.39070
   5   18550.8    539.1   0.528679301   9.38221  -2.21158  -0.30055   2.09781
   6   20759.0    481.7   0.107757067   1.70889   0.30864  -1.25813  -0.17531
   7   21222.5    471.2   0.242053076   3.75483   0.56218  -1.81960   0.35752
   8   23822.2    419.8   0.484944678   6.70171   0.80955  -1.91471  -1.54280
   9   24580.5    406.8   0.148991141   1.99547  -0.53510   1.23175  -0.43810
  10   25696.0    389.2   0.157276098   2.01499  -0.27492   1.39136   0.05947
  11   26142.2    382.5   0.195402792   2.46073  -0.37149  -1.45379  -0.45742
  12   27106.9    368.9   0.220905715   2.68289   0.70590  -0.88678  -1.18246
  13   27655.2    361.6   0.000606648   0.00722   0.05736  -0.06268  -0.00165
  14   27660.6    361.5   0.016249743   0.19340   0.16333  -0.36449  -0.18405
  15   27742.5    360.5   0.262871348   3.11941   1.28650  -1.15524   0.36021
  16   29355.0    340.7   0.650592753   7.29631   0.86328  -2.52039   0.44575
  17   29390.0    340.3   0.000784607   0.00879  -0.03177   0.07948   0.03825
  18   29945.4    333.9   0.034291571   0.37699   0.00198   0.61387  -0.01233
  19   30164.7    331.5   0.090323278   0.98577  -0.38748  -0.75411  -0.51667
  20   30590.7    326.9   0.015969085   0.17186   0.21589   0.15105  -0.32005
  21   31482.2    317.6   0.012089011   0.12642  -0.09582  -0.34019  -0.03877
  22   31863.8    313.8   0.052077364   0.53806   0.72383  -0.08445  -0.08364
  23   32049.3    312.0   0.014461987   0.14855  -0.10855  -0.36983   0.00030
  24   32165.3    310.9   0.324088685   3.31705  -0.53316   1.74041  -0.06142
  25   32619.6    306.6   0.256434881   2.58806  -0.32831   0.95302   1.25380
  26   32902.1    303.9   0.030128928   0.30146   0.31776  -0.43646  -0.09997
  27   33054.5    302.5   0.048803976   0.48607   0.52147  -0.15908  -0.43456
  28   33418.9    299.2   0.000056676   0.00056   0.01167   0.00344   0.02026
  29   33559.3    298.0   0.000318020   0.00312  -0.00967   0.03630   0.04134
  30   35181.3    284.2   0.187691416   1.75634   0.87331   0.39122  -0.91685
  31   35233.1    283.8   0.087330650   0.81600  -0.13603   0.89276   0.02172
  32   35614.5    280.8   0.021035972   0.19445   0.22499  -0.28296  -0.25252
  33   35892.5    278.6   0.087798023   0.80530  -0.09341  -0.78808  -0.41893
  34   36089.7    277.1   0.238715712   2.17758   1.00322   1.03187  -0.32613
  35   36221.5    276.1   0.016372817   0.14881   0.06412   0.34629   0.15742
  36   36320.0    275.3   0.051312201   0.46510   0.45527   0.49718  -0.10317
  37   36852.1    271.4   0.000844628   0.00755  -0.06930   0.05199  -0.00630
  38   36876.7    271.2   0.015852600   0.14152  -0.20080   0.31223  -0.06095
  39   37205.6    268.8   0.410277304   3.63032   1.77085   0.63468  -0.30264
  40   37493.0    266.7   0.012102119   0.10626  -0.31206  -0.07440   0.05788
  41   37594.8    266.0   0.000197626   0.00173  -0.01648  -0.03508  -0.01511
  42   37634.7    265.7   0.001011509   0.00885  -0.01466   0.08604   0.03508
  43   37756.2    264.9   0.053100922   0.46301  -0.62193   0.27499  -0.02431
  44   37943.0    263.6   0.017996158   0.15614   0.28037  -0.10195  -0.25911
  45   38870.9    257.3   0.002787386   0.02361  -0.06150  -0.14049  -0.00937
  46   38929.5    256.9   0.000009970   0.00008  -0.00330   0.00766  -0.00384
  47   38983.7    256.5   0.029155861   0.24622  -0.49140   0.03447   0.05961
  48   39463.6    253.4   0.055220365   0.46066  -0.66073  -0.11097  -0.10856
  49   39624.9    252.4   0.085688558   0.71192   0.39735  -0.55092  -0.50052
  50   40069.8    249.6   0.023707770   0.19478   0.28083  -0.09978  -0.32551

FINAL SINGLE POINT ENERGY     -4600.144722267557

DIPOLE MOMENT
-------------
                                X             Y             Z
Electronic contribution:    -32.80516      66.58650      33.94071
Nuclear contribution   :     31.14649     -64.53705     -33.30989
                        -----------------------------------------
Total Dipole Moment    :     -1.65867       2.04945       0.63082
                        -----------------------------------------
Magnitude (a.u.)       :      2.71097
Magnitude (Debye)      :      6.89074

Rotational constants in cm-1:     0.001497     0.000214     0.000198
Rotational constants in MHz :    44.872287     6.428889     5.949768

                             ****ORCA TERMINATED NORMALLY****
TOTAL RUN TIME: 0 days 0 hours 10 minutes 31 seconds 661 msec
