                         Program Version 4.2.0 -  RELEASE  -
|  1> # ORCA input file
|  2> # SCF done       -194.373435023817          0.000910921609
|  3> ! CAM-B3LYP def2-SVP def2/J RIJCOSX Grid4 TightSCF
|  4> %maxcore 5000
|  5> %tddft
|  6>     Mode sTDDFT
|  7>     Ethresh 5.0
|  8>     maxcore 5000
|  9> end
| 10>
| 11> %pal
| 12>   nprocs 6
| 13>   end
| 14> * xyz 0 1
| 15>    C      -13.09828        -5.63392        -7.02275
| 16>    C      -12.07035        -4.80470        -6.60144
| 17>    C      -10.71875        -5.29599        -6.46264
| 18>    N       -9.74809        -4.47806        -6.05571
| 19>    C      -10.02460        -3.22294        -5.77954
| 20>    C      -11.36828        -2.73558        -5.91673
| 21>    N      -12.34104        -3.51076        -6.31420
| 22>    C      -11.64558        -1.37715        -5.61156
| 23>    N      -11.83062        -0.27632        -5.35570
| 24>    C       -8.99000        -2.36291        -5.34721
| 25>    N       -8.17452        -1.63857        -4.99398
| 26>    C      -10.36841        -6.64247        -6.74406
| 27>    C      -11.43141        -7.47317        -7.17239
| 28>    C      -12.78090        -6.95904        -7.30657
| 29>    N      -13.63101        -7.90430        -7.72235
| 30>    S      -12.82905        -9.27667        -7.92117
| 31>    N      -11.36450        -8.76449        -7.49610
| 32>    C       -9.03637        -7.08978        -6.59037
| 33>    C       -8.55078        -8.37977        -6.81513
| 34>    C       -7.20024        -8.48246        -6.56060
| 35>    C       -6.63406        -7.26619        -6.13929
| 36>    S       -7.77927        -5.98858        -6.05535
| 37>    C       -5.26534        -7.47251        -5.89250
| 38>    C       -4.94051        -8.81038        -6.14712
| 39>    C       -6.15646        -9.56047        -6.60371
| 40>    C       -3.60564        -9.09587        -5.90627
| 41>    C       -2.89059        -7.98900        -5.46919
| 42>    S       -3.91020        -6.56522        -5.36536
| 43>    C       -1.50671        -7.91199        -5.09298
| 44>    C       -0.72200        -9.04399        -5.01232
| 45>    C        0.61837        -8.95370        -4.59242
| 46>    C        1.59148        -9.92597        -4.39284
| 47>    C        1.50296       -11.39989        -4.61130
| 48>    C        0.44436       -12.04635        -3.69678
| 49>    N        0.78220       -13.44043        -3.48268
| 50>    C        1.25302       -11.71739        -6.09660
| 51>    N        1.37073       -13.14658        -6.34718
| 52>    C        2.76171        -9.24605        -3.89261
| 53>    C        3.95468        -9.71524        -3.47958
| 54>    C        5.00646        -8.81140        -2.93770
| 55>    C        4.64782        -7.35681        -2.95488
| 56>    C        3.45204        -6.90300        -3.37264
| 57>    C        2.46421        -7.80833        -3.82773
| 58>    C        1.16226        -7.64399        -4.25133
| 59>    C        0.34415        -6.49639        -4.36883
| 60>    C       -0.94187        -6.63202        -4.77197
| 61>    C        6.30421        -9.00599        -3.67884
| 62>    C        7.46221        -9.27265        -3.06680
| 63>    C        8.73757        -9.41665        -3.70092
| 64>    C        9.07605        -9.37350        -5.04186
| 65>    C       10.43989        -9.54807        -5.24843
| 66>    C       11.15213        -9.72321        -4.05822
| 67>    S       10.13498        -9.68029        -2.67940
| 68>    C       12.52185        -9.88120        -4.35008
| 69>    C       12.69355        -9.81159        -5.74133
| 70>    C       11.37337        -9.59553        -6.42134
| 71>    C       14.01262        -9.95191        -6.12439
| 72>    C       14.86808       -10.12631        -5.03716
| 73>    S       13.99547       -10.11329        -3.50964
| 74>    C       16.27721       -10.29268        -5.02990
| 75>    C       17.08572       -10.35364        -6.19847
| 76>    C       18.52447       -10.50371        -6.10673
| 77>    N       19.27143       -10.54705        -7.23364
| 78>    C       18.67798       -10.46410        -8.39234
| 79>    C       17.25149       -10.33386        -8.48483
| 80>    N       16.50879       -10.27953        -7.40323
| 81>    C       16.61732       -10.26382        -9.74741
| 82>    N       16.11810       -10.20866       -10.77800
| 83>    C       19.45278       -10.50469        -9.58054
| 84>    N       20.03801       -10.53063       -10.56434
| 85>    C       19.18417       -10.60557        -4.88954
| 86>    C       18.41058       -10.56154        -3.73663
| 87>    C       16.97509       -10.40805        -3.80631
| 88>    N       16.42242       -10.38757        -2.59377
| 89>    S       17.57673       -10.54429        -1.48714
| 90>    N       18.83607       -10.64592        -2.46973
| 91>    H      -14.10205        -5.25989        -7.12354
| 92>    H       -9.19579        -9.17256        -7.14635
| 93>    H       -6.39963       -10.39066        -5.93737
| 94>    H       -6.03179        -9.96673        -7.60971
| 95>    H       -3.16441       -10.06564        -6.04641
| 96>    H       -1.14006       -10.00996        -5.24256
| 97>    H        2.45943       -11.85366        -4.33340
| 98>    H       -0.55542       -11.89964        -4.13551
| 99>    H        0.45859       -11.54158        -2.72479
|100>    H        0.79512       -13.91245        -4.38294
|101>    H        0.08681       -13.88744        -2.89509
|102>    H        1.95453       -11.11485        -6.69956
|103>    H        0.24042       -11.41671        -6.37518
|104>    H        2.32323       -13.45179        -6.17129
|105>    H        1.15558       -13.35170        -7.31724
|106>    H        4.20015       -10.76825        -3.50731
|107>    H        5.17927        -9.10631        -1.89071
|108>    H        5.41484        -6.68282        -2.60521
|109>    H        3.22792        -5.84628        -3.35747
|110>    H        0.75006        -5.52525        -4.12810
|111>    H       -1.57805        -5.76367        -4.85946
|112>    H        6.24970        -8.87108        -4.74847
|113>    H        7.47761        -9.38651        -1.98971
|114>    H        8.35452        -9.22224        -5.82357
|115>    H       11.12956       -10.41075        -7.10562
|116>    H       11.35802        -8.66666        -6.99501
|117>    H       14.37509        -9.93286        -7.13481
|118>    H       20.25411       -10.71441        -4.85587
|119> *
|120>
|121>                          ****END OF INPUT****

CARTESIAN COORDINATES (ANGSTROEM)
---------------------------------
  C    -13.098280   -5.633920   -7.022750
  C    -12.070350   -4.804700   -6.601440
  C    -10.718750   -5.295990   -6.462640
  N     -9.748090   -4.478060   -6.055710
  C    -10.024600   -3.222940   -5.779540
  C    -11.368280   -2.735580   -5.916730
  N    -12.341040   -3.510760   -6.314200
  C    -11.645580   -1.377150   -5.611560
  N    -11.830620   -0.276320   -5.355700
  C     -8.990000   -2.362910   -5.347210
  N     -8.174520   -1.638570   -4.993980
  C    -10.368410   -6.642470   -6.744060
  C    -11.431410   -7.473170   -7.172390
  C    -12.780900   -6.959040   -7.306570
  N    -13.631010   -7.904300   -7.722350
  S    -12.829050   -9.276670   -7.921170
  N    -11.364500   -8.764490   -7.496100
  C     -9.036370   -7.089780   -6.590370
  C     -8.550780   -8.379770   -6.815130
  C     -7.200240   -8.482460   -6.560600
  C     -6.634060   -7.266190   -6.139290
  S     -7.779270   -5.988580   -6.055350
  C     -5.265340   -7.472510   -5.892500
  C     -4.940510   -8.810380   -6.147120
  C     -6.156460   -9.560470   -6.603710
  C     -3.605640   -9.095870   -5.906270
  C     -2.890590   -7.989000   -5.469190
  S     -3.910200   -6.565220   -5.365360
  C     -1.506710   -7.911990   -5.092980
  C     -0.722000   -9.043990   -5.012320
  C      0.618370   -8.953700   -4.592420
  C      1.591480   -9.925970   -4.392840
  C      1.502960  -11.399890   -4.611300
  C      0.444360  -12.046350   -3.696780
  N      0.782200  -13.440430   -3.482680
  C      1.253020  -11.717390   -6.096600
  N      1.370730  -13.146580   -6.347180
  C      2.761710   -9.246050   -3.892610
  C      3.954680   -9.715240   -3.479580
  C      5.006460   -8.811400   -2.937700
  C      4.647820   -7.356810   -2.954880
  C      3.452040   -6.903000   -3.372640
  C      2.464210   -7.808330   -3.827730
  C      1.162260   -7.643990   -4.251330
  C      0.344150   -6.496390   -4.368830
  C     -0.941870   -6.632020   -4.771970
  C      6.304210   -9.005990   -3.678840
  C      7.462210   -9.272650   -3.066800
  C      8.737570   -9.416650   -3.700920
  C      9.076050   -9.373500   -5.041860
  C     10.439890   -9.548070   -5.248430
  C     11.152130   -9.723210   -4.058220
  S     10.134980   -9.680290   -2.679400
  C     12.521850   -9.881200   -4.350080
  C     12.693550   -9.811590   -5.741330
  C     11.373370   -9.595530   -6.421340
  C     14.012620   -9.951910   -6.124390
  C     14.868080  -10.126310   -5.037160
  S     13.995470  -10.113290   -3.509640
  C     16.277210  -10.292680   -5.029900
  C     17.085720  -10.353640   -6.198470
  C     18.524470  -10.503710   -6.106730
  N     19.271430  -10.547050   -7.233640
  C     18.677980  -10.464100   -8.392340
  C     17.251490  -10.333860   -8.484830
  N     16.508790  -10.279530   -7.403230
  C     16.617320  -10.263820   -9.747410
  N     16.118100  -10.208660  -10.778000
  C     19.452780  -10.504690   -9.580540
  N     20.038010  -10.530630  -10.564340
  C     19.184170  -10.605570   -4.889540
  C     18.410580  -10.561540   -3.736630
  C     16.975090  -10.408050   -3.806310
  N     16.422420  -10.387570   -2.593770
  S     17.576730  -10.544290   -1.487140
  N     18.836070  -10.645920   -2.469730
  H    -14.102050   -5.259890   -7.123540
  H     -9.195790   -9.172560   -7.146350
  H     -6.399630  -10.390660   -5.937370
  H     -6.031790   -9.966730   -7.609710
  H     -3.164410  -10.065640   -6.046410
  H     -1.140060  -10.009960   -5.242560
  H      2.459430  -11.853660   -4.333400
  H     -0.555420  -11.899640   -4.135510
  H      0.458590  -11.541580   -2.724790
  H      0.795120  -13.912450   -4.382940
  H      0.086810  -13.887440   -2.895090
  H      1.954530  -11.114850   -6.699560
  H      0.240420  -11.416710   -6.375180
  H      2.323230  -13.451790   -6.171290
  H      1.155580  -13.351700   -7.317240
  H      4.200150  -10.768250   -3.507310
  H      5.179270   -9.106310   -1.890710
  H      5.414840   -6.682820   -2.605210
  H      3.227920   -5.846280   -3.357470
  H      0.750060   -5.525250   -4.128100
  H     -1.578050   -5.763670   -4.859460
  H      6.249700   -8.871080   -4.748470
  H      7.477610   -9.386510   -1.989710
  H      8.354520   -9.222240   -5.823570
  H     11.129560  -10.410750   -7.105620
  H     11.358020   -8.666660   -6.995010
  H     14.375090   -9.932860   -7.134810
  H     20.254110  -10.714410   -4.855870

 Total Charge           Charge          ....    0
 Multiplicity           Mult            ....    1
 Number of Electrons    NEL             ....  558
 Basis Dimension        Dim             .... 1228

ORBITAL ENERGIES
----------------

  NO   OCC          E(Eh)            E(eV)
   0   2.0000     -89.045643     -2423.0551
   1   2.0000     -89.038207     -2422.8528
   2   2.0000     -88.971528     -2421.0383
   3   2.0000     -88.966623     -2420.9049
   4   2.0000     -88.965498     -2420.8743
   5   2.0000     -88.961427     -2420.7635
   6   2.0000     -14.459935      -393.4748
   7   2.0000     -14.459223      -393.4554
   8   2.0000     -14.455954      -393.3665
   9   2.0000     -14.454853      -393.3365
  10   2.0000     -14.450958      -393.2306
  11   2.0000     -14.450498      -393.2181
  12   2.0000     -14.449511      -393.1912
  13   2.0000     -14.443448      -393.0262
  14   2.0000     -14.426581      -392.5672
  15   2.0000     -14.426048      -392.5527
  16   2.0000     -14.422462      -392.4551
  17   2.0000     -14.421389      -392.4259
  18   2.0000     -14.393885      -391.6775
  19   2.0000     -14.359925      -390.7534
  20   2.0000     -10.378153      -282.4039
  21   2.0000     -10.374719      -282.3105
  22   2.0000     -10.374505      -282.3046
  23   2.0000     -10.371177      -282.2141
  24   2.0000     -10.344433      -281.4863
  25   2.0000     -10.342734      -281.4401
  26   2.0000     -10.341193      -281.3982
  27   2.0000     -10.339180      -281.3434
  28   2.0000     -10.338032      -281.3122
  29   2.0000     -10.337735      -281.3041
  30   2.0000     -10.337497      -281.2976
  31   2.0000     -10.334311      -281.2109
  32   2.0000     -10.327759      -281.0326
  33   2.0000     -10.322319      -280.8846
  34   2.0000     -10.320283      -280.8292
  35   2.0000     -10.319669      -280.8125
  36   2.0000     -10.315932      -280.7108
  37   2.0000     -10.315618      -280.7022
  38   2.0000     -10.315227      -280.6916
  39   2.0000     -10.313113      -280.6341
  40   2.0000     -10.312371      -280.6139
  41   2.0000     -10.310899      -280.5738
  42   2.0000     -10.310306      -280.5577
  43   2.0000     -10.307216      -280.4736
  44   2.0000     -10.306023      -280.4412
  45   2.0000     -10.303955      -280.3849
  46   2.0000     -10.303818      -280.3811
  47   2.0000     -10.299345      -280.2594
  48   2.0000     -10.295293      -280.1492
  49   2.0000     -10.293191      -280.0920
  50   2.0000     -10.292513      -280.0735
  51   2.0000     -10.292409      -280.0707
  52   2.0000     -10.292094      -280.0621
  53   2.0000     -10.291666      -280.0505
  54   2.0000     -10.289828      -280.0005
  55   2.0000     -10.288707      -279.9699
  56   2.0000     -10.287136      -279.9272
  57   2.0000     -10.286436      -279.9082
  58   2.0000     -10.285687      -279.8878
  59   2.0000     -10.284625      -279.8589
  60   2.0000     -10.283504      -279.8284
  61   2.0000     -10.283093      -279.8172
  62   2.0000     -10.280368      -279.7430
  63   2.0000     -10.279677      -279.7242
  64   2.0000     -10.276820      -279.6465
  65   2.0000     -10.275953      -279.6229
  66   2.0000     -10.275619      -279.6138
  67   2.0000     -10.274247      -279.5765
  68   2.0000     -10.273993      -279.5696
  69   2.0000     -10.273671      -279.5608
  70   2.0000     -10.272154      -279.5195
  71   2.0000     -10.268335      -279.4156
  72   2.0000     -10.266566      -279.3675
  73   2.0000     -10.266292      -279.3600
  74   2.0000     -10.265245      -279.3315
  75   2.0000     -10.262537      -279.2578
  76   2.0000      -8.136722      -221.4115
  77   2.0000      -8.129667      -221.2195
  78   2.0000      -8.066685      -219.5057
  79   2.0000      -8.060374      -219.3339
  80   2.0000      -8.060230      -219.3300
  81   2.0000      -8.054379      -219.1708
  82   2.0000      -6.107692      -166.1987
  83   2.0000      -6.100712      -166.0088
  84   2.0000      -6.100021      -165.9900
  85   2.0000      -6.099683      -165.9808
  86   2.0000      -6.092904      -165.7964
  87   2.0000      -6.092537      -165.7863
  88   2.0000      -6.035960      -164.2468
  89   2.0000      -6.031906      -164.1365
  90   2.0000      -6.029967      -164.0837
  91   2.0000      -6.029558      -164.0726
  92   2.0000      -6.028850      -164.0534
  93   2.0000      -6.025419      -163.9600
  94   2.0000      -6.025387      -163.9591
  95   2.0000      -6.024135      -163.9250
  96   2.0000      -6.022428      -163.8786
  97   2.0000      -6.022343      -163.8763
  98   2.0000      -6.019317      -163.7939
  99   2.0000      -6.016385      -163.7142
 100   2.0000      -1.141379       -31.0585
 101   2.0000      -1.134506       -30.8715
 102   2.0000      -1.114935       -30.3389
 103   2.0000      -1.112886       -30.2832
 104   2.0000      -1.042288       -28.3621
 105   2.0000      -1.040766       -28.3207
 106   2.0000      -1.020022       -27.7562
 107   2.0000      -1.014522       -27.6066
 108   2.0000      -1.010344       -27.4929
 109   2.0000      -1.006147       -27.3787
 110   2.0000      -1.001312       -27.2471
 111   2.0000      -0.997692       -27.1486
 112   2.0000      -0.996692       -27.1214
 113   2.0000      -0.990321       -26.9480
 114   2.0000      -0.987281       -26.8653
 115   2.0000      -0.982348       -26.7310
 116   2.0000      -0.978820       -26.6351
 117   2.0000      -0.974684       -26.5225
 118   2.0000      -0.968140       -26.3444
 119   2.0000      -0.963753       -26.2250
 120   2.0000      -0.947641       -25.7866
 121   2.0000      -0.940888       -25.6029
 122   2.0000      -0.927133       -25.2286
 123   2.0000      -0.919094       -25.0098
 124   2.0000      -0.904334       -24.6082
 125   2.0000      -0.902463       -24.5573
 126   2.0000      -0.899246       -24.4697
 127   2.0000      -0.884389       -24.0655
 128   2.0000      -0.879712       -23.9382
 129   2.0000      -0.874586       -23.7987
 130   2.0000      -0.870371       -23.6840
 131   2.0000      -0.854876       -23.2624
 132   2.0000      -0.846048       -23.0221
 133   2.0000      -0.841314       -22.8933
 134   2.0000      -0.837207       -22.7816
 135   2.0000      -0.834766       -22.7151
 136   2.0000      -0.830549       -22.6004
 137   2.0000      -0.829028       -22.5590
 138   2.0000      -0.825862       -22.4728
 139   2.0000      -0.818331       -22.2679
 140   2.0000      -0.801096       -21.7989
 141   2.0000      -0.794796       -21.6275
 142   2.0000      -0.781220       -21.2581
 143   2.0000      -0.778657       -21.1883
 144   2.0000      -0.776589       -21.1321
 145   2.0000      -0.765807       -20.8387
 146   2.0000      -0.757157       -20.6033
 147   2.0000      -0.748289       -20.3620
 148   2.0000      -0.736381       -20.0380
 149   2.0000      -0.729442       -19.8491
 150   2.0000      -0.724294       -19.7090
 151   2.0000      -0.718969       -19.5641
 152   2.0000      -0.707195       -19.2437
 153   2.0000      -0.699524       -19.0350
 154   2.0000      -0.694000       -18.8847
 155   2.0000      -0.691390       -18.8137
 156   2.0000      -0.685979       -18.6664
 157   2.0000      -0.681482       -18.5441
 158   2.0000      -0.675445       -18.3798
 159   2.0000      -0.672488       -18.2993
 160   2.0000      -0.665533       -18.1101
 161   2.0000      -0.657759       -17.8985
 162   2.0000      -0.654406       -17.8073
 163   2.0000      -0.649608       -17.6767
 164   2.0000      -0.645209       -17.5570
 165   2.0000      -0.644180       -17.5290
 166   2.0000      -0.639926       -17.4133
 167   2.0000      -0.633082       -17.2270
 168   2.0000      -0.630208       -17.1488
 169   2.0000      -0.621396       -16.9090
 170   2.0000      -0.620566       -16.8865
 171   2.0000      -0.615747       -16.7553
 172   2.0000      -0.610916       -16.6239
 173   2.0000      -0.607571       -16.5329
 174   2.0000      -0.600203       -16.3324
 175   2.0000      -0.595452       -16.2031
 176   2.0000      -0.589380       -16.0378
 177   2.0000      -0.580030       -15.7834
 178   2.0000      -0.575883       -15.6706
 179   2.0000      -0.575241       -15.6531
 180   2.0000      -0.573007       -15.5923
 181   2.0000      -0.571613       -15.5544
 182   2.0000      -0.569960       -15.5094
 183   2.0000      -0.564473       -15.3601
 184   2.0000      -0.558863       -15.2074
 185   2.0000      -0.555467       -15.1150
 186   2.0000      -0.555227       -15.1085
 187   2.0000      -0.550834       -14.9890
 188   2.0000      -0.549858       -14.9624
 189   2.0000      -0.548146       -14.9158
 190   2.0000      -0.547371       -14.8947
 191   2.0000      -0.543793       -14.7973
 192   2.0000      -0.539771       -14.6879
 193   2.0000      -0.531009       -14.4495
 194   2.0000      -0.529889       -14.4190
 195   2.0000      -0.526373       -14.3233
 196   2.0000      -0.524869       -14.2824
 197   2.0000      -0.524299       -14.2669
 198   2.0000      -0.521533       -14.1916
 199   2.0000      -0.519871       -14.1464
 200   2.0000      -0.516783       -14.0624
 201   2.0000      -0.505213       -13.7475
 202   2.0000      -0.502920       -13.6851
 203   2.0000      -0.500593       -13.6218
 204   2.0000      -0.495631       -13.4868
 205   2.0000      -0.490440       -13.3456
 206   2.0000      -0.488966       -13.3054
 207   2.0000      -0.488373       -13.2893
 208   2.0000      -0.484276       -13.1778
 209   2.0000      -0.483518       -13.1572
 210   2.0000      -0.479779       -13.0554
 211   2.0000      -0.478503       -13.0207
 212   2.0000      -0.478090       -13.0095
 213   2.0000      -0.477702       -12.9989
 214   2.0000      -0.475942       -12.9510
 215   2.0000      -0.473206       -12.8766
 216   2.0000      -0.471423       -12.8281
 217   2.0000      -0.467961       -12.7339
 218   2.0000      -0.465757       -12.6739
 219   2.0000      -0.465280       -12.6609
 220   2.0000      -0.463887       -12.6230
 221   2.0000      -0.462501       -12.5853
 222   2.0000      -0.458814       -12.4850
 223   2.0000      -0.457981       -12.4623
 224   2.0000      -0.456335       -12.4175
 225   2.0000      -0.452820       -12.3218
 226   2.0000      -0.451577       -12.2880
 227   2.0000      -0.451001       -12.2724
 228   2.0000      -0.450601       -12.2615
 229   2.0000      -0.447962       -12.1897
 230   2.0000      -0.447609       -12.1801
 231   2.0000      -0.446540       -12.1510
 232   2.0000      -0.443763       -12.0754
 233   2.0000      -0.443114       -12.0577
 234   2.0000      -0.439285       -11.9536
 235   2.0000      -0.438265       -11.9258
 236   2.0000      -0.436599       -11.8805
 237   2.0000      -0.435134       -11.8406
 238   2.0000      -0.431386       -11.7386
 239   2.0000      -0.431175       -11.7329
 240   2.0000      -0.427895       -11.6436
 241   2.0000      -0.421047       -11.4573
 242   2.0000      -0.418254       -11.3813
 243   2.0000      -0.417995       -11.3742
 244   2.0000      -0.415787       -11.3141
 245   2.0000      -0.413065       -11.2401
 246   2.0000      -0.411439       -11.1958
 247   2.0000      -0.411199       -11.1893
 248   2.0000      -0.407978       -11.1016
 249   2.0000      -0.407778       -11.0962
 250   2.0000      -0.406180       -11.0527
 251   2.0000      -0.405773       -11.0416
 252   2.0000      -0.404217       -10.9993
 253   2.0000      -0.400450       -10.8968
 254   2.0000      -0.393725       -10.7138
 255   2.0000      -0.388450       -10.5703
 256   2.0000      -0.387254       -10.5377
 257   2.0000      -0.376155       -10.2357
 258   2.0000      -0.371141       -10.0993
 259   2.0000      -0.369939       -10.0666
 260   2.0000      -0.363966        -9.9040
 261   2.0000      -0.354776        -9.6539
 262   2.0000      -0.348459        -9.4821
 263   2.0000      -0.345365        -9.3979
 264   2.0000      -0.343507        -9.3473
 265   2.0000      -0.341207        -9.2847
 266   2.0000      -0.336658        -9.1609
 267   2.0000      -0.335050        -9.1172
 268   2.0000      -0.329458        -8.9650
 269   2.0000      -0.324501        -8.8301
 270   2.0000      -0.323394        -8.8000
 271   2.0000      -0.320374        -8.7178
 272   2.0000      -0.315934        -8.5970
 273   2.0000      -0.298714        -8.1284
 274   2.0000      -0.289845        -7.8871
 275   2.0000      -0.288803        -7.8587
 276   2.0000      -0.244581        -6.6554
 277   2.0000      -0.241189        -6.5631
 278   2.0000      -0.219001        -5.9593
 279   0.0000      -0.118142        -3.2148
 280   0.0000      -0.115155        -3.1335
 281   0.0000      -0.073147        -1.9904
 282   0.0000      -0.049948        -1.3592
 283   0.0000      -0.043779        -1.1913

MULLIKEN ATOMIC CHARGES
-----------------------
   0 C :   -0.105773
   1 C :    0.036833
   2 C :   -0.065102
   3 N :   -0.009865
   4 C :   -0.104944
   5 C :   -0.152586
   6 N :    0.050707
   7 C :   -0.208457
   8 N :    0.233092
   9 C :   -0.229219
  10 N :    0.231438
  11 C :    0.219160
  12 C :   -0.049668
  13 C :    0.105670
  14 N :   -0.274167
  15 S :    0.528929
  16 N :   -0.288931
  17 C :   -0.188133
  18 C :   -0.028368
  19 C :   -0.127260
  20 C :   -0.029500
  21 S :    0.175251
  22 C :   -0.090178
  23 C :   -0.120014
  24 C :    0.388655
  25 C :   -0.040834
  26 C :   -0.078329
  27 S :    0.145327
  28 C :    0.163958
  29 C :   -0.113211
  30 C :    0.057692
  31 C :   -0.027770
  32 C :   -0.057545
  33 C :    0.160165
  34 N :   -0.226629
  35 C :    0.143290
  36 N :   -0.218199
  37 C :    0.111830
  38 C :   -0.152528
  39 C :    0.132915
  40 C :   -0.031529
  41 C :    0.018019
  42 C :    0.013992
  43 C :    0.022385
  44 C :    0.001062
  45 C :   -0.044688
  46 C :   -0.058485
  47 C :    0.064359
  48 C :   -0.080987
  49 C :   -0.021873
  50 C :   -0.136151
  51 C :   -0.094214
  52 S :    0.154731
  53 C :   -0.038107
  54 C :   -0.125057
  55 C :    0.377730
  56 C :   -0.019306
  57 C :   -0.195883
  58 S :    0.170979
  59 C :    0.244075
  60 C :   -0.089231
  61 C :    0.020752
  62 N :    0.051833
  63 C :   -0.141408
  64 C :   -0.128064
  65 N :    0.041962
  66 C :   -0.223575
  67 N :    0.230388
  68 C :   -0.210021
  69 N :    0.235570
  70 C :   -0.100435
  71 C :    0.117936
  72 C :   -0.061766
  73 N :   -0.324354
  74 S :    0.544881
  75 N :   -0.268978
  76 H :   -0.027547
  77 H :   -0.007042
  78 H :    0.031176
  79 H :    0.030719
  80 H :   -0.026589
  81 H :   -0.049819
  82 H :   -0.035319
  83 H :   -0.027765
  84 H :   -0.002063
  85 H :    0.079127
  86 H :    0.081308
  87 H :   -0.004782
  88 H :   -0.015112
  89 H :    0.101147
  90 H :    0.096935
  91 H :   -0.002442
  92 H :    0.037377
  93 H :   -0.011915
  94 H :   -0.033095
  95 H :   -0.034346
  96 H :   -0.011747
  97 H :    0.008418
  98 H :   -0.016331
  99 H :   -0.022026
 100 H :    0.036041
 101 H :    0.035568
 102 H :   -0.001439
 103 H :   -0.022683
Sum of atomic charges:   -0.0000000

LOEWDIN ATOMIC CHARGES
----------------------
   0 C :   -0.040862
   1 C :   -0.005110
   2 C :   -0.028437
   3 N :   -0.015433
   4 C :   -0.040831
   5 C :   -0.024133
   6 N :   -0.005727
   7 C :   -0.033335
   8 N :   -0.007566
   9 C :   -0.039878
  10 N :   -0.014399
  11 C :   -0.013745
  12 C :   -0.047247
  13 C :   -0.042327
  14 N :   -0.289351
  15 S :    0.664922
  16 N :   -0.281762
  17 C :   -0.177827
  18 C :   -0.017779
  19 C :   -0.060833
  20 C :   -0.172308
  21 S :    0.477039
  22 C :   -0.207443
  23 C :   -0.032569
  24 C :   -0.008872
  25 C :   -0.059361
  26 C :   -0.140362
  27 S :    0.453405
  28 C :   -0.041038
  29 C :   -0.013655
  30 C :   -0.017451
  31 C :   -0.034066
  32 C :   -0.040860
  33 C :    0.032265
  34 N :   -0.131187
  35 C :    0.027283
  36 N :   -0.105172
  37 C :   -0.016615
  38 C :    0.060870
  39 C :   -0.028962
  40 C :   -0.031482
  41 C :   -0.016400
  42 C :   -0.033631
  43 C :   -0.030570
  44 C :   -0.002319
  45 C :   -0.038690
  46 C :    0.001307
  47 C :   -0.055901
  48 C :   -0.158283
  49 C :   -0.055451
  50 C :   -0.034572
  51 C :   -0.206941
  52 S :    0.443252
  53 C :   -0.176969
  54 C :   -0.057696
  55 C :   -0.007817
  56 C :   -0.018206
  57 C :   -0.176024
  58 S :    0.475875
  59 C :   -0.013698
  60 C :   -0.021786
  61 C :   -0.004293
  62 N :   -0.003086
  63 C :   -0.026270
  64 C :   -0.041984
  65 N :    0.008378
  66 C :   -0.040155
  67 N :   -0.015943
  68 C :   -0.034151
  69 N :   -0.005684
  70 C :   -0.033423
  71 C :   -0.043901
  72 C :   -0.055290
  73 N :   -0.301232
  74 S :    0.677662
  75 N :   -0.286649
  76 H :    0.044351
  77 H :    0.031544
  78 H :    0.051901
  79 H :    0.052108
  80 H :    0.029286
  81 H :    0.017717
  82 H :    0.020851
  83 H :   -0.004319
  84 H :    0.017691
  85 H :    0.034861
  86 H :    0.049389
  87 H :    0.003488
  88 H :    0.014023
  89 H :    0.056177
  90 H :    0.057506
  91 H :    0.031518
  92 H :    0.059869
  93 H :    0.025346
  94 H :    0.030551
  95 H :    0.029040
  96 H :    0.018096
  97 H :    0.027121
  98 H :    0.026881
  99 H :    0.031120
 100 H :    0.054164
 101 H :    0.053973
 102 H :    0.032782
 103 H :    0.045710

  Mayer bond orders larger than 0.100000
B(  0-C ,  1-C ) :   1.3279 B(  0-C , 11-C ) :   0.1157 B(  0-C , 13-C ) :   1.1646
B(  0-C , 76-H ) :   1.0591 B(  1-C ,  2-C ) :   1.1213 B(  1-C ,  6-N ) :   1.3304
B(  2-C ,  3-N ) :   1.4219 B(  2-C , 11-C ) :   1.2094 B(  3-N ,  4-C ) :   1.6782
B(  4-C ,  5-C ) :   1.2014 B(  4-C ,  9-C ) :   1.1585 B(  5-C ,  6-N ) :   1.7799
B(  5-C ,  7-C ) :   1.1610 B(  7-C ,  8-N ) :   3.0533 B(  9-C , 10-N ) :   3.0330
B( 11-C , 12-C ) :   1.1935 B( 11-C , 17-C ) :   1.2613 B( 12-C , 13-C ) :   1.1220
B( 12-C , 16-N ) :   1.5182 B( 13-C , 14-N ) :   1.4721 B( 14-N , 15-S ) :   1.2895
B( 14-N , 16-N ) :   0.1529 B( 15-S , 16-N ) :   1.2699 B( 17-C , 18-C ) :   1.3742
B( 17-C , 21-S ) :   1.0713 B( 18-C , 19-C ) :   1.3338 B( 18-C , 77-H ) :   0.9903
B( 19-C , 20-C ) :   1.4485 B( 19-C , 24-C ) :   1.0035 B( 20-C , 21-S ) :   1.0605
B( 20-C , 22-C ) :   1.2131 B( 22-C , 23-C ) :   1.4901 B( 22-C , 27-S ) :   1.0734
B( 23-C , 24-C ) :   1.0111 B( 23-C , 25-C ) :   1.3030 B( 24-C , 78-H ) :   0.8656
B( 24-C , 79-H ) :   0.8637 B( 25-C , 26-C ) :   1.4637 B( 25-C , 80-H ) :   0.9988
B( 26-C , 27-S ) :   1.1225 B( 26-C , 28-C ) :   1.0794 B( 28-C , 29-C ) :   1.5319
B( 28-C , 45-C ) :   1.0956 B( 29-C , 30-C ) :   1.1430 B( 29-C , 81-H ) :   0.9842
B( 30-C , 31-C ) :   1.4604 B( 30-C , 43-C ) :   1.1160 B( 31-C , 32-C ) :   1.0225
B( 31-C , 37-C ) :   1.1212 B( 32-C , 33-C ) :   1.0278 B( 32-C , 35-C ) :   1.0485
B( 32-C , 82-H ) :   0.8766 B( 33-C , 34-N ) :   1.1064 B( 33-C , 83-H ) :   0.9258
B( 33-C , 84-H ) :   0.9463 B( 34-N , 85-H ) :   0.9441 B( 34-N , 86-H ) :   0.9672
B( 35-C , 36-N ) :   1.0800 B( 35-C , 87-H ) :   0.9464 B( 35-C , 88-H ) :   0.9323
B( 36-N , 89-H ) :   0.9623 B( 36-N , 90-H ) :   0.9672 B( 37-C , 38-C ) :   1.6329
B( 37-C , 42-C ) :   1.0428 B( 38-C , 39-C ) :   0.9583 B( 38-C , 91-H ) :   0.9831
B( 39-C , 40-C ) :   0.9873 B( 39-C , 46-C ) :   0.9630 B( 39-C , 92-H ) :   0.8637
B( 40-C , 41-C ) :   1.7051 B( 40-C , 93-H ) :   0.9742 B( 41-C , 42-C ) :   1.1300
B( 41-C , 94-H ) :   0.9898 B( 42-C , 43-C ) :   1.4423 B( 43-C , 44-C ) :   1.1427
B( 44-C , 45-C ) :   1.6295 B( 44-C , 95-H ) :   0.9909 B( 45-C , 96-H ) :   0.9762
B( 46-C , 47-C ) :   1.8131 B( 46-C , 97-H ) :   0.9690 B( 47-C , 48-C ) :   1.0791
B( 47-C , 98-H ) :   0.9574 B( 48-C , 49-C ) :   1.4857 B( 48-C , 52-S ) :   1.1195
B( 49-C , 50-C ) :   1.3049 B( 49-C , 99-H ) :   0.9985 B( 50-C , 51-C ) :   1.5074
B( 50-C , 55-C ) :   1.0114 B( 51-C , 52-S ) :   1.0779 B( 51-C , 53-C ) :   1.1978
B( 53-C , 54-C ) :   1.4617 B( 53-C , 58-S ) :   1.0798 B( 54-C , 55-C ) :   1.0077
B( 54-C , 56-C ) :   1.3157 B( 55-C ,100-H ) :   0.8667 B( 55-C ,101-H ) :   0.8677
B( 56-C , 57-C ) :   1.3800 B( 56-C ,102-H ) :   0.9950 B( 57-C , 58-S ) :   1.0820
B( 57-C , 59-C ) :   1.2328 B( 59-C , 60-C ) :   1.2301 B( 59-C , 70-C ) :   0.1195
B( 59-C , 72-C ) :   1.1861 B( 60-C , 61-C ) :   1.1149 B( 60-C , 65-N ) :   1.4597
B( 61-C , 62-N ) :   1.3326 B( 61-C , 70-C ) :   1.3202 B( 62-N , 63-C ) :   1.7843
B( 63-C , 64-C ) :   1.1962 B( 63-C , 68-C ) :   1.1561 B( 64-C , 65-N ) :   1.7181
B( 64-C , 66-C ) :   1.1502 B( 66-C , 67-N ) :   3.0445 B( 68-C , 69-N ) :   3.0524
B( 70-C , 71-C ) :   1.1718 B( 70-C ,103-H ) :   1.0592 B( 71-C , 72-C ) :   1.1304
B( 71-C , 75-N ) :   1.4646 B( 72-C , 73-N ) :   1.4784 B( 73-N , 74-S ) :   1.2738
B( 73-N , 75-N ) :   0.1558 B( 74-S , 75-N ) :   1.3007

-----------------------------------------------------------------------------
         ABSORPTION SPECTRUM VIA TRANSITION ELECTRIC DIPOLE MOMENTS
-----------------------------------------------------------------------------
State   Energy  Wavelength   fosc         T2         TX        TY        TZ
        (cm-1)    (nm)                  (au**2)     (au)      (au)      (au)
-----------------------------------------------------------------------------
   0   10175.6    982.7   0.848338402  27.44624  -4.92877   1.69839  -0.51859
   1   11734.1    852.2   0.453605161  12.72630   3.50694  -0.29503  -0.58362
   2   13840.7    722.5   0.032035843   0.76200   0.70360   0.50144   0.12452
   3   15147.1    660.2   0.002281203   0.04958  -0.18524  -0.05847  -0.10884
   4   16150.1    619.2   0.028378002   0.57847  -0.06599   0.73908   0.16696
   5   21358.3    468.2   0.009562849   0.14740  -0.35825   0.06404  -0.12231
   6   22102.8    452.4   0.079074782   1.17778   1.07637  -0.10866   0.08603
   7   22559.0    443.3   0.783014435  11.42682   3.26631  -0.55844   0.66795
   8   23837.9    419.5   0.013484805   0.18623  -0.39621   0.16924  -0.02464
   9   24158.9    413.9   0.064590312   0.88017  -0.92070   0.09295   0.15438
  10   24755.0    404.0   0.216602264   2.88055  -1.61359   0.52443  -0.04291
  11   25302.4    395.2   0.186865618   2.43133   1.52378   0.05253  -0.32658
  12   25523.5    391.8   0.121162055   1.56279   1.22367  -0.01154  -0.25554
  13   25559.0    391.3   0.003410404   0.04393  -0.14425  -0.09848   0.11586
  14   25806.3    387.5   0.024623956   0.31413  -0.40972  -0.26348  -0.27719
  15   26183.9    381.9   0.098278465   1.23566  -1.10790   0.04023  -0.08125
  16   26417.0    378.5   0.244940878   3.05249  -1.63496  -0.19154  -0.58540
  17   26635.4    375.4   0.003403126   0.04206  -0.10544  -0.17244   0.03480
  18   26705.2    374.5   0.084373968   1.04013  -0.97224   0.06298  -0.30151
  19   27094.5    369.1   0.026768577   0.32525  -0.44450   0.28874  -0.21047
  20   27257.5    366.9   0.007509275   0.09070   0.29973  -0.02805  -0.00830
  21   27631.8    361.9   0.185127092   2.20565   1.38643  -0.36673   0.38597
  22   30136.7    331.8   0.613740389   6.70448   2.36032  -0.29458  -1.02302
  23   30192.6    331.2   0.014468320   0.15776  -0.36929   0.06342   0.13176
  24   30846.0    324.2   0.002087106   0.02228  -0.07325  -0.11890   0.05265
  25   30886.2    323.8   0.000078190   0.00083   0.00502  -0.02419  -0.01494
  26   31023.2    322.3   0.260875266   2.76835  -1.09419  -1.12187  -0.55902
  27   31345.9    319.0   0.022205820   0.23322  -0.29628   0.36037  -0.12479
  28   31457.0    317.9   0.028197626   0.29510  -0.49109  -0.22529  -0.05639
  29   31679.0    315.7   0.025683477   0.26691  -0.10797   0.05561   0.50215
  30   31771.7    314.7   0.216326442   2.24153  -0.51715   0.43621  -1.33559
  31   32182.3    310.7   0.488617095   4.99836   0.17446   1.77848   1.34348
  32   32273.1    309.9   0.000049370   0.00050   0.01991  -0.00717   0.00747
  33   32474.7    307.9   0.043158979   0.43752  -0.11660   0.24895  -0.60163
  34   32730.1    305.5   0.397071463   3.99390  -0.44955   0.52243  -1.87586
  35   32962.0    303.4   0.002707611   0.02704   0.03892   0.06593   0.14553
  36   33406.2    299.3   0.039081806   0.38514  -0.60159   0.07433   0.13308
  37   33757.6    296.2   0.088829956   0.86629   0.19210  -0.22231  -0.88316
  38   34038.7    293.8   0.354854811   3.43205   1.15643   1.37241   0.45958
  39   34256.7    291.9   0.008031227   0.07718   0.11093  -0.23380  -0.10107
  40   34435.2    290.4   0.011346724   0.10848  -0.24147   0.11016  -0.19503
  41   34977.5    285.9   0.065876563   0.62004   0.23621   0.73815   0.13917
  42   35260.5    283.6   0.004200857   0.03922  -0.03306   0.09873  -0.16847
  43   35663.6    280.4   0.016563559   0.15290  -0.32203  -0.12083  -0.18599
  44   35701.2    280.1   0.001470218   0.01356   0.07013   0.03729  -0.08514
  45   35862.1    278.8   0.000043046   0.00040  -0.01745  -0.00790   0.00533
  46   36838.3    271.5   0.022143322   0.19789  -0.37032  -0.20229  -0.14081
  47   36927.8    270.8   0.163464370   1.45729   1.06459   0.37714   0.42625
  48   37417.1    267.3   0.126257191   1.11086  -0.93948  -0.09068  -0.46907
  49   37866.1    264.1   0.005887971   0.05119  -0.17312  -0.14265   0.02951
  50   38061.5    262.7   0.003654463   0.03161  -0.04998  -0.16718   0.03408
  51   38170.3    262.0   0.026807335   0.23121   0.03129   0.35374   0.32418
  52   38398.1    260.4   0.007695631   0.06598  -0.15228   0.06022  -0.19790
  53   38769.2    257.9   0.059501521   0.50526   0.29239   0.16453   0.62666
  54   39160.6    255.4   0.073884735   0.62113   0.51572   0.33786   0.49093
  55   39321.5    254.3   0.026247063   0.21975  -0.19387  -0.32817  -0.27288
  56   39623.3    252.4   0.219235122   1.82153   0.21097  -0.45677   1.25235
  57   39994.8    250.0   0.115560934   0.95122   0.06579  -0.95307  -0.19636
  58   40167.3    249.0   0.241959064   1.98310   0.32093   1.29456   0.45190
  59   40289.1    248.2   0.000191229   0.00156   0.01504  -0.00655  -0.03597

FINAL SINGLE POINT ENERGY     -5301.858521123236

DIPOLE MOMENT
-------------
                                X             Y             Z
Electronic contribution:     13.13785      34.34579      -6.95041
Nuclear contribution   :    -13.18797     -37.95108       8.44145
                        -----------------------------------------
Total Dipole Moment    :     -0.05013      -3.60529       1.49104
                        -----------------------------------------
Magnitude (a.u.)       :      3.90177
Magnitude (Debye)      :      9.91752

Rotational constants in cm-1:     0.002098     0.000120     0.000119
Rotational constants in MHz :    62.901981     3.593154     3.578498

                             ****ORCA TERMINATED NORMALLY****
TOTAL RUN TIME: 0 days 0 hours 11 minutes 49 seconds 250 msec
