                         Program Version 4.2.0 -  RELEASE  -
|  1> # ORCA input file
|  2> # SCF done       -197.252801450815          0.000827872316
|  3> ! CAM-B3LYP def2-SVP def2/J RIJCOSX Grid4 TightSCF
|  4> %maxcore 5000
|  5> %tddft
|  6>     Mode sTDDFT
|  7>     Ethresh 5.0
|  8>     maxcore 5000
|  9> end
| 10>
| 11> %pal
| 12>   nprocs 6
| 13>   end
| 14> * xyz 0 1
| 15>    C        0.54192         4.17309        -4.42480
| 16>    C       -0.77155         3.56207        -4.77707
| 17>    O       -1.20262         3.39037        -5.89538
| 18>    C       -1.36672         3.17107        -3.48525
| 19>    C       -0.55916         3.62602        -2.44144
| 20>    C        0.54913         4.39733        -2.99541
| 21>    C        1.27980         5.34373        -2.32815
| 22>    C        2.09041         6.29502        -2.98449
| 23>    N        2.70337         7.12558        -3.48583
| 24>    C        1.24421         5.53905        -0.93325
| 25>    N        1.29006         5.71413         0.20062
| 26>    C       -0.89227         3.35314        -1.10866
| 27>    C       -2.03037         2.63514        -0.84880
| 28>    C       -2.87781         2.17349        -1.87979
| 29>    C       -2.54637         2.44137        -3.24022
| 30>    C       -3.39474         1.97607        -4.26554
| 31>    C       -4.52788         1.27604        -3.95511
| 32>    C       -4.85990         1.01060        -2.61682
| 33>    C       -4.05397         1.44786        -1.60182
| 34>    C        1.52063         4.26566        -5.36367
| 35>    C        2.91208         4.41036        -5.15967
| 36>    O        3.48004         4.31792        -3.93155
| 37>    C        4.81882         4.43043        -4.04053
| 38>    C        5.13601         4.59218        -5.38427
| 39>    C        3.93032         4.57212        -6.09370
| 40>    F        3.76694         4.68597        -7.40686
| 41>    F        6.35659         4.73464        -5.90416
| 42>    C        5.63037         4.37512        -2.85497
| 43>    C        7.00498         4.37936        -2.93182
| 44>    C        7.77102         4.30639        -1.75155
| 45>    C        9.14322         4.26200        -1.54688
| 46>    C       10.24217         4.31118        -2.55378
| 47>    C       10.19974         3.09261        -3.49712
| 48>    N       11.52789         2.85795        -4.03128
| 49>    C       10.21563         5.63813        -3.33575
| 50>    N       11.42717         5.78812        -4.12873
| 51>    C        9.34396         4.13431        -0.12096
| 52>    C       10.46598         3.98121         0.60541
| 53>    C       10.41517         3.79516         2.08621
| 54>    C        9.04941         3.92217         2.68425
| 55>    C        7.93699         4.06222         1.94167
| 56>    C        8.02645         4.14217         0.53093
| 57>    C        7.08056         4.23901        -0.46609
| 58>    C        5.66601         4.25638        -0.42519
| 59>    C        4.96682         4.31356        -1.58310
| 60>    C       11.40580         4.71081         2.75369
| 61>    C       11.13583         5.98450         3.05812
| 62>    C       12.05526         6.82378         3.76665
| 63>    O       13.21467         6.32135         4.23634
| 64>    C       13.85885         7.27428         4.95432
| 65>    C       13.10262         8.43955         4.90940
| 66>    C       11.95005         8.14719         4.16331
| 67>    F       10.94583         8.96936         3.87500
| 68>    F       13.42184         9.59284         5.48112
| 69>    C       15.10641         7.02863         5.58218
| 70>    C       15.75194         5.84334         5.71826
| 71>    C       17.21473         5.82120         6.02028
| 72>    O       17.86346         6.74013         6.46502
| 73>    C       17.66807         4.48382         5.59742
| 74>    C       16.56898         3.71974         5.19781
| 75>    C       15.34755         4.48171         5.42826
| 76>    C       14.09413         3.95590         5.58679
| 77>    C       13.02633         4.66265         6.18218
| 78>    N       12.14829         5.16494         6.72338
| 79>    C       13.72701         2.64254         5.23426
| 80>    N       13.33973         1.61395         4.90135
| 81>    C       16.74130         2.41295         4.72315
| 82>    C       18.00909         1.89614         4.66464
| 83>    C       19.14003         2.63404         5.07863
| 84>    C       18.97781         3.96683         5.55891
| 85>    C       20.10966         4.69769         5.97366
| 86>    C       21.35248         4.12919         5.91787
| 87>    C       21.51794         2.81713         5.44602
| 88>    C       20.43761         2.08563         5.03438
| 89>    H       -0.26125         3.69032        -0.30227
| 90>    H       -2.29975         2.41039         0.17318
| 91>    H       -3.12928         2.18532        -5.28971
| 92>    H       -5.17793         0.92121        -4.74081
| 93>    H       -5.75969         0.45615        -2.39472
| 94>    H       -4.30746         1.24532        -0.57121
| 95>    H        1.21907         4.11695        -6.39405
| 96>    H        7.49773         4.41795        -3.88819
| 97>    H       11.20182         4.25645        -2.03023
| 98>    H        9.43676         3.26138        -4.27273
| 99>    H        9.90366         2.20677        -2.92400
|100>    H       11.82998         3.69764        -4.51936
|101>    H       11.51130         2.09018        -4.69369
|102>    H       10.06693         6.46121        -2.61556
|103>    H        9.36914         5.64583        -4.02515
|104>    H       12.23239         5.90031        -3.52044
|105>    H       11.36308         6.61328        -4.71480
|106>    H       11.44753         3.95977         0.15213
|107>    H       10.75949         2.76505         2.27599
|108>    H        9.00612         3.87065         3.76097
|109>    H        6.96539         4.12127         2.40897
|110>    H        5.15799         4.21694         0.52635
|111>    H        3.88879         4.31821        -1.57512
|112>    H       12.37705         4.29968         2.98904
|113>    H       10.18315         6.43184         2.81472
|114>    H       15.63124         7.91101         5.92959
|115>    H       15.89564         1.82718         4.40065
|116>    H       18.16108         0.89182         4.29649
|117>    H       19.97103         5.70480         6.33368
|118>    H       22.21855         4.68830         6.23840
|119>    H       22.50838         2.38839         5.41075
|120>    H       20.56226         1.07551         4.67211
|121> *
|122>
|123>                          ****END OF INPUT****

CARTESIAN COORDINATES (ANGSTROEM)
---------------------------------
  C      0.541920    4.173090   -4.424800
  C     -0.771550    3.562070   -4.777070
  O     -1.202620    3.390370   -5.895380
  C     -1.366720    3.171070   -3.485250
  C     -0.559160    3.626020   -2.441440
  C      0.549130    4.397330   -2.995410
  C      1.279800    5.343730   -2.328150
  C      2.090410    6.295020   -2.984490
  N      2.703370    7.125580   -3.485830
  C      1.244210    5.539050   -0.933250
  N      1.290060    5.714130    0.200620
  C     -0.892270    3.353140   -1.108660
  C     -2.030370    2.635140   -0.848800
  C     -2.877810    2.173490   -1.879790
  C     -2.546370    2.441370   -3.240220
  C     -3.394740    1.976070   -4.265540
  C     -4.527880    1.276040   -3.955110
  C     -4.859900    1.010600   -2.616820
  C     -4.053970    1.447860   -1.601820
  C      1.520630    4.265660   -5.363670
  C      2.912080    4.410360   -5.159670
  O      3.480040    4.317920   -3.931550
  C      4.818820    4.430430   -4.040530
  C      5.136010    4.592180   -5.384270
  C      3.930320    4.572120   -6.093700
  F      3.766940    4.685970   -7.406860
  F      6.356590    4.734640   -5.904160
  C      5.630370    4.375120   -2.854970
  C      7.004980    4.379360   -2.931820
  C      7.771020    4.306390   -1.751550
  C      9.143220    4.262000   -1.546880
  C     10.242170    4.311180   -2.553780
  C     10.199740    3.092610   -3.497120
  N     11.527890    2.857950   -4.031280
  C     10.215630    5.638130   -3.335750
  N     11.427170    5.788120   -4.128730
  C      9.343960    4.134310   -0.120960
  C     10.465980    3.981210    0.605410
  C     10.415170    3.795160    2.086210
  C      9.049410    3.922170    2.684250
  C      7.936990    4.062220    1.941670
  C      8.026450    4.142170    0.530930
  C      7.080560    4.239010   -0.466090
  C      5.666010    4.256380   -0.425190
  C      4.966820    4.313560   -1.583100
  C     11.405800    4.710810    2.753690
  C     11.135830    5.984500    3.058120
  C     12.055260    6.823780    3.766650
  O     13.214670    6.321350    4.236340
  C     13.858850    7.274280    4.954320
  C     13.102620    8.439550    4.909400
  C     11.950050    8.147190    4.163310
  F     10.945830    8.969360    3.875000
  F     13.421840    9.592840    5.481120
  C     15.106410    7.028630    5.582180
  C     15.751940    5.843340    5.718260
  C     17.214730    5.821200    6.020280
  O     17.863460    6.740130    6.465020
  C     17.668070    4.483820    5.597420
  C     16.568980    3.719740    5.197810
  C     15.347550    4.481710    5.428260
  C     14.094130    3.955900    5.586790
  C     13.026330    4.662650    6.182180
  N     12.148290    5.164940    6.723380
  C     13.727010    2.642540    5.234260
  N     13.339730    1.613950    4.901350
  C     16.741300    2.412950    4.723150
  C     18.009090    1.896140    4.664640
  C     19.140030    2.634040    5.078630
  C     18.977810    3.966830    5.558910
  C     20.109660    4.697690    5.973660
  C     21.352480    4.129190    5.917870
  C     21.517940    2.817130    5.446020
  C     20.437610    2.085630    5.034380
  H     -0.261250    3.690320   -0.302270
  H     -2.299750    2.410390    0.173180
  H     -3.129280    2.185320   -5.289710
  H     -5.177930    0.921210   -4.740810
  H     -5.759690    0.456150   -2.394720
  H     -4.307460    1.245320   -0.571210
  H      1.219070    4.116950   -6.394050
  H      7.497730    4.417950   -3.888190
  H     11.201820    4.256450   -2.030230
  H      9.436760    3.261380   -4.272730
  H      9.903660    2.206770   -2.924000
  H     11.829980    3.697640   -4.519360
  H     11.511300    2.090180   -4.693690
  H     10.066930    6.461210   -2.615560
  H      9.369140    5.645830   -4.025150
  H     12.232390    5.900310   -3.520440
  H     11.363080    6.613280   -4.714800
  H     11.447530    3.959770    0.152130
  H     10.759490    2.765050    2.275990
  H      9.006120    3.870650    3.760970
  H      6.965390    4.121270    2.408970
  H      5.157990    4.216940    0.526350
  H      3.888790    4.318210   -1.575120
  H     12.377050    4.299680    2.989040
  H     10.183150    6.431840    2.814720
  H     15.631240    7.911010    5.929590
  H     15.895640    1.827180    4.400650
  H     18.161080    0.891820    4.296490
  H     19.971030    5.704800    6.333680
  H     22.218550    4.688300    6.238400
  H     22.508380    2.388390    5.410750
  H     20.562260    1.075510    4.672110

 Total Charge           Charge          ....    0
 Multiplicity           Mult            ....    1
 Number of Electrons    NEL             ....  502
 Basis Dimension        Dim             .... 1196

ORBITAL ENERGIES
----------------

  NO   OCC          E(Eh)            E(eV)
   0   2.0000     -24.821050      -675.4151
   1   2.0000     -24.814771      -675.2442
   2   2.0000     -24.811834      -675.1643
   3   2.0000     -24.809286      -675.0950
   4   2.0000     -19.319946      -525.7225
   5   2.0000     -19.312744      -525.5265
   6   2.0000     -19.221724      -523.0497
   7   2.0000     -19.213224      -522.8184
   8   2.0000     -14.423254      -392.4767
   9   2.0000     -14.415088      -392.2545
  10   2.0000     -14.412451      -392.1827
  11   2.0000     -14.406158      -392.0115
  12   2.0000     -14.390749      -391.5922
  13   2.0000     -14.355704      -390.6386
  14   2.0000     -10.392292      -282.7886
  15   2.0000     -10.384871      -282.5867
  16   2.0000     -10.380898      -282.4786
  17   2.0000     -10.372860      -282.2599
  18   2.0000     -10.372691      -282.2553
  19   2.0000     -10.365703      -282.0651
  20   2.0000     -10.364337      -282.0279
  21   2.0000     -10.360578      -281.9257
  22   2.0000     -10.360301      -281.9181
  23   2.0000     -10.350761      -281.6585
  24   2.0000     -10.347957      -281.5822
  25   2.0000     -10.345351      -281.5113
  26   2.0000     -10.338635      -281.3285
  27   2.0000     -10.335898      -281.2541
  28   2.0000     -10.327075      -281.0140
  29   2.0000     -10.325725      -280.9773
  30   2.0000     -10.318570      -280.7826
  31   2.0000     -10.318342      -280.7764
  32   2.0000     -10.315074      -280.6874
  33   2.0000     -10.313569      -280.6465
  34   2.0000     -10.309593      -280.5383
  35   2.0000     -10.307993      -280.4947
  36   2.0000     -10.305056      -280.4148
  37   2.0000     -10.303255      -280.3658
  38   2.0000     -10.301842      -280.3274
  39   2.0000     -10.301033      -280.3053
  40   2.0000     -10.300271      -280.2846
  41   2.0000     -10.299839      -280.2729
  42   2.0000     -10.299550      -280.2650
  43   2.0000     -10.299061      -280.2517
  44   2.0000     -10.298747      -280.2432
  45   2.0000     -10.295546      -280.1560
  46   2.0000     -10.293098      -280.0894
  47   2.0000     -10.292854      -280.0828
  48   2.0000     -10.292669      -280.0778
  49   2.0000     -10.292107      -280.0625
  50   2.0000     -10.291414      -280.0436
  51   2.0000     -10.291181      -280.0373
  52   2.0000     -10.287623      -279.9405
  53   2.0000     -10.287117      -279.9267
  54   2.0000     -10.287001      -279.9235
  55   2.0000     -10.286447      -279.9085
  56   2.0000     -10.284502      -279.8555
  57   2.0000     -10.280643      -279.7505
  58   2.0000     -10.280580      -279.7488
  59   2.0000     -10.280554      -279.7481
  60   2.0000     -10.279971      -279.7322
  61   2.0000     -10.277931      -279.6767
  62   2.0000     -10.276538      -279.6388
  63   2.0000     -10.273937      -279.5681
  64   2.0000     -10.273167      -279.5471
  65   2.0000     -10.272685      -279.5340
  66   2.0000     -10.271256      -279.4951
  67   2.0000     -10.270798      -279.4826
  68   2.0000     -10.269665      -279.4518
  69   2.0000     -10.268173      -279.4112
  70   2.0000     -10.266378      -279.3624
  71   2.0000     -10.265496      -279.3383
  72   2.0000     -10.264043      -279.2988
  73   2.0000     -10.263172      -279.2751
  74   2.0000      -1.337796       -36.4033
  75   2.0000      -1.331231       -36.2246
  76   2.0000      -1.324611       -36.0445
  77   2.0000      -1.319487       -35.9051
  78   2.0000      -1.242182       -33.8015
  79   2.0000      -1.234707       -33.5981
  80   2.0000      -1.137331       -30.9483
  81   2.0000      -1.128381       -30.7048
  82   2.0000      -1.023199       -27.8427
  83   2.0000      -1.013717       -27.5846
  84   2.0000      -1.003992       -27.3200
  85   2.0000      -0.997134       -27.1334
  86   2.0000      -0.994802       -27.0699
  87   2.0000      -0.987726       -26.8774
  88   2.0000      -0.986863       -26.8539
  89   2.0000      -0.973192       -26.4819
  90   2.0000      -0.972500       -26.4631
  91   2.0000      -0.965354       -26.2686
  92   2.0000      -0.954740       -25.9798
  93   2.0000      -0.939451       -25.5638
  94   2.0000      -0.937207       -25.5027
  95   2.0000      -0.930177       -25.3114
  96   2.0000      -0.928537       -25.2668
  97   2.0000      -0.923483       -25.1293
  98   2.0000      -0.920505       -25.0482
  99   2.0000      -0.915974       -24.9249
 100   2.0000      -0.905861       -24.6497
 101   2.0000      -0.901864       -24.5410
 102   2.0000      -0.893351       -24.3093
 103   2.0000      -0.886871       -24.1330
 104   2.0000      -0.874737       -23.8028
 105   2.0000      -0.865219       -23.5438
 106   2.0000      -0.858908       -23.3721
 107   2.0000      -0.849598       -23.1187
 108   2.0000      -0.843825       -22.9616
 109   2.0000      -0.840572       -22.8731
 110   2.0000      -0.834650       -22.7120
 111   2.0000      -0.831095       -22.6153
 112   2.0000      -0.822017       -22.3682
 113   2.0000      -0.803801       -21.8725
 114   2.0000      -0.783815       -21.3287
 115   2.0000      -0.776935       -21.1415
 116   2.0000      -0.769407       -20.9366
 117   2.0000      -0.763079       -20.7644
 118   2.0000      -0.759239       -20.6600
 119   2.0000      -0.745265       -20.2797
 120   2.0000      -0.734501       -19.9868
 121   2.0000      -0.729610       -19.8537
 122   2.0000      -0.722870       -19.6703
 123   2.0000      -0.721016       -19.6198
 124   2.0000      -0.717071       -19.5125
 125   2.0000      -0.715215       -19.4620
 126   2.0000      -0.709609       -19.3095
 127   2.0000      -0.708273       -19.2731
 128   2.0000      -0.701139       -19.0790
 129   2.0000      -0.695119       -18.9152
 130   2.0000      -0.688915       -18.7463
 131   2.0000      -0.686491       -18.6804
 132   2.0000      -0.679423       -18.4880
 133   2.0000      -0.679024       -18.4772
 134   2.0000      -0.670632       -18.2488
 135   2.0000      -0.668327       -18.1861
 136   2.0000      -0.660708       -17.9788
 137   2.0000      -0.655848       -17.8465
 138   2.0000      -0.652630       -17.7590
 139   2.0000      -0.640504       -17.4290
 140   2.0000      -0.634341       -17.2613
 141   2.0000      -0.630402       -17.1541
 142   2.0000      -0.625975       -17.0337
 143   2.0000      -0.622861       -16.9489
 144   2.0000      -0.620959       -16.8971
 145   2.0000      -0.614874       -16.7316
 146   2.0000      -0.613009       -16.6808
 147   2.0000      -0.607842       -16.5402
 148   2.0000      -0.605213       -16.4687
 149   2.0000      -0.598984       -16.2992
 150   2.0000      -0.596811       -16.2401
 151   2.0000      -0.593160       -16.1407
 152   2.0000      -0.591713       -16.1013
 153   2.0000      -0.586898       -15.9703
 154   2.0000      -0.584254       -15.8984
 155   2.0000      -0.579026       -15.7561
 156   2.0000      -0.576513       -15.6877
 157   2.0000      -0.572001       -15.5649
 158   2.0000      -0.566105       -15.4045
 159   2.0000      -0.565772       -15.3955
 160   2.0000      -0.563240       -15.3265
 161   2.0000      -0.559906       -15.2358
 162   2.0000      -0.559136       -15.2149
 163   2.0000      -0.558390       -15.1946
 164   2.0000      -0.555905       -15.1270
 165   2.0000      -0.553257       -15.0549
 166   2.0000      -0.547452       -14.8969
 167   2.0000      -0.546389       -14.8680
 168   2.0000      -0.541768       -14.7423
 169   2.0000      -0.539702       -14.6860
 170   2.0000      -0.534876       -14.5547
 171   2.0000      -0.534437       -14.5428
 172   2.0000      -0.532657       -14.4943
 173   2.0000      -0.531667       -14.4674
 174   2.0000      -0.528004       -14.3677
 175   2.0000      -0.526315       -14.3218
 176   2.0000      -0.524838       -14.2816
 177   2.0000      -0.520963       -14.1761
 178   2.0000      -0.519679       -14.1412
 179   2.0000      -0.519341       -14.1320
 180   2.0000      -0.514429       -13.9983
 181   2.0000      -0.513826       -13.9819
 182   2.0000      -0.511655       -13.9228
 183   2.0000      -0.510332       -13.8868
 184   2.0000      -0.508972       -13.8498
 185   2.0000      -0.508450       -13.8356
 186   2.0000      -0.505058       -13.7433
 187   2.0000      -0.502772       -13.6811
 188   2.0000      -0.501169       -13.6375
 189   2.0000      -0.499300       -13.5866
 190   2.0000      -0.497019       -13.5246
 191   2.0000      -0.490271       -13.3410
 192   2.0000      -0.489229       -13.3126
 193   2.0000      -0.486716       -13.2442
 194   2.0000      -0.482830       -13.1385
 195   2.0000      -0.481882       -13.1127
 196   2.0000      -0.478805       -13.0290
 197   2.0000      -0.474079       -12.9004
 198   2.0000      -0.472678       -12.8622
 199   2.0000      -0.469417       -12.7735
 200   2.0000      -0.466550       -12.6955
 201   2.0000      -0.465125       -12.6567
 202   2.0000      -0.457538       -12.4503
 203   2.0000      -0.455641       -12.3986
 204   2.0000      -0.450112       -12.2482
 205   2.0000      -0.446515       -12.1503
 206   2.0000      -0.445349       -12.1186
 207   2.0000      -0.444093       -12.0844
 208   2.0000      -0.443344       -12.0640
 209   2.0000      -0.439620       -11.9627
 210   2.0000      -0.438179       -11.9234
 211   2.0000      -0.437216       -11.8973
 212   2.0000      -0.436281       -11.8718
 213   2.0000      -0.435727       -11.8567
 214   2.0000      -0.433690       -11.8013
 215   2.0000      -0.431759       -11.7488
 216   2.0000      -0.429656       -11.6915
 217   2.0000      -0.428191       -11.6517
 218   2.0000      -0.426471       -11.6049
 219   2.0000      -0.425230       -11.5711
 220   2.0000      -0.422719       -11.5028
 221   2.0000      -0.420828       -11.4513
 222   2.0000      -0.415360       -11.3025
 223   2.0000      -0.412763       -11.2318
 224   2.0000      -0.410916       -11.1816
 225   2.0000      -0.409166       -11.1340
 226   2.0000      -0.405807       -11.0426
 227   2.0000      -0.399195       -10.8627
 228   2.0000      -0.397195       -10.8082
 229   2.0000      -0.394917       -10.7462
 230   2.0000      -0.388082       -10.5603
 231   2.0000      -0.381095       -10.3701
 232   2.0000      -0.376718       -10.2510
 233   2.0000      -0.368863       -10.0373
 234   2.0000      -0.368465       -10.0264
 235   2.0000      -0.362203        -9.8560
 236   2.0000      -0.356988        -9.7141
 237   2.0000      -0.348744        -9.4898
 238   2.0000      -0.339057        -9.2262
 239   2.0000      -0.335232        -9.1221
 240   2.0000      -0.331126        -9.0104
 241   2.0000      -0.322529        -8.7765
 242   2.0000      -0.318877        -8.6771
 243   2.0000      -0.312482        -8.5031
 244   2.0000      -0.309879        -8.4322
 245   2.0000      -0.297457        -8.0942
 246   2.0000      -0.290084        -7.8936
 247   2.0000      -0.285225        -7.7614
 248   2.0000      -0.278905        -7.5894
 249   2.0000      -0.270909        -7.3718
 250   2.0000      -0.224095        -6.0979
 251   0.0000      -0.093420        -2.5421
 252   0.0000      -0.087702        -2.3865
 253   0.0000      -0.073311        -1.9949
 254   0.0000      -0.070486        -1.9180
 255   0.0000      -0.058643        -1.5958

MULLIKEN ATOMIC CHARGES
-----------------------
   0 C :   -0.110776
   1 C :    0.121893
   2 O :   -0.152236
   3 C :    0.002903
   4 C :   -0.000010
   5 C :    0.265984
   6 C :   -0.324002
   7 C :   -0.204336
   8 N :    0.167744
   9 C :   -0.187673
  10 N :    0.156025
  11 C :   -0.023250
  12 C :    0.002753
  13 C :    0.080112
  14 C :    0.037020
  15 C :   -0.027800
  16 C :    0.038393
  17 C :    0.039122
  18 C :   -0.022424
  19 C :    0.023912
  20 C :    0.067591
  21 O :   -0.212499
  22 C :    0.128819
  23 C :    0.144278
  24 C :    0.213472
  25 F :   -0.149002
  26 F :   -0.164302
  27 C :    0.094152
  28 C :   -0.103358
  29 C :    0.053648
  30 C :   -0.022464
  31 C :   -0.059669
  32 C :    0.157512
  33 N :   -0.227170
  34 C :    0.138468
  35 N :   -0.218040
  36 C :    0.100532
  37 C :   -0.120666
  38 C :    0.160841
  39 C :   -0.060813
  40 C :    0.018961
  41 C :    0.013477
  42 C :    0.022953
  43 C :    0.010926
  44 C :   -0.008003
  45 C :   -0.076477
  46 C :    0.032716
  47 C :    0.114022
  48 O :   -0.215867
  49 C :    0.062426
  50 C :    0.205477
  51 C :    0.171610
  52 F :   -0.155798
  53 F :   -0.144659
  54 C :    0.025066
  55 C :   -0.098627
  56 C :    0.119573
  57 O :   -0.145725
  58 C :    0.003008
  59 C :    0.001332
  60 C :    0.261385
  61 C :   -0.330769
  62 C :   -0.202661
  63 N :    0.170365
  64 C :   -0.177550
  65 N :    0.148463
  66 C :   -0.026917
  67 C :    0.009011
  68 C :    0.076909
  69 C :    0.034730
  70 C :   -0.023904
  71 C :    0.038670
  72 C :    0.037288
  73 C :   -0.016873
  74 H :   -0.001233
  75 H :   -0.014060
  76 H :    0.000137
  77 H :   -0.007409
  78 H :   -0.007847
  79 H :   -0.022235
  80 H :    0.026757
  81 H :   -0.025872
  82 H :   -0.035616
  83 H :   -0.022038
  84 H :   -0.003224
  85 H :    0.080743
  86 H :    0.081264
  87 H :   -0.000980
  88 H :   -0.005183
  89 H :    0.099982
  90 H :    0.099285
  91 H :   -0.004389
  92 H :    0.057775
  93 H :    0.002837
  94 H :   -0.030105
  95 H :   -0.026586
  96 H :   -0.022502
  97 H :    0.015892
  98 H :    0.021784
  99 H :    0.029027
 100 H :   -0.000960
 101 H :   -0.013074
 102 H :    0.000686
 103 H :   -0.005786
 104 H :   -0.005543
 105 H :   -0.020745
Sum of atomic charges:   -0.0000000

LOEWDIN ATOMIC CHARGES
----------------------
   0 C :   -0.088810
   1 C :    0.086777
   2 O :   -0.144254
   3 C :   -0.033802
   4 C :   -0.003143
   5 C :    0.070574
   6 C :   -0.136855
   7 C :   -0.025091
   8 N :   -0.055501
   9 C :   -0.022354
  10 N :   -0.054494
  11 C :   -0.018598
  12 C :    0.017897
  13 C :   -0.010037
  14 C :   -0.003053
  15 C :   -0.002445
  16 C :   -0.013129
  17 C :   -0.013830
  18 C :   -0.012817
  19 C :    0.045829
  20 C :   -0.020286
  21 O :    0.037103
  22 C :    0.052349
  23 C :    0.012467
  24 C :    0.058939
  25 F :   -0.028247
  26 F :   -0.039630
  27 C :   -0.047047
  28 C :    0.006538
  29 C :   -0.023299
  30 C :   -0.018683
  31 C :   -0.041640
  32 C :    0.032481
  33 N :   -0.132307
  34 C :    0.027958
  35 N :   -0.101090
  36 C :   -0.019345
  37 C :    0.073009
  38 C :   -0.031590
  39 C :   -0.030408
  40 C :   -0.016560
  41 C :   -0.037561
  42 C :   -0.027872
  43 C :    0.001652
  44 C :   -0.025149
  45 C :    0.021073
  46 C :   -0.033772
  47 C :    0.035519
  48 O :    0.033694
  49 C :   -0.016717
  50 C :    0.055826
  51 C :    0.016720
  52 F :   -0.036443
  53 F :   -0.025217
  54 C :    0.046252
  55 C :   -0.083243
  56 C :    0.086501
  57 O :   -0.139344
  58 C :   -0.033299
  59 C :   -0.003509
  60 C :    0.071028
  61 C :   -0.135497
  62 C :   -0.025897
  63 N :   -0.053358
  64 C :   -0.021514
  65 N :   -0.055741
  66 C :   -0.020233
  67 C :    0.020278
  68 C :   -0.009516
  69 C :   -0.002838
  70 C :   -0.001816
  71 C :   -0.011065
  72 C :   -0.011729
  73 C :   -0.011871
  74 H :    0.039065
  75 H :    0.035001
  76 H :    0.035301
  77 H :    0.032282
  78 H :    0.031482
  79 H :    0.029864
  80 H :    0.056147
  81 H :    0.020851
  82 H :    0.020851
  83 H :   -0.002068
  84 H :    0.016566
  85 H :    0.034238
  86 H :    0.049334
  87 H :    0.004593
  88 H :    0.017530
  89 H :    0.055913
  90 H :    0.058500
  91 H :    0.031748
  92 H :    0.071420
  93 H :    0.030033
  94 H :    0.032386
  95 H :    0.032440
  96 H :    0.028022
  97 H :    0.029183
  98 H :    0.046759
  99 H :    0.057099
 100 H :    0.038959
 101 H :    0.035765
 102 H :    0.035688
 103 H :    0.033098
 104 H :    0.032437
 105 H :    0.030596

  Mayer bond orders larger than 0.100000
B(  0-C ,  1-C ) :   0.9585 B(  0-C ,  5-C ) :   1.0339 B(  0-C , 19-C ) :   1.6100
B(  1-C ,  2-O ) :   2.1963 B(  1-C ,  3-C ) :   0.9391 B(  3-C ,  4-C ) :   1.4147
B(  3-C , 14-C ) :   1.2392 B(  4-C ,  5-C ) :   1.0082 B(  4-C , 11-C ) :   1.2612
B(  5-C ,  6-C ) :   1.6605 B(  6-C ,  7-C ) :   1.1583 B(  6-C ,  9-C ) :   1.1306
B(  7-C ,  8-N ) :   3.0149 B(  9-C , 10-N ) :   2.9824 B( 11-C , 12-C ) :   1.4672
B( 11-C , 74-H ) :   0.9864 B( 12-C , 13-C ) :   1.2232 B( 12-C , 75-H ) :   0.9947
B( 13-C , 14-C ) :   1.2424 B( 13-C , 18-C ) :   1.2400 B( 14-C , 15-C ) :   1.2728
B( 15-C , 16-C ) :   1.4756 B( 15-C , 76-H ) :   0.9874 B( 16-C , 17-C ) :   1.2536
B( 16-C , 77-H ) :   0.9877 B( 17-C , 18-C ) :   1.4965 B( 17-C , 78-H ) :   0.9888
B( 18-C , 79-H ) :   0.9978 B( 19-C , 20-C ) :   1.1447 B( 19-C , 80-H ) :   0.9461
B( 20-C , 21-O ) :   1.0788 B( 20-C , 22-C ) :   0.1289 B( 20-C , 24-C ) :   1.3403
B( 21-O , 22-C ) :   1.1573 B( 22-C , 23-C ) :   1.3554 B( 22-C , 27-C ) :   1.0566
B( 23-C , 24-C ) :   1.2334 B( 23-C , 26-F ) :   1.1354 B( 24-C , 25-F ) :   1.1995
B( 27-C , 28-C ) :   1.5257 B( 27-C , 44-C ) :   1.1087 B( 28-C , 29-C ) :   1.1376
B( 28-C , 81-H ) :   0.9830 B( 29-C , 30-C ) :   1.4706 B( 29-C , 42-C ) :   1.1096
B( 30-C , 31-C ) :   1.0235 B( 30-C , 36-C ) :   1.1147 B( 31-C , 32-C ) :   1.0285
B( 31-C , 34-C ) :   1.0434 B( 31-C , 82-H ) :   0.8768 B( 32-C , 33-N ) :   1.1066
B( 32-C , 83-H ) :   0.9265 B( 32-C , 84-H ) :   0.9455 B( 33-N , 85-H ) :   0.9413
B( 33-N , 86-H ) :   0.9668 B( 34-C , 35-N ) :   1.0801 B( 34-C , 87-H ) :   0.9479
B( 34-C , 88-H ) :   0.9330 B( 35-N , 85-H ) :   0.1038 B( 35-N , 89-H ) :   0.9645
B( 35-N , 90-H ) :   0.9675 B( 36-C , 37-C ) :   1.6551 B( 36-C , 41-C ) :   1.0435
B( 37-C , 38-C ) :   0.9710 B( 37-C , 91-H ) :   0.9756 B( 38-C , 39-C ) :   0.9928
B( 38-C , 45-C ) :   0.9742 B( 38-C , 92-H ) :   0.8488 B( 39-C , 40-C ) :   1.7051
B( 39-C , 93-H ) :   0.9837 B( 40-C , 41-C ) :   1.1218 B( 40-C , 94-H ) :   0.9932
B( 41-C , 42-C ) :   1.4516 B( 42-C , 43-C ) :   1.1342 B( 43-C , 44-C ) :   1.6109
B( 43-C , 95-H ) :   0.9957 B( 44-C , 96-H ) :   0.9920 B( 45-C , 46-C ) :   1.7895
B( 45-C , 97-H ) :   0.9753 B( 46-C , 47-C ) :   1.1185 B( 46-C , 98-H ) :   0.9578
B( 47-C , 48-O ) :   1.1361 B( 47-C , 49-C ) :   0.1259 B( 47-C , 51-C ) :   1.3668
B( 48-O , 49-C ) :   1.0891 B( 49-C , 50-C ) :   1.3520 B( 49-C , 54-C ) :   1.1263
B( 50-C , 51-C ) :   1.2029 B( 50-C , 53-F ) :   1.2032 B( 51-C , 52-F ) :   1.1896
B( 54-C , 55-C ) :   1.6366 B( 54-C , 99-H ) :   0.9466 B( 55-C , 56-C ) :   0.9530
B( 55-C , 60-C ) :   1.0223 B( 56-C , 57-O ) :   2.2022 B( 56-C , 58-C ) :   0.9390
B( 58-C , 59-C ) :   1.4117 B( 58-C , 69-C ) :   1.2403 B( 59-C , 60-C ) :   1.0169
B( 59-C , 66-C ) :   1.2576 B( 60-C , 61-C ) :   1.6612 B( 61-C , 62-C ) :   1.1575
B( 61-C , 64-C ) :   1.1314 B( 62-C , 63-N ) :   3.0156 B( 64-C , 65-N ) :   2.9759
B( 66-C , 67-C ) :   1.4695 B( 66-C ,100-H ) :   0.9861 B( 67-C , 68-C ) :   1.2256
B( 67-C ,101-H ) :   0.9927 B( 68-C , 69-C ) :   1.2395 B( 68-C , 73-C ) :   1.2414
B( 69-C , 70-C ) :   1.2773 B( 70-C , 71-C ) :   1.4759 B( 70-C ,102-H ) :   0.9854
B( 71-C , 72-C ) :   1.2550 B( 71-C ,103-H ) :   0.9875 B( 72-C , 73-C ) :   1.4948
B( 72-C ,104-H ) :   0.9894 B( 73-C ,105-H ) :   0.9969

-----------------------------------------------------------------------------
         ABSORPTION SPECTRUM VIA TRANSITION ELECTRIC DIPOLE MOMENTS
-----------------------------------------------------------------------------
State   Energy  Wavelength   fosc         T2         TX        TY        TZ
        (cm-1)    (nm)                  (au**2)     (au)      (au)      (au)
-----------------------------------------------------------------------------
   0   13451.5    743.4   0.139515879   3.41450   1.81836   0.04923  -0.32503
   1   16239.0    615.8   0.013703209   0.27780  -0.09907   0.02318  -0.51716
   2   17435.0    573.6   0.233450011   4.40805   1.83823  -0.17064   0.99992
   3   21447.5    466.3   0.315173021   4.83779   1.76113  -0.91747   0.94576
   4   21844.2    457.8   0.028113397   0.42369  -0.19297  -0.35524  -0.51016
   5   22437.1    445.7   0.551186525   8.08736  -2.79958   0.01102  -0.49962
   6   22596.4    442.5   0.103924579   1.51410   1.10151   0.24454  -0.49089
   7   26107.0    383.0   0.176606978   2.22703  -1.19112   0.32836  -0.83693
   8   26263.9    380.8   0.029963129   0.37558   0.41330   0.23089  -0.38918
   9   26623.3    375.6   0.009219397   0.11400  -0.30217  -0.09238  -0.11899
  10   27494.1    363.7   0.641839461   7.68533   2.62245   0.39430   0.80786
  11   27729.6    360.6   0.108922450   1.29315  -0.46595   1.03658  -0.03928
  12   29141.6    343.2   0.032090629   0.36253  -0.10491  -0.59087   0.04891
  13   29417.0    339.9   0.036841211   0.41230   0.44285  -0.07908  -0.45818
  14   29589.0    338.0   0.027332424   0.30410  -0.33123  -0.36980  -0.24009
  15   29916.0    334.3   0.090020490   0.99063  -0.09078   0.13421   0.98203
  16   30007.9    333.2   0.033590712   0.36852  -0.43692  -0.22641   0.35546
  17   30246.4    330.6   0.056934252   0.61969   0.73518  -0.24376  -0.14066
  18   30628.0    326.5   0.060526131   0.65058   0.59463   0.52505   0.14598
  19   31263.9    319.9   0.008630560   0.09088  -0.15336  -0.18510  -0.18193
  20   31476.3    317.7   0.033034068   0.34550  -0.18141  -0.20704  -0.51936
  21   32009.4    312.4   0.560443389   5.76407   2.12856   0.81358   0.75590
  22   32222.7    310.3   0.577516384   5.90035   2.36668   0.12983   0.53134
  23   32311.9    309.5   0.131855444   1.34342   0.24018   0.79821   0.80535
  24   32467.8    308.0   0.011752870   0.11917   0.11044  -0.01068  -0.32689
  25   32573.5    307.0   0.179937019   1.81858   1.00551   0.88880   0.13250
  26   33229.3    300.9   0.280558439   2.77957   1.24619   0.49257   0.99195
  27   34117.7    293.1   0.002501711   0.02414  -0.11679  -0.02678   0.09890
  28   34463.7    290.2   0.254800039   2.43396   0.36051   0.67972  -1.35719
  29   34553.5    289.4   0.215336665   2.05164   1.32087  -0.48948  -0.25953
  30   35008.4    285.6   0.054717631   0.51455   0.35319   0.37347   0.50033
  31   35221.5    283.9   0.001434366   0.01341  -0.01072   0.04744   0.10508
  32   35499.0    281.7   0.033065911   0.30665   0.26104   0.09984   0.47805
  33   36115.8    276.9   0.091912965   0.83783  -0.09161  -0.41588   0.81023
  34   36415.2    274.6   0.125583194   1.13534  -0.04473   1.03386   0.25390
  35   36591.9    273.3   0.005945417   0.05349  -0.11005   0.20332   0.00643
  36   36612.6    273.1   0.054946010   0.49406  -0.43649  -0.54572  -0.07565
  37   37020.1    270.1   0.003648302   0.03244   0.00731  -0.17757  -0.02932
  38   37261.0    268.4   0.054252691   0.47934   0.33573   0.47581   0.37448
  39   37681.5    265.4   0.006002457   0.05244  -0.20359   0.09002  -0.05375
  40   37858.6    264.1   0.195715391   1.70191   0.43201   0.00876  -1.23094
  41   38137.4    262.2   0.114948181   0.99226  -0.13074  -0.27765   0.94767
  42   38681.7    258.5   0.054394829   0.46294   0.17073  -0.21675   0.62194
  43   38874.4    257.2   0.001295619   0.01097  -0.00463  -0.00738   0.10438
  44   39404.4    253.8   0.005662782   0.04731  -0.09001   0.11123   0.16382
  45   39720.2    251.8   0.058455643   0.48450   0.04575   0.17354  -0.67252
  46   40030.8    249.8   0.061088085   0.50239   0.09183  -0.00956   0.70275
  47   40189.2    248.8   0.101061324   0.82785   0.04391  -0.06972   0.90612
  48   40314.3    248.1   0.122531936   1.00061   0.90571  -0.31924  -0.27997

FINAL SINGLE POINT ENERGY     -3330.118630922419

DIPOLE MOMENT
-------------
                                X             Y             Z
Electronic contribution:    -16.76978      31.70967      10.71196
Nuclear contribution   :     18.92920     -33.33505     -11.12843
                        -----------------------------------------
Total Dipole Moment    :      2.15942      -1.62538      -0.41647
                        -----------------------------------------
Magnitude (a.u.)       :      2.73467
Magnitude (Debye)      :      6.95097

Rotational constants in cm-1:     0.001997     0.000262     0.000252
Rotational constants in MHz :    59.854764     7.843438     7.552267

                             ****ORCA TERMINATED NORMALLY****
TOTAL RUN TIME: 0 days 0 hours 21 minutes 26 seconds 85 msec
