                         Program Version 4.2.0 -  RELEASE  -
|  1> # ORCA input file
|  2> # SCF done       -200.717771690094          0.000907542802
|  3> ! CAM-B3LYP def2-SVP def2/J RIJCOSX Grid4 TightSCF
|  4> %maxcore 5000
|  5> %tddft
|  6>     Mode sTDDFT
|  7>     Ethresh 5.0
|  8>     maxcore 5000
|  9> end
| 10>
| 11> %pal
| 12>   nprocs 6
| 13>   end
| 14> * xyz 0 1
| 15>    C       15.18446        -4.56011        -1.40222
| 16>    C       15.54196        -5.85656        -1.15335
| 17>    F       16.61445        -6.11076        -0.38557
| 18>    C       14.82754        -6.94654        -1.67106
| 19>    C       13.73380        -6.70836        -2.45528
| 20>    C       13.32065        -5.39089        -2.74477
| 21>    C       14.06024        -4.29536        -2.20767
| 22>    C       13.66696        -2.96500        -2.48510
| 23>    C       12.57093        -2.74048        -3.27273
| 24>    C       11.82924        -3.84040        -3.79950
| 25>    C       12.18965        -5.13496        -3.54968
| 26>    C       10.68904        -3.33571        -4.57872
| 27>    O        9.89094        -3.94490        -5.24624
| 28>    C       10.68240        -1.85425        -4.32251
| 29>    C       11.96085        -1.49845        -3.74133
| 30>    C       12.57577        -0.28275        -3.83824
| 31>    C       12.06345         0.79013        -4.60486
| 32>    N       11.78927         1.63336        -5.33445
| 33>    C       13.86251        -0.02077        -3.32137
| 34>    N       14.90308         0.22883        -2.90850
| 35>    C        9.51626        -1.17687        -4.47228
| 36>    C        9.18603         0.09907        -3.94338
| 37>    N       10.04978         0.83343        -3.25839
| 38>    C        9.43435         2.00419        -3.00697
| 39>    C        8.07969         2.02120        -3.58413
| 40>    C        7.41714         3.31665        -3.32382
| 41>    O        6.31057         3.67399        -3.64477
| 42>    C        8.45520         4.05278        -2.57080
| 43>    C        9.66336         3.20786        -2.39464
| 44>    N       10.60829         3.86739        -1.68048
| 45>    C       10.08110         5.03386        -1.41119
| 46>    C        8.73365         5.21377        -1.93151
| 47>    C        7.88362         0.78763        -4.13558
| 48>    C        6.69163         0.27127        -4.74247
| 49>    C        6.29413        -1.00914        -4.62585
| 50>    C        5.10981        -1.58441        -5.19961
| 51>    C        4.19856        -0.97625        -6.05306
| 52>    C        4.15208         0.33071        -6.53863
| 53>    N        4.02741         1.38744        -6.97143
| 54>    S        2.90825        -2.03673        -6.51433
| 55>    C        3.55427        -3.32620        -5.55382
| 56>    C        4.73593        -2.93449        -4.93891
| 57>    C        5.48611        -3.76201        -4.07980
| 58>    N        6.16105        -4.33865        -3.35501
| 59>    C        2.94725        -4.60579        -5.38849
| 60>    N        3.67711        -5.60761        -4.93608
| 61>    C        2.82706        -6.64369        -4.77045
| 62>    C        1.45129        -6.25590        -5.11671
| 63>    C        0.52218        -7.38027        -4.90019
| 64>    O       -0.67596        -7.40685        -5.06299
| 65>    C        1.42377        -8.44960        -4.43112
| 66>    C        2.82206        -7.95318        -4.36615
| 67>    N        3.65419        -8.93162        -3.93291
| 68>    C        2.88712        -9.97095        -3.73032
| 69>    C        1.48011        -9.73953        -4.02174
| 70>    C        1.51213        -4.95705        -5.54264
| 71>    C        0.48166        -4.04300        -5.90080
| 72>    C       -0.82763        -4.19928        -5.60665
| 73>    C       -1.78326        -3.16262        -5.84085
| 74>    C       -1.55186        -1.82670        -5.80167
| 75>    C       -2.50394        -0.88264        -6.46812
| 76>    O       -3.64618        -1.11464        -6.78016
| 77>    C       -1.71172         0.33451        -6.72013
| 78>    C       -2.04445         1.44286        -7.44583
| 79>    C       -1.09431         2.47637        -7.60154
| 80>    C        0.19596         2.34012        -7.00750
| 81>    C        1.15183         3.35791        -7.19235
| 82>    C        0.81388         4.46312        -7.92403
| 83>    C       -0.45367         4.62400        -8.50334
| 84>    C       -1.38819         3.63943        -8.34281
| 85>    F        1.71408         5.44129        -8.10567
| 86>    C        0.50497         1.19377        -6.24056
| 87>    C       -0.43551         0.20914        -6.09525
| 88>    C       -0.39853        -1.05318        -5.36858
| 89>    C        0.44508        -1.34310        -4.32992
| 90>    C        0.34280        -2.49171        -3.51655
| 91>    N        0.31725        -3.39250        -2.80623
| 92>    C        1.54768        -0.54925        -3.95573
| 93>    N        2.51191        -0.00443        -3.65221
| 94>    H       15.75927        -3.74640        -0.98851
| 95>    H       15.15634        -7.94704        -1.43892
| 96>    H       13.16731        -7.53074        -2.86512
| 97>    H       14.23557        -2.15424        -2.05778
| 98>    H       11.61445        -5.95214        -3.95824
| 99>    H        8.73572        -1.71227        -4.99828
|100>    H       10.63765         5.76531        -0.85115
|101>    H        8.13349         6.09378        -1.81213
|102>    H        6.07352         1.00126        -5.24795
|103>    H        6.86328        -1.70101        -4.01836
|104>    H        3.30708       -10.89597        -3.37490
|105>    H        0.69585       -10.46285        -3.91823
|106>    H        0.78937        -3.13465        -6.40218
|107>    H       -1.18618        -5.13955        -5.20851
|108>    H       -2.78886        -3.46275        -6.11593
|109>    H       -3.01992         1.52744        -7.90087
|110>    H        2.13902         3.25918        -6.76830
|111>    H       -0.66196         5.51952        -9.06729
|112>    H       -2.36776         3.73928        -8.78544
|113>    H        1.48689         1.12067        -5.80071
|114> *
|115>
|116>                          ****END OF INPUT****

CARTESIAN COORDINATES (ANGSTROEM)
---------------------------------
  C     15.184460   -4.560110   -1.402220
  C     15.541960   -5.856560   -1.153350
  F     16.614450   -6.110760   -0.385570
  C     14.827540   -6.946540   -1.671060
  C     13.733800   -6.708360   -2.455280
  C     13.320650   -5.390890   -2.744770
  C     14.060240   -4.295360   -2.207670
  C     13.666960   -2.965000   -2.485100
  C     12.570930   -2.740480   -3.272730
  C     11.829240   -3.840400   -3.799500
  C     12.189650   -5.134960   -3.549680
  C     10.689040   -3.335710   -4.578720
  O      9.890940   -3.944900   -5.246240
  C     10.682400   -1.854250   -4.322510
  C     11.960850   -1.498450   -3.741330
  C     12.575770   -0.282750   -3.838240
  C     12.063450    0.790130   -4.604860
  N     11.789270    1.633360   -5.334450
  C     13.862510   -0.020770   -3.321370
  N     14.903080    0.228830   -2.908500
  C      9.516260   -1.176870   -4.472280
  C      9.186030    0.099070   -3.943380
  N     10.049780    0.833430   -3.258390
  C      9.434350    2.004190   -3.006970
  C      8.079690    2.021200   -3.584130
  C      7.417140    3.316650   -3.323820
  O      6.310570    3.673990   -3.644770
  C      8.455200    4.052780   -2.570800
  C      9.663360    3.207860   -2.394640
  N     10.608290    3.867390   -1.680480
  C     10.081100    5.033860   -1.411190
  C      8.733650    5.213770   -1.931510
  C      7.883620    0.787630   -4.135580
  C      6.691630    0.271270   -4.742470
  C      6.294130   -1.009140   -4.625850
  C      5.109810   -1.584410   -5.199610
  C      4.198560   -0.976250   -6.053060
  C      4.152080    0.330710   -6.538630
  N      4.027410    1.387440   -6.971430
  S      2.908250   -2.036730   -6.514330
  C      3.554270   -3.326200   -5.553820
  C      4.735930   -2.934490   -4.938910
  C      5.486110   -3.762010   -4.079800
  N      6.161050   -4.338650   -3.355010
  C      2.947250   -4.605790   -5.388490
  N      3.677110   -5.607610   -4.936080
  C      2.827060   -6.643690   -4.770450
  C      1.451290   -6.255900   -5.116710
  C      0.522180   -7.380270   -4.900190
  O     -0.675960   -7.406850   -5.062990
  C      1.423770   -8.449600   -4.431120
  C      2.822060   -7.953180   -4.366150
  N      3.654190   -8.931620   -3.932910
  C      2.887120   -9.970950   -3.730320
  C      1.480110   -9.739530   -4.021740
  C      1.512130   -4.957050   -5.542640
  C      0.481660   -4.043000   -5.900800
  C     -0.827630   -4.199280   -5.606650
  C     -1.783260   -3.162620   -5.840850
  C     -1.551860   -1.826700   -5.801670
  C     -2.503940   -0.882640   -6.468120
  O     -3.646180   -1.114640   -6.780160
  C     -1.711720    0.334510   -6.720130
  C     -2.044450    1.442860   -7.445830
  C     -1.094310    2.476370   -7.601540
  C      0.195960    2.340120   -7.007500
  C      1.151830    3.357910   -7.192350
  C      0.813880    4.463120   -7.924030
  C     -0.453670    4.624000   -8.503340
  C     -1.388190    3.639430   -8.342810
  F      1.714080    5.441290   -8.105670
  C      0.504970    1.193770   -6.240560
  C     -0.435510    0.209140   -6.095250
  C     -0.398530   -1.053180   -5.368580
  C      0.445080   -1.343100   -4.329920
  C      0.342800   -2.491710   -3.516550
  N      0.317250   -3.392500   -2.806230
  C      1.547680   -0.549250   -3.955730
  N      2.511910   -0.004430   -3.652210
  H     15.759270   -3.746400   -0.988510
  H     15.156340   -7.947040   -1.438920
  H     13.167310   -7.530740   -2.865120
  H     14.235570   -2.154240   -2.057780
  H     11.614450   -5.952140   -3.958240
  H      8.735720   -1.712270   -4.998280
  H     10.637650    5.765310   -0.851150
  H      8.133490    6.093780   -1.812130
  H      6.073520    1.001260   -5.247950
  H      6.863280   -1.701010   -4.018360
  H      3.307080  -10.895970   -3.374900
  H      0.695850  -10.462850   -3.918230
  H      0.789370   -3.134650   -6.402180
  H     -1.186180   -5.139550   -5.208510
  H     -2.788860   -3.462750   -6.115930
  H     -3.019920    1.527440   -7.900870
  H      2.139020    3.259180   -6.768300
  H     -0.661960    5.519520   -9.067290
  H     -2.367760    3.739280   -8.785440
  H      1.486890    1.120670   -5.800710

 Total Charge           Charge          ....    0
 Multiplicity           Mult            ....    1
 Number of Electrons    NEL             ....  528
 Basis Dimension        Dim             .... 1210

ORBITAL ENERGIES
----------------

  NO   OCC          E(Eh)            E(eV)
   0   2.0000     -89.017042     -2422.2769
   1   2.0000     -24.788478      -674.5288
   2   2.0000     -24.784551      -674.4219
   3   2.0000     -19.227142      -523.1971
   4   2.0000     -19.226417      -523.1774
   5   2.0000     -19.222548      -523.0721
   6   2.0000     -19.216751      -522.9144
   7   2.0000     -14.439619      -392.9220
   8   2.0000     -14.431424      -392.6990
   9   2.0000     -14.428562      -392.6211
  10   2.0000     -14.426487      -392.5647
  11   2.0000     -14.424754      -392.5175
  12   2.0000     -14.421927      -392.4406
  13   2.0000     -14.419885      -392.3850
  14   2.0000     -14.416225      -392.2854
  15   2.0000     -14.414516      -392.2389
  16   2.0000     -14.411841      -392.1661
  17   2.0000     -10.386834      -282.6401
  18   2.0000     -10.377656      -282.3904
  19   2.0000     -10.376031      -282.3462
  20   2.0000     -10.374308      -282.2993
  21   2.0000     -10.372523      -282.2507
  22   2.0000     -10.369589      -282.1709
  23   2.0000     -10.369556      -282.1700
  24   2.0000     -10.365079      -282.0481
  25   2.0000     -10.359833      -281.9054
  26   2.0000     -10.354276      -281.7542
  27   2.0000     -10.353963      -281.7457
  28   2.0000     -10.353765      -281.7403
  29   2.0000     -10.353100      -281.7222
  30   2.0000     -10.348298      -281.5915
  31   2.0000     -10.347638      -281.5735
  32   2.0000     -10.343261      -281.4544
  33   2.0000     -10.342894      -281.4445
  34   2.0000     -10.341496      -281.4064
  35   2.0000     -10.341268      -281.4002
  36   2.0000     -10.341219      -281.3989
  37   2.0000     -10.341028      -281.3937
  38   2.0000     -10.337161      -281.2885
  39   2.0000     -10.336501      -281.2705
  40   2.0000     -10.331288      -281.1286
  41   2.0000     -10.326278      -280.9923
  42   2.0000     -10.324356      -280.9400
  43   2.0000     -10.324318      -280.9390
  44   2.0000     -10.322603      -280.8923
  45   2.0000     -10.322288      -280.8837
  46   2.0000     -10.319598      -280.8105
  47   2.0000     -10.317333      -280.7489
  48   2.0000     -10.316904      -280.7372
  49   2.0000     -10.315378      -280.6957
  50   2.0000     -10.313800      -280.6528
  51   2.0000     -10.313220      -280.6370
  52   2.0000     -10.311462      -280.5892
  53   2.0000     -10.311080      -280.5787
  54   2.0000     -10.310526      -280.5637
  55   2.0000     -10.309821      -280.5445
  56   2.0000     -10.309029      -280.5229
  57   2.0000     -10.308261      -280.5020
  58   2.0000     -10.308034      -280.4959
  59   2.0000     -10.305830      -280.4359
  60   2.0000     -10.305570      -280.4288
  61   2.0000     -10.305301      -280.4215
  62   2.0000     -10.305189      -280.4185
  63   2.0000     -10.305087      -280.4157
  64   2.0000     -10.304576      -280.4018
  65   2.0000     -10.304192      -280.3913
  66   2.0000     -10.303806      -280.3808
  67   2.0000     -10.301510      -280.3183
  68   2.0000     -10.300768      -280.2981
  69   2.0000     -10.300280      -280.2849
  70   2.0000     -10.299218      -280.2560
  71   2.0000     -10.298854      -280.2461
  72   2.0000     -10.297209      -280.2013
  73   2.0000     -10.296746      -280.1887
  74   2.0000     -10.296609      -280.1850
  75   2.0000     -10.296250      -280.1752
  76   2.0000     -10.295732      -280.1611
  77   2.0000     -10.291020      -280.0329
  78   2.0000     -10.286739      -279.9164
  79   2.0000      -8.110660      -220.7023
  80   2.0000      -6.080106      -165.4481
  81   2.0000      -6.075668      -165.3273
  82   2.0000      -6.072956      -165.2535
  83   2.0000      -1.304048       -35.4849
  84   2.0000      -1.300646       -35.3924
  85   2.0000      -1.142053       -31.0768
  86   2.0000      -1.141957       -31.0742
  87   2.0000      -1.138665       -30.9846
  88   2.0000      -1.132681       -30.8218
  89   2.0000      -1.099125       -29.9087
  90   2.0000      -1.091089       -29.6900
  91   2.0000      -1.077334       -29.3157
  92   2.0000      -1.070570       -29.1317
  93   2.0000      -1.047147       -28.4943
  94   2.0000      -1.029668       -28.0187
  95   2.0000      -1.022301       -27.8182
  96   2.0000      -1.018320       -27.7099
  97   2.0000      -1.008711       -27.4484
  98   2.0000      -1.005129       -27.3510
  99   2.0000      -1.004373       -27.3304
 100   2.0000      -0.996268       -27.1098
 101   2.0000      -0.994454       -27.0605
 102   2.0000      -0.982288       -26.7294
 103   2.0000      -0.980833       -26.6898
 104   2.0000      -0.955474       -25.9998
 105   2.0000      -0.949291       -25.8315
 106   2.0000      -0.947591       -25.7853
 107   2.0000      -0.940823       -25.6011
 108   2.0000      -0.930281       -25.3142
 109   2.0000      -0.929569       -25.2949
 110   2.0000      -0.913624       -24.8610
 111   2.0000      -0.909272       -24.7426
 112   2.0000      -0.907432       -24.6925
 113   2.0000      -0.899986       -24.4899
 114   2.0000      -0.891242       -24.2519
 115   2.0000      -0.890314       -24.2267
 116   2.0000      -0.884046       -24.0561
 117   2.0000      -0.880900       -23.9705
 118   2.0000      -0.873466       -23.7682
 119   2.0000      -0.864056       -23.5122
 120   2.0000      -0.845477       -23.0066
 121   2.0000      -0.842385       -22.9224
 122   2.0000      -0.838373       -22.8133
 123   2.0000      -0.836623       -22.7657
 124   2.0000      -0.817989       -22.2586
 125   2.0000      -0.807875       -21.9834
 126   2.0000      -0.803307       -21.8591
 127   2.0000      -0.781801       -21.2739
 128   2.0000      -0.775439       -21.1008
 129   2.0000      -0.771969       -21.0063
 130   2.0000      -0.765526       -20.8310
 131   2.0000      -0.760184       -20.6857
 132   2.0000      -0.755523       -20.5588
 133   2.0000      -0.744369       -20.2553
 134   2.0000      -0.738100       -20.0847
 135   2.0000      -0.738027       -20.0827
 136   2.0000      -0.727323       -19.7915
 137   2.0000      -0.717831       -19.5332
 138   2.0000      -0.716241       -19.4899
 139   2.0000      -0.712722       -19.3942
 140   2.0000      -0.712459       -19.3870
 141   2.0000      -0.690516       -18.7899
 142   2.0000      -0.688303       -18.7297
 143   2.0000      -0.685394       -18.6505
 144   2.0000      -0.680055       -18.5052
 145   2.0000      -0.674675       -18.3588
 146   2.0000      -0.662117       -18.0171
 147   2.0000      -0.658717       -17.9246
 148   2.0000      -0.649127       -17.6636
 149   2.0000      -0.648625       -17.6500
 150   2.0000      -0.643098       -17.4996
 151   2.0000      -0.640584       -17.4312
 152   2.0000      -0.639678       -17.4065
 153   2.0000      -0.632898       -17.2220
 154   2.0000      -0.632064       -17.1993
 155   2.0000      -0.627541       -17.0763
 156   2.0000      -0.624347       -16.9893
 157   2.0000      -0.621560       -16.9135
 158   2.0000      -0.620890       -16.8953
 159   2.0000      -0.607101       -16.5201
 160   2.0000      -0.603289       -16.4163
 161   2.0000      -0.594536       -16.1781
 162   2.0000      -0.592382       -16.1195
 163   2.0000      -0.587761       -15.9938
 164   2.0000      -0.578719       -15.7477
 165   2.0000      -0.576692       -15.6926
 166   2.0000      -0.572054       -15.5664
 167   2.0000      -0.569785       -15.5046
 168   2.0000      -0.568820       -15.4784
 169   2.0000      -0.568297       -15.4642
 170   2.0000      -0.564279       -15.3548
 171   2.0000      -0.561092       -15.2681
 172   2.0000      -0.557925       -15.1819
 173   2.0000      -0.557134       -15.1604
 174   2.0000      -0.555690       -15.1211
 175   2.0000      -0.553139       -15.0517
 176   2.0000      -0.552515       -15.0347
 177   2.0000      -0.550554       -14.9813
 178   2.0000      -0.549384       -14.9495
 179   2.0000      -0.548845       -14.9348
 180   2.0000      -0.543884       -14.7998
 181   2.0000      -0.539150       -14.6710
 182   2.0000      -0.538280       -14.6473
 183   2.0000      -0.537264       -14.6197
 184   2.0000      -0.532841       -14.4993
 185   2.0000      -0.529329       -14.4038
 186   2.0000      -0.528453       -14.3799
 187   2.0000      -0.526274       -14.3206
 188   2.0000      -0.525661       -14.3040
 189   2.0000      -0.523156       -14.2358
 190   2.0000      -0.521246       -14.1838
 191   2.0000      -0.516031       -14.0419
 192   2.0000      -0.513645       -13.9770
 193   2.0000      -0.510957       -13.9038
 194   2.0000      -0.509937       -13.8761
 195   2.0000      -0.506865       -13.7925
 196   2.0000      -0.505625       -13.7588
 197   2.0000      -0.504283       -13.7222
 198   2.0000      -0.500380       -13.6160
 199   2.0000      -0.497877       -13.5479
 200   2.0000      -0.494081       -13.4446
 201   2.0000      -0.490998       -13.3607
 202   2.0000      -0.489345       -13.3158
 203   2.0000      -0.488313       -13.2877
 204   2.0000      -0.486848       -13.2478
 205   2.0000      -0.484728       -13.1901
 206   2.0000      -0.483731       -13.1630
 207   2.0000      -0.480087       -13.0638
 208   2.0000      -0.479556       -13.0494
 209   2.0000      -0.476762       -12.9734
 210   2.0000      -0.475601       -12.9418
 211   2.0000      -0.471910       -12.8413
 212   2.0000      -0.471718       -12.8361
 213   2.0000      -0.468143       -12.7388
 214   2.0000      -0.467523       -12.7220
 215   2.0000      -0.464228       -12.6323
 216   2.0000      -0.462555       -12.5868
 217   2.0000      -0.460562       -12.5325
 218   2.0000      -0.458396       -12.4736
 219   2.0000      -0.453963       -12.3530
 220   2.0000      -0.451869       -12.2960
 221   2.0000      -0.449761       -12.2386
 222   2.0000      -0.444223       -12.0879
 223   2.0000      -0.443308       -12.0630
 224   2.0000      -0.442412       -12.0387
 225   2.0000      -0.440387       -11.9835
 226   2.0000      -0.440357       -11.9827
 227   2.0000      -0.434230       -11.8160
 228   2.0000      -0.432789       -11.7768
 229   2.0000      -0.432615       -11.7720
 230   2.0000      -0.430850       -11.7240
 231   2.0000      -0.430007       -11.7011
 232   2.0000      -0.428475       -11.6594
 233   2.0000      -0.426691       -11.6108
 234   2.0000      -0.423808       -11.5324
 235   2.0000      -0.422835       -11.5059
 236   2.0000      -0.414682       -11.2841
 237   2.0000      -0.411511       -11.1978
 238   2.0000      -0.403691       -10.9850
 239   2.0000      -0.393509       -10.7079
 240   2.0000      -0.385029       -10.4772
 241   2.0000      -0.383368       -10.4320
 242   2.0000      -0.379735       -10.3331
 243   2.0000      -0.371585       -10.1113
 244   2.0000      -0.370183       -10.0732
 245   2.0000      -0.368019       -10.0143
 246   2.0000      -0.366757        -9.9800
 247   2.0000      -0.362274        -9.8580
 248   2.0000      -0.361948        -9.8491
 249   2.0000      -0.354338        -9.6420
 250   2.0000      -0.349344        -9.5061
 251   2.0000      -0.346446        -9.4273
 252   2.0000      -0.345134        -9.3916
 253   2.0000      -0.342814        -9.3284
 254   2.0000      -0.340514        -9.2659
 255   2.0000      -0.335672        -9.1341
 256   2.0000      -0.324698        -8.8355
 257   2.0000      -0.320608        -8.7242
 258   2.0000      -0.319867        -8.7040
 259   2.0000      -0.314551        -8.5594
 260   2.0000      -0.305345        -8.3089
 261   2.0000      -0.302875        -8.2416
 262   2.0000      -0.297731        -8.1017
 263   2.0000      -0.291948        -7.9443
 264   0.0000      -0.133861        -3.6425
 265   0.0000      -0.133715        -3.6386
 266   0.0000      -0.107061        -2.9133
 267   0.0000      -0.084227        -2.2919
 268   0.0000      -0.070908        -1.9295

MULLIKEN ATOMIC CHARGES
-----------------------
   0 C :   -0.095553
   1 C :    0.303724
   2 F :   -0.186976
   3 C :   -0.030148
   4 C :   -0.004120
   5 C :    0.092604
   6 C :    0.103382
   7 C :   -0.084587
   8 C :    0.054948
   9 C :   -0.000947
  10 C :   -0.065122
  11 C :    0.141956
  12 O :   -0.122538
  13 C :   -0.064873
  14 C :    0.242270
  15 C :   -0.242606
  16 C :   -0.165340
  17 N :    0.154606
  18 C :   -0.187393
  19 N :    0.165139
  20 C :   -0.005051
  21 C :    0.041859
  22 N :   -0.068681
  23 C :    0.078557
  24 C :   -0.103978
  25 C :    0.213092
  26 O :   -0.107784
  27 C :   -0.043418
  28 C :   -0.001410
  29 N :   -0.049207
  30 C :    0.099532
  31 C :   -0.087013
  32 C :    0.026039
  33 C :   -0.013194
  34 C :   -0.036738
  35 C :    0.240241
  36 C :   -0.321990
  37 C :   -0.131718
  38 N :    0.148382
  39 S :    0.202322
  40 C :   -0.081659
  41 C :   -0.045318
  42 C :   -0.217244
  43 N :    0.194801
  44 C :    0.028673
  45 N :   -0.026157
  46 C :    0.092478
  47 C :   -0.163257
  48 C :    0.227681
  49 O :   -0.128049
  50 C :   -0.020693
  51 C :   -0.020277
  52 N :   -0.046134
  53 C :    0.099210
  54 C :   -0.088823
  55 C :    0.063500
  56 C :   -0.050740
  57 C :    0.029423
  58 C :    0.050228
  59 C :   -0.113635
  60 C :    0.137113
  61 O :   -0.131321
  62 C :    0.008904
  63 C :   -0.077053
  64 C :    0.096781
  65 C :    0.097800
  66 C :   -0.086286
  67 C :    0.298606
  68 C :   -0.026305
  69 C :   -0.008494
  70 F :   -0.183585
  71 C :   -0.089506
  72 C :    0.054260
  73 C :    0.233428
  74 C :   -0.348246
  75 C :   -0.196174
  76 N :    0.182996
  77 C :   -0.158857
  78 N :    0.151396
  79 H :   -0.000562
  80 H :    0.005211
  81 H :   -0.006117
  82 H :   -0.001724
  83 H :   -0.004620
  84 H :    0.009005
  85 H :    0.018140
  86 H :    0.001614
  87 H :    0.037445
  88 H :    0.021265
  89 H :    0.017773
  90 H :    0.003721
  91 H :    0.015141
  92 H :    0.036100
  93 H :    0.036026
  94 H :   -0.009902
  95 H :    0.010208
  96 H :    0.005059
  97 H :   -0.009204
  98 H :   -0.012311
Sum of atomic charges:   -0.0000000

LOEWDIN ATOMIC CHARGES
----------------------
   0 C :   -0.042269
   1 C :    0.095482
   2 F :   -0.061351
   3 C :   -0.035937
   4 C :    0.007710
   5 C :   -0.019227
   6 C :    0.007048
   7 C :    0.009969
   8 C :   -0.012957
   9 C :   -0.064138
  10 C :    0.043194
  11 C :    0.085559
  12 O :   -0.121471
  13 C :   -0.011713
  14 C :    0.054937
  15 C :   -0.086264
  16 C :   -0.014405
  17 N :   -0.048089
  18 C :   -0.014432
  19 N :   -0.035396
  20 C :    0.020868
  21 C :    0.061940
  22 N :   -0.068313
  23 C :    0.045172
  24 C :   -0.025874
  25 C :    0.066117
  26 O :   -0.121862
  27 C :   -0.036628
  28 C :    0.044433
  29 N :   -0.092803
  30 C :    0.090851
  31 C :   -0.027533
  32 C :   -0.026086
  33 C :    0.020362
  34 C :   -0.021587
  35 C :    0.008387
  36 C :   -0.202531
  37 C :   -0.044188
  38 N :   -0.033618
  39 S :    0.537558
  40 C :   -0.151955
  41 C :   -0.052382
  42 C :   -0.029831
  43 N :   -0.023110
  44 C :    0.048093
  45 N :   -0.065773
  46 C :    0.044917
  47 C :   -0.028044
  48 C :    0.071859
  49 O :   -0.129301
  50 C :   -0.036756
  51 C :    0.043815
  52 N :   -0.087416
  53 C :    0.089216
  54 C :   -0.024665
  55 C :   -0.030059
  56 C :   -0.010783
  57 C :    0.012043
  58 C :    0.067284
  59 C :   -0.073970
  60 C :    0.083079
  61 O :   -0.133818
  62 C :   -0.062906
  63 C :    0.037854
  64 C :   -0.016940
  65 C :    0.005224
  66 C :   -0.031881
  67 C :    0.094313
  68 C :   -0.032045
  69 C :    0.002151
  70 F :   -0.058448
  71 C :    0.012701
  72 C :   -0.024104
  73 C :    0.065317
  74 C :   -0.145696
  75 C :   -0.021692
  76 N :   -0.039369
  77 C :   -0.024473
  78 N :   -0.052792
  79 H :    0.043861
  80 H :    0.042592
  81 H :    0.037042
  82 H :    0.040091
  83 H :    0.042724
  84 H :    0.045215
  85 H :    0.027344
  86 H :    0.037282
  87 H :    0.048927
  88 H :    0.039942
  89 H :    0.027496
  90 H :    0.037960
  91 H :    0.011903
  92 H :    0.044272
  93 H :    0.051054
  94 H :    0.040767
  95 H :    0.046005
  96 H :    0.042511
  97 H :    0.035745
  98 H :    0.036693

  Mayer bond orders larger than 0.100000
B(  0-C ,  1-C ) :   1.4406 B(  0-C ,  6-C ) :   1.2049 B(  0-C , 79-H ) :   1.0063
B(  1-C ,  2-F ) :   1.0922 B(  1-C ,  3-C ) :   1.2509 B(  3-C ,  4-C ) :   1.4652
B(  3-C , 80-H ) :   0.9936 B(  4-C ,  5-C ) :   1.2314 B(  4-C , 81-H ) :   0.9971
B(  5-C ,  6-C ) :   1.2508 B(  5-C , 10-C ) :   1.2032 B(  6-C ,  7-C ) :   1.2053
B(  7-C ,  8-C ) :   1.4662 B(  7-C , 82-H ) :   0.9953 B(  8-C ,  9-C ) :   1.2109
B(  8-C , 14-C ) :   0.9957 B(  9-C , 10-C ) :   1.4650 B(  9-C , 11-C ) :   0.9286
B( 10-C , 83-H ) :   1.0145 B( 11-C , 12-O ) :   2.2691 B( 11-C , 13-C ) :   0.9107
B( 13-C , 14-C ) :   1.0118 B( 13-C , 20-C ) :   1.6954 B( 14-C , 15-C ) :   1.7159
B( 15-C , 16-C ) :   1.1383 B( 15-C , 18-C ) :   1.1463 B( 16-C , 17-N ) :   2.9739
B( 18-C , 19-N ) :   2.9843 B( 20-C , 21-C ) :   1.0951 B( 20-C , 84-H ) :   0.9350
B( 21-C , 22-N ) :   1.5612 B( 21-C , 23-C ) :   0.1063 B( 21-C , 32-C ) :   1.0292
B( 22-N , 23-C ) :   1.3064 B( 23-C , 24-C ) :   1.0519 B( 23-C , 28-C ) :   1.4389
B( 24-C , 25-C ) :   0.8769 B( 24-C , 32-C ) :   1.6030 B( 25-C , 26-O ) :   2.3094
B( 25-C , 27-C ) :   0.8919 B( 27-C , 28-C ) :   1.0399 B( 27-C , 31-C ) :   1.6385
B( 28-C , 29-N ) :   1.3050 B( 29-N , 30-C ) :   1.6629 B( 30-C , 31-C ) :   1.0541
B( 30-C , 85-H ) :   0.9885 B( 31-C , 86-H ) :   1.0087 B( 32-C , 33-C ) :   1.0777
B( 33-C , 34-C ) :   1.6858 B( 33-C , 87-H ) :   0.9557 B( 34-C , 35-C ) :   1.1391
B( 34-C , 88-H ) :   0.9403 B( 35-C , 36-C ) :   1.4417 B( 35-C , 41-C ) :   1.2475
B( 36-C , 37-C ) :   1.2027 B( 36-C , 39-S ) :   1.1406 B( 36-C , 40-C ) :   0.1150
B( 37-C , 38-N ) :   2.9162 B( 39-S , 40-C ) :   1.1541 B( 40-C , 41-C ) :   1.4905
B( 40-C , 44-C ) :   1.0330 B( 41-C , 42-C ) :   1.1410 B( 42-C , 43-N ) :   2.9755
B( 44-C , 45-N ) :   1.6547 B( 44-C , 46-C ) :   0.1294 B( 44-C , 55-C ) :   1.0443
B( 45-N , 46-C ) :   1.3270 B( 46-C , 47-C ) :   1.0628 B( 46-C , 51-C ) :   1.4298
B( 47-C , 48-C ) :   0.8845 B( 47-C , 55-C ) :   1.5770 B( 48-C , 49-O ) :   2.2308
B( 48-C , 50-C ) :   0.9125 B( 50-C , 51-C ) :   1.0533 B( 50-C , 54-C ) :   1.6266
B( 51-C , 52-N ) :   1.3018 B( 52-N , 53-C ) :   1.6677 B( 53-C , 54-C ) :   1.0492
B( 53-C , 89-H ) :   0.9887 B( 54-C , 90-H ) :   1.0106 B( 55-C , 56-C ) :   1.1111
B( 56-C , 57-C ) :   1.7355 B( 56-C , 91-H ) :   0.9336 B( 57-C , 58-C ) :   1.0871
B( 57-C , 92-H ) :   0.9432 B( 58-C , 59-C ) :   1.7283 B( 58-C , 93-H ) :   0.9370
B( 59-C , 60-C ) :   0.9237 B( 59-C , 73-C ) :   1.0081 B( 60-C , 61-O ) :   2.2858
B( 60-C , 62-C ) :   0.9174 B( 62-C , 63-C ) :   1.4640 B( 62-C , 72-C ) :   1.2140
B( 63-C , 64-C ) :   1.1962 B( 63-C , 94-H ) :   1.0155 B( 64-C , 65-C ) :   1.2453
B( 64-C , 69-C ) :   1.2353 B( 65-C , 66-C ) :   1.2060 B( 65-C , 71-C ) :   1.2187
B( 66-C , 67-C ) :   1.4401 B( 66-C , 95-H ) :   0.9998 B( 67-C , 68-C ) :   1.2510
B( 67-C , 70-F ) :   1.0972 B( 68-C , 69-C ) :   1.4638 B( 68-C , 96-H ) :   0.9914
B( 69-C , 97-H ) :   0.9966 B( 71-C , 72-C ) :   1.4385 B( 71-C , 98-H ) :   0.9960
B( 72-C , 73-C ) :   1.0117 B( 73-C , 74-C ) :   1.6614 B( 74-C , 75-C ) :   1.1616
B( 74-C , 77-C ) :   1.1330 B( 75-C , 76-N ) :   2.9969 B( 77-C , 78-N ) :   2.9449

-----------------------------------------------------------------------------
         ABSORPTION SPECTRUM VIA TRANSITION ELECTRIC DIPOLE MOMENTS
-----------------------------------------------------------------------------
State   Energy  Wavelength   fosc         T2         TX        TY        TZ
        (cm-1)    (nm)                  (au**2)     (au)      (au)      (au)
-----------------------------------------------------------------------------
   0   17692.9    565.2   0.120869710   2.24903  -0.21224   1.46515  -0.23941
   1   18206.5    549.3   0.076841883   1.38946   0.20742  -1.02929  -0.53572
   2   19228.7    520.1   0.033251100   0.56929   0.62438  -0.39176  -0.16113
   3   20707.6    482.9   0.028588890   0.45451   0.55438  -0.26195  -0.28028
   4   21184.4    472.0   0.010128263   0.15740   0.12311   0.37517  -0.03854
   5   21728.0    460.2   0.074744498   1.13249   0.48186   0.79602  -0.51639
   6   22262.2    449.2   0.235342891   3.48023   0.29529  -1.83250  -0.18705
   7   22436.6    445.7   0.030633110   0.44948  -0.11686   0.57818   0.31865
   8   23749.2    421.1   0.094175934   1.30547  -0.03716  -1.12392   0.20223
   9   23845.1    419.4   0.006690380   0.09237  -0.06487  -0.18164  -0.23488
  10   24092.1    415.1   0.001211687   0.01656   0.03814  -0.00007  -0.12289
  11   24540.6    407.5   0.203589176   2.73115   0.79453   1.44601  -0.09450
  12   24808.1    403.1   0.122865786   1.63047  -0.61427   1.11924   0.02110
  13   24892.5    401.7   0.024240913   0.32059   0.20816   0.52645  -0.01067
  14   25080.7    398.7   0.102466852   1.34499  -0.57795   1.00418  -0.05086
  15   25322.0    394.9   0.271711423   3.53253   1.01797   1.57841  -0.06996
  16   25428.6    393.3   0.019541919   0.25300  -0.05071   0.49920   0.03507
  17   25596.8    390.7   0.028110236   0.36154   0.21536  -0.47333  -0.30186
  18   25965.0    385.1   0.425184330   5.39094  -1.17175   1.93171   0.53520
  19   26325.2    379.9   0.163971955   2.05056   0.45156  -1.14695   0.72881
  20   26742.8    373.9   0.030486840   0.37530  -0.27646   0.42105  -0.34869
  21   26965.5    370.8   0.124499075   1.51996  -0.22744  -1.21147   0.02378
  22   27088.1    369.2   0.083598599   1.01601  -0.69234   0.66759  -0.30165
  23   27479.6    363.9   0.001638184   0.01963  -0.05142  -0.06238   0.11441
  24   27888.8    358.6   0.025863344   0.30530  -0.25753  -0.48843  -0.02042
  25   28633.5    349.2   0.011293574   0.12985   0.02559  -0.04725   0.35631
  26   28880.7    346.3   0.020197746   0.23023   0.23485   0.41802  -0.01843
  27   28982.8    345.0   0.008188444   0.09301  -0.05680   0.24936  -0.16615
  28   29690.8    336.8   0.335178007   3.71646   1.19133   1.39505   0.59249
  29   29896.9    334.5   0.253855082   2.79534   0.79822   1.42036   0.37520
  30   30398.2    329.0   0.026763598   0.28985  -0.40017  -0.30080  -0.19809
  31   30532.2    327.5   0.156998675   1.69283   1.07804  -0.42420   0.59222
  32   30615.8    326.6   0.020866211   0.22437  -0.07218  -0.46086  -0.08230
  33   30700.4    325.7   0.046509128   0.49874  -0.58523   0.24332  -0.31151
  34   30942.3    323.2   0.237044324   2.52204  -0.18414   1.53977  -0.34241
  35   31113.5    321.4   0.244413212   2.58614   0.90350  -1.03349   0.83769
  36   31366.9    318.8   0.101077649   1.06086  -0.37031  -0.96110  -0.00528
  37   32004.0    312.5   0.073135580   0.75232   0.06623  -0.50592   0.70141
  38   32390.2    308.7   0.403648078   4.10266   0.88957  -1.63847   0.79166
  39   32479.7    307.9   0.138190018   1.40069   0.91075   0.19558   0.73004
  40   32841.7    304.5   0.002588720   0.02595   0.03893  -0.13563  -0.07771
  41   32993.3    303.1   0.367720632   3.66917   0.19088  -1.54719   1.11308
  42   33310.3    300.2   0.002395282   0.02367  -0.02483   0.14306  -0.05089
  43   33425.9    299.2   0.102953970   1.01399   0.06133  -0.98630   0.19353
  44   33568.5    297.9   0.155348860   1.52353   0.62210  -0.84102   0.65515
  45   33788.5    296.0   0.030178150   0.29404  -0.25032   0.47039   0.10054
  46   34001.2    294.1   0.025018776   0.24224   0.43450   0.19695  -0.12108
  47   34022.3    293.9   0.000972406   0.00941  -0.06414   0.06146   0.03897
  48   34196.6    292.4   0.055964107   0.53877   0.60099   0.27079   0.32288
  49   34661.8    288.5   0.031538095   0.29954  -0.30094  -0.43768   0.13196
  50   34930.3    286.3   0.076903618   0.72480  -0.54909   0.65055   0.00923
  51   35336.1    283.0   0.284907833   2.65437  -0.09034   1.62130  -0.13261
  52   35437.8    282.2   0.089161376   0.82830   0.02354   0.88145  -0.22536
  53   35640.0    280.6   0.009077095   0.08385  -0.28837   0.01355   0.02245
  54   35819.5    279.2   0.111152178   1.02158  -0.73321   0.01415  -0.69555
  55   35981.2    277.9   0.045125825   0.41288   0.31992   0.49428  -0.25734
  56   36076.3    277.2   0.079230355   0.72301   0.48305  -0.69971  -0.00913
  57   36372.6    274.9   0.008564950   0.07752   0.07474  -0.21607   0.15891
  58   36460.1    274.3   0.002013476   0.01818  -0.06459   0.11724  -0.01625
  59   36598.1    273.2   0.423126005   3.80616  -0.18667  -1.90791   0.36223
  60   36672.6    272.7   0.118665632   1.06527   0.12738   1.02128  -0.07761
  61   36977.8    270.4   0.018431831   0.16410  -0.11155  -0.28930  -0.26069
  62   37006.0    270.2   0.050864802   0.45250   0.42793  -0.08993   0.51117
  63   37180.3    269.0   0.007937127   0.07028   0.17901   0.02276   0.19421
  64   37268.9    268.3   0.025247270   0.22302   0.14301   0.44490   0.06803
  65   37392.6    267.4   0.044969184   0.39592   0.13223   0.60515   0.11055
  66   37419.8    267.2   0.322255401   2.83514  -0.50370  -1.60668  -0.00320
  67   37666.0    265.5   0.199870127   1.74692  -0.39837   0.98423  -0.78709
  68   38085.3    262.6   0.027097829   0.23424  -0.37572   0.02159   0.30431
  69   38252.1    261.4   0.013309339   0.11455  -0.24727  -0.22212  -0.06374
  70   38348.6    260.8   0.020052331   0.17214  -0.08212   0.34353  -0.21769
  71   38422.3    260.3   0.018301464   0.15681   0.14372  -0.20318   0.30802
  72   38506.9    259.7   0.032855110   0.28089   0.34988   0.16556   0.36203
  73   38557.7    259.4   0.017745524   0.15151   0.12306   0.13745   0.34275
  74   38767.0    258.0   0.023188713   0.19692   0.30334  -0.04273   0.32106
  75   38965.2    256.6   0.058684399   0.49582  -0.19735   0.67315   0.06118
  76   39016.8    256.3   0.107747738   0.90914   0.75911  -0.54882   0.17802
  77   39153.3    255.4   0.047738959   0.40140   0.55834   0.12163   0.27361
  78   39271.3    254.6   0.018906775   0.15850  -0.09424  -0.38240   0.05819
  79   39355.9    254.1   0.082777553   0.69243   0.78324   0.24876   0.13073
  80   39442.5    253.5   0.010631281   0.08874  -0.22042  -0.18805  -0.06918
  81   39472.1    253.3   0.016957131   0.14143   0.04593   0.35499  -0.11534
  82   39629.6    252.3   0.014715946   0.12225  -0.25582  -0.11533  -0.20858
  83   39741.5    251.6   0.084924480   0.70350   0.67551   0.16732   0.46818
  84   39870.2    250.8   0.021289802   0.17579  -0.29292  -0.16262  -0.25208
  85   39936.5    250.4   0.072061340   0.59403  -0.48009  -0.08857  -0.59640
  86   40036.1    249.8   0.002334820   0.01920  -0.13296  -0.03006  -0.02482
  87   40186.1    248.8   0.113490129   0.92973   0.86954  -0.21887   0.35459
  88   40224.0    248.6   0.040837690   0.33423  -0.49632   0.21186  -0.20741

FINAL SINGLE POINT ENERGY     -3816.233281133486

DIPOLE MOMENT
-------------
                                X             Y             Z
Electronic contribution:      8.83068       3.79774       0.06510
Nuclear contribution   :    -10.20730      -5.14711      -0.73315
                        -----------------------------------------
Total Dipole Moment    :     -1.37662      -1.34937      -0.66805
                        -----------------------------------------
Magnitude (a.u.)       :      2.04014
Magnitude (Debye)      :      5.18562

Rotational constants in cm-1:     0.001001     0.000479     0.000341
Rotational constants in MHz :    30.015919    14.374474    10.217597

                             ****ORCA TERMINATED NORMALLY****
TOTAL RUN TIME: 0 days 0 hours 14 minutes 30 seconds 445 msec
