                         Program Version 4.2.0 -  RELEASE  -
|  1> # ORCA input file
|  2> # SCF done       -187.571825969837          0.000951594800
|  3> ! CAM-B3LYP def2-SVP def2/J RIJCOSX Grid4 TightSCF
|  4> %maxcore 5000
|  5> %tddft
|  6>     Mode sTDDFT
|  7>     Ethresh 5.0
|  8>     maxcore 5000
|  9> end
| 10>
| 11> %pal
| 12>   nprocs 6
| 13>   end
| 14> * xyz 0 1
| 15>    C       13.11332         9.23848        -0.95523
| 16>    C       13.81877        10.26251        -1.52382
| 17>    F       13.80955        11.47473        -0.94335
| 18>    C       14.56132        10.10057        -2.70183
| 19>    C       14.58343         8.87499        -3.30664
| 20>    C       13.87451         7.78342        -2.76316
| 21>    C       13.12299         7.96942        -1.56542
| 22>    C       12.39843         6.89250        -1.00428
| 23>    C       12.42894         5.67218        -1.62165
| 24>    C       13.19809         5.48542        -2.80691
| 25>    C       13.90105         6.51042        -3.37393
| 26>    C       13.10849         4.07831        -3.22924
| 27>    O       13.56086         3.55569        -4.21894
| 28>    C       12.37675         3.38833        -2.11791
| 29>    C       11.78549         4.40834        -1.27695
| 30>    C       10.67332         4.27334        -0.48745
| 31>    C        9.97152         3.06402        -0.32265
| 32>    N        9.35783         2.10552        -0.17105
| 33>    C       10.08368         5.33940         0.22386
| 34>    N        9.57151         6.16799         0.83028
| 35>    C       12.46987         2.03926        -2.00812
| 36>    C       12.20899         1.21716        -0.88161
| 37>    C       11.87123        -0.21322        -0.95970
| 38>    N       11.69501        -0.78653         0.19207
| 39>    C       11.91472         0.17892         1.12471
| 40>    C       12.25629         1.46380         0.47247
| 41>    C       12.56913         2.44925         1.47430
| 42>    S       13.24353         3.93447         1.25497
| 43>    C       12.29259         1.78779         2.72101
| 44>    C       11.92827         0.38169         2.47911
| 45>    N       11.71488        -0.26847         3.66099
| 46>    C       11.91567         0.61321         4.59185
| 47>    C       12.27539         1.94503         4.08918
| 48>    C       12.50315         3.10419         4.86091
| 49>    N       12.62762         4.29830         4.35795
| 50>    C       12.83742         5.19850         5.30571
| 51>    C       12.89590         4.70719         6.63631
| 52>    S       12.64453         3.01458         6.64355
| 53>    N       13.12452         5.60528         7.58216
| 54>    C       13.24378         6.79976         7.07948
| 55>    S       13.06559         6.89324         5.29886
| 56>    C       13.53015         7.95767         7.83303
| 57>    C       13.49844         9.33890         7.34092
| 58>    N       13.84820        10.22516         8.22369
| 59>    C       14.15023         9.52483         9.35324
| 60>    C       13.91865         8.08250         9.15043
| 61>    C       14.32617         7.34192        10.31395
| 62>    S       14.30927         5.72082        10.56050
| 63>    C       14.82444         8.35714        11.21226
| 64>    C       14.69488         9.69222        10.59980
| 65>    N       15.24385        10.64134        11.40721
| 66>    C       15.76549         9.99577        12.40629
| 67>    C       15.56864         8.53823        12.35111
| 68>    C       16.05206         7.59254        13.30018
| 69>    C       17.23833         7.65894        13.95064
| 70>    C       17.48431         6.85456        15.18669
| 71>    O       16.81770         5.93301        15.58972
| 72>    C       18.66385         7.47706        15.81465
| 73>    C       19.24135         7.19268        17.01929
| 74>    C       20.37131         7.93117        17.43415
| 75>    C       20.88075         8.96248        16.59087
| 76>    C       22.00629         9.69679        17.01184
| 77>    C       22.58646         9.40403        18.21496
| 78>    C       22.10101         8.39392        19.05765
| 79>    C       21.00850         7.67219        18.66529
| 80>    F       23.66123        10.10160        18.61770
| 81>    C       20.26541         9.23451        15.34729
| 82>    C       19.17761         8.49795        14.96100
| 83>    C       18.38643         8.52013        13.73586
| 84>    C       18.77191         9.06319        12.53894
| 85>    C       18.13440         8.79228        11.30960
| 86>    N       17.70078         8.54041        10.27708
| 87>    C       19.92550         9.86039        12.37810
| 88>    N       20.84111        10.53089        12.21146
| 89>    H       12.55066         9.39952        -0.04916
| 90>    H       15.09869        10.94488        -3.10362
| 91>    H       15.14907         8.72588        -4.21390
| 92>    H       11.85157         7.05261        -0.08893
| 93>    H       14.47471         6.35079        -4.27455
| 94>    H       12.85871         1.52909        -2.88540
| 95>    H       11.75148        -0.76431        -1.87599
| 96>    H       11.80945         0.35813         5.63196
| 97>    H       13.20269         9.63061         6.34807
| 98>    H       16.24487        10.52299        13.21346
| 99>    H       15.39696         6.76738        13.56012
|100>    H       18.84121         6.41077        17.64711
|101>    H       22.40886        10.47881        16.38721
|102>    H       22.59989         8.20878        19.99556
|103>    H       20.61712         6.88925        19.29705
|104>    H       20.66568        10.02533        14.73276
|105> *
|106>
|107>                          ****END OF INPUT****

CARTESIAN COORDINATES (ANGSTROEM)
---------------------------------
  C     13.113320    9.238480   -0.955230
  C     13.818770   10.262510   -1.523820
  F     13.809550   11.474730   -0.943350
  C     14.561320   10.100570   -2.701830
  C     14.583430    8.874990   -3.306640
  C     13.874510    7.783420   -2.763160
  C     13.122990    7.969420   -1.565420
  C     12.398430    6.892500   -1.004280
  C     12.428940    5.672180   -1.621650
  C     13.198090    5.485420   -2.806910
  C     13.901050    6.510420   -3.373930
  C     13.108490    4.078310   -3.229240
  O     13.560860    3.555690   -4.218940
  C     12.376750    3.388330   -2.117910
  C     11.785490    4.408340   -1.276950
  C     10.673320    4.273340   -0.487450
  C      9.971520    3.064020   -0.322650
  N      9.357830    2.105520   -0.171050
  C     10.083680    5.339400    0.223860
  N      9.571510    6.167990    0.830280
  C     12.469870    2.039260   -2.008120
  C     12.208990    1.217160   -0.881610
  C     11.871230   -0.213220   -0.959700
  N     11.695010   -0.786530    0.192070
  C     11.914720    0.178920    1.124710
  C     12.256290    1.463800    0.472470
  C     12.569130    2.449250    1.474300
  S     13.243530    3.934470    1.254970
  C     12.292590    1.787790    2.721010
  C     11.928270    0.381690    2.479110
  N     11.714880   -0.268470    3.660990
  C     11.915670    0.613210    4.591850
  C     12.275390    1.945030    4.089180
  C     12.503150    3.104190    4.860910
  N     12.627620    4.298300    4.357950
  C     12.837420    5.198500    5.305710
  C     12.895900    4.707190    6.636310
  S     12.644530    3.014580    6.643550
  N     13.124520    5.605280    7.582160
  C     13.243780    6.799760    7.079480
  S     13.065590    6.893240    5.298860
  C     13.530150    7.957670    7.833030
  C     13.498440    9.338900    7.340920
  N     13.848200   10.225160    8.223690
  C     14.150230    9.524830    9.353240
  C     13.918650    8.082500    9.150430
  C     14.326170    7.341920   10.313950
  S     14.309270    5.720820   10.560500
  C     14.824440    8.357140   11.212260
  C     14.694880    9.692220   10.599800
  N     15.243850   10.641340   11.407210
  C     15.765490    9.995770   12.406290
  C     15.568640    8.538230   12.351110
  C     16.052060    7.592540   13.300180
  C     17.238330    7.658940   13.950640
  C     17.484310    6.854560   15.186690
  O     16.817700    5.933010   15.589720
  C     18.663850    7.477060   15.814650
  C     19.241350    7.192680   17.019290
  C     20.371310    7.931170   17.434150
  C     20.880750    8.962480   16.590870
  C     22.006290    9.696790   17.011840
  C     22.586460    9.404030   18.214960
  C     22.101010    8.393920   19.057650
  C     21.008500    7.672190   18.665290
  F     23.661230   10.101600   18.617700
  C     20.265410    9.234510   15.347290
  C     19.177610    8.497950   14.961000
  C     18.386430    8.520130   13.735860
  C     18.771910    9.063190   12.538940
  C     18.134400    8.792280   11.309600
  N     17.700780    8.540410   10.277080
  C     19.925500    9.860390   12.378100
  N     20.841110   10.530890   12.211460
  H     12.550660    9.399520   -0.049160
  H     15.098690   10.944880   -3.103620
  H     15.149070    8.725880   -4.213900
  H     11.851570    7.052610   -0.088930
  H     14.474710    6.350790   -4.274550
  H     12.858710    1.529090   -2.885400
  H     11.751480   -0.764310   -1.875990
  H     11.809450    0.358130    5.631960
  H     13.202690    9.630610    6.348070
  H     16.244870   10.522990   13.213460
  H     15.396960    6.767380   13.560120
  H     18.841210    6.410770   17.647110
  H     22.408860   10.478810   16.387210
  H     22.599890    8.208780   19.995560
  H     20.617120    6.889250   19.297050
  H     20.665680   10.025330   14.732760

 Total Charge           Charge          ....    0
 Multiplicity           Mult            ....    1
 Number of Electrons    NEL             ....  520
 Basis Dimension        Dim             .... 1132

ORBITAL ENERGIES
----------------

  NO   OCC          E(Eh)            E(eV)
   0   2.0000     -88.985247     -2421.4117
   1   2.0000     -88.984398     -2421.3886
   2   2.0000     -88.916347     -2419.5368
   3   2.0000     -88.907611     -2419.2991
   4   2.0000     -24.793062      -674.6535
   5   2.0000     -24.788500      -674.5294
   6   2.0000     -19.225302      -523.1471
   7   2.0000     -19.222224      -523.0633
   8   2.0000     -14.436656      -392.8414
   9   2.0000     -14.435618      -392.8131
  10   2.0000     -14.427583      -392.5945
  11   2.0000     -14.427417      -392.5900
  12   2.0000     -14.426308      -392.5598
  13   2.0000     -14.426050      -392.5528
  14   2.0000     -14.425508      -392.5380
  15   2.0000     -14.425100      -392.5269
  16   2.0000     -14.422230      -392.4488
  17   2.0000     -14.418491      -392.3471
  18   2.0000     -10.377509      -282.3864
  19   2.0000     -10.376329      -282.3543
  20   2.0000     -10.372811      -282.2585
  21   2.0000     -10.372305      -282.2448
  22   2.0000     -10.364296      -282.0268
  23   2.0000     -10.364127      -282.0222
  24   2.0000     -10.359106      -281.8856
  25   2.0000     -10.354240      -281.7532
  26   2.0000     -10.352842      -281.7152
  27   2.0000     -10.349123      -281.6140
  28   2.0000     -10.348726      -281.6031
  29   2.0000     -10.348637      -281.6007
  30   2.0000     -10.347500      -281.5698
  31   2.0000     -10.347295      -281.5642
  32   2.0000     -10.347158      -281.5605
  33   2.0000     -10.346906      -281.5536
  34   2.0000     -10.346716      -281.5485
  35   2.0000     -10.345833      -281.5244
  36   2.0000     -10.344350      -281.4841
  37   2.0000     -10.343331      -281.4563
  38   2.0000     -10.342684      -281.4387
  39   2.0000     -10.342521      -281.4343
  40   2.0000     -10.328977      -281.0658
  41   2.0000     -10.328685      -281.0578
  42   2.0000     -10.328003      -281.0393
  43   2.0000     -10.323552      -280.9181
  44   2.0000     -10.323466      -280.9158
  45   2.0000     -10.321180      -280.8536
  46   2.0000     -10.321003      -280.8488
  47   2.0000     -10.319350      -280.8038
  48   2.0000     -10.318551      -280.7820
  49   2.0000     -10.317089      -280.7423
  50   2.0000     -10.316876      -280.7365
  51   2.0000     -10.316677      -280.7311
  52   2.0000     -10.315028      -280.6862
  53   2.0000     -10.312834      -280.6265
  54   2.0000     -10.312635      -280.6211
  55   2.0000     -10.311926      -280.6018
  56   2.0000     -10.311397      -280.5874
  57   2.0000     -10.310795      -280.5710
  58   2.0000     -10.310075      -280.5514
  59   2.0000     -10.309378      -280.5324
  60   2.0000     -10.309124      -280.5255
  61   2.0000     -10.309096      -280.5248
  62   2.0000     -10.308263      -280.5021
  63   2.0000     -10.305395      -280.4241
  64   2.0000     -10.304141      -280.3899
  65   2.0000     -10.303801      -280.3807
  66   2.0000     -10.302257      -280.3387
  67   2.0000     -10.300486      -280.2905
  68   2.0000     -10.300346      -280.2867
  69   2.0000     -10.299930      -280.2753
  70   2.0000     -10.296821      -280.1908
  71   2.0000     -10.296732      -280.1883
  72   2.0000     -10.293977      -280.1134
  73   2.0000     -10.291450      -280.0446
  74   2.0000      -8.080990      -219.8949
  75   2.0000      -8.080195      -219.8733
  76   2.0000      -8.011489      -218.0037
  77   2.0000      -8.003169      -217.7773
  78   2.0000      -6.050007      -164.6291
  79   2.0000      -6.049210      -164.6074
  80   2.0000      -6.046428      -164.5317
  81   2.0000      -6.045644      -164.5103
  82   2.0000      -6.042936      -164.4366
  83   2.0000      -6.042125      -164.4146
  84   2.0000      -5.980733      -162.7440
  85   2.0000      -5.980041      -162.7252
  86   2.0000      -5.972537      -162.5210
  87   2.0000      -5.971756      -162.4998
  88   2.0000      -5.970312      -162.4604
  89   2.0000      -5.961792      -162.2286
  90   2.0000      -1.308748       -35.6128
  91   2.0000      -1.303801       -35.4782
  92   2.0000      -1.141011       -31.0485
  93   2.0000      -1.137910       -30.9641
  94   2.0000      -1.110782       -30.2259
  95   2.0000      -1.096699       -29.8427
  96   2.0000      -1.095602       -29.8129
  97   2.0000      -1.078509       -29.3477
  98   2.0000      -1.076789       -29.3009
  99   2.0000      -1.066334       -29.0164
 100   2.0000      -1.030292       -28.0357
 101   2.0000      -1.023530       -27.8517
 102   2.0000      -1.010658       -27.5014
 103   2.0000      -1.005130       -27.3510
 104   2.0000      -1.004905       -27.3449
 105   2.0000      -0.998357       -27.1667
 106   2.0000      -0.986543       -26.8452
 107   2.0000      -0.980961       -26.6933
 108   2.0000      -0.976179       -26.5632
 109   2.0000      -0.973702       -26.4958
 110   2.0000      -0.941148       -25.6099
 111   2.0000      -0.937093       -25.4996
 112   2.0000      -0.935247       -25.4494
 113   2.0000      -0.923243       -25.1227
 114   2.0000      -0.919311       -25.0157
 115   2.0000      -0.916442       -24.9376
 116   2.0000      -0.900125       -24.4936
 117   2.0000      -0.895496       -24.3677
 118   2.0000      -0.893729       -24.3196
 119   2.0000      -0.892325       -24.2814
 120   2.0000      -0.891134       -24.2490
 121   2.0000      -0.888141       -24.1676
 122   2.0000      -0.866932       -23.5904
 123   2.0000      -0.864430       -23.5223
 124   2.0000      -0.851311       -23.1654
 125   2.0000      -0.848953       -23.1012
 126   2.0000      -0.842623       -22.9289
 127   2.0000      -0.837275       -22.7834
 128   2.0000      -0.821405       -22.3516
 129   2.0000      -0.807702       -21.9787
 130   2.0000      -0.803065       -21.8525
 131   2.0000      -0.790600       -21.5133
 132   2.0000      -0.781381       -21.2625
 133   2.0000      -0.772250       -21.0140
 134   2.0000      -0.767855       -20.8944
 135   2.0000      -0.761391       -20.7185
 136   2.0000      -0.749401       -20.3922
 137   2.0000      -0.736927       -20.0528
 138   2.0000      -0.731885       -19.9156
 139   2.0000      -0.728809       -19.8319
 140   2.0000      -0.720828       -19.6147
 141   2.0000      -0.718281       -19.5454
 142   2.0000      -0.715380       -19.4665
 143   2.0000      -0.712116       -19.3777
 144   2.0000      -0.706205       -19.2168
 145   2.0000      -0.701571       -19.0907
 146   2.0000      -0.691841       -18.8259
 147   2.0000      -0.686218       -18.6729
 148   2.0000      -0.684497       -18.6261
 149   2.0000      -0.681165       -18.5354
 150   2.0000      -0.664474       -18.0812
 151   2.0000      -0.661426       -17.9983
 152   2.0000      -0.656616       -17.8674
 153   2.0000      -0.647381       -17.6161
 154   2.0000      -0.644048       -17.5254
 155   2.0000      -0.641812       -17.4646
 156   2.0000      -0.637842       -17.3566
 157   2.0000      -0.636935       -17.3319
 158   2.0000      -0.631833       -17.1930
 159   2.0000      -0.613625       -16.6976
 160   2.0000      -0.612692       -16.6722
 161   2.0000      -0.606222       -16.4961
 162   2.0000      -0.603259       -16.4155
 163   2.0000      -0.594277       -16.1711
 164   2.0000      -0.591358       -16.0917
 165   2.0000      -0.587150       -15.9772
 166   2.0000      -0.580834       -15.8053
 167   2.0000      -0.580050       -15.7840
 168   2.0000      -0.575011       -15.6468
 169   2.0000      -0.571624       -15.5547
 170   2.0000      -0.568159       -15.4604
 171   2.0000      -0.566100       -15.4044
 172   2.0000      -0.565881       -15.3984
 173   2.0000      -0.563670       -15.3382
 174   2.0000      -0.561192       -15.2708
 175   2.0000      -0.559862       -15.2346
 176   2.0000      -0.557801       -15.1785
 177   2.0000      -0.554455       -15.0875
 178   2.0000      -0.552926       -15.0459
 179   2.0000      -0.550096       -14.9689
 180   2.0000      -0.548631       -14.9290
 181   2.0000      -0.544950       -14.8289
 182   2.0000      -0.543139       -14.7796
 183   2.0000      -0.539841       -14.6898
 184   2.0000      -0.535118       -14.5613
 185   2.0000      -0.534304       -14.5392
 186   2.0000      -0.531955       -14.4752
 187   2.0000      -0.530845       -14.4450
 188   2.0000      -0.526311       -14.3216
 189   2.0000      -0.524367       -14.2688
 190   2.0000      -0.520559       -14.1651
 191   2.0000      -0.519868       -14.1463
 192   2.0000      -0.515023       -14.0145
 193   2.0000      -0.512906       -13.9569
 194   2.0000      -0.509488       -13.8639
 195   2.0000      -0.506654       -13.7867
 196   2.0000      -0.502079       -13.6623
 197   2.0000      -0.501068       -13.6347
 198   2.0000      -0.500197       -13.6110
 199   2.0000      -0.498570       -13.5668
 200   2.0000      -0.497098       -13.5267
 201   2.0000      -0.494615       -13.4592
 202   2.0000      -0.492516       -13.4020
 203   2.0000      -0.490536       -13.3482
 204   2.0000      -0.489143       -13.3103
 205   2.0000      -0.485570       -13.2130
 206   2.0000      -0.484933       -13.1957
 207   2.0000      -0.476656       -12.9705
 208   2.0000      -0.474682       -12.9168
 209   2.0000      -0.470064       -12.7911
 210   2.0000      -0.465884       -12.6774
 211   2.0000      -0.460705       -12.5364
 212   2.0000      -0.460356       -12.5269
 213   2.0000      -0.455018       -12.3817
 214   2.0000      -0.454738       -12.3741
 215   2.0000      -0.454519       -12.3681
 216   2.0000      -0.450215       -12.2510
 217   2.0000      -0.447697       -12.1824
 218   2.0000      -0.447488       -12.1768
 219   2.0000      -0.442283       -12.0351
 220   2.0000      -0.440555       -11.9881
 221   2.0000      -0.440106       -11.9759
 222   2.0000      -0.439889       -11.9700
 223   2.0000      -0.438423       -11.9301
 224   2.0000      -0.433393       -11.7932
 225   2.0000      -0.431965       -11.7544
 226   2.0000      -0.429958       -11.6998
 227   2.0000      -0.429540       -11.6884
 228   2.0000      -0.427237       -11.6257
 229   2.0000      -0.424129       -11.5411
 230   2.0000      -0.418929       -11.3996
 231   2.0000      -0.411589       -11.1999
 232   2.0000      -0.409230       -11.1357
 233   2.0000      -0.407422       -11.0865
 234   2.0000      -0.392992       -10.6939
 235   2.0000      -0.389971       -10.6116
 236   2.0000      -0.386204       -10.5091
 237   2.0000      -0.384568       -10.4646
 238   2.0000      -0.375742       -10.2244
 239   2.0000      -0.372567       -10.1381
 240   2.0000      -0.368006       -10.0140
 241   2.0000      -0.366185        -9.9644
 242   2.0000      -0.364141        -9.9088
 243   2.0000      -0.362452        -9.8628
 244   2.0000      -0.359001        -9.7689
 245   2.0000      -0.345382        -9.3983
 246   2.0000      -0.343482        -9.3466
 247   2.0000      -0.342518        -9.3204
 248   2.0000      -0.341068        -9.2809
 249   2.0000      -0.329562        -8.9679
 250   2.0000      -0.328604        -8.9418
 251   2.0000      -0.320787        -8.7291
 252   2.0000      -0.314275        -8.5519
 253   2.0000      -0.313499        -8.5308
 254   2.0000      -0.311823        -8.4851
 255   2.0000      -0.304827        -8.2948
 256   2.0000      -0.300188        -8.1685
 257   2.0000      -0.287829        -7.8322
 258   2.0000      -0.284987        -7.7549
 259   2.0000      -0.275834        -7.5058
 260   0.0000      -0.131731        -3.5846
 261   0.0000      -0.124063        -3.3759
 262   0.0000      -0.109295        -2.9741
 263   0.0000      -0.100124        -2.7245
 264   0.0000      -0.080349        -2.1864

MULLIKEN ATOMIC CHARGES
-----------------------
   0 C :   -0.097273
   1 C :    0.304745
   2 F :   -0.188628
   3 C :   -0.029665
   4 C :   -0.008533
   5 C :    0.099301
   6 C :    0.102798
   7 C :   -0.084784
   8 C :    0.048823
   9 C :    0.017540
  10 C :   -0.079254
  11 C :    0.131272
  12 O :   -0.134886
  13 C :   -0.098817
  14 C :    0.278058
  15 C :   -0.338121
  16 C :   -0.195666
  17 N :    0.177297
  18 C :   -0.170682
  19 N :    0.165489
  20 C :    0.008217
  21 C :   -0.005067
  22 C :    0.084560
  23 N :   -0.020216
  24 C :    0.022866
  25 C :    0.003883
  26 C :   -0.033351
  27 S :   -0.062799
  28 C :   -0.001570
  29 C :    0.026847
  30 N :   -0.021902
  31 C :    0.066101
  32 C :    0.052239
  33 C :   -0.167387
  34 N :    0.021158
  35 C :   -0.047195
  36 C :   -0.048159
  37 S :    0.132365
  38 N :    0.026696
  39 C :   -0.163762
  40 S :    0.128263
  41 C :    0.048297
  42 C :    0.069118
  43 N :   -0.025356
  44 C :    0.020729
  45 C :    0.003176
  46 C :   -0.021155
  47 S :   -0.068129
  48 C :    0.064644
  49 C :    0.022199
  50 N :   -0.015132
  51 C :    0.069864
  52 C :   -0.093295
  53 C :    0.043439
  54 C :   -0.129922
  55 C :    0.144011
  56 O :   -0.127841
  57 C :    0.002940
  58 C :   -0.075337
  59 C :    0.101134
  60 C :    0.102343
  61 C :   -0.097962
  62 C :    0.303567
  63 C :   -0.026169
  64 C :   -0.008723
  65 F :   -0.186038
  66 C :   -0.085797
  67 C :    0.046281
  68 C :    0.270706
  69 C :   -0.340936
  70 C :   -0.172112
  71 N :    0.167843
  72 C :   -0.175705
  73 N :    0.161945
  74 H :   -0.003552
  75 H :    0.005284
  76 H :   -0.008083
  77 H :   -0.004916
  78 H :   -0.010232
  79 H :    0.023682
  80 H :    0.015525
  81 H :    0.018620
  82 H :    0.018482
  83 H :    0.020471
  84 H :    0.039159
  85 H :   -0.007173
  86 H :    0.000635
  87 H :    0.006807
  88 H :   -0.005567
  89 H :   -0.002573
Sum of atomic charges:   -0.0000000

LOEWDIN ATOMIC CHARGES
----------------------
   0 C :   -0.042539
   1 C :    0.094233
   2 F :   -0.062894
   3 C :   -0.035990
   4 C :    0.005853
   5 C :   -0.018537
   6 C :    0.005175
   7 C :    0.012052
   8 C :   -0.013648
   9 C :   -0.060465
  10 C :    0.037068
  11 C :    0.085867
  12 O :   -0.134918
  13 C :   -0.056028
  14 C :    0.060518
  15 C :   -0.134116
  16 C :   -0.015511
  17 N :   -0.044891
  18 C :   -0.020230
  19 N :   -0.047669
  20 C :    0.049349
  21 C :   -0.051740
  22 C :    0.104742
  23 N :   -0.070106
  24 C :    0.050161
  25 C :   -0.003052
  26 C :   -0.151277
  27 S :    0.134279
  28 C :   -0.010199
  29 C :    0.042175
  30 N :   -0.071410
  31 C :    0.086497
  32 C :   -0.068547
  33 C :   -0.116575
  34 N :   -0.070121
  35 C :   -0.203756
  36 C :   -0.202708
  37 S :    0.423199
  38 N :   -0.069109
  39 C :   -0.112977
  40 S :    0.421278
  41 C :   -0.070603
  42 C :    0.088665
  43 N :   -0.073120
  44 C :    0.047556
  45 C :   -0.004674
  46 C :   -0.151083
  47 S :    0.108556
  48 C :    0.005782
  49 C :    0.045698
  50 N :   -0.071817
  51 C :    0.090848
  52 C :   -0.062163
  53 C :    0.077365
  54 C :   -0.073963
  55 C :    0.083147
  56 O :   -0.129362
  57 C :   -0.061570
  58 C :    0.038575
  59 C :   -0.017166
  60 C :    0.004191
  61 C :   -0.040966
  62 C :    0.094724
  63 C :   -0.033188
  64 C :    0.006103
  65 F :   -0.060735
  66 C :    0.013988
  67 C :   -0.020293
  68 C :    0.065825
  69 C :   -0.126536
  70 C :   -0.017618
  71 N :   -0.041561
  72 C :   -0.018010
  73 N :   -0.039618
  74 H :    0.042776
  75 H :    0.042598
  76 H :    0.036195
  77 H :    0.038849
  78 H :    0.040310
  79 H :    0.049456
  80 H :    0.030420
  81 H :    0.025753
  82 H :    0.025378
  83 H :    0.027466
  84 H :    0.054305
  85 H :    0.041496
  86 H :    0.044200
  87 H :    0.043311
  88 H :    0.037087
  89 H :    0.039995

  Mayer bond orders larger than 0.100000
B(  0-C ,  1-C ) :   1.4397 B(  0-C ,  6-C ) :   1.2030 B(  0-C , 74-H ) :   1.0068
B(  1-C ,  2-F ) :   1.0903 B(  1-C ,  3-C ) :   1.2527 B(  3-C ,  4-C ) :   1.4635
B(  3-C , 75-H ) :   0.9933 B(  4-C ,  5-C ) :   1.2311 B(  4-C , 76-H ) :   0.9974
B(  5-C ,  6-C ) :   1.2525 B(  5-C , 10-C ) :   1.1983 B(  6-C ,  7-C ) :   1.2036
B(  7-C ,  8-C ) :   1.4635 B(  7-C , 77-H ) :   0.9960 B(  8-C ,  9-C ) :   1.2193
B(  8-C , 14-C ) :   0.9961 B(  9-C , 10-C ) :   1.4592 B(  9-C , 11-C ) :   0.9231
B( 10-C , 78-H ) :   1.0156 B( 11-C , 12-O ) :   2.2778 B( 11-C , 13-C ) :   0.9245
B( 13-C , 14-C ) :   1.0250 B( 13-C , 20-C ) :   1.7096 B( 14-C , 15-C ) :   1.6443
B( 15-C , 16-C ) :   1.1754 B( 15-C , 18-C ) :   1.1305 B( 16-C , 17-N ) :   3.0064
B( 18-C , 19-N ) :   2.9963 B( 20-C , 21-C ) :   1.0715 B( 20-C , 79-H ) :   0.9385
B( 21-C , 22-C ) :   1.0099 B( 21-C , 25-C ) :   1.5098 B( 22-C , 23-N ) :   1.7214
B( 22-C , 80-H ) :   0.9937 B( 23-N , 24-C ) :   1.2745 B( 24-C , 25-C ) :   1.0631
B( 24-C , 29-C ) :   1.5104 B( 25-C , 26-C ) :   1.0292 B( 26-C , 27-S ) :   1.7099
B( 26-C , 28-C ) :   1.0286 B( 28-C , 29-C ) :   1.0651 B( 28-C , 32-C ) :   1.5419
B( 29-C , 30-N ) :   1.2558 B( 30-N , 31-C ) :   1.7428 B( 31-C , 32-C ) :   1.0257
B( 31-C , 81-H ) :   0.9858 B( 32-C , 33-C ) :   1.0894 B( 33-C , 34-N ) :   1.7258
B( 33-C , 37-S ) :   1.0709 B( 34-N , 35-C ) :   1.4199 B( 34-N , 37-S ) :   0.1064
B( 35-C , 36-C ) :   1.2403 B( 35-C , 40-S ) :   1.1108 B( 36-C , 37-S ) :   1.1108
B( 36-C , 38-N ) :   1.4180 B( 38-N , 39-C ) :   1.7317 B( 38-N , 40-S ) :   0.1060
B( 39-C , 40-S ) :   1.0708 B( 39-C , 41-C ) :   1.0895 B( 41-C , 42-C ) :   1.0366
B( 41-C , 45-C ) :   1.5456 B( 42-C , 43-N ) :   1.7359 B( 42-C , 82-H ) :   0.9849
B( 43-N , 44-C ) :   1.2693 B( 44-C , 45-C ) :   1.0562 B( 44-C , 49-C ) :   1.4996
B( 45-C , 46-C ) :   1.0376 B( 46-C , 47-S ) :   1.7378 B( 46-C , 48-C ) :   1.0025
B( 48-C , 49-C ) :   1.0592 B( 48-C , 52-C ) :   1.5754 B( 49-C , 50-N ) :   1.2646
B( 50-N , 51-C ) :   1.7410 B( 51-C , 52-C ) :   1.0116 B( 51-C , 83-H ) :   0.9904
B( 52-C , 53-C ) :   1.0236 B( 53-C , 54-C ) :   1.7055 B( 53-C , 84-H ) :   0.9553
B( 54-C , 55-C ) :   0.9204 B( 54-C , 68-C ) :   1.0240 B( 55-C , 56-O ) :   2.2918
B( 55-C , 57-C ) :   0.9212 B( 57-C , 58-C ) :   1.4661 B( 57-C , 67-C ) :   1.2167
B( 58-C , 59-C ) :   1.1970 B( 58-C , 85-H ) :   1.0153 B( 59-C , 60-C ) :   1.2531
B( 59-C , 64-C ) :   1.2308 B( 60-C , 61-C ) :   1.2032 B( 60-C , 66-C ) :   1.2049
B( 61-C , 62-C ) :   1.4392 B( 61-C , 86-H ) :   1.0068 B( 62-C , 63-C ) :   1.2543
B( 62-C , 65-F ) :   1.0936 B( 63-C , 64-C ) :   1.4629 B( 63-C , 87-H ) :   0.9924
B( 64-C , 88-H ) :   0.9978 B( 66-C , 67-C ) :   1.4559 B( 66-C , 89-H ) :   0.9945
B( 67-C , 68-C ) :   1.0077 B( 68-C , 69-C ) :   1.6537 B( 69-C , 70-C ) :   1.1540
B( 69-C , 72-C ) :   1.1352 B( 70-C , 71-N ) :   2.9934 B( 72-C , 73-N ) :   2.9842

-----------------------------------------------------------------------------
         ABSORPTION SPECTRUM VIA TRANSITION ELECTRIC DIPOLE MOMENTS
-----------------------------------------------------------------------------
State   Energy  Wavelength   fosc         T2         TX        TY        TZ
        (cm-1)    (nm)                  (au**2)     (au)      (au)      (au)
-----------------------------------------------------------------------------
   0   12830.2    779.4   0.000971253   0.02492   0.07830   0.06514   0.12061
   1   12922.8    773.8   0.002694473   0.06864   0.21761  -0.14127   0.03648
   2   14888.5    671.7   0.006261310   0.13845   0.15974  -0.07480   0.32762
   3   15004.7    666.5   0.044378267   0.97369  -0.34935  -0.26282  -0.88463
   4   15323.0    652.6   0.469265504  10.08209   0.85676   1.27780   2.77764
   5   16377.5    610.6   0.024827428   0.49907  -0.47890  -0.27683  -0.43942
   6   20236.6    494.2   0.018199074   0.29606   0.21403  -0.30289  -0.39814
   7   20332.7    491.8   0.156058305   2.52678   0.40955   0.47020   1.46218
   8   20538.5    486.9   0.553287739   8.86865   0.69232   1.39240   2.53980
   9   20612.1    485.2   0.141855964   2.26569   0.40294  -0.05665   1.44918
  10   22838.3    437.9   0.068407994   0.98609  -0.69510  -0.02990  -0.70854
  11   23295.0    429.3   0.034468204   0.48711   0.21567   0.38022   0.54409
  12   23496.0    425.6   0.029770725   0.41713  -0.14557  -0.38920  -0.49443
  13   23726.7    421.5   0.002975713   0.04129  -0.09576   0.12641  -0.12704
  14   24044.6    415.9   0.014262652   0.19528  -0.14265  -0.11500   0.40212
  15   24528.0    407.7   0.021143036   0.28378   0.01977  -0.30986   0.43287
  16   24941.8    400.9   0.032311393   0.42648  -0.29873  -0.08305  -0.57476
  17   25070.8    398.9   0.085234126   1.11923  -1.02333  -0.10701  -0.24612
  18   25215.9    396.6   0.045834021   0.59840   0.31988  -0.62703  -0.32080
  19   25253.3    396.0   0.122386185   1.59548   0.93235  -0.01458   0.85205
  20   25508.0    392.0   0.008898977   0.11485  -0.10020  -0.09313  -0.31006
  21   25560.0    391.2   0.059087070   0.76104  -0.63812  -0.11375  -0.58388
  22   25791.0    387.7   0.015861591   0.20247   0.05604   0.06762   0.44131
  23   25910.5    385.9   0.306897031   3.89936  -0.72954   0.23678  -1.81963
  24   26179.6    382.0   0.180443976   2.26910   1.13894   0.89655   0.41001
  25   26739.1    374.0   0.015704381   0.19335  -0.07152  -0.05609   0.43022
  26   26826.6    372.8   0.124865352   1.53233  -0.25266   1.14979  -0.38271
  27   27491.4    363.8   0.003439496   0.04119   0.15161   0.13127   0.03117
  28   27819.3    359.5   0.023722101   0.28073   0.40590   0.12786   0.31563
  29   28000.7    357.1   0.001370310   0.01611  -0.08132  -0.09293  -0.02935
  30   28205.2    354.5   0.002184311   0.02550   0.11125  -0.06531   0.09409
  31   28597.0    349.7   0.029113859   0.33516   0.00943   0.57619   0.05544
  32   28852.8    346.6   0.028190935   0.32166  -0.33670   0.20955  -0.40544
  33   29174.3    342.8   0.014904635   0.16819  -0.40814  -0.03392   0.02151
  34   29253.4    341.8   0.009108527   0.10251   0.26881   0.17177   0.02727
  35   29409.4    340.0   0.011115903   0.12443   0.10244  -0.33145   0.06386
  36   29476.0    339.3   0.016296784   0.18202  -0.41237  -0.10924   0.00597
  37   29633.5    337.5   0.138792585   1.54191  -0.90428  -0.18344  -0.83099
  38   30011.2    333.2   0.066639422   0.73101   0.11679  -0.34116   0.77523
  39   30564.3    327.2   0.019960121   0.21499  -0.27447  -0.15578  -0.33969
  40   30840.7    324.2   0.123606136   1.31944  -0.05756  -0.10190   1.14269
  41   31028.8    322.3   0.015784847   0.16748  -0.31723   0.03741  -0.25582
  42   31099.9    321.5   0.086394679   0.91454   0.70552   0.15226   0.62737
  43   31247.2    320.0   0.014401145   0.15173  -0.04847  -0.27158   0.27499
  44   31710.0    315.4   0.019256414   0.19992  -0.14505   0.35893   0.22372
  45   31843.5    314.0   0.144216896   1.49098  -0.78051  -0.93867  -0.02607
  46   31877.0    313.7   0.041614471   0.42978  -0.36400   0.54509   0.01252
  47   32040.1    312.1   0.098475454   1.01184   0.30649   0.88630  -0.36384
  48   32338.0    309.2   0.013409614   0.13651   0.12254   0.03086   0.34720
  49   32421.2    308.4   0.034636659   0.35171   0.09643  -0.52187   0.26468
  50   32601.3    306.7   0.247814753   2.50246   0.60119  -0.15433   1.45507
  51   32817.5    304.7   0.025124821   0.25204  -0.03884  -0.26525   0.42447
  52   33039.5    302.7   0.162907874   1.62325  -0.52871   0.09399  -1.15537
  53   33082.3    302.3   0.049667409   0.49426   0.50478   0.38592   0.30087
  54   33591.8    297.7   0.088599292   0.86831  -0.41071  -0.16121  -0.82075
  55   33699.5    296.7   0.003612564   0.03529   0.18529   0.00794  -0.02995
  56   33831.4    295.6   0.022204434   0.21607  -0.41794  -0.19806  -0.04662
  57   33920.4    294.8   0.049418188   0.47962  -0.10453  -0.39254   0.56090
  58   33997.9    294.1   0.017462575   0.16910  -0.20743  -0.33974   0.10317
  59   34061.7    293.6   0.105036910   1.01520  -0.50037  -0.09546  -0.86932
  60   34404.2    290.7   0.353330837   3.38100   0.76939   0.34139   1.63478
  61   34468.3    290.1   0.076145288   0.72727   0.31613   0.59258  -0.52553
  62   34483.8    290.0   0.061013915   0.58249  -0.06498  -0.13379   0.74858
  63   34651.4    288.6   0.012059139   0.11457   0.01884   0.09853  -0.32328
  64   34791.2    287.4   0.060975303   0.57698   0.23583  -0.01218   0.72195
  65   34852.5    286.9   0.039958208   0.37744  -0.59727   0.14306  -0.01570
  66   34932.5    286.3   0.028575789   0.26931  -0.10166   0.20882  -0.46408
  67   34952.0    286.1   0.094755879   0.89250  -0.50725  -0.33101   0.72500
  68   35180.6    284.2   0.011805062   0.11047   0.15865  -0.18330   0.22738
  69   35228.2    283.9   0.004819888   0.04504  -0.05527  -0.02744  -0.20306
  70   35395.8    282.5   0.020425319   0.18997  -0.42267   0.06281  -0.08591
  71   35506.4    281.6   0.040370324   0.37431   0.56135   0.09398  -0.22443
  72   35674.8    280.3   0.013505774   0.12463  -0.20643  -0.20525   0.19973
  73   35748.4    279.7   0.019946131   0.18369   0.02398   0.04124  -0.42592
  74   36256.8    275.8   0.069431679   0.63044   0.26079   0.47026   0.58420
  75   36301.9    275.5   0.106771157   0.96828  -0.69918  -0.61761   0.31301
  76   36478.9    274.1   0.103251607   0.93182  -0.18582  -0.69854   0.63979
  77   36628.9    273.0   0.013213784   0.11876  -0.25281   0.15731   0.17351
  78   36798.9    271.7   0.204475389   1.82929  -0.57542  -1.01384   0.68578
  79   36916.7    270.9   0.092703427   0.82670  -0.25845  -0.69120  -0.53118
  80   37119.8    269.4   0.050066893   0.44404   0.07252   0.54819   0.37184
  81   37196.0    268.8   0.055247770   0.48898  -0.00153  -0.54897  -0.43315
  82   37329.2    267.9   0.031885895   0.28121   0.43457   0.29547   0.07106
  83   37347.1    267.8   0.076445159   0.67386  -0.36119  -0.71915  -0.16193
  84   37578.6    266.1   0.019142374   0.16770   0.29012   0.14671   0.24901
  85   37749.9    264.9   0.083250260   0.72601   0.33386   0.77084  -0.14268
  86   37874.0    264.0   0.221696168   1.92705   0.17504   1.26554  -0.54297
  87   37980.9    263.3   0.537992614   4.66322  -0.41234  -1.95010   0.83084
  88   38176.1    261.9   0.076398790   0.65883  -0.51302  -0.38169   0.49995
  89   38461.4    260.0   0.172341504   1.47516   0.38397   0.72013   0.89953
  90   38588.9    259.1   0.015442786   0.13175   0.04901   0.20771   0.29360
  91   38741.7    258.1   0.044065961   0.37446   0.02306  -0.45342  -0.41028
  92   39161.8    255.4   0.087074765   0.73199   0.16351  -0.78358  -0.30208
  93   39318.0    254.3   0.021364074   0.17888   0.08449  -0.39274  -0.13229
  94   39429.9    253.6   0.147711223   1.23328   0.08927  -1.10599   0.04580
  95   39641.8    252.3   0.056352506   0.46799  -0.21859  -0.47169   0.44465
  96   39685.2    252.0   0.086573679   0.71818   0.08351   0.78858   0.29891
  97   39898.5    250.6   0.117337797   0.96818  -0.39150  -0.78111  -0.45251
  98   39922.2    250.5   0.045147162   0.37230  -0.26589  -0.43668   0.33303
  99   40111.3    249.3   0.027176628   0.22305  -0.20110  -0.28633  -0.31721
 100   40153.0    249.0   0.062511768   0.51253  -0.16497   0.43222  -0.54636

FINAL SINGLE POINT ENERGY     -4629.476392993110

DIPOLE MOMENT
-------------
                                X             Y             Z
Electronic contribution:     -9.55777      -3.44667      -1.87811
Nuclear contribution   :     11.17790       3.86082       3.21677
                        -----------------------------------------
Total Dipole Moment    :      1.62013       0.41415       1.33866
                        -----------------------------------------
Magnitude (a.u.)       :      2.14205
Magnitude (Debye)      :      5.44465

Rotational constants in cm-1:     0.001623     0.000268     0.000247
Rotational constants in MHz :    48.668785     8.034169     7.397726

                             ****ORCA TERMINATED NORMALLY****
TOTAL RUN TIME: 0 days 0 hours 10 minutes 9 seconds 152 msec
