                         Program Version 4.2.0 -  RELEASE  -
|  1> # ORCA input file
|  2> # SCF done       -190.608041835250          0.000667310065
|  3> ! CAM-B3LYP def2-SVP def2/J RIJCOSX Grid4 TightSCF
|  4> %maxcore 5000
|  5> %tddft
|  6>     Mode sTDDFT
|  7>     Ethresh 5.0
|  8>     maxcore 5000
|  9> end
| 10>
| 11> %pal
| 12>   nprocs 6
| 13>   end
| 14> * xyz 0 1
| 15>    C        4.64357        -3.82036        -2.23291
| 16>    C        4.34613        -4.32351        -0.99002
| 17>    C        5.30592        -4.57115         0.01311
| 18>    N        6.02945        -4.79306         0.87668
| 19>    C        3.06020        -4.66506        -0.52448
| 20>    N        2.05018        -4.97289        -0.06962
| 21>    C        5.98582        -3.47096        -2.69984
| 22>    C        5.89617        -2.98739        -4.01664
| 23>    C        7.00830        -2.57672        -4.72049
| 24>    C        8.24708        -2.64978        -4.09449
| 25>    C        8.34715        -3.13000        -2.78553
| 26>    C        7.22174        -3.54321        -2.07973
| 27>   Cl        9.88439        -3.21598        -2.02265
| 28>   Cl        9.65769        -2.14676        -4.93602
| 29>    C        4.48184        -3.00892        -4.45052
| 30>    O        4.05581        -2.65927        -5.53553
| 31>    C        3.72502        -3.53248        -3.31131
| 32>    C        2.36143        -3.71058        -3.26884
| 33>    C        1.37900        -3.45561        -4.22330
| 34>    S        1.57999        -2.81578        -5.85011
| 35>    C       -0.12180        -2.85926        -6.13886
| 36>    C       -0.81921        -3.33017        -5.07379
| 37>    C        0.01599        -3.67714        -3.98390
| 38>    C       -0.78556        -4.15592        -2.91484
| 39>    C       -2.10417        -4.11738        -3.27927
| 40>    C       -2.23950        -3.58026        -4.68988
| 41>    C       -3.23703        -4.49299        -2.47588
| 42>    C       -4.52072        -4.19404        -2.88066
| 43>    C       -5.61979        -4.50715        -2.05819
| 44>    C       -6.97570        -4.25971        -2.21902
| 45>    C       -7.62227        -3.58964        -3.38534
| 46>    C       -8.66781        -4.49925        -4.05688
| 47>    N       -8.82030        -4.11028        -5.44600
| 48>    C       -8.21563        -2.22951        -2.97571
| 49>    N       -8.64787        -1.47919        -4.14596
| 50>    C       -7.63056        -4.75479        -1.03111
| 51>    C       -8.91439        -4.71762        -0.62955
| 52>    C       -9.33540        -5.22432         0.71105
| 53>    C       -8.25574        -5.91153         1.48277
| 54>    C       -6.97531        -5.94181         1.07086
| 55>    C       -6.60198        -5.34476        -0.15719
| 56>    C       -5.38742        -5.18136        -0.78754
| 57>    C       -4.06344        -5.51486        -0.41482
| 58>    C       -3.03246        -5.17362        -1.22475
| 59>    C      -10.55715        -6.09162         0.56481
| 60>    C      -11.79826        -5.61329         0.70425
| 61>    C      -13.01239        -6.35675         0.56931
| 62>    S      -14.51793        -5.48415         0.47069
| 63>    C      -15.45561        -6.93534         0.33128
| 64>    C      -14.66165        -8.02488         0.36667
| 65>    C      -13.26613        -7.71725         0.50276
| 66>    C      -12.53816        -8.93221         0.57445
| 67>    C      -13.40319        -9.99598         0.47446
| 68>    C      -14.83106        -9.50331         0.32289
| 69>    C      -13.17185       -11.38366         0.54078
| 70>    C      -12.02200       -12.13030         0.61564
| 71>    C      -12.02355       -13.57859         0.74673
| 72>    C      -13.09312       -14.38828         1.03180
| 73>    C      -13.01063       -15.79212         1.15534
| 74>    N      -13.02154       -16.93441         1.26825
| 75>    C      -14.41835       -13.96979         1.27763
| 76>    N      -15.51753       -13.72829         1.50991
| 77>    C      -10.64730       -14.04232         0.59115
| 78>    C       -9.81139       -12.92406         0.44267
| 79>    C      -10.61851       -11.68512         0.48118
| 80>    O      -10.17488       -10.55811         0.39780
| 81>    C       -8.44646       -13.04880         0.28484
| 82>    C       -7.89949       -14.32574         0.27147
| 83>    C       -8.72473       -15.44664         0.41412
| 84>    C      -10.09970       -15.31477         0.57558
| 85>   Cl       -8.03771       -17.02033         0.38962
| 86>   Cl       -6.20511       -14.52598         0.07739
| 87>    H        6.91633        -2.20850        -5.73000
| 88>    H        7.33970        -3.90716        -1.07240
| 89>    H        1.95518        -4.10642        -2.34676
| 90>    H       -0.49765        -2.52732        -7.08774
| 91>    H       -0.39420        -4.47627        -1.96706
| 92>    H       -2.82464        -2.65902        -4.71627
| 93>    H       -2.72479        -4.30439        -5.34717
| 94>    H       -4.69666        -3.69384        -3.82075
| 95>    H       -6.85622        -3.40026        -4.14394
| 96>    H       -9.60987        -4.46070        -3.48570
| 97>    H       -8.30627        -5.53292        -4.03339
| 98>    H       -9.12745        -3.14182        -5.47950
| 99>    H       -9.52103        -4.68581        -5.90034
|100>    H       -7.46094        -1.69299        -2.37438
|101>    H       -9.09282        -2.38242        -2.34198
|102>    H       -7.84693        -1.25520        -4.72858
|103>    H       -9.07808        -0.60473        -3.86377
|104>    H       -9.70131        -4.29762        -1.23903
|105>    H       -9.63765        -4.33083         1.28424
|106>    H       -8.55917        -6.37012         2.41138
|107>    H       -6.21591        -6.42443         1.66854
|108>    H       -3.88706        -6.03127         0.51705
|109>    H       -2.02445        -5.42703        -0.93993
|110>    H      -10.37237        -7.12187         0.30528
|111>    H      -11.93858        -4.56071         0.92296
|112>    H      -16.52049        -6.86152         0.23774
|113>    H      -11.47713        -9.01723         0.70350
|114>    H      -15.46647        -9.87313         1.13042
|115>    H      -15.27033        -9.83957        -0.61904
|116>    H      -14.09058       -11.95859         0.52465
|117>    H       -7.82316       -12.17552         0.17484
|118>    H      -10.70183       -16.20209         0.67967
|119> *
|120>
|121>                          ****END OF INPUT****

CARTESIAN COORDINATES (ANGSTROEM)
---------------------------------
  C      4.643570   -3.820360   -2.232910
  C      4.346130   -4.323510   -0.990020
  C      5.305920   -4.571150    0.013110
  N      6.029450   -4.793060    0.876680
  C      3.060200   -4.665060   -0.524480
  N      2.050180   -4.972890   -0.069620
  C      5.985820   -3.470960   -2.699840
  C      5.896170   -2.987390   -4.016640
  C      7.008300   -2.576720   -4.720490
  C      8.247080   -2.649780   -4.094490
  C      8.347150   -3.130000   -2.785530
  C      7.221740   -3.543210   -2.079730
  Cl     9.884390   -3.215980   -2.022650
  Cl     9.657690   -2.146760   -4.936020
  C      4.481840   -3.008920   -4.450520
  O      4.055810   -2.659270   -5.535530
  C      3.725020   -3.532480   -3.311310
  C      2.361430   -3.710580   -3.268840
  C      1.379000   -3.455610   -4.223300
  S      1.579990   -2.815780   -5.850110
  C     -0.121800   -2.859260   -6.138860
  C     -0.819210   -3.330170   -5.073790
  C      0.015990   -3.677140   -3.983900
  C     -0.785560   -4.155920   -2.914840
  C     -2.104170   -4.117380   -3.279270
  C     -2.239500   -3.580260   -4.689880
  C     -3.237030   -4.492990   -2.475880
  C     -4.520720   -4.194040   -2.880660
  C     -5.619790   -4.507150   -2.058190
  C     -6.975700   -4.259710   -2.219020
  C     -7.622270   -3.589640   -3.385340
  C     -8.667810   -4.499250   -4.056880
  N     -8.820300   -4.110280   -5.446000
  C     -8.215630   -2.229510   -2.975710
  N     -8.647870   -1.479190   -4.145960
  C     -7.630560   -4.754790   -1.031110
  C     -8.914390   -4.717620   -0.629550
  C     -9.335400   -5.224320    0.711050
  C     -8.255740   -5.911530    1.482770
  C     -6.975310   -5.941810    1.070860
  C     -6.601980   -5.344760   -0.157190
  C     -5.387420   -5.181360   -0.787540
  C     -4.063440   -5.514860   -0.414820
  C     -3.032460   -5.173620   -1.224750
  C    -10.557150   -6.091620    0.564810
  C    -11.798260   -5.613290    0.704250
  C    -13.012390   -6.356750    0.569310
  S    -14.517930   -5.484150    0.470690
  C    -15.455610   -6.935340    0.331280
  C    -14.661650   -8.024880    0.366670
  C    -13.266130   -7.717250    0.502760
  C    -12.538160   -8.932210    0.574450
  C    -13.403190   -9.995980    0.474460
  C    -14.831060   -9.503310    0.322890
  C    -13.171850  -11.383660    0.540780
  C    -12.022000  -12.130300    0.615640
  C    -12.023550  -13.578590    0.746730
  C    -13.093120  -14.388280    1.031800
  C    -13.010630  -15.792120    1.155340
  N    -13.021540  -16.934410    1.268250
  C    -14.418350  -13.969790    1.277630
  N    -15.517530  -13.728290    1.509910
  C    -10.647300  -14.042320    0.591150
  C     -9.811390  -12.924060    0.442670
  C    -10.618510  -11.685120    0.481180
  O    -10.174880  -10.558110    0.397800
  C     -8.446460  -13.048800    0.284840
  C     -7.899490  -14.325740    0.271470
  C     -8.724730  -15.446640    0.414120
  C    -10.099700  -15.314770    0.575580
  Cl    -8.037710  -17.020330    0.389620
  Cl    -6.205110  -14.525980    0.077390
  H      6.916330   -2.208500   -5.730000
  H      7.339700   -3.907160   -1.072400
  H      1.955180   -4.106420   -2.346760
  H     -0.497650   -2.527320   -7.087740
  H     -0.394200   -4.476270   -1.967060
  H     -2.824640   -2.659020   -4.716270
  H     -2.724790   -4.304390   -5.347170
  H     -4.696660   -3.693840   -3.820750
  H     -6.856220   -3.400260   -4.143940
  H     -9.609870   -4.460700   -3.485700
  H     -8.306270   -5.532920   -4.033390
  H     -9.127450   -3.141820   -5.479500
  H     -9.521030   -4.685810   -5.900340
  H     -7.460940   -1.692990   -2.374380
  H     -9.092820   -2.382420   -2.341980
  H     -7.846930   -1.255200   -4.728580
  H     -9.078080   -0.604730   -3.863770
  H     -9.701310   -4.297620   -1.239030
  H     -9.637650   -4.330830    1.284240
  H     -8.559170   -6.370120    2.411380
  H     -6.215910   -6.424430    1.668540
  H     -3.887060   -6.031270    0.517050
  H     -2.024450   -5.427030   -0.939930
  H    -10.372370   -7.121870    0.305280
  H    -11.938580   -4.560710    0.922960
  H    -16.520490   -6.861520    0.237740
  H    -11.477130   -9.017230    0.703500
  H    -15.466470   -9.873130    1.130420
  H    -15.270330   -9.839570   -0.619040
  H    -14.090580  -11.958590    0.524650
  H     -7.823160  -12.175520    0.174840
  H    -10.701830  -16.202090    0.679670

 Total Charge           Charge          ....    0
 Multiplicity           Mult            ....    1
 Number of Electrons    NEL             ....  538
 Basis Dimension        Dim             .... 1192

ORBITAL ENERGIES
----------------

  NO   OCC          E(Eh)            E(eV)
   0   2.0000    -101.601859     -2764.7271
   1   2.0000    -101.600228     -2764.6828
   2   2.0000    -101.596307     -2764.5761
   3   2.0000    -101.594356     -2764.5230
   4   2.0000     -88.970140     -2421.0006
   5   2.0000     -88.954875     -2420.5852
   6   2.0000     -19.227651      -523.2110
   7   2.0000     -19.217546      -522.9360
   8   2.0000     -14.422581      -392.4584
   9   2.0000     -14.418993      -392.3607
  10   2.0000     -14.417454      -392.3189
  11   2.0000     -14.410693      -392.1349
  12   2.0000     -14.395546      -391.7227
  13   2.0000     -14.361498      -390.7962
  14   2.0000     -10.378383      -282.4102
  15   2.0000     -10.366765      -282.0940
  16   2.0000     -10.358142      -281.8594
  17   2.0000     -10.357568      -281.8438
  18   2.0000     -10.351449      -281.6773
  19   2.0000     -10.350765      -281.6586
  20   2.0000     -10.348941      -281.6090
  21   2.0000     -10.347786      -281.5776
  22   2.0000     -10.340033      -281.3666
  23   2.0000     -10.338406      -281.3223
  24   2.0000     -10.325423      -280.9690
  25   2.0000     -10.321709      -280.8680
  26   2.0000     -10.321482      -280.8618
  27   2.0000     -10.321468      -280.8614
  28   2.0000     -10.320888      -280.8456
  29   2.0000     -10.319092      -280.7968
  30   2.0000     -10.317562      -280.7551
  31   2.0000     -10.314096      -280.6608
  32   2.0000     -10.311400      -280.5875
  33   2.0000     -10.310783      -280.5707
  34   2.0000     -10.310117      -280.5525
  35   2.0000     -10.307229      -280.4740
  36   2.0000     -10.306453      -280.4528
  37   2.0000     -10.304609      -280.4027
  38   2.0000     -10.304595      -280.4023
  39   2.0000     -10.304566      -280.4015
  40   2.0000     -10.303903      -280.3835
  41   2.0000     -10.303539      -280.3736
  42   2.0000     -10.303059      -280.3605
  43   2.0000     -10.302016      -280.3321
  44   2.0000     -10.301024      -280.3051
  45   2.0000     -10.298212      -280.2286
  46   2.0000     -10.297101      -280.1984
  47   2.0000     -10.296326      -280.1773
  48   2.0000     -10.296139      -280.1722
  49   2.0000     -10.295272      -280.1486
  50   2.0000     -10.292308      -280.0679
  51   2.0000     -10.292278      -280.0671
  52   2.0000     -10.292020      -280.0601
  53   2.0000     -10.289744      -279.9982
  54   2.0000     -10.289305      -279.9862
  55   2.0000     -10.288493      -279.9641
  56   2.0000     -10.287973      -279.9500
  57   2.0000     -10.283506      -279.8284
  58   2.0000     -10.280409      -279.7442
  59   2.0000     -10.279817      -279.7280
  60   2.0000     -10.279118      -279.7090
  61   2.0000     -10.277819      -279.6737
  62   2.0000     -10.276659      -279.6421
  63   2.0000     -10.275888      -279.6211
  64   2.0000     -10.273677      -279.5610
  65   2.0000     -10.271036      -279.4891
  66   2.0000     -10.268624      -279.4235
  67   2.0000     -10.268514      -279.4205
  68   2.0000     -10.267788      -279.4007
  69   2.0000     -10.266034      -279.3530
  70   2.0000     -10.265926      -279.3500
  71   2.0000     -10.264746      -279.3179
  72   2.0000      -9.556895      -260.0563
  73   2.0000      -9.555222      -260.0108
  74   2.0000      -9.551349      -259.9054
  75   2.0000      -9.549375      -259.8517
  76   2.0000      -8.065783      -219.4811
  77   2.0000      -8.048623      -219.0142
  78   2.0000      -7.327285      -199.3856
  79   2.0000      -7.325647      -199.3410
  80   2.0000      -7.321722      -199.2342
  81   2.0000      -7.319786      -199.1815
  82   2.0000      -7.317153      -199.1099
  83   2.0000      -7.316419      -199.0899
  84   2.0000      -7.315460      -199.0638
  85   2.0000      -7.314740      -199.0442
  86   2.0000      -7.311618      -198.9592
  87   2.0000      -7.310891      -198.9394
  88   2.0000      -7.309606      -198.9045
  89   2.0000      -7.308917      -198.8857
  90   2.0000      -6.035059      -164.2223
  91   2.0000      -6.030673      -164.1029
  92   2.0000      -6.028193      -164.0355
  93   2.0000      -6.018245      -163.7648
  94   2.0000      -6.013479      -163.6351
  95   2.0000      -6.010629      -163.5575
  96   2.0000      -1.141850       -31.0713
  97   2.0000      -1.132609       -30.8199
  98   2.0000      -1.033530       -28.1238
  99   2.0000      -1.026532       -27.9334
 100   2.0000      -1.020120       -27.7589
 101   2.0000      -1.013380       -27.5755
 102   2.0000      -1.009700       -27.4753
 103   2.0000      -1.002887       -27.2900
 104   2.0000      -0.999162       -27.1886
 105   2.0000      -0.994215       -27.0540
 106   2.0000      -0.992692       -27.0125
 107   2.0000      -0.988117       -26.8880
 108   2.0000      -0.986358       -26.8402
 109   2.0000      -0.976393       -26.5690
 110   2.0000      -0.963210       -26.2103
 111   2.0000      -0.957173       -26.0460
 112   2.0000      -0.956086       -26.0164
 113   2.0000      -0.952024       -25.9059
 114   2.0000      -0.942886       -25.6572
 115   2.0000      -0.938881       -25.5483
 116   2.0000      -0.934338       -25.4246
 117   2.0000      -0.928418       -25.2635
 118   2.0000      -0.911625       -24.8066
 119   2.0000      -0.902908       -24.5694
 120   2.0000      -0.899827       -24.4855
 121   2.0000      -0.890657       -24.2360
 122   2.0000      -0.875527       -23.8243
 123   2.0000      -0.872745       -23.7486
 124   2.0000      -0.870191       -23.6791
 125   2.0000      -0.862795       -23.4778
 126   2.0000      -0.856063       -23.2947
 127   2.0000      -0.846476       -23.0338
 128   2.0000      -0.839693       -22.8492
 129   2.0000      -0.835932       -22.7469
 130   2.0000      -0.829076       -22.5603
 131   2.0000      -0.820915       -22.3382
 132   2.0000      -0.814160       -22.1544
 133   2.0000      -0.795241       -21.6396
 134   2.0000      -0.791237       -21.5306
 135   2.0000      -0.775404       -21.0998
 136   2.0000      -0.770510       -20.9666
 137   2.0000      -0.768753       -20.9188
 138   2.0000      -0.764844       -20.8125
 139   2.0000      -0.759060       -20.6551
 140   2.0000      -0.751191       -20.4410
 141   2.0000      -0.736883       -20.0516
 142   2.0000      -0.726459       -19.7680
 143   2.0000      -0.724086       -19.7034
 144   2.0000      -0.711975       -19.3738
 145   2.0000      -0.698542       -19.0083
 146   2.0000      -0.692885       -18.8544
 147   2.0000      -0.691391       -18.8137
 148   2.0000      -0.688950       -18.7473
 149   2.0000      -0.684469       -18.6253
 150   2.0000      -0.679593       -18.4927
 151   2.0000      -0.677024       -18.4228
 152   2.0000      -0.667053       -18.1514
 153   2.0000      -0.663998       -18.0683
 154   2.0000      -0.657405       -17.8889
 155   2.0000      -0.657022       -17.8785
 156   2.0000      -0.642548       -17.4846
 157   2.0000      -0.632928       -17.2228
 158   2.0000      -0.631954       -17.1963
 159   2.0000      -0.622361       -16.9353
 160   2.0000      -0.619242       -16.8504
 161   2.0000      -0.615047       -16.7363
 162   2.0000      -0.612601       -16.6697
 163   2.0000      -0.610670       -16.6172
 164   2.0000      -0.602236       -16.3877
 165   2.0000      -0.599852       -16.3228
 166   2.0000      -0.595822       -16.2131
 167   2.0000      -0.587874       -15.9969
 168   2.0000      -0.581053       -15.8113
 169   2.0000      -0.577530       -15.7154
 170   2.0000      -0.569343       -15.4926
 171   2.0000      -0.566314       -15.4102
 172   2.0000      -0.565264       -15.3816
 173   2.0000      -0.558903       -15.2085
 174   2.0000      -0.552683       -15.0393
 175   2.0000      -0.552467       -15.0334
 176   2.0000      -0.550151       -14.9704
 177   2.0000      -0.549927       -14.9643
 178   2.0000      -0.549077       -14.9411
 179   2.0000      -0.546805       -14.8793
 180   2.0000      -0.545610       -14.8468
 181   2.0000      -0.544779       -14.8242
 182   2.0000      -0.542812       -14.7707
 183   2.0000      -0.540660       -14.7121
 184   2.0000      -0.537348       -14.6220
 185   2.0000      -0.536889       -14.6095
 186   2.0000      -0.529655       -14.4126
 187   2.0000      -0.527658       -14.3583
 188   2.0000      -0.523731       -14.2515
 189   2.0000      -0.520459       -14.1624
 190   2.0000      -0.517746       -14.0886
 191   2.0000      -0.515703       -14.0330
 192   2.0000      -0.512869       -13.9559
 193   2.0000      -0.510315       -13.8864
 194   2.0000      -0.506073       -13.7709
 195   2.0000      -0.504520       -13.7287
 196   2.0000      -0.503683       -13.7059
 197   2.0000      -0.501700       -13.6519
 198   2.0000      -0.499988       -13.6054
 199   2.0000      -0.497042       -13.5252
 200   2.0000      -0.494506       -13.4562
 201   2.0000      -0.493779       -13.4364
 202   2.0000      -0.488982       -13.3059
 203   2.0000      -0.485960       -13.2236
 204   2.0000      -0.482031       -13.1167
 205   2.0000      -0.480505       -13.0752
 206   2.0000      -0.478584       -13.0229
 207   2.0000      -0.476903       -12.9772
 208   2.0000      -0.476016       -12.9531
 209   2.0000      -0.473189       -12.8761
 210   2.0000      -0.470149       -12.7934
 211   2.0000      -0.469709       -12.7814
 212   2.0000      -0.467577       -12.7234
 213   2.0000      -0.464958       -12.6521
 214   2.0000      -0.462839       -12.5945
 215   2.0000      -0.457052       -12.4370
 216   2.0000      -0.454004       -12.3541
 217   2.0000      -0.450113       -12.2482
 218   2.0000      -0.448886       -12.2148
 219   2.0000      -0.447065       -12.1653
 220   2.0000      -0.446405       -12.1473
 221   2.0000      -0.443277       -12.0622
 222   2.0000      -0.440942       -11.9986
 223   2.0000      -0.440779       -11.9942
 224   2.0000      -0.439330       -11.9548
 225   2.0000      -0.436660       -11.8821
 226   2.0000      -0.434375       -11.8199
 227   2.0000      -0.432737       -11.7754
 228   2.0000      -0.430418       -11.7123
 229   2.0000      -0.428980       -11.6731
 230   2.0000      -0.426114       -11.5952
 231   2.0000      -0.425440       -11.5768
 232   2.0000      -0.424563       -11.5529
 233   2.0000      -0.423870       -11.5341
 234   2.0000      -0.422570       -11.4987
 235   2.0000      -0.418675       -11.3927
 236   2.0000      -0.415168       -11.2973
 237   2.0000      -0.413162       -11.2427
 238   2.0000      -0.411866       -11.2074
 239   2.0000      -0.409662       -11.1475
 240   2.0000      -0.408938       -11.1278
 241   2.0000      -0.403362       -10.9760
 242   2.0000      -0.402735       -10.9590
 243   2.0000      -0.400280       -10.8922
 244   2.0000      -0.396497       -10.7892
 245   2.0000      -0.393581       -10.7099
 246   2.0000      -0.389752       -10.6057
 247   2.0000      -0.383008       -10.4222
 248   2.0000      -0.382802       -10.4166
 249   2.0000      -0.379180       -10.3180
 250   2.0000      -0.377302       -10.2669
 251   2.0000      -0.369564       -10.0563
 252   2.0000      -0.359301        -9.7771
 253   2.0000      -0.355069        -9.6619
 254   2.0000      -0.347345        -9.4517
 255   2.0000      -0.339549        -9.2396
 256   2.0000      -0.337747        -9.1906
 257   2.0000      -0.335825        -9.1383
 258   2.0000      -0.332503        -9.0479
 259   2.0000      -0.323205        -8.7949
 260   2.0000      -0.317421        -8.6375
 261   2.0000      -0.314757        -8.5650
 262   2.0000      -0.308417        -8.3924
 263   2.0000      -0.302978        -8.2445
 264   2.0000      -0.291631        -7.9357
 265   2.0000      -0.289728        -7.8839
 266   2.0000      -0.271485        -7.3875
 267   2.0000      -0.263752        -7.1771
 268   2.0000      -0.225862        -6.1460
 269   0.0000      -0.101444        -2.7604
 270   0.0000      -0.092156        -2.5077
 271   0.0000      -0.072328        -1.9682
 272   0.0000      -0.070259        -1.9119
 273   0.0000      -0.058572        -1.5938

MULLIKEN ATOMIC CHARGES
-----------------------
   0 C :    0.330520
   1 C :   -0.358499
   2 C :   -0.191763
   3 N :    0.152456
   4 C :   -0.185695
   5 N :    0.139509
   6 C :    0.021108
   7 C :   -0.013206
   8 C :   -0.030937
   9 C :    0.060148
  10 C :    0.046883
  11 C :   -0.010656
  12 Cl:   -0.039495
  13 Cl:   -0.047038
  14 C :    0.158638
  15 O :   -0.167509
  16 C :   -0.102125
  17 C :   -0.047422
  18 C :   -0.099740
  19 S :    0.183180
  20 C :   -0.128007
  21 C :   -0.063762
  22 C :    0.119766
  23 C :   -0.074636
  24 C :   -0.125373
  25 C :    0.295524
  26 C :    0.154366
  27 C :   -0.138951
  28 C :    0.071515
  29 C :   -0.024277
  30 C :   -0.056534
  31 C :    0.156317
  32 N :   -0.224421
  33 C :    0.138795
  34 N :   -0.216582
  35 C :    0.096164
  36 C :   -0.113435
  37 C :    0.127036
  38 C :   -0.051729
  39 C :    0.023392
  40 C :    0.005148
  41 C :    0.032317
  42 C :    0.003722
  43 C :   -0.028723
  44 C :   -0.069839
  45 C :    0.066819
  46 C :   -0.133474
  47 S :    0.125230
  48 C :   -0.159678
  49 C :   -0.033644
  50 C :    0.090316
  51 C :   -0.011282
  52 C :   -0.139404
  53 C :    0.252330
  54 C :    0.001790
  55 C :   -0.065431
  56 C :    0.309137
  57 C :   -0.351934
  58 C :   -0.189353
  59 N :    0.154795
  60 C :   -0.186527
  61 N :    0.153336
  62 C :    0.030863
  63 C :   -0.014083
  64 C :    0.154866
  65 O :   -0.155469
  66 C :   -0.030909
  67 C :    0.060544
  68 C :    0.046336
  69 C :   -0.009487
  70 Cl:   -0.034654
  71 Cl:   -0.041382
  72 H :   -0.003792
  73 H :   -0.002196
  74 H :   -0.005350
  75 H :    0.017977
  76 H :    0.005240
  77 H :    0.037957
  78 H :    0.041932
  79 H :   -0.037273
  80 H :   -0.030524
  81 H :   -0.030381
  82 H :   -0.000725
  83 H :    0.079433
  84 H :    0.081998
  85 H :   -0.001374
  86 H :   -0.018311
  87 H :    0.101401
  88 H :    0.097442
  89 H :   -0.010076
  90 H :    0.046039
  91 H :   -0.010883
  92 H :   -0.031687
  93 H :   -0.034327
  94 H :   -0.020453
  95 H :    0.025578
  96 H :   -0.018577
  97 H :    0.020141
  98 H :    0.013982
  99 H :    0.048198
 100 H :    0.040513
 101 H :    0.002644
 102 H :   -0.001272
 103 H :    0.000922
Sum of atomic charges:   -0.0000000

LOEWDIN ATOMIC CHARGES
----------------------
   0 C :    0.078929
   1 C :   -0.148449
   2 C :   -0.020903
   3 N :   -0.054718
   4 C :   -0.015791
   5 N :   -0.063516
   6 C :   -0.014002
   7 C :   -0.041639
   8 C :   -0.001130
   9 C :   -0.135210
  10 C :   -0.132319
  11 C :   -0.012335
  12 Cl:    0.158270
  13 Cl:    0.155302
  14 C :    0.082218
  15 O :   -0.159946
  16 C :   -0.124122
  17 C :    0.064883
  18 C :   -0.200117
  19 S :    0.483486
  20 C :   -0.157295
  21 C :   -0.063350
  22 C :   -0.006590
  23 C :   -0.029404
  24 C :    0.019788
  25 C :   -0.012890
  26 C :   -0.032319
  27 C :   -0.005376
  28 C :   -0.020467
  29 C :   -0.027257
  30 C :   -0.040274
  31 C :    0.031178
  32 N :   -0.129964
  33 C :    0.025638
  34 N :   -0.104461
  35 C :   -0.015767
  36 C :    0.063320
  37 C :   -0.030541
  38 C :   -0.035681
  39 C :   -0.012365
  40 C :   -0.034676
  41 C :   -0.030151
  42 C :   -0.005557
  43 C :   -0.020983
  44 C :    0.008128
  45 C :   -0.053781
  46 C :   -0.157573
  47 S :    0.446970
  48 C :   -0.188600
  49 C :   -0.040329
  50 C :   -0.070389
  51 C :    0.058855
  52 C :   -0.048057
  53 C :   -0.009717
  54 C :    0.068242
  55 C :   -0.096902
  56 C :    0.075521
  57 C :   -0.137748
  58 C :   -0.019902
  59 N :   -0.047494
  60 C :   -0.023345
  61 N :   -0.050533
  62 C :   -0.014837
  63 C :   -0.043237
  64 C :    0.087688
  65 O :   -0.143051
  66 C :    0.000033
  67 C :   -0.133984
  68 C :   -0.130608
  69 C :   -0.012096
  70 Cl:    0.162514
  71 Cl:    0.159681
  72 H :    0.044835
  73 H :    0.043911
  74 H :    0.049144
  75 H :    0.026062
  76 H :    0.030910
  77 H :    0.050098
  78 H :    0.052179
  79 H :    0.022935
  80 H :    0.023350
  81 H :   -0.005384
  82 H :    0.018083
  83 H :    0.034999
  84 H :    0.049954
  85 H :    0.004493
  86 H :    0.012214
  87 H :    0.056410
  88 H :    0.057808
  89 H :    0.024635
  90 H :    0.063339
  91 H :    0.025923
  92 H :    0.031398
  93 H :    0.029089
  94 H :    0.030137
  95 H :    0.034127
  96 H :    0.026706
  97 H :    0.026066
  98 H :    0.028047
  99 H :    0.053052
 100 H :    0.050421
 101 H :    0.046298
 102 H :    0.045400
 103 H :    0.044469

  Mayer bond orders larger than 0.100000
B(  0-C ,  1-C ) :   1.6102 B(  0-C ,  6-C ) :   0.9811 B(  0-C , 16-C ) :   1.1054
B(  1-C ,  2-C ) :   1.1459 B(  1-C ,  4-C ) :   1.1501 B(  2-C ,  3-N ) :   2.9696
B(  4-C ,  5-N ) :   2.9707 B(  6-C ,  7-C ) :   1.3316 B(  6-C , 11-C ) :   1.3519
B(  7-C ,  8-C ) :   1.3516 B(  7-C , 14-C ) :   0.9463 B(  8-C ,  9-C ) :   1.3350
B(  8-C , 72-H ) :   1.0161 B(  9-C , 10-C ) :   1.4163 B(  9-C , 13-Cl) :   1.0429
B( 10-C , 11-C ) :   1.3536 B( 10-C , 12-Cl) :   1.0722 B( 11-C , 73-H ) :   0.9845
B( 14-C , 15-O ) :   2.1643 B( 14-C , 16-C ) :   0.9785 B( 16-C , 17-C ) :   1.4665
B( 17-C , 18-C ) :   1.3167 B( 17-C , 74-H ) :   0.9368 B( 18-C , 19-S ) :   1.0724
B( 18-C , 22-C ) :   1.2925 B( 19-S , 20-C ) :   1.1534 B( 20-C , 21-C ) :   1.5314
B( 20-C , 75-H ) :   0.9738 B( 21-C , 22-C ) :   1.3214 B( 21-C , 25-C ) :   0.9770
B( 22-C , 23-C ) :   1.0972 B( 23-C , 24-C ) :   1.6323 B( 23-C , 76-H ) :   0.9913
B( 24-C , 25-C ) :   1.0557 B( 24-C , 26-C ) :   1.0443 B( 25-C , 77-H ) :   0.8667
B( 25-C , 78-H ) :   0.8741 B( 26-C , 27-C ) :   1.5113 B( 26-C , 43-C ) :   1.1119
B( 27-C , 28-C ) :   1.1302 B( 27-C , 79-H ) :   0.9888 B( 28-C , 29-C ) :   1.4958
B( 28-C , 41-C ) :   1.1123 B( 29-C , 30-C ) :   1.0304 B( 29-C , 35-C ) :   1.0865
B( 30-C , 31-C ) :   1.0266 B( 30-C , 33-C ) :   1.0456 B( 30-C , 80-H ) :   0.8750
B( 31-C , 32-N ) :   1.1093 B( 31-C , 81-H ) :   0.9243 B( 31-C , 82-H ) :   0.9464
B( 32-N , 83-H ) :   0.9437 B( 32-N , 84-H ) :   0.9670 B( 33-C , 34-N ) :   1.0797
B( 33-C , 85-H ) :   0.9470 B( 33-C , 86-H ) :   0.9314 B( 34-N , 87-H ) :   0.9628
B( 34-N , 88-H ) :   0.9670 B( 35-C , 36-C ) :   1.6420 B( 35-C , 40-C ) :   1.0461
B( 36-C , 37-C ) :   0.9775 B( 36-C , 89-H ) :   0.9649 B( 37-C , 38-C ) :   0.9750
B( 37-C , 44-C ) :   0.9656 B( 37-C , 90-H ) :   0.8579 B( 38-C , 39-C ) :   1.7130
B( 38-C , 91-H ) :   0.9817 B( 39-C , 40-C ) :   1.1277 B( 39-C , 92-H ) :   0.9905
B( 40-C , 41-C ) :   1.4516 B( 41-C , 42-C ) :   1.1301 B( 42-C , 43-C ) :   1.6239
B( 42-C , 93-H ) :   0.9907 B( 43-C , 94-H ) :   0.9886 B( 44-C , 45-C ) :   1.7921
B( 44-C , 95-H ) :   0.9765 B( 45-C , 46-C ) :   1.0876 B( 45-C , 96-H ) :   0.9531
B( 46-C , 47-S ) :   1.1665 B( 46-C , 50-C ) :   1.3991 B( 47-S , 48-C ) :   1.1176
B( 48-C , 49-C ) :   1.5999 B( 48-C , 97-H ) :   0.9775 B( 49-C , 50-C ) :   1.2557
B( 49-C , 53-C ) :   1.0030 B( 50-C , 51-C ) :   1.0819 B( 51-C , 52-C ) :   1.5797
B( 51-C , 98-H ) :   0.9829 B( 52-C , 53-C ) :   1.0237 B( 52-C , 54-C ) :   1.2266
B( 53-C , 99-H ) :   0.8924 B( 53-C ,100-H ) :   0.8864 B( 54-C , 55-C ) :   1.5210
B( 54-C ,101-H ) :   0.9305 B( 55-C , 56-C ) :   1.0851 B( 55-C , 64-C ) :   0.9492
B( 56-C , 57-C ) :   1.6263 B( 56-C , 62-C ) :   0.9855 B( 57-C , 58-C ) :   1.1434
B( 57-C , 60-C ) :   1.1410 B( 58-C , 59-N ) :   2.9715 B( 60-C , 61-N ) :   2.9736
B( 62-C , 63-C ) :   1.3307 B( 62-C , 69-C ) :   1.3430 B( 63-C , 64-C ) :   0.9537
B( 63-C , 66-C ) :   1.3456 B( 64-C , 65-O ) :   2.1670 B( 66-C , 67-C ) :   1.3402
B( 66-C ,102-H ) :   1.0173 B( 67-C , 68-C ) :   1.4078 B( 67-C , 71-Cl) :   1.0477
B( 68-C , 69-C ) :   1.3593 B( 68-C , 70-Cl) :   1.0772 B( 69-C ,103-H ) :   0.9857

-----------------------------------------------------------------------------
         ABSORPTION SPECTRUM VIA TRANSITION ELECTRIC DIPOLE MOMENTS
-----------------------------------------------------------------------------
State   Energy  Wavelength   fosc         T2         TX        TY        TZ
        (cm-1)    (nm)                  (au**2)     (au)      (au)      (au)
-----------------------------------------------------------------------------
   0   13802.1    724.5   0.132524003   3.16100   1.69896   0.13472   0.50635
   1   15665.7    638.3   0.050673104   1.06488  -0.21349   0.92758  -0.39862
   2   18052.5    553.9   0.577115238  10.52448  -3.05611  -0.93591   0.55564
   3   20467.7    488.6   0.758779618  12.20456   0.27736   3.47900  -0.15553
   4   21733.2    460.1   0.673508619  10.20225  -3.04338   0.62863  -0.73818
   5   22202.0    450.4   0.002065859   0.03063  -0.06577   0.15568  -0.04550
   6   23792.5    420.3   0.252180927   3.48937   1.66555   0.26929  -0.80176
   7   25636.5    390.1   0.006205027   0.07968  -0.15528   0.21944  -0.08611
   8   26197.2    381.7   0.150791349   1.89495   0.43982   0.19021  -1.29048
   9   26919.5    371.5   0.042041188   0.51414  -0.23040   0.18114  -0.65441
  10   27126.1    368.6   0.204284701   2.47927   0.78588  -1.34478   0.23071
  11   27333.0    365.9   0.129352056   1.55798  -0.98506   0.13725  -0.75418
  12   27516.2    363.4   0.019698814   0.23568   0.41363  -0.04395  -0.25033
  13   27815.8    359.5   0.019128777   0.22640  -0.41443   0.15602  -0.17408
  14   28714.8    348.3   0.013646830   0.15646   0.03054  -0.00043   0.39437
  15   29090.9    343.8   0.057637265   0.65226   0.27073  -0.75978   0.04128
  16   29481.5    339.2   0.293408953   3.27642   1.67730  -0.65778  -0.17443
  17   29852.1    335.0   0.000547624   0.00604   0.00620  -0.06670  -0.03939
  18   30221.4    330.9   0.186802569   2.03491  -1.14284  -0.24138   0.81888
  19   30280.4    330.2   0.115904426   1.26012   0.92885   0.20998  -0.59436
  20   30878.1    323.9   0.117381436   1.25148   0.93570   0.37045  -0.48858
  21   31540.9    317.0   0.003524027   0.03678  -0.16276  -0.08888   0.04891
  22   31989.3    312.6   0.717381419   7.38280  -2.29096  -0.56356   1.34785
  23   32462.1    308.1   0.003450905   0.03500  -0.17033   0.06818   0.03656
  24   33038.4    302.7   0.016578986   0.16520  -0.05991   0.03837  -0.40018
  25   33200.6    301.2   0.005843700   0.05795  -0.23743  -0.00613  -0.03916
  26   33437.8    299.1   0.028795972   0.28351   0.53195   0.00357   0.02297
  27   33842.4    295.5   0.000995159   0.00968   0.08780   0.03676  -0.02490
  28   33877.6    295.2   0.104935639   1.01973   1.00197   0.04569  -0.11709
  29   34089.0    293.3   0.226970616   2.19195  -1.43227   0.24919   0.28010
  30   34447.1    290.3   0.248815091   2.37793  -1.51903   0.06829   0.25658
  31   34713.7    288.1   0.407696559   3.86645  -1.20487  -0.75140   1.36019
  32   34910.4    286.4   0.200716223   1.89279  -1.30398  -0.42094   0.12342
  33   35008.4    285.6   0.132476996   1.24579  -0.75261  -0.80123   0.19338
  34   35129.4    284.7   0.067480561   0.63239  -0.79193  -0.05844  -0.04271
  35   35376.5    282.7   0.016314845   0.15183   0.36372   0.09966  -0.09797
  36   36075.9    277.2   0.029363271   0.26796   0.32223  -0.13493   0.38199
  37   36230.7    276.0   0.182833082   1.66132  -0.36575   0.38232  -1.17532
  38   36836.0    271.5   0.027854925   0.24895  -0.35405  -0.08321   0.34157
  39   37169.3    269.0   0.020038793   0.17749   0.35473   0.12892  -0.18717
  40   37270.9    268.3   0.315096462   2.78323  -1.37457  -0.52430   0.78670
  41   37450.3    267.0   0.000366691   0.00322   0.02501   0.03390   0.03806
  42   37665.4    265.5   0.118771779   1.03812   0.83640   0.56997   0.11698
  43   37823.5    264.4   0.122326791   1.06472   0.69240   0.75379   0.13074
  44   38727.6    258.2   0.022428386   0.19066  -0.21690  -0.03901  -0.37695
  45   39150.1    255.4   0.060993521   0.51289  -0.17157  -0.48397   0.49922
  46   39441.9    253.5   0.023947660   0.19989   0.05418   0.42490   0.12809
  47   39805.7    251.2   0.002070370   0.01712  -0.10331  -0.02321   0.07689
  48   39872.7    250.8   0.001017763   0.00840   0.06563  -0.05767   0.02776
  49   40236.1    248.5   0.046691036   0.38203   0.23498  -0.56590   0.08104

FINAL SINGLE POINT ENERGY     -5341.165309512510

DIPOLE MOMENT
-------------
                                X             Y             Z
Electronic contribution:    105.14287     -53.80484      11.05545
Nuclear contribution   :   -107.90401      56.84904     -12.62274
                        -----------------------------------------
Total Dipole Moment    :     -2.76114       3.04419      -1.56728
                        -----------------------------------------
Magnitude (a.u.)       :      4.39857
Magnitude (Debye)      :     11.18027

Rotational constants in cm-1:     0.001120     0.000216     0.000190
Rotational constants in MHz :    33.563401     6.476698     5.702658

                             ****ORCA TERMINATED NORMALLY****
TOTAL RUN TIME: 0 days 0 hours 11 minutes 56 seconds 87 msec
