                         Program Version 4.2.0 -  RELEASE  -
|  1> # ORCA input file
|  2> # SCF done       -202.543855859362          0.000585727345
|  3> ! CAM-B3LYP def2-SVP def2/J RIJCOSX Grid4 TightSCF
|  4> %maxcore 5000
|  5> %tddft
|  6>     Mode sTDDFT
|  7>     Ethresh 5.0
|  8>     maxcore 5000
|  9> end
| 10>
| 11> %pal
| 12>   nprocs 6
| 13>   end
| 14> * xyz 0 1
| 15>    C       -2.03540        -0.55519        -0.19196
| 16>    C       -2.45765        -1.79778        -0.58833
| 17>    C       -1.59936        -2.89865        -0.78723
| 18>    N       -0.95208        -3.83063        -0.96276
| 19>    C       -3.79284        -2.13843        -0.89210
| 20>    N       -4.84459        -2.49009        -1.19013
| 21>    C       -0.65105        -0.14551         0.00321
| 22>    C       -0.62310         1.24366         0.28320
| 23>    C        0.54721         1.92968         0.50081
| 24>    C        1.74722         1.21562         0.42998
| 25>    C        1.70882        -0.17198         0.15428
| 26>    C        0.52527        -0.86858        -0.05885
| 27>    S        3.30629        -0.85040         0.12093
| 28>    C        3.99726         0.69767         0.46501
| 29>    C        3.08151         1.68122         0.60170
| 30>    C       -1.99998         1.76998         0.31691
| 31>    O       -2.33218         2.88665         0.65477
| 32>    C       -2.87578         0.61116        -0.00104
| 33>    C       -4.23591         0.62484         0.06378
| 34>    C       -5.04803         1.79568         0.02592
| 35>    C       -6.27347         1.84522         0.72264
| 36>    C       -7.09017         3.03359         0.74602
| 37>    N       -8.27333         3.00342         1.37956
| 38>    C       -8.63334         1.92281         2.02781
| 39>    C       -7.77580         0.77542         2.07817
| 40>    N       -6.64327         0.75778         1.42216
| 41>    C       -8.16309        -0.35931         2.83446
| 42>    N       -8.51123        -1.24827         3.46766
| 43>    C       -9.89167         1.90114         2.67828
| 44>    N      -10.89707         1.86040         3.22646
| 45>    C       -6.70691         4.22442         0.07953
| 46>    C       -5.54516         4.12741        -0.71416
| 47>    C       -4.73224         2.93108        -0.74474
| 48>    N       -3.71160         3.04282        -1.59323
| 49>    S       -3.72272         4.51110        -2.23047
| 50>    N       -5.03564         5.07700        -1.50721
| 51>    C       -7.46679         5.45071         0.19824
| 52>    C       -7.51015         6.35531        -0.87794
| 53>    C       -8.24562         7.50658        -0.76862
| 54>    C       -8.92111         7.81273         0.43005
| 55>    C       -8.87185         6.93383         1.50568
| 56>    C       -8.15488         5.76442         1.38162
| 57>    C       -9.52291         9.11485         0.30183
| 58>    C       -9.20441         9.63327        -0.96883
| 59>    C       -8.44750         8.60655        -1.78552
| 60>    C       -7.11797         9.14612        -2.33040
| 61>    C       -6.22216         9.69828        -1.22763
| 62>    C       -9.39420         8.16046        -2.92606
| 63>    C       -8.91545         6.97882        -3.75886
| 64>    C       -9.60845        10.89045        -1.33489
| 65>    C      -10.36592        11.66677        -0.43779
| 66>    C      -10.70966        11.11506         0.81038
| 67>    C      -10.28810         9.86154         1.19133
| 68>    C      -10.80898        12.99319        -0.74954
| 69>    C      -10.36380        13.77599        -1.76888
| 70>    C      -10.84583        15.07464        -2.01098
| 71>    C      -10.35551        15.91998        -2.97213
| 72>    C      -10.81176        17.23052        -3.26584
| 73>    C      -10.12363        17.85670        -4.25655
| 74>    C       -9.07175        17.08302        -4.80482
| 75>    S       -9.00747        15.51421        -4.02510
| 76>    C       -8.17849        17.45062        -5.78476
| 77>    C       -8.12700        18.68669        -6.48555
| 78>    C       -7.11755        18.77677        -7.38066
| 79>    C       -6.28303        17.61478        -7.45216
| 80>    S       -6.89038        16.39469        -6.31934
| 81>    C       -5.18965        17.44236        -8.21660
| 82>    C       -4.36050        16.20364        -8.25601
| 83>    C       -4.47893        15.56613        -9.61330
| 84>    C       -3.78721        15.91033       -10.69614
| 85>    O       -3.97042        15.29239       -11.91686
| 86>    C       -3.82023        13.88817       -11.93527
| 87>    C       -2.51424        13.42225       -11.28456
| 88>    C       -1.26376        14.13310       -11.83064
| 89>    O       -0.92429        15.33595       -11.17976
| 90>    C       -1.54276        16.52138       -11.63375
| 91>    C       -2.72266        16.97173       -10.75607
| 92>    H        0.53635         2.98736         0.71441
| 93>    H        0.54713        -1.92699        -0.25839
| 94>    H        5.06410         0.77576         0.54536
| 95>    H        3.32585         2.70569         0.81742
| 96>    H       -4.77752        -0.30448         0.18735
| 97>    H       -6.96280         6.12524        -1.77619
| 98>    H       -9.37067         7.17082         2.43319
| 99>    H       -8.08719         5.09595         2.22423
|100>    H       -7.32777         9.93228        -3.05897
|101>    H       -6.59010         8.34167        -2.84322
|102>    H       -6.71589        10.51110        -0.69916
|103>    H       -5.29537        10.07674        -1.65248
|104>    H       -5.97818         8.91867        -0.50965
|105>    H       -9.55201         9.02031        -3.58126
|106>    H      -10.35921         7.90516        -2.48007
|107>    H       -7.95088         7.17992        -4.21706
|108>    H       -9.63292         6.78655        -4.55392
|109>    H       -8.83824         6.08194        -3.15073
|110>    H       -9.36334        11.28254        -2.30981
|111>    H      -11.30524        11.70759         1.49024
|112>    H      -10.54851         9.46414         2.16078
|113>    H      -11.54820        13.41275        -0.07748
|114>    H       -9.58396        13.42150        -2.42969
|115>    H      -11.65692        15.44261        -1.39580
|116>    H      -11.63688        17.66496        -2.72924
|117>    H      -10.33503        18.85216        -4.60362
|118>    H       -8.84315        19.46712        -6.29961
|119>    H       -6.92031        19.63380        -7.99976
|120>    H       -4.89809        18.23822        -8.88734
|121>    H       -4.70507        15.50508        -7.49167
|122>    H       -3.31745        16.45921        -8.04902
|123>    H       -5.23255        14.79616        -9.69508
|124>    H       -3.83077        13.62743       -12.99732
|125>    H       -4.67047        13.39178       -11.44758
|126>    H       -2.41695        12.35016       -11.45846
|127>    H       -2.55884        13.59313       -10.20729
|128>    H       -1.37435        14.30024       -12.91135
|129>    H       -0.39717        13.48551       -11.66549
|130>    H       -1.87945        16.40523       -12.67028
|131>    H       -0.76962        17.29761       -11.60115
|132>    H       -3.13257        17.88633       -11.19104
|133>    H       -2.36216        17.19539        -9.75283
|134> *
|135>
|136>                          ****END OF INPUT****

CARTESIAN COORDINATES (ANGSTROEM)
---------------------------------
  C     -2.035400   -0.555190   -0.191960
  C     -2.457650   -1.797780   -0.588330
  C     -1.599360   -2.898650   -0.787230
  N     -0.952080   -3.830630   -0.962760
  C     -3.792840   -2.138430   -0.892100
  N     -4.844590   -2.490090   -1.190130
  C     -0.651050   -0.145510    0.003210
  C     -0.623100    1.243660    0.283200
  C      0.547210    1.929680    0.500810
  C      1.747220    1.215620    0.429980
  C      1.708820   -0.171980    0.154280
  C      0.525270   -0.868580   -0.058850
  S      3.306290   -0.850400    0.120930
  C      3.997260    0.697670    0.465010
  C      3.081510    1.681220    0.601700
  C     -1.999980    1.769980    0.316910
  O     -2.332180    2.886650    0.654770
  C     -2.875780    0.611160   -0.001040
  C     -4.235910    0.624840    0.063780
  C     -5.048030    1.795680    0.025920
  C     -6.273470    1.845220    0.722640
  C     -7.090170    3.033590    0.746020
  N     -8.273330    3.003420    1.379560
  C     -8.633340    1.922810    2.027810
  C     -7.775800    0.775420    2.078170
  N     -6.643270    0.757780    1.422160
  C     -8.163090   -0.359310    2.834460
  N     -8.511230   -1.248270    3.467660
  C     -9.891670    1.901140    2.678280
  N    -10.897070    1.860400    3.226460
  C     -6.706910    4.224420    0.079530
  C     -5.545160    4.127410   -0.714160
  C     -4.732240    2.931080   -0.744740
  N     -3.711600    3.042820   -1.593230
  S     -3.722720    4.511100   -2.230470
  N     -5.035640    5.077000   -1.507210
  C     -7.466790    5.450710    0.198240
  C     -7.510150    6.355310   -0.877940
  C     -8.245620    7.506580   -0.768620
  C     -8.921110    7.812730    0.430050
  C     -8.871850    6.933830    1.505680
  C     -8.154880    5.764420    1.381620
  C     -9.522910    9.114850    0.301830
  C     -9.204410    9.633270   -0.968830
  C     -8.447500    8.606550   -1.785520
  C     -7.117970    9.146120   -2.330400
  C     -6.222160    9.698280   -1.227630
  C     -9.394200    8.160460   -2.926060
  C     -8.915450    6.978820   -3.758860
  C     -9.608450   10.890450   -1.334890
  C    -10.365920   11.666770   -0.437790
  C    -10.709660   11.115060    0.810380
  C    -10.288100    9.861540    1.191330
  C    -10.808980   12.993190   -0.749540
  C    -10.363800   13.775990   -1.768880
  C    -10.845830   15.074640   -2.010980
  C    -10.355510   15.919980   -2.972130
  C    -10.811760   17.230520   -3.265840
  C    -10.123630   17.856700   -4.256550
  C     -9.071750   17.083020   -4.804820
  S     -9.007470   15.514210   -4.025100
  C     -8.178490   17.450620   -5.784760
  C     -8.127000   18.686690   -6.485550
  C     -7.117550   18.776770   -7.380660
  C     -6.283030   17.614780   -7.452160
  S     -6.890380   16.394690   -6.319340
  C     -5.189650   17.442360   -8.216600
  C     -4.360500   16.203640   -8.256010
  C     -4.478930   15.566130   -9.613300
  C     -3.787210   15.910330  -10.696140
  O     -3.970420   15.292390  -11.916860
  C     -3.820230   13.888170  -11.935270
  C     -2.514240   13.422250  -11.284560
  C     -1.263760   14.133100  -11.830640
  O     -0.924290   15.335950  -11.179760
  C     -1.542760   16.521380  -11.633750
  C     -2.722660   16.971730  -10.756070
  H      0.536350    2.987360    0.714410
  H      0.547130   -1.926990   -0.258390
  H      5.064100    0.775760    0.545360
  H      3.325850    2.705690    0.817420
  H     -4.777520   -0.304480    0.187350
  H     -6.962800    6.125240   -1.776190
  H     -9.370670    7.170820    2.433190
  H     -8.087190    5.095950    2.224230
  H     -7.327770    9.932280   -3.058970
  H     -6.590100    8.341670   -2.843220
  H     -6.715890   10.511100   -0.699160
  H     -5.295370   10.076740   -1.652480
  H     -5.978180    8.918670   -0.509650
  H     -9.552010    9.020310   -3.581260
  H    -10.359210    7.905160   -2.480070
  H     -7.950880    7.179920   -4.217060
  H     -9.632920    6.786550   -4.553920
  H     -8.838240    6.081940   -3.150730
  H     -9.363340   11.282540   -2.309810
  H    -11.305240   11.707590    1.490240
  H    -10.548510    9.464140    2.160780
  H    -11.548200   13.412750   -0.077480
  H     -9.583960   13.421500   -2.429690
  H    -11.656920   15.442610   -1.395800
  H    -11.636880   17.664960   -2.729240
  H    -10.335030   18.852160   -4.603620
  H     -8.843150   19.467120   -6.299610
  H     -6.920310   19.633800   -7.999760
  H     -4.898090   18.238220   -8.887340
  H     -4.705070   15.505080   -7.491670
  H     -3.317450   16.459210   -8.049020
  H     -5.232550   14.796160   -9.695080
  H     -3.830770   13.627430  -12.997320
  H     -4.670470   13.391780  -11.447580
  H     -2.416950   12.350160  -11.458460
  H     -2.558840   13.593130  -10.207290
  H     -1.374350   14.300240  -12.911350
  H     -0.397170   13.485510  -11.665490
  H     -1.879450   16.405230  -12.670280
  H     -0.769620   17.297610  -11.601150
  H     -3.132570   17.886330  -11.191040
  H     -2.362160   17.195390   -9.752830

 Total Charge           Charge          ....    0
 Multiplicity           Mult            ....    1
 Number of Electrons    NEL             ....  558
 Basis Dimension        Dim             .... 1304

ORBITAL ENERGIES
----------------

  NO   OCC          E(Eh)            E(eV)
   0   2.0000     -89.047898     -2423.1165
   1   2.0000     -88.966451     -2420.9002
   2   2.0000     -88.938681     -2420.1445
   3   2.0000     -88.938171     -2420.1307
   4   2.0000     -19.225062      -523.1405
   5   2.0000     -19.214002      -522.8396
   6   2.0000     -19.204625      -522.5844
   7   2.0000     -14.463656      -393.5761
   8   2.0000     -14.462614      -393.5477
   9   2.0000     -14.456222      -393.3738
  10   2.0000     -14.450599      -393.2208
  11   2.0000     -14.430153      -392.6644
  12   2.0000     -14.427619      -392.5955
  13   2.0000     -14.413893      -392.2220
  14   2.0000     -14.412202      -392.1760
  15   2.0000     -10.385329      -282.5992
  16   2.0000     -10.379735      -282.4469
  17   2.0000     -10.365383      -282.0564
  18   2.0000     -10.353471      -281.7323
  19   2.0000     -10.350385      -281.6483
  20   2.0000     -10.344561      -281.4898
  21   2.0000     -10.343557      -281.4625
  22   2.0000     -10.341395      -281.4037
  23   2.0000     -10.338619      -281.3281
  24   2.0000     -10.329927      -281.0916
  25   2.0000     -10.322592      -280.8920
  26   2.0000     -10.321275      -280.8562
  27   2.0000     -10.320327      -280.8304
  28   2.0000     -10.316691      -280.7314
  29   2.0000     -10.316445      -280.7247
  30   2.0000     -10.316341      -280.7219
  31   2.0000     -10.314943      -280.6839
  32   2.0000     -10.314601      -280.6746
  33   2.0000     -10.314452      -280.6705
  34   2.0000     -10.311474      -280.5895
  35   2.0000     -10.309022      -280.5227
  36   2.0000     -10.308028      -280.4957
  37   2.0000     -10.307119      -280.4710
  38   2.0000     -10.305530      -280.4277
  39   2.0000     -10.303924      -280.3840
  40   2.0000     -10.302798      -280.3534
  41   2.0000     -10.302589      -280.3477
  42   2.0000     -10.301800      -280.3262
  43   2.0000     -10.300089      -280.2797
  44   2.0000     -10.299743      -280.2702
  45   2.0000     -10.298525      -280.2371
  46   2.0000     -10.291978      -280.0590
  47   2.0000     -10.289628      -279.9950
  48   2.0000     -10.289368      -279.9879
  49   2.0000     -10.285217      -279.8750
  50   2.0000     -10.285116      -279.8722
  51   2.0000     -10.283400      -279.8255
  52   2.0000     -10.281354      -279.7699
  53   2.0000     -10.280653      -279.7508
  54   2.0000     -10.279869      -279.7294
  55   2.0000     -10.279833      -279.7285
  56   2.0000     -10.279398      -279.7166
  57   2.0000     -10.277901      -279.6759
  58   2.0000     -10.276412      -279.6354
  59   2.0000     -10.275462      -279.6095
  60   2.0000     -10.274142      -279.5736
  61   2.0000     -10.273308      -279.5509
  62   2.0000     -10.273206      -279.5481
  63   2.0000     -10.271896      -279.5125
  64   2.0000     -10.271775      -279.5092
  65   2.0000     -10.271174      -279.4928
  66   2.0000     -10.270816      -279.4831
  67   2.0000     -10.270220      -279.4669
  68   2.0000     -10.269085      -279.4360
  69   2.0000     -10.268295      -279.4145
  70   2.0000     -10.267159      -279.3836
  71   2.0000     -10.265007      -279.3251
  72   2.0000     -10.263930      -279.2957
  73   2.0000     -10.261517      -279.2301
  74   2.0000     -10.257258      -279.1142
  75   2.0000     -10.253313      -279.0068
  76   2.0000     -10.247276      -278.8426
  77   2.0000      -8.139080      -221.4756
  78   2.0000      -8.062729      -219.3980
  79   2.0000      -8.034976      -218.6428
  80   2.0000      -8.034566      -218.6317
  81   2.0000      -6.110031      -166.2624
  82   2.0000      -6.102240      -166.0504
  83   2.0000      -6.102149      -166.0479
  84   2.0000      -6.032238      -164.1455
  85   2.0000      -6.027948      -164.0288
  86   2.0000      -6.024386      -163.9319
  87   2.0000      -6.004737      -163.3972
  88   2.0000      -6.004377      -163.3874
  89   2.0000      -6.000825      -163.2907
  90   2.0000      -6.000476      -163.2813
  91   2.0000      -5.995736      -163.1523
  92   2.0000      -5.995180      -163.1371
  93   2.0000      -1.144083       -31.1321
  94   2.0000      -1.133519       -30.8446
  95   2.0000      -1.128021       -30.6950
  96   2.0000      -1.122199       -30.5366
  97   2.0000      -1.103574       -30.0298
  98   2.0000      -1.048750       -28.5379
  99   2.0000      -1.018612       -27.7178
 100   2.0000      -1.013584       -27.5810
 101   2.0000      -1.007078       -27.4040
 102   2.0000      -1.003452       -27.3053
 103   2.0000      -0.998181       -27.1619
 104   2.0000      -0.991582       -26.9823
 105   2.0000      -0.990775       -26.9604
 106   2.0000      -0.989517       -26.9261
 107   2.0000      -0.984809       -26.7980
 108   2.0000      -0.979499       -26.6535
 109   2.0000      -0.967549       -26.3283
 110   2.0000      -0.947580       -25.7850
 111   2.0000      -0.930931       -25.3319
 112   2.0000      -0.923379       -25.1264
 113   2.0000      -0.910078       -24.7645
 114   2.0000      -0.909449       -24.7474
 115   2.0000      -0.905687       -24.6450
 116   2.0000      -0.899502       -24.4767
 117   2.0000      -0.889557       -24.2061
 118   2.0000      -0.883653       -24.0454
 119   2.0000      -0.880621       -23.9629
 120   2.0000      -0.874321       -23.7915
 121   2.0000      -0.859257       -23.3816
 122   2.0000      -0.849752       -23.1229
 123   2.0000      -0.841794       -22.9064
 124   2.0000      -0.838728       -22.8229
 125   2.0000      -0.837881       -22.7999
 126   2.0000      -0.836489       -22.7620
 127   2.0000      -0.833856       -22.6904
 128   2.0000      -0.830310       -22.5939
 129   2.0000      -0.824946       -22.4479
 130   2.0000      -0.822504       -22.3815
 131   2.0000      -0.816582       -22.2203
 132   2.0000      -0.808366       -21.9968
 133   2.0000      -0.799192       -21.7471
 134   2.0000      -0.793082       -21.5808
 135   2.0000      -0.778968       -21.1968
 136   2.0000      -0.766685       -20.8626
 137   2.0000      -0.764469       -20.8023
 138   2.0000      -0.755889       -20.5688
 139   2.0000      -0.747963       -20.3531
 140   2.0000      -0.739887       -20.1334
 141   2.0000      -0.730923       -19.8894
 142   2.0000      -0.721512       -19.6333
 143   2.0000      -0.709513       -19.3068
 144   2.0000      -0.703521       -19.1438
 145   2.0000      -0.700402       -19.0589
 146   2.0000      -0.696917       -18.9641
 147   2.0000      -0.694869       -18.9084
 148   2.0000      -0.690808       -18.7978
 149   2.0000      -0.688181       -18.7264
 150   2.0000      -0.679720       -18.4961
 151   2.0000      -0.675542       -18.3824
 152   2.0000      -0.673978       -18.3399
 153   2.0000      -0.668747       -18.1975
 154   2.0000      -0.666242       -18.1294
 155   2.0000      -0.662466       -18.0266
 156   2.0000      -0.659704       -17.9515
 157   2.0000      -0.650946       -17.7131
 158   2.0000      -0.642729       -17.4895
 159   2.0000      -0.634565       -17.2674
 160   2.0000      -0.627074       -17.0636
 161   2.0000      -0.624489       -16.9932
 162   2.0000      -0.618733       -16.8366
 163   2.0000      -0.616432       -16.7740
 164   2.0000      -0.612806       -16.6753
 165   2.0000      -0.609100       -16.5745
 166   2.0000      -0.606616       -16.5069
 167   2.0000      -0.602920       -16.4063
 168   2.0000      -0.595707       -16.2100
 169   2.0000      -0.594973       -16.1901
 170   2.0000      -0.593400       -16.1472
 171   2.0000      -0.587814       -15.9952
 172   2.0000      -0.581332       -15.8188
 173   2.0000      -0.575050       -15.6479
 174   2.0000      -0.573739       -15.6122
 175   2.0000      -0.568347       -15.4655
 176   2.0000      -0.565924       -15.3996
 177   2.0000      -0.564627       -15.3643
 178   2.0000      -0.559914       -15.2360
 179   2.0000      -0.550503       -14.9799
 180   2.0000      -0.545858       -14.8535
 181   2.0000      -0.545117       -14.8334
 182   2.0000      -0.542753       -14.7691
 183   2.0000      -0.541561       -14.7366
 184   2.0000      -0.540230       -14.7004
 185   2.0000      -0.535855       -14.5814
 186   2.0000      -0.532057       -14.4780
 187   2.0000      -0.530774       -14.4431
 188   2.0000      -0.525996       -14.3131
 189   2.0000      -0.524189       -14.2639
 190   2.0000      -0.522216       -14.2102
 191   2.0000      -0.520696       -14.1689
 192   2.0000      -0.518537       -14.1101
 193   2.0000      -0.517488       -14.0816
 194   2.0000      -0.514507       -14.0005
 195   2.0000      -0.512530       -13.9467
 196   2.0000      -0.507692       -13.8150
 197   2.0000      -0.507553       -13.8112
 198   2.0000      -0.503250       -13.6941
 199   2.0000      -0.500091       -13.6082
 200   2.0000      -0.499866       -13.6021
 201   2.0000      -0.498531       -13.5657
 202   2.0000      -0.496564       -13.5122
 203   2.0000      -0.491412       -13.3720
 204   2.0000      -0.490909       -13.3583
 205   2.0000      -0.489432       -13.3181
 206   2.0000      -0.488270       -13.2865
 207   2.0000      -0.486644       -13.2423
 208   2.0000      -0.484209       -13.1760
 209   2.0000      -0.481558       -13.1039
 210   2.0000      -0.479833       -13.0569
 211   2.0000      -0.475122       -12.9287
 212   2.0000      -0.473398       -12.8818
 213   2.0000      -0.473252       -12.8778
 214   2.0000      -0.469765       -12.7829
 215   2.0000      -0.467127       -12.7112
 216   2.0000      -0.464300       -12.6343
 217   2.0000      -0.459021       -12.4906
 218   2.0000      -0.458072       -12.4648
 219   2.0000      -0.455211       -12.3869
 220   2.0000      -0.454256       -12.3609
 221   2.0000      -0.453337       -12.3359
 222   2.0000      -0.452524       -12.3138
 223   2.0000      -0.451951       -12.2982
 224   2.0000      -0.449885       -12.2420
 225   2.0000      -0.446995       -12.1634
 226   2.0000      -0.446109       -12.1393
 227   2.0000      -0.443719       -12.0742
 228   2.0000      -0.442871       -12.0511
 229   2.0000      -0.441586       -12.0162
 230   2.0000      -0.439887       -11.9699
 231   2.0000      -0.439161       -11.9502
 232   2.0000      -0.437973       -11.9178
 233   2.0000      -0.435783       -11.8583
 234   2.0000      -0.433375       -11.7927
 235   2.0000      -0.432033       -11.7562
 236   2.0000      -0.429728       -11.6935
 237   2.0000      -0.429471       -11.6865
 238   2.0000      -0.426385       -11.6025
 239   2.0000      -0.424502       -11.5513
 240   2.0000      -0.423655       -11.5283
 241   2.0000      -0.421501       -11.4696
 242   2.0000      -0.418770       -11.3953
 243   2.0000      -0.416980       -11.3466
 244   2.0000      -0.414654       -11.2833
 245   2.0000      -0.413110       -11.2413
 246   2.0000      -0.411879       -11.2078
 247   2.0000      -0.410102       -11.1594
 248   2.0000      -0.408802       -11.1241
 249   2.0000      -0.405570       -11.0361
 250   2.0000      -0.403378       -10.9765
 251   2.0000      -0.402626       -10.9560
 252   2.0000      -0.397690       -10.8217
 253   2.0000      -0.394577       -10.7370
 254   2.0000      -0.391803       -10.6615
 255   2.0000      -0.390681       -10.6310
 256   2.0000      -0.382782       -10.4160
 257   2.0000      -0.376841       -10.2544
 258   2.0000      -0.375007       -10.2045
 259   2.0000      -0.374745       -10.1973
 260   2.0000      -0.373438       -10.1618
 261   2.0000      -0.361366        -9.8333
 262   2.0000      -0.359320        -9.7776
 263   2.0000      -0.352723        -9.5981
 264   2.0000      -0.349824        -9.5192
 265   2.0000      -0.340988        -9.2788
 266   2.0000      -0.334674        -9.1069
 267   2.0000      -0.333216        -9.0673
 268   2.0000      -0.324751        -8.8369
 269   2.0000      -0.321950        -8.7607
 270   2.0000      -0.321592        -8.7510
 271   2.0000      -0.315836        -8.5943
 272   2.0000      -0.312533        -8.5044
 273   2.0000      -0.309812        -8.4304
 274   2.0000      -0.296128        -8.0580
 275   2.0000      -0.293549        -7.9879
 276   2.0000      -0.282535        -7.6882
 277   2.0000      -0.259981        -7.0744
 278   2.0000      -0.209014        -5.6876
 279   0.0000      -0.127772        -3.4769
 280   0.0000      -0.080232        -2.1832
 281   0.0000      -0.067204        -1.8287
 282   0.0000      -0.055942        -1.5223
 283   0.0000      -0.046723        -1.2714

MULLIKEN ATOMIC CHARGES
-----------------------
   0 C :    0.297814
   1 C :   -0.338755
   2 C :   -0.187770
   3 N :    0.153039
   4 C :   -0.199601
   5 N :    0.168526
   6 C :    0.019031
   7 C :   -0.019710
   8 C :   -0.068863
   9 C :    0.113384
  10 C :   -0.093664
  11 C :   -0.023687
  12 S :    0.140843
  13 C :   -0.051154
  14 C :    0.026479
  15 C :    0.155432
  16 O :   -0.156704
  17 C :   -0.056115
  18 C :   -0.073785
  19 C :    0.073811
  20 C :   -0.030593
  21 C :   -0.077175
  22 N :    0.044187
  23 C :   -0.146820
  24 C :   -0.125048
  25 N :    0.053435
  26 C :   -0.199200
  27 N :    0.241037
  28 C :   -0.201865
  29 N :    0.235299
  30 C :    0.125811
  31 C :    0.023958
  32 C :    0.018011
  33 N :   -0.273017
  34 S :    0.556790
  35 N :   -0.290590
  36 C :   -0.001247
  37 C :   -0.067502
  38 C :    0.011372
  39 C :    0.119900
  40 C :   -0.064799
  41 C :    0.038034
  42 C :    0.089827
  43 C :    0.023989
  44 C :   -0.135068
  45 C :    0.049565
  46 C :    0.028554
  47 C :    0.085246
  48 C :    0.028481
  49 C :   -0.090527
  50 C :    0.131716
  51 C :   -0.018846
  52 C :   -0.038396
  53 C :   -0.025237
  54 C :    0.021980
  55 C :   -0.024764
  56 C :   -0.012735
  57 C :    0.034638
  58 C :    0.028447
  59 C :   -0.051870
  60 S :    0.058642
  61 C :   -0.049841
  62 C :    0.025118
  63 C :    0.051372
  64 C :   -0.026296
  65 S :    0.055963
  66 C :   -0.087264
  67 C :    0.145611
  68 C :   -0.120861
  69 C :    0.033797
  70 O :   -0.347781
  71 C :    0.205240
  72 C :   -0.038491
  73 C :    0.210338
  74 O :   -0.391765
  75 C :    0.204925
  76 C :    0.101656
  77 H :   -0.015009
  78 H :   -0.006403
  79 H :    0.039898
  80 H :   -0.007523
  81 H :    0.046100
  82 H :   -0.018372
  83 H :   -0.030242
  84 H :   -0.019264
  85 H :   -0.000667
  86 H :    0.007109
  87 H :    0.020544
  88 H :    0.007073
  89 H :    0.019959
  90 H :   -0.002014
  91 H :    0.004627
  92 H :    0.001384
  93 H :    0.014865
  94 H :    0.019129
  95 H :   -0.041236
  96 H :   -0.027208
  97 H :   -0.033182
  98 H :   -0.024511
  99 H :   -0.000073
 100 H :   -0.020424
 101 H :   -0.015533
 102 H :   -0.015752
 103 H :   -0.014566
 104 H :   -0.013504
 105 H :   -0.006140
 106 H :    0.009639
 107 H :    0.027913
 108 H :   -0.005986
 109 H :    0.010173
 110 H :    0.008836
 111 H :    0.010344
 112 H :    0.018249
 113 H :   -0.010185
 114 H :    0.007898
 115 H :    0.004690
 116 H :    0.004078
 117 H :    0.020110
 118 H :    0.001285
Sum of atomic charges:   -0.0000000

LOEWDIN ATOMIC CHARGES
----------------------
   0 C :    0.074206
   1 C :   -0.132527
   2 C :   -0.017431
   3 N :   -0.050882
   4 C :   -0.023766
   5 N :   -0.045261
   6 C :   -0.021927
   7 C :   -0.050821
   8 C :    0.021215
   9 C :   -0.034954
  10 C :   -0.145027
  11 C :   -0.008621
  12 S :    0.429567
  13 C :   -0.149261
  14 C :   -0.058533
  15 C :    0.084049
  16 O :   -0.149907
  17 C :   -0.072297
  18 C :    0.078190
  19 C :   -0.045570
  20 C :    0.013297
  21 C :   -0.015602
  22 N :    0.014773
  23 C :   -0.037408
  24 C :   -0.015480
  25 N :   -0.003319
  26 C :   -0.034150
  27 N :    0.003507
  28 C :   -0.037504
  29 N :   -0.006895
  30 C :    0.028817
  31 C :   -0.041881
  32 C :   -0.024030
  33 N :   -0.272037
  34 S :    0.692376
  35 N :   -0.276135
  36 C :   -0.032006
  37 C :    0.002720
  38 C :   -0.003349
  39 C :    0.009860
  40 C :   -0.026590
  41 C :    0.014231
  42 C :   -0.027541
  43 C :    0.013124
  44 C :   -0.034479
  45 C :   -0.015993
  46 C :   -0.056051
  47 C :   -0.008043
  48 C :   -0.059285
  49 C :   -0.020430
  50 C :   -0.014945
  51 C :   -0.020006
  52 C :   -0.012163
  53 C :   -0.024617
  54 C :   -0.024265
  55 C :   -0.064016
  56 C :   -0.140889
  57 C :   -0.039060
  58 C :   -0.028946
  59 C :   -0.186763
  60 S :    0.356733
  61 C :   -0.174190
  62 C :   -0.034882
  63 C :   -0.026090
  64 C :   -0.153507
  65 S :    0.347917
  66 C :   -0.036618
  67 C :   -0.032306
  68 C :   -0.076973
  69 C :    0.045320
  70 O :   -0.132739
  71 C :    0.080608
  72 C :   -0.075297
  73 C :    0.078245
  74 O :   -0.175756
  75 C :    0.078935
  76 C :   -0.053523
  77 H :    0.039027
  78 H :    0.040828
  79 H :    0.029655
  80 H :    0.034873
  81 H :    0.048498
  82 H :    0.024002
  83 H :    0.029592
  84 H :    0.027191
  85 H :    0.020470
  86 H :    0.020551
  87 H :    0.025125
  88 H :    0.023403
  89 H :    0.025448
  90 H :    0.020821
  91 H :    0.027035
  92 H :    0.019337
  93 H :    0.028466
  94 H :    0.023637
  95 H :    0.023622
  96 H :    0.026529
  97 H :    0.028030
  98 H :    0.026393
  99 H :    0.020232
 100 H :    0.031140
 101 H :    0.032362
 102 H :    0.030796
 103 H :    0.031139
 104 H :    0.033022
 105 H :    0.027367
 106 H :    0.025690
 107 H :    0.037150
 108 H :    0.026261
 109 H :    0.019913
 110 H :    0.008614
 111 H :    0.031137
 112 H :    0.028036
 113 H :    0.006325
 114 H :    0.020335
 115 H :    0.008681
 116 H :    0.016615
 117 H :    0.037759
 118 H :    0.029747

  Mayer bond orders larger than 0.100000
B(  0-C ,  1-C ) :   1.6476 B(  0-C ,  6-C ) :   1.0073 B(  0-C , 17-C ) :   1.0596
B(  1-C ,  2-C ) :   1.1420 B(  1-C ,  4-C ) :   1.1434 B(  2-C ,  3-N ) :   2.9720
B(  4-C ,  5-N ) :   2.9882 B(  6-C ,  7-C ) :   1.2665 B(  6-C , 11-C ) :   1.4102
B(  7-C ,  8-C ) :   1.4254 B(  7-C , 15-C ) :   0.9506 B(  8-C ,  9-C ) :   1.2479
B(  8-C , 77-H ) :   1.0161 B(  9-C , 10-C ) :   1.2998 B(  9-C , 14-C ) :   1.1724
B( 10-C , 11-C ) :   1.3265 B( 10-C , 12-S ) :   1.0982 B( 11-C , 78-H ) :   0.9823
B( 12-S , 13-C ) :   1.1268 B( 13-C , 14-C ) :   1.6270 B( 13-C , 79-H ) :   0.9690
B( 14-C , 80-H ) :   0.9994 B( 15-C , 16-O ) :   2.2198 B( 15-C , 17-C ) :   0.9382
B( 17-C , 18-C ) :   1.6159 B( 18-C , 19-C ) :   1.1515 B( 18-C , 81-H ) :   0.9292
B( 19-C , 20-C ) :   1.2672 B( 19-C , 30-C ) :   0.1269 B( 19-C , 32-C ) :   1.2128
B( 20-C , 21-C ) :   1.1057 B( 20-C , 25-N ) :   1.4435 B( 21-C , 22-N ) :   1.4339
B( 21-C , 30-C ) :   1.2583 B( 22-N , 23-C ) :   1.7277 B( 23-C , 24-C ) :   1.2008
B( 23-C , 28-C ) :   1.1502 B( 24-C , 25-N ) :   1.7479 B( 24-C , 26-C ) :   1.1503
B( 26-C , 27-N ) :   3.0452 B( 28-C , 29-N ) :   3.0493 B( 30-C , 31-C ) :   1.2341
B( 30-C , 36-C ) :   1.0675 B( 31-C , 32-C ) :   1.1053 B( 31-C , 35-N ) :   1.4740
B( 32-C , 33-N ) :   1.5009 B( 33-N , 34-S ) :   1.2894 B( 33-N , 35-N ) :   0.1540
B( 34-S , 35-N ) :   1.3018 B( 36-C , 37-C ) :   1.2798 B( 36-C , 41-C ) :   1.3274
B( 37-C , 38-C ) :   1.4210 B( 37-C , 82-H ) :   0.9812 B( 38-C , 39-C ) :   1.3601
B( 38-C , 44-C ) :   0.9127 B( 39-C , 40-C ) :   1.3186 B( 39-C , 42-C ) :   1.0118
B( 40-C , 41-C ) :   1.4091 B( 40-C , 83-H ) :   0.9925 B( 41-C , 84-H ) :   0.9782
B( 42-C , 43-C ) :   1.3529 B( 42-C , 52-C ) :   1.3254 B( 43-C , 44-C ) :   0.9255
B( 43-C , 49-C ) :   1.4161 B( 44-C , 45-C ) :   1.0348 B( 44-C , 47-C ) :   1.0155
B( 45-C , 46-C ) :   1.1070 B( 45-C , 85-H ) :   0.9390 B( 45-C , 86-H ) :   0.9370
B( 46-C , 87-H ) :   0.9628 B( 46-C , 88-H ) :   0.9641 B( 46-C , 89-H ) :   0.9641
B( 47-C , 48-C ) :   1.1143 B( 47-C , 90-H ) :   0.9375 B( 47-C , 91-H ) :   0.9380
B( 48-C , 92-H ) :   0.9633 B( 48-C , 93-H ) :   0.9593 B( 48-C , 94-H ) :   0.9604
B( 49-C , 50-C ) :   1.2906 B( 49-C , 95-H ) :   0.9975 B( 50-C , 51-C ) :   1.3203
B( 50-C , 53-C ) :   1.0707 B( 51-C , 52-C ) :   1.3915 B( 51-C , 96-H ) :   0.9928
B( 52-C , 97-H ) :   0.9915 B( 53-C , 54-C ) :   1.6490 B( 53-C , 98-H ) :   0.9869
B( 54-C , 55-C ) :   1.1492 B( 54-C , 99-H ) :   0.9644 B( 55-C , 56-C ) :   1.5702
B( 55-C ,100-H ) :   0.9850 B( 56-C , 57-C ) :   1.1322 B( 56-C , 60-S ) :   1.0298
B( 57-C , 58-C ) :   1.6031 B( 57-C ,101-H ) :   0.9999 B( 58-C , 59-C ) :   1.1774
B( 58-C ,102-H ) :   0.9921 B( 59-C , 60-S ) :   1.0304 B( 59-C , 61-C ) :   1.5467
B( 61-C , 62-C ) :   1.1577 B( 61-C , 65-S ) :   1.0422 B( 62-C , 63-C ) :   1.6478
B( 62-C ,103-H ) :   0.9918 B( 63-C , 64-C ) :   1.0902 B( 63-C ,104-H ) :   0.9959
B( 64-C , 65-S ) :   0.9999 B( 64-C , 66-C ) :   1.7905 B( 66-C , 67-C ) :   1.0201
B( 66-C ,105-H ) :   0.9555 B( 67-C , 68-C ) :   1.0271 B( 67-C ,106-H ) :   0.9234
B( 67-C ,107-H ) :   0.9184 B( 68-C , 69-C ) :   1.8721 B( 68-C ,108-H ) :   0.9497
B( 69-C , 70-O ) :   1.0692 B( 69-C , 76-C ) :   1.0406 B( 70-O , 71-C ) :   0.9795
B( 71-C , 72-C ) :   1.0741 B( 71-C ,109-H ) :   0.9507 B( 71-C ,110-H ) :   0.9523
B( 72-C , 73-C ) :   1.0490 B( 72-C ,111-H ) :   0.9335 B( 72-C ,112-H ) :   0.9254
B( 73-C , 74-O ) :   1.0277 B( 73-C ,113-H ) :   0.9447 B( 73-C ,114-H ) :   0.9554
B( 74-O , 75-C ) :   1.0065 B( 75-C , 76-C ) :   1.0640 B( 75-C ,115-H ) :   0.9319
B( 75-C ,116-H ) :   0.9516 B( 76-C ,117-H ) :   0.9100 B( 76-C ,118-H ) :   0.9171

-----------------------------------------------------------------------------
         ABSORPTION SPECTRUM VIA TRANSITION ELECTRIC DIPOLE MOMENTS
-----------------------------------------------------------------------------
State   Energy  Wavelength   fosc         T2         TX        TY        TZ
        (cm-1)    (nm)                  (au**2)     (au)      (au)      (au)
-----------------------------------------------------------------------------
   0    8680.6   1152.0   0.473542424  17.95908  -1.21944   3.88704  -1.16748
   1   14538.5    687.8   0.401427106   9.08997  -1.80442   2.41535  -0.01010
   2   17800.6    561.8   1.349195124  24.95266   2.21233   2.74758  -3.53681
   3   20595.8    485.5   0.008039768   0.12851  -0.17341   0.22267  -0.22104
   4   20736.9    482.2   0.114778010   1.82218   1.15262  -0.60751  -0.35295
   5   22689.5    440.7   0.019435267   0.28199   0.41166   0.02799   0.33429
   6   23210.2    430.8   0.014966287   0.21228  -0.37226  -0.18263   0.20087
   7   23621.9    423.3   0.014970126   0.20863   0.42827   0.15591   0.03017
   8   24495.0    408.2   0.267623044   3.59684   1.62547  -0.90893  -0.35852
   9   25486.6    392.4   0.001223483   0.01580   0.03221  -0.05535   0.10818
  10   25521.6    391.8   0.100546080   1.29698   0.69266  -0.70114  -0.57062
  11   26163.5    382.2   0.050670837   0.63758   0.66174  -0.08836  -0.43804
  12   26577.1    376.3   0.063260436   0.78361  -0.85882  -0.05027   0.20857
  13   27095.4    369.1   0.084496842   1.02664   0.75337  -0.67514  -0.05717
  14   27474.7    364.0   0.040847317   0.48945  -0.43553  -0.46696   0.28584
  15   28467.9    351.3   0.041706025   0.48230   0.56378  -0.01731  -0.40517
  16   28574.0    350.0   0.010055701   0.11586  -0.11993   0.22654   0.22394
  17   28881.1    346.2   0.029258830   0.33352  -0.10206   0.40084  -0.40302
  18   29488.7    339.1   0.025280055   0.28223  -0.40682  -0.31106  -0.14129
  19   29899.8    334.5   0.183633753   2.02190   1.33337  -0.27427  -0.41084
  20   30216.8    330.9   0.760408956   8.28464   1.83737  -2.21476   0.05936
  21   30511.9    327.7   0.084755743   0.91448  -0.23561  -0.90041  -0.21963
  22   30566.3    327.2   0.218033486   2.34831   1.27887   0.82587   0.17528
  23   31368.5    318.8   0.065884274   0.69145  -0.62486  -0.45489  -0.30673
  24   32086.9    311.7   0.235351600   2.41471  -1.08340  -0.83815   0.73380
  25   32380.6    308.8   0.062194332   0.63233   0.77710  -0.04731  -0.16187
  26   32612.3    306.6   0.083271538   0.84060  -0.39409   0.19179   0.80530
  27   33074.8    302.3   0.011708137   0.11654  -0.02780  -0.03017   0.33890
  28   33162.4    301.5   0.170473636   1.69234   1.06062   0.68716  -0.30862
  29   33450.4    299.0   0.027655970   0.27218   0.19202   0.35407  -0.33157
  30   33972.7    294.4   0.220894189   2.14057   1.32932   0.29735  -0.53392
  31   34190.4    292.5   0.201280919   1.93809  -0.47244  -0.61092   1.15830
  32   34338.1    291.2   0.034612128   0.33184   0.28440   0.31098  -0.39274
  33   34766.9    287.6   0.010647859   0.10083  -0.19082  -0.25379  -0.00214
  34   35442.0    282.2   0.486232455   4.51649  -1.36715  -1.59979  -0.29676
  35   35528.7    281.5   0.015840131   0.14678   0.05585   0.37837  -0.02228
  36   35806.3    279.3   0.002156902   0.01983   0.03338   0.13146   0.03787
  37   36129.9    276.8   0.001674742   0.01526   0.07756   0.06205   0.07345
  38   36639.4    272.9   0.018820295   0.16910  -0.33106   0.20610  -0.13048
  39   37150.9    269.2   0.007606322   0.06740  -0.21345   0.04288  -0.14143
  40   37502.9    266.6   0.050021906   0.43911  -0.46392  -0.17583   0.43929
  41   37781.1    264.7   0.044227202   0.38538   0.47745   0.27779  -0.28330
  42   38028.9    263.0   0.018858121   0.16325   0.09606  -0.00564  -0.39242
  43   38129.9    262.3   0.089630004   0.77386  -0.52316  -0.41287   0.57419
  44   38421.4    260.3   0.012552202   0.10755  -0.22183  -0.23707   0.04627
  45   38544.5    259.4   0.127234428   1.08672  -0.83931  -0.04536   0.61663
  46   38957.6    256.7   0.035670634   0.30144  -0.39277   0.36313  -0.12370
  47   38983.7    256.5   0.029108219   0.24581   0.28815  -0.19431  -0.35359
  48   39362.8    254.0   0.052987400   0.44316  -0.63095  -0.02620   0.21067
  49   39896.7    250.6   0.043653789   0.36021   0.15910   0.52428  -0.24500
  50   40074.2    249.5   0.165309942   1.35803   0.58863  -1.00511  -0.03605
  51   40316.2    248.0   0.144205628   1.17755   0.40789  -1.00101  -0.09567

FINAL SINGLE POINT ENERGY     -4639.812169013001

DIPOLE MOMENT
-------------
                                X             Y             Z
Electronic contribution:     13.05889    -139.44202      86.76991
Nuclear contribution   :    -10.87444     144.79402     -88.74396
                        -----------------------------------------
Total Dipole Moment    :      2.18445       5.35200      -1.97405
                        -----------------------------------------
Magnitude (a.u.)       :      6.10841
Magnitude (Debye)      :     15.52634

Rotational constants in cm-1:     0.000798     0.000253     0.000203
Rotational constants in MHz :    23.911085     7.574117     6.070975

                             ****ORCA TERMINATED NORMALLY****
TOTAL RUN TIME: 0 days 0 hours 14 minutes 9 seconds 804 msec
