                         Program Version 4.2.0 -  RELEASE  -
|  1> # ORCA input file
|  2> # SCF done       -165.107547784470          0.000754610516
|  3> ! CAM-B3LYP def2-SVP def2/J RIJCOSX Grid4 TightSCF
|  4> %maxcore 5000
|  5> %tddft
|  6>     Mode sTDDFT
|  7>     Ethresh 5.0
|  8>     maxcore 5000
|  9> end
| 10>
| 11> %pal
| 12>   nprocs 6
| 13>   end
| 14> * xyz 0 1
| 15>    C       11.95255        -7.26352        10.23241
| 16>    C       12.42883        -7.85507         9.12851
| 17>    C       13.77792        -7.84464         8.63959
| 18>    C       13.96069        -8.53101         7.49018
| 19>    C       12.78149        -9.13777         6.97404
| 20>    S       11.41789        -8.79957         8.02188
| 21>    C       12.66030        -9.88060         5.82434
| 22>    C       13.67466       -10.22393         4.89713
| 23>    C       13.22824       -10.94924         3.83951
| 24>    C       11.83615       -11.23543         3.86216
| 25>    S       11.11689       -10.53260         5.29833
| 26>    C       11.17125       -11.89000         2.85714
| 27>    C        9.81888       -12.25278         2.75203
| 28>    S        9.21631       -12.62814         1.14584
| 29>    C        7.58917       -12.93207         1.69639
| 30>    C        7.53093       -12.79289         3.08279
| 31>    C        8.77519       -12.40913         3.65523
| 32>    S        8.69359       -12.35968         5.38733
| 33>    C        7.02180       -12.82121         5.32922
| 34>    C        6.53903       -13.00579         4.08271
| 35>    C        6.61060       -13.26567         0.72807
| 36>    C        5.28631       -13.39667         0.95937
| 37>    N        4.39218       -13.74137        -0.01941
| 38>    C        3.07043       -14.01096         0.15617
| 39>    S        1.99752       -13.73666        -1.18980
| 40>    C        0.64045       -14.13708        -0.18268
| 41>    N       -0.62432       -14.12245        -0.75949
| 42>    O       -1.57920       -14.39651        -0.04951
| 43>    O       -0.68739       -13.83354        -1.94695
| 44>    C        1.00563       -14.45643         1.10061
| 45>    C        2.39311       -14.42123         1.31093
| 46>    C        2.98959       -14.86114         2.56027
| 47>    C        4.13404       -15.55670         2.63730
| 48>    C        4.82370       -15.98767         3.83414
| 49>    C        6.00268       -16.73249         3.68018
| 50>    C        6.71472       -17.12311         4.78623
| 51>    C        6.28076       -16.76811         6.07461
| 52>    C        5.11668       -16.03198         6.24099
| 53>    C        4.39744       -15.65387         5.12509
| 54>    C        7.21129       -17.31293         7.03955
| 55>    C        8.21618       -18.01017         6.34741
| 56>    C        7.98279       -17.94115         4.85607
| 57>    C        9.14745       -17.24457         4.12916
| 58>    C        9.37011       -15.81737         4.61185
| 59>    C        7.77343       -19.34672         4.26104
| 60>    C        6.65031       -20.11861         4.94384
| 61>    C        9.20965       -18.66327         7.03268
| 62>    C        9.22086       -18.64583         8.43749
| 63>    C        8.22427       -17.92504         9.11021
| 64>    C        7.22693       -17.26101         8.42603
| 65>    C       10.24432       -19.40037         9.11781
| 66>    C       10.35415       -19.59127        10.44841
| 67>    C       11.35308       -20.39432        11.06507
| 68>    S       11.36887       -20.57830        12.79903
| 69>    C       12.74528       -21.64702        12.79200
| 70>    C       13.17570       -21.84875        11.48844
| 71>    C       12.38628       -21.14024        10.53727
| 72>    S       12.93796       -21.41098         8.91263
| 73>    C       14.19877       -22.45060         9.50919
| 74>    C       14.21251       -22.59273        10.84901
| 75>    C       13.20700       -22.14090        14.05440
| 76>    C       14.22819       -22.97083        14.26825
| 77>    H       12.60232        -6.69651        10.87516
| 78>    H       10.91711        -7.33325        10.50927
| 79>    H       14.55044        -7.32087         9.17405
| 80>    H       14.90521        -8.62585         6.98425
| 81>    H       14.69826        -9.92619         5.03773
| 82>    H       13.85152       -11.29640         3.03387
| 83>    H       11.76764       -12.11879         1.98152
| 84>    H        6.49317       -12.93271         6.25574
| 85>    H        5.52772       -13.30666         3.88958
| 86>    H        6.98297       -13.40697        -0.27903
| 87>    H        4.85978       -13.23092         1.93135
| 88>    H        4.72266       -13.70066        -0.97554
| 89>    H        0.28709       -14.74279         1.84744
| 90>    H        2.40566       -14.64679         3.44430
| 91>    H        4.63702       -15.81903         1.71438
| 92>    H        6.33785       -16.99265         2.68580
| 93>    H        4.77402       -15.76000         7.22838
| 94>    H        3.49147       -15.08143         5.25532
| 95>    H        8.93536       -17.23376         3.05742
| 96>    H       10.05652       -17.82933         4.28442
| 97>    H        8.47706       -15.22037         4.44399
| 98>    H       10.19789       -15.35994         4.07399
| 99>    H        9.59932       -15.79977         5.67498
|100>    H        8.70661       -19.90682         4.35262
|101>    H        7.54796       -19.24517         3.19701
|102>    H        6.86548       -20.25515         6.00130
|103>    H        6.53816       -21.09891         4.48646
|104>    H        5.70613       -19.58588         4.85241
|105>    H        9.97895       -19.21077         6.50642
|106>    H        8.23095       -17.88849        10.18843
|107>    H        6.46518       -16.71714         8.96503
|108>    H       10.96833       -19.87754         8.47011
|109>    H        9.65084       -19.13924        11.13314
|110>    H       14.86296       -22.89823         8.79527
|111>    H       14.93065       -23.20224        11.36402
|112>    H       12.63611       -21.77983        14.90126
|113>    H       14.83213       -23.36727        13.47330
|114>    H       14.48671       -23.28053        15.26522
|115> *
|116>
|117>                          ****END OF INPUT****

CARTESIAN COORDINATES (ANGSTROEM)
---------------------------------
  C     11.952550   -7.263520   10.232410
  C     12.428830   -7.855070    9.128510
  C     13.777920   -7.844640    8.639590
  C     13.960690   -8.531010    7.490180
  C     12.781490   -9.137770    6.974040
  S     11.417890   -8.799570    8.021880
  C     12.660300   -9.880600    5.824340
  C     13.674660  -10.223930    4.897130
  C     13.228240  -10.949240    3.839510
  C     11.836150  -11.235430    3.862160
  S     11.116890  -10.532600    5.298330
  C     11.171250  -11.890000    2.857140
  C      9.818880  -12.252780    2.752030
  S      9.216310  -12.628140    1.145840
  C      7.589170  -12.932070    1.696390
  C      7.530930  -12.792890    3.082790
  C      8.775190  -12.409130    3.655230
  S      8.693590  -12.359680    5.387330
  C      7.021800  -12.821210    5.329220
  C      6.539030  -13.005790    4.082710
  C      6.610600  -13.265670    0.728070
  C      5.286310  -13.396670    0.959370
  N      4.392180  -13.741370   -0.019410
  C      3.070430  -14.010960    0.156170
  S      1.997520  -13.736660   -1.189800
  C      0.640450  -14.137080   -0.182680
  N     -0.624320  -14.122450   -0.759490
  O     -1.579200  -14.396510   -0.049510
  O     -0.687390  -13.833540   -1.946950
  C      1.005630  -14.456430    1.100610
  C      2.393110  -14.421230    1.310930
  C      2.989590  -14.861140    2.560270
  C      4.134040  -15.556700    2.637300
  C      4.823700  -15.987670    3.834140
  C      6.002680  -16.732490    3.680180
  C      6.714720  -17.123110    4.786230
  C      6.280760  -16.768110    6.074610
  C      5.116680  -16.031980    6.240990
  C      4.397440  -15.653870    5.125090
  C      7.211290  -17.312930    7.039550
  C      8.216180  -18.010170    6.347410
  C      7.982790  -17.941150    4.856070
  C      9.147450  -17.244570    4.129160
  C      9.370110  -15.817370    4.611850
  C      7.773430  -19.346720    4.261040
  C      6.650310  -20.118610    4.943840
  C      9.209650  -18.663270    7.032680
  C      9.220860  -18.645830    8.437490
  C      8.224270  -17.925040    9.110210
  C      7.226930  -17.261010    8.426030
  C     10.244320  -19.400370    9.117810
  C     10.354150  -19.591270   10.448410
  C     11.353080  -20.394320   11.065070
  S     11.368870  -20.578300   12.799030
  C     12.745280  -21.647020   12.792000
  C     13.175700  -21.848750   11.488440
  C     12.386280  -21.140240   10.537270
  S     12.937960  -21.410980    8.912630
  C     14.198770  -22.450600    9.509190
  C     14.212510  -22.592730   10.849010
  C     13.207000  -22.140900   14.054400
  C     14.228190  -22.970830   14.268250
  H     12.602320   -6.696510   10.875160
  H     10.917110   -7.333250   10.509270
  H     14.550440   -7.320870    9.174050
  H     14.905210   -8.625850    6.984250
  H     14.698260   -9.926190    5.037730
  H     13.851520  -11.296400    3.033870
  H     11.767640  -12.118790    1.981520
  H      6.493170  -12.932710    6.255740
  H      5.527720  -13.306660    3.889580
  H      6.982970  -13.406970   -0.279030
  H      4.859780  -13.230920    1.931350
  H      4.722660  -13.700660   -0.975540
  H      0.287090  -14.742790    1.847440
  H      2.405660  -14.646790    3.444300
  H      4.637020  -15.819030    1.714380
  H      6.337850  -16.992650    2.685800
  H      4.774020  -15.760000    7.228380
  H      3.491470  -15.081430    5.255320
  H      8.935360  -17.233760    3.057420
  H     10.056520  -17.829330    4.284420
  H      8.477060  -15.220370    4.443990
  H     10.197890  -15.359940    4.073990
  H      9.599320  -15.799770    5.674980
  H      8.706610  -19.906820    4.352620
  H      7.547960  -19.245170    3.197010
  H      6.865480  -20.255150    6.001300
  H      6.538160  -21.098910    4.486460
  H      5.706130  -19.585880    4.852410
  H      9.978950  -19.210770    6.506420
  H      8.230950  -17.888490   10.188430
  H      6.465180  -16.717140    8.965030
  H     10.968330  -19.877540    8.470110
  H      9.650840  -19.139240   11.133140
  H     14.862960  -22.898230    8.795270
  H     14.930650  -23.202240   11.364020
  H     12.636110  -21.779830   14.901260
  H     14.832130  -23.367270   13.473300
  H     14.486710  -23.280530   15.265220

 Total Charge           Charge          ....    0
 Multiplicity           Mult            ....    1
 Number of Electrons    NEL             ....  486
 Basis Dimension        Dim             .... 1086

ORBITAL ENERGIES
----------------

  NO   OCC          E(Eh)            E(eV)
   0   2.0000     -88.974233     -2421.1120
   1   2.0000     -88.953413     -2420.5454
   2   2.0000     -88.953145     -2420.5381
   3   2.0000     -88.947543     -2420.3857
   4   2.0000     -88.943335     -2420.2712
   5   2.0000     -88.936367     -2420.0816
   6   2.0000     -88.931153     -2419.9397
   7   2.0000     -19.224811      -523.1337
   8   2.0000     -19.223963      -523.1106
   9   2.0000     -14.636395      -398.2766
  10   2.0000     -14.476094      -393.9145
  11   2.0000     -10.361918      -281.9621
  12   2.0000     -10.331118      -281.1240
  13   2.0000     -10.322996      -280.9030
  14   2.0000     -10.304909      -280.4108
  15   2.0000     -10.302103      -280.3345
  16   2.0000     -10.301791      -280.3260
  17   2.0000     -10.301218      -280.3104
  18   2.0000     -10.301153      -280.3086
  19   2.0000     -10.300319      -280.2859
  20   2.0000     -10.299987      -280.2769
  21   2.0000     -10.299238      -280.2565
  22   2.0000     -10.297738      -280.2157
  23   2.0000     -10.296069      -280.1703
  24   2.0000     -10.295003      -280.1413
  25   2.0000     -10.292601      -280.0759
  26   2.0000     -10.291058      -280.0339
  27   2.0000     -10.291023      -280.0330
  28   2.0000     -10.284826      -279.8643
  29   2.0000     -10.283183      -279.8196
  30   2.0000     -10.281441      -279.7722
  31   2.0000     -10.281175      -279.7650
  32   2.0000     -10.279641      -279.7233
  33   2.0000     -10.278671      -279.6969
  34   2.0000     -10.278047      -279.6799
  35   2.0000     -10.277693      -279.6702
  36   2.0000     -10.277624      -279.6684
  37   2.0000     -10.277559      -279.6666
  38   2.0000     -10.277403      -279.6624
  39   2.0000     -10.277256      -279.6584
  40   2.0000     -10.276868      -279.6478
  41   2.0000     -10.274641      -279.5872
  42   2.0000     -10.273859      -279.5659
  43   2.0000     -10.272701      -279.5344
  44   2.0000     -10.271239      -279.4946
  45   2.0000     -10.270357      -279.4706
  46   2.0000     -10.269774      -279.4548
  47   2.0000     -10.269399      -279.4446
  48   2.0000     -10.268616      -279.4233
  49   2.0000     -10.268158      -279.4108
  50   2.0000     -10.267940      -279.4049
  51   2.0000     -10.265352      -279.3344
  52   2.0000     -10.264945      -279.3233
  53   2.0000     -10.264879      -279.3215
  54   2.0000     -10.263936      -279.2959
  55   2.0000     -10.262882      -279.2672
  56   2.0000     -10.262753      -279.2637
  57   2.0000     -10.262257      -279.2502
  58   2.0000     -10.259170      -279.1662
  59   2.0000     -10.255902      -279.0773
  60   2.0000     -10.242138      -278.7027
  61   2.0000     -10.234737      -278.5013
  62   2.0000      -8.070199      -219.6013
  63   2.0000      -8.048747      -219.0175
  64   2.0000      -8.048517      -219.0113
  65   2.0000      -8.042886      -218.8581
  66   2.0000      -8.038586      -218.7410
  67   2.0000      -8.032474      -218.5747
  68   2.0000      -8.027871      -218.4495
  69   2.0000      -6.039919      -164.3545
  70   2.0000      -6.035529      -164.2351
  71   2.0000      -6.031474      -164.1247
  72   2.0000      -6.017905      -163.7555
  73   2.0000      -6.017864      -163.7544
  74   2.0000      -6.013932      -163.6474
  75   2.0000      -6.013859      -163.6454
  76   2.0000      -6.012768      -163.6157
  77   2.0000      -6.011063      -163.5693
  78   2.0000      -6.010476      -163.5534
  79   2.0000      -6.008433      -163.4978
  80   2.0000      -6.008366      -163.4959
  81   2.0000      -6.004134      -163.3808
  82   2.0000      -6.003931      -163.3753
  83   2.0000      -6.002256      -163.3297
  84   2.0000      -5.999856      -163.2644
  85   2.0000      -5.998227      -163.2200
  86   2.0000      -5.997707      -163.2059
  87   2.0000      -5.993792      -163.0994
  88   2.0000      -5.993223      -163.0839
  89   2.0000      -5.988377      -162.9520
  90   2.0000      -1.303512       -35.4704
  91   2.0000      -1.122235       -30.5376
  92   2.0000      -1.080548       -29.4032
  93   2.0000      -0.999029       -27.1850
  94   2.0000      -0.998427       -27.1686
  95   2.0000      -0.993795       -27.0425
  96   2.0000      -0.984471       -26.7888
  97   2.0000      -0.983855       -26.7721
  98   2.0000      -0.962009       -26.1776
  99   2.0000      -0.944907       -25.7122
 100   2.0000      -0.938203       -25.5298
 101   2.0000      -0.937627       -25.5141
 102   2.0000      -0.920897       -25.0589
 103   2.0000      -0.905932       -24.6517
 104   2.0000      -0.900582       -24.5061
 105   2.0000      -0.896212       -24.3872
 106   2.0000      -0.883660       -24.0456
 107   2.0000      -0.875898       -23.8344
 108   2.0000      -0.866415       -23.5764
 109   2.0000      -0.857396       -23.3309
 110   2.0000      -0.845438       -23.0055
 111   2.0000      -0.838276       -22.8106
 112   2.0000      -0.837120       -22.7792
 113   2.0000      -0.831214       -22.6185
 114   2.0000      -0.829423       -22.5698
 115   2.0000      -0.827347       -22.5132
 116   2.0000      -0.824584       -22.4381
 117   2.0000      -0.821988       -22.3674
 118   2.0000      -0.814924       -22.1752
 119   2.0000      -0.804783       -21.8992
 120   2.0000      -0.804173       -21.8827
 121   2.0000      -0.798953       -21.7406
 122   2.0000      -0.793878       -21.6025
 123   2.0000      -0.771870       -21.0036
 124   2.0000      -0.764207       -20.7951
 125   2.0000      -0.755947       -20.5704
 126   2.0000      -0.750674       -20.4269
 127   2.0000      -0.728960       -19.8360
 128   2.0000      -0.725508       -19.7421
 129   2.0000      -0.716924       -19.5085
 130   2.0000      -0.704220       -19.1628
 131   2.0000      -0.699250       -19.0276
 132   2.0000      -0.681177       -18.5358
 133   2.0000      -0.679218       -18.4825
 134   2.0000      -0.672850       -18.3092
 135   2.0000      -0.667979       -18.1766
 136   2.0000      -0.666967       -18.1491
 137   2.0000      -0.666808       -18.1448
 138   2.0000      -0.663256       -18.0481
 139   2.0000      -0.659133       -17.9359
 140   2.0000      -0.651852       -17.7378
 141   2.0000      -0.646740       -17.5987
 142   2.0000      -0.636458       -17.3189
 143   2.0000      -0.631140       -17.1742
 144   2.0000      -0.627454       -17.0739
 145   2.0000      -0.624031       -16.9808
 146   2.0000      -0.619697       -16.8628
 147   2.0000      -0.617329       -16.7984
 148   2.0000      -0.609780       -16.5930
 149   2.0000      -0.606470       -16.5029
 150   2.0000      -0.600767       -16.3477
 151   2.0000      -0.592168       -16.1137
 152   2.0000      -0.591139       -16.0857
 153   2.0000      -0.587990       -16.0000
 154   2.0000      -0.577946       -15.7267
 155   2.0000      -0.577272       -15.7084
 156   2.0000      -0.570112       -15.5135
 157   2.0000      -0.567355       -15.4385
 158   2.0000      -0.562115       -15.2959
 159   2.0000      -0.555633       -15.1195
 160   2.0000      -0.547349       -14.8941
 161   2.0000      -0.544242       -14.8096
 162   2.0000      -0.538669       -14.6579
 163   2.0000      -0.537546       -14.6274
 164   2.0000      -0.536352       -14.5949
 165   2.0000      -0.525601       -14.3023
 166   2.0000      -0.523927       -14.2568
 167   2.0000      -0.519639       -14.1401
 168   2.0000      -0.517613       -14.0850
 169   2.0000      -0.517099       -14.0710
 170   2.0000      -0.514633       -14.0039
 171   2.0000      -0.513477       -13.9724
 172   2.0000      -0.513049       -13.9608
 173   2.0000      -0.509345       -13.8600
 174   2.0000      -0.507951       -13.8221
 175   2.0000      -0.503330       -13.6963
 176   2.0000      -0.501205       -13.6385
 177   2.0000      -0.499901       -13.6030
 178   2.0000      -0.498554       -13.5663
 179   2.0000      -0.496934       -13.5223
 180   2.0000      -0.494908       -13.4671
 181   2.0000      -0.487989       -13.2789
 182   2.0000      -0.486680       -13.2432
 183   2.0000      -0.484267       -13.1776
 184   2.0000      -0.480339       -13.0707
 185   2.0000      -0.476622       -12.9696
 186   2.0000      -0.473722       -12.8906
 187   2.0000      -0.470125       -12.7928
 188   2.0000      -0.466562       -12.6958
 189   2.0000      -0.462782       -12.5929
 190   2.0000      -0.462612       -12.5883
 191   2.0000      -0.458960       -12.4889
 192   2.0000      -0.456472       -12.4212
 193   2.0000      -0.454875       -12.3778
 194   2.0000      -0.452856       -12.3229
 195   2.0000      -0.451308       -12.2807
 196   2.0000      -0.447454       -12.1759
 197   2.0000      -0.445847       -12.1321
 198   2.0000      -0.444289       -12.0897
 199   2.0000      -0.437655       -11.9092
 200   2.0000      -0.435664       -11.8550
 201   2.0000      -0.428672       -11.6648
 202   2.0000      -0.426552       -11.6071
 203   2.0000      -0.426166       -11.5966
 204   2.0000      -0.423190       -11.5156
 205   2.0000      -0.421928       -11.4812
 206   2.0000      -0.421598       -11.4723
 207   2.0000      -0.419466       -11.4143
 208   2.0000      -0.416401       -11.3309
 209   2.0000      -0.411606       -11.2004
 210   2.0000      -0.411115       -11.1870
 211   2.0000      -0.409197       -11.1348
 212   2.0000      -0.406821       -11.0702
 213   2.0000      -0.402056       -10.9405
 214   2.0000      -0.399661       -10.8753
 215   2.0000      -0.399281       -10.8650
 216   2.0000      -0.398603       -10.8465
 217   2.0000      -0.392985       -10.6937
 218   2.0000      -0.384655       -10.4670
 219   2.0000      -0.383333       -10.4310
 220   2.0000      -0.381810       -10.3896
 221   2.0000      -0.377404       -10.2697
 222   2.0000      -0.373620       -10.1667
 223   2.0000      -0.367543       -10.0014
 224   2.0000      -0.367147        -9.9906
 225   2.0000      -0.362143        -9.8544
 226   2.0000      -0.353040        -9.6067
 227   2.0000      -0.340227        -9.2580
 228   2.0000      -0.335356        -9.1255
 229   2.0000      -0.330170        -8.9844
 230   2.0000      -0.325869        -8.8674
 231   2.0000      -0.322064        -8.7638
 232   2.0000      -0.317574        -8.6416
 233   2.0000      -0.311038        -8.4638
 234   2.0000      -0.307808        -8.3759
 235   2.0000      -0.306135        -8.3304
 236   2.0000      -0.300423        -8.1749
 237   2.0000      -0.300255        -8.1704
 238   2.0000      -0.286102        -7.7852
 239   2.0000      -0.263016        -7.1570
 240   2.0000      -0.247323        -6.7300
 241   2.0000      -0.227534        -6.1915
 242   2.0000      -0.200994        -5.4693
 243   0.0000      -0.067839        -1.8460
 244   0.0000      -0.047066        -1.2807
 245   0.0000      -0.044882        -1.2213
 246   0.0000      -0.025015        -0.6807
 247   0.0000      -0.008929        -0.2430

MULLIKEN ATOMIC CHARGES
-----------------------
   0 C :   -0.033619
   1 C :   -0.063593
   2 C :    0.051588
   3 C :    0.027991
   4 C :   -0.067991
   5 S :    0.076196
   6 C :   -0.049028
   7 C :    0.030112
   8 C :    0.027848
   9 C :   -0.028593
  10 S :    0.079883
  11 C :    0.001572
  12 C :   -0.165541
  13 S :    0.113367
  14 C :   -0.135491
  15 C :    0.100543
  16 C :   -0.058641
  17 S :    0.122726
  18 C :   -0.051361
  19 C :    0.010814
  20 C :    0.042239
  21 C :    0.053680
  22 N :   -0.029222
  23 C :   -0.128216
  24 S :    0.158706
  25 C :   -0.016909
  26 N :    0.281627
  27 O :   -0.261844
  28 O :   -0.275980
  29 C :    0.007702
  30 C :    0.095560
  31 C :   -0.039906
  32 C :   -0.014804
  33 C :    0.100437
  34 C :   -0.096702
  35 C :    0.015964
  36 C :    0.120602
  37 C :   -0.055558
  38 C :   -0.008410
  39 C :    0.105092
  40 C :    0.021844
  41 C :   -0.139685
  42 C :    0.074502
  43 C :    0.022444
  44 C :    0.066579
  45 C :    0.029150
  46 C :   -0.112982
  47 C :    0.130200
  48 C :   -0.019195
  49 C :   -0.045047
  50 C :   -0.028065
  51 C :    0.076858
  52 C :   -0.155970
  53 S :    0.131853
  54 C :   -0.152968
  55 C :    0.124042
  56 C :   -0.063048
  57 S :    0.083298
  58 C :   -0.041100
  59 C :    0.002154
  60 C :    0.055396
  61 C :   -0.030832
  62 H :    0.017476
  63 H :    0.019485
  64 H :   -0.014461
  65 H :   -0.014121
  66 H :   -0.017214
  67 H :   -0.015797
  68 H :   -0.018529
  69 H :    0.023588
  70 H :   -0.016511
  71 H :   -0.032334
  72 H :    0.027259
  73 H :    0.132228
  74 H :    0.006534
  75 H :   -0.005052
  76 H :   -0.003715
  77 H :   -0.042477
  78 H :   -0.039536
  79 H :   -0.033717
  80 H :   -0.005910
  81 H :   -0.005805
  82 H :    0.036560
  83 H :    0.009426
  84 H :    0.018190
  85 H :   -0.002400
  86 H :   -0.004912
  87 H :    0.022505
  88 H :    0.006808
  89 H :    0.019877
  90 H :   -0.039484
  91 H :   -0.030958
  92 H :   -0.040290
  93 H :   -0.024264
  94 H :   -0.030079
  95 H :    0.026277
  96 H :   -0.014044
  97 H :   -0.015234
  98 H :    0.004463
  99 H :    0.023897
Sum of atomic charges:   -0.0000000

LOEWDIN ATOMIC CHARGES
----------------------
   0 C :   -0.082425
   1 C :   -0.138587
   2 C :   -0.034918
   3 C :   -0.026739
   4 C :   -0.181293
   5 S :    0.348101
   6 C :   -0.179794
   7 C :   -0.038283
   8 C :   -0.033507
   9 C :   -0.154896
  10 S :    0.370894
  11 C :   -0.087074
  12 C :   -0.196913
  13 S :    0.432191
  14 C :   -0.169868
  15 C :   -0.079259
  16 C :   -0.192561
  17 S :    0.410604
  18 C :   -0.153319
  19 C :   -0.064902
  20 C :   -0.094724
  21 C :    0.031525
  22 N :    0.030006
  23 C :   -0.104621
  24 S :    0.439491
  25 C :   -0.217927
  26 N :    0.275014
  27 O :   -0.227180
  28 O :   -0.241838
  29 C :    0.005600
  30 C :   -0.107446
  31 C :   -0.040151
  32 C :   -0.015796
  33 C :   -0.030645
  34 C :   -0.016106
  35 C :    0.006568
  36 C :   -0.013013
  37 C :   -0.019662
  38 C :   -0.020204
  39 C :   -0.021370
  40 C :    0.004946
  41 C :   -0.035129
  42 C :   -0.011463
  43 C :   -0.060799
  44 C :   -0.011608
  45 C :   -0.057871
  46 C :   -0.021153
  47 C :   -0.020599
  48 C :   -0.016522
  49 C :   -0.017531
  50 C :   -0.025509
  51 C :   -0.042735
  52 C :   -0.194054
  53 S :    0.449957
  54 C :   -0.179451
  55 C :   -0.069959
  56 C :   -0.188059
  57 S :    0.390835
  58 C :   -0.154018
  59 C :   -0.059863
  60 C :   -0.041464
  61 C :   -0.050371
  62 H :    0.027411
  63 H :    0.025120
  64 H :    0.032162
  65 H :    0.031404
  66 H :    0.030142
  67 H :    0.031611
  68 H :    0.032158
  69 H :    0.023698
  70 H :    0.027056
  71 H :    0.023841
  72 H :    0.033041
  73 H :    0.090851
  74 H :    0.045117
  75 H :    0.027180
  76 H :    0.028527
  77 H :    0.023886
  78 H :    0.025435
  79 H :    0.023045
  80 H :    0.018443
  81 H :    0.018775
  82 H :    0.025329
  83 H :    0.024277
  84 H :    0.024542
  85 H :    0.019803
  86 H :    0.018813
  87 H :    0.025948
  88 H :    0.023287
  89 H :    0.025002
  90 H :    0.024089
  91 H :    0.024510
  92 H :    0.025414
  93 H :    0.015191
  94 H :    0.024708
  95 H :    0.024852
  96 H :    0.029696
  97 H :    0.028354
  98 H :    0.018500
  99 H :    0.026230

  Mayer bond orders larger than 0.100000
B(  0-C ,  1-C ) :   1.8626 B(  0-C , 62-H ) :   0.9506 B(  0-C , 63-H ) :   0.9415
B(  1-C ,  2-C ) :   1.0817 B(  1-C ,  5-S ) :   1.0088 B(  2-C ,  3-C ) :   1.6586
B(  2-C , 64-H ) :   0.9929 B(  3-C ,  4-C ) :   1.1539 B(  3-C , 65-H ) :   0.9917
B(  4-C ,  5-S ) :   1.0399 B(  4-C ,  6-C ) :   1.5577 B(  6-C ,  7-C ) :   1.1670
B(  6-C , 10-S ) :   1.0393 B(  7-C ,  8-C ) :   1.6081 B(  7-C , 66-H ) :   0.9915
B(  8-C ,  9-C ) :   1.1363 B(  8-C , 67-H ) :   0.9984 B(  9-C , 10-S ) :   1.0300
B(  9-C , 11-C ) :   1.6136 B( 11-C , 12-C ) :   1.1633 B( 11-C , 68-H ) :   0.9422
B( 12-C , 13-S ) :   1.1123 B( 12-C , 14-C ) :   0.1008 B( 12-C , 16-C ) :   1.4646
B( 13-S , 14-C ) :   1.1149 B( 14-C , 15-C ) :   1.3952 B( 14-C , 20-C ) :   1.1704
B( 15-C , 16-C ) :   1.2516 B( 15-C , 19-C ) :   1.1492 B( 16-C , 17-S ) :   1.0605
B( 17-S , 18-C ) :   1.0996 B( 18-C , 19-C ) :   1.6656 B( 18-C , 69-H ) :   0.9610
B( 19-C , 70-H ) :   0.9842 B( 20-C , 21-C ) :   1.6696 B( 20-C , 71-H ) :   0.9422
B( 21-C , 22-N ) :   1.1178 B( 21-C , 72-H ) :   0.9611 B( 22-N , 23-C ) :   1.1890
B( 22-N , 73-H ) :   0.9118 B( 23-C , 24-S ) :   1.1324 B( 23-C , 30-C ) :   1.3857
B( 24-S , 25-C ) :   1.0745 B( 25-C , 26-N ) :   0.9885 B( 25-C , 29-C ) :   1.4664
B( 26-N , 27-O ) :   1.5238 B( 26-N , 28-O ) :   1.5000 B( 27-O , 28-O ) :   0.2518
B( 29-C , 30-C ) :   1.2496 B( 29-C , 74-H ) :   1.0068 B( 30-C , 31-C ) :   1.0300
B( 31-C , 32-C ) :   1.7443 B( 31-C , 75-H ) :   0.9611 B( 32-C , 33-C ) :   1.0770
B( 32-C , 76-H ) :   0.9701 B( 33-C , 34-C ) :   1.2914 B( 33-C , 38-C ) :   1.3477
B( 34-C , 35-C ) :   1.3724 B( 34-C , 77-H ) :   1.0129 B( 35-C , 36-C ) :   1.3732
B( 35-C , 41-C ) :   0.9167 B( 36-C , 37-C ) :   1.3245 B( 36-C , 39-C ) :   0.9977
B( 37-C , 38-C ) :   1.3927 B( 37-C , 78-H ) :   0.9907 B( 38-C , 79-H ) :   0.9819
B( 39-C , 40-C ) :   1.3692 B( 39-C , 49-C ) :   1.3280 B( 40-C , 41-C ) :   0.9156
B( 40-C , 46-C ) :   1.3781 B( 41-C , 42-C ) :   1.0372 B( 41-C , 44-C ) :   1.0363
B( 42-C , 43-C ) :   1.0989 B( 42-C , 80-H ) :   0.9369 B( 42-C , 81-H ) :   0.9381
B( 43-C , 82-H ) :   0.9661 B( 43-C , 83-H ) :   0.9597 B( 43-C , 84-H ) :   0.9614
B( 44-C , 45-C ) :   1.1028 B( 44-C , 85-H ) :   0.9390 B( 44-C , 86-H ) :   0.9386
B( 45-C , 87-H ) :   0.9636 B( 45-C , 88-H ) :   0.9633 B( 45-C , 89-H ) :   0.9643
B( 46-C , 47-C ) :   1.2839 B( 46-C , 90-H ) :   1.0141 B( 47-C , 48-C ) :   1.3424
B( 47-C , 50-C ) :   1.0885 B( 48-C , 49-C ) :   1.4033 B( 48-C , 91-H ) :   0.9835
B( 49-C , 92-H ) :   0.9889 B( 50-C , 51-C ) :   1.6721 B( 50-C , 93-H ) :   0.9773
B( 51-C , 52-C ) :   1.1305 B( 51-C , 94-H ) :   0.9520 B( 52-C , 53-S ) :   1.1304
B( 52-C , 54-C ) :   0.1034 B( 52-C , 56-C ) :   1.5075 B( 53-S , 54-C ) :   1.1272
B( 54-C , 55-C ) :   1.4230 B( 54-C , 60-C ) :   1.1183 B( 55-C , 56-C ) :   1.2487
B( 55-C , 59-C ) :   1.1358 B( 56-C , 57-S ) :   1.0561 B( 57-S , 58-C ) :   1.0901
B( 58-C , 59-C ) :   1.6828 B( 58-C , 95-H ) :   0.9639 B( 59-C , 96-H ) :   0.9982
B( 60-C , 61-C ) :   1.9250 B( 60-C , 97-H ) :   0.9464 B( 61-C , 98-H ) :   0.9582
B( 61-C , 99-H ) :   0.9460

-----------------------------------------------------------------------------
         ABSORPTION SPECTRUM VIA TRANSITION ELECTRIC DIPOLE MOMENTS
-----------------------------------------------------------------------------
State   Energy  Wavelength   fosc         T2         TX        TY        TZ
        (cm-1)    (nm)                  (au**2)     (au)      (au)      (au)
-----------------------------------------------------------------------------
   0   15359.4    651.1   1.349687491  28.92910  -3.50002  -2.81767  -2.95630
   1   21286.7    469.8   0.132021727   2.04180   0.01121   0.41494   1.36730
   2   22335.7    447.7   0.299176428   4.40964  -1.60389   0.78563  -1.10453
   3   23497.1    425.6   0.392787394   5.50325   0.28962  -0.60542   2.24785
   4   24582.5    406.8   1.376749699  18.43759  -3.18229   1.86264  -2.20027
   5   25334.2    394.7   0.453867578   5.89790   1.25576  -1.04331   1.79791
   6   26594.8    376.0   0.065045883   0.80519  -0.73917   0.17866   0.47633
   7   28159.4    355.1   0.049619834   0.58011   0.75274   0.07316   0.09019
   8   29250.4    341.9   0.043178349   0.48597  -0.25814   0.44105   0.47414
   9   30345.5    329.5   0.164419954   1.78376   1.20024  -0.52773   0.25434
  10   31080.4    321.7   0.049048539   0.51954  -0.69810   0.05930  -0.16934
  11   31208.3    320.4   0.014656641   0.15461  -0.38417   0.04421  -0.07119
  12   31727.2    315.2   0.031136076   0.32308   0.20476  -0.40863  -0.33790
  13   32025.0    312.3   0.235601487   2.42195   0.90344   0.10976   1.26242
  14   32958.6    303.4   0.002476339   0.02474  -0.14174  -0.00785  -0.06770
  15   33328.5    300.0   0.041937279   0.41425   0.63477  -0.00376   0.10630
  16   33748.1    296.3   0.049019405   0.47818  -0.36237   0.27418  -0.52125
  17   33916.8    294.8   0.042644808   0.41393   0.29151  -0.10529   0.56380
  18   34144.6    292.9   0.017007298   0.16398  -0.37885   0.04063   0.13710
  19   34343.6    291.2   0.045836531   0.43938   0.33253  -0.18576   0.54249
  20   34774.0    287.6   0.021611519   0.20460   0.34621   0.00795  -0.29100
  21   35268.6    283.5   0.059852673   0.55869   0.42160   0.02449  -0.61672
  22   35727.9    279.9   0.081782472   0.75358   0.59185  -0.09728  -0.62756
  23   35877.6    278.7   0.020073534   0.18419   0.00599  -0.15534   0.40003
  24   36127.8    276.8   0.046549725   0.42418   0.38531  -0.24446   0.46471
  25   36550.2    273.6   0.006737294   0.06068   0.23004  -0.03104  -0.08249
  26   36788.1    271.8   0.004217945   0.03775   0.17539  -0.04486  -0.07050
  27   37087.1    269.6   0.073245992   0.65019  -0.65799   0.10869  -0.45323
  28   37652.8    265.6   0.129240823   1.13000  -0.03064   0.09519  -1.05830
  29   38177.7    261.9   0.017362308   0.14972  -0.37541  -0.00184  -0.09372
  30   38688.5    258.5   0.085363127   0.72638   0.53115   0.31703   0.58630
  31   39291.2    254.5   0.004092400   0.03429   0.10623  -0.04196   0.14575
  32   39460.4    253.4   0.047509024   0.39636   0.10296  -0.52696  -0.32874
  33   39901.6    250.6   0.179295676   1.47929  -0.94852  -0.03190  -0.76065
  34   39993.0    250.0   0.068329482   0.56247  -0.05824  -0.35069  -0.66037
  35   40248.7    248.5   0.130786487   1.06976   0.63673  -0.18477  -0.79385

FINAL SINGLE POINT ENERGY     -5009.701543208081

DIPOLE MOMENT
-------------
                                X             Y             Z
Electronic contribution:    -16.87404      31.53255     -21.33855
Nuclear contribution   :     20.00670     -31.91145      22.19664
                        -----------------------------------------
Total Dipole Moment    :      3.13265      -0.37890       0.85808
                        -----------------------------------------
Magnitude (a.u.)       :      3.27007
Magnitude (Debye)      :      8.31187

Rotational constants in cm-1:     0.000969     0.000508     0.000368
Rotational constants in MHz :    29.040512    15.219709    11.034760

                             ****ORCA TERMINATED NORMALLY****
TOTAL RUN TIME: 0 days 0 hours 9 minutes 16 seconds 332 msec
