                         Program Version 4.2.0 -  RELEASE  -
|  1> # ORCA input file
|  2> # SCF done       -190.246484443090          0.000648239280
|  3> ! CAM-B3LYP def2-SVP def2/J RIJCOSX Grid4 TightSCF
|  4> %maxcore 5000
|  5> %tddft
|  6>     Mode sTDDFT
|  7>     Ethresh 5.0
|  8>     maxcore 5000
|  9> end
| 10>
| 11> %pal
| 12>   nprocs 6
| 13>   end
| 14> * xyz 0 1
| 15>    C       -8.15348        -8.53295        -5.24121
| 16>    C       -9.36009        -8.69246        -5.90514
| 17>    C      -10.53003        -8.78012        -5.14969
| 18>    C      -11.77275        -8.94020        -5.81090
| 19>    N      -12.77413        -9.07132        -6.35024
| 20>    C      -10.50088        -8.71159        -3.74277
| 21>    C      -11.70388        -8.79950        -3.00361
| 22>    N      -12.66547        -8.86622        -2.38466
| 23>    C       -9.28386        -8.55557        -3.07830
| 24>    C       -8.13634        -8.46809        -3.83667
| 25>    C       -6.74518        -8.29997        -3.35818
| 26>    O       -6.42325        -8.24878        -2.18925
| 27>    C       -5.90748        -8.25097        -4.57510
| 28>    C       -6.78286        -8.40311        -5.73023
| 29>    C       -6.43316        -8.40051        -7.05750
| 30>    C       -7.35377        -8.53768        -8.11920
| 31>    N       -8.04367        -8.64529        -9.03018
| 32>    C       -5.13380        -8.26195        -7.58984
| 33>    N       -4.12048        -8.15599        -8.12250
| 34>    C       -4.54892        -8.12420        -4.69571
| 35>    C       -3.51135        -7.87808        -3.76169
| 36>    C       -2.17532        -7.87208        -4.17884
| 37>    C       -1.61285        -8.20790        -5.51506
| 38>    C       -1.55494        -9.72629        -5.72123
| 39>    S       -1.11631        -7.49425        -2.89393
| 40>    C       -2.44291        -7.32784        -1.75562
| 41>    C       -3.62825        -7.56187        -2.37895
| 42>    C       -2.20373        -6.98009        -0.37361
| 43>    C       -3.18808        -7.16703         0.56755
| 44>    C       -2.96556        -6.79421         1.90927
| 45>    C       -3.77545        -6.86412         3.03444
| 46>    C       -5.16445        -7.38545         3.17069
| 47>    C       -6.18499        -6.38031         2.59877
| 48>    N       -6.27036        -5.21358         3.46265
| 49>    C       -5.37321        -8.76769         2.52772
| 50>    N       -6.58803        -9.36178         3.06269
| 51>    C       -3.03427        -6.25469         4.11489
| 52>    C       -3.37977        -5.99800         5.38906
| 53>    C       -2.45092        -5.30111         6.32503
| 54>    C       -1.12105        -4.95578         5.74047
| 55>    C       -0.79353        -5.21393         4.46055
| 56>    C       -1.71996        -5.85136         3.60282
| 57>    C       -1.68660        -6.18956         2.26380
| 58>    C       -0.68513        -6.03832         1.27852
| 59>    C       -0.93763        -6.43024         0.00428
| 60>    C       -2.35142        -6.11937         7.59192
| 61>    C       -1.28906        -6.85614         7.90746
| 62>    C       -1.14733        -7.64990         9.11179
| 63>    C       -0.00667        -8.39216         9.38465
| 64>    C        1.21384        -8.51748         8.53950
| 65>    C        2.25865        -9.45511         9.12962
| 66>    S       -0.11818        -9.21601        10.88571
| 67>    C       -1.71702        -8.57612        11.18214
| 68>    C       -2.09526        -7.74849        10.14632
| 69>    C       -2.43875        -8.79155        12.37711
| 70>    C       -2.24347        -9.71686        13.35812
| 71>    C       -2.76475        -9.45333        14.72285
| 72>    O       -3.57519        -8.61915        15.05112
| 73>    C       -2.02154       -10.38913        15.60108
| 74>    C       -2.02997       -10.46954        16.97687
| 75>    C       -1.20535       -11.41718        17.58694
| 76>    C       -0.39203       -12.25885        16.80239
| 77>    C       -0.40232       -12.18053        15.40894
| 78>    C       -1.22413       -11.24153        14.80957
| 79>    C       -1.47490       -10.94116        13.40227
| 80>    C       -1.27908       -11.81188        12.36113
| 81>    C       -1.84047       -11.61147        11.08294
| 82>    N       -2.33134       -11.50424        10.05090
| 83>    C       -0.59338       -13.03662        12.47952
| 84>    N       -0.02501       -14.03271        12.52672
| 85>    C        0.45691       -13.19660        17.44042
| 86>    N        1.15074       -13.95502        17.94482
| 87>    C       -1.18036       -11.52745        18.99744
| 88>    N       -1.17167       -11.60095        20.14035
| 89>    H       -9.42715        -8.75092        -6.97938
| 90>    H       -9.23997        -8.50259        -2.00093
| 91>    H       -4.18075        -8.21259        -5.70805
| 92>    H       -0.60242        -7.80155        -5.58766
| 93>    H       -2.21316        -7.76194        -6.31187
| 94>    H       -0.91706       -10.18727        -4.97043
| 95>    H       -1.15298        -9.94712        -6.70571
| 96>    H       -2.54776       -10.16361        -5.64715
| 97>    H       -4.57654        -7.50128        -1.88310
| 98>    H       -4.13355        -7.59439         0.27930
| 99>    H       -5.38472        -7.49463         4.23825
|100>    H       -7.14196        -6.91113         2.48436
|101>    H       -5.84914        -6.04751         1.61407
|102>    H       -6.74782        -5.45578         4.32503
|103>    H       -6.80426        -4.47888         3.01289
|104>    H       -4.47249        -9.38084         2.69765
|105>    H       -5.51530        -8.66418         1.45100
|106>    H       -6.46228        -9.60863         4.03919
|107>    H       -6.82154       -10.20942         2.55840
|108>    H       -4.34458        -6.27680         5.78817
|109>    H       -2.94443        -4.35525         6.60659
|110>    H       -0.43195        -4.45612         6.40504
|111>    H        0.17302        -4.92849         4.07064
|112>    H        0.26850        -5.60857         1.54735
|113>    H       -0.18406        -6.31637        -0.76226
|114>    H       -3.22558        -6.09470         8.22586
|115>    H       -0.44495        -6.87173         7.23267
|116>    H        1.65210        -7.52325         8.39943
|117>    H        0.91548        -8.88078         7.55051
|118>    H        2.59216        -9.09642        10.10118
|119>    H        3.12119        -9.51705         8.47125
|120>    H        1.84782       -10.45497         9.25326
|121>    H       -3.04731        -7.25015        10.14097
|122>    H       -3.20318        -8.05062        12.59331
|123>    H       -2.65487        -9.81639        17.56689
|124>    H        0.23367       -12.83654        14.83527
|125> *
|126>
|127>                          ****END OF INPUT****

CARTESIAN COORDINATES (ANGSTROEM)
---------------------------------
  C     -8.153480   -8.532950   -5.241210
  C     -9.360090   -8.692460   -5.905140
  C    -10.530030   -8.780120   -5.149690
  C    -11.772750   -8.940200   -5.810900
  N    -12.774130   -9.071320   -6.350240
  C    -10.500880   -8.711590   -3.742770
  C    -11.703880   -8.799500   -3.003610
  N    -12.665470   -8.866220   -2.384660
  C     -9.283860   -8.555570   -3.078300
  C     -8.136340   -8.468090   -3.836670
  C     -6.745180   -8.299970   -3.358180
  O     -6.423250   -8.248780   -2.189250
  C     -5.907480   -8.250970   -4.575100
  C     -6.782860   -8.403110   -5.730230
  C     -6.433160   -8.400510   -7.057500
  C     -7.353770   -8.537680   -8.119200
  N     -8.043670   -8.645290   -9.030180
  C     -5.133800   -8.261950   -7.589840
  N     -4.120480   -8.155990   -8.122500
  C     -4.548920   -8.124200   -4.695710
  C     -3.511350   -7.878080   -3.761690
  C     -2.175320   -7.872080   -4.178840
  C     -1.612850   -8.207900   -5.515060
  C     -1.554940   -9.726290   -5.721230
  S     -1.116310   -7.494250   -2.893930
  C     -2.442910   -7.327840   -1.755620
  C     -3.628250   -7.561870   -2.378950
  C     -2.203730   -6.980090   -0.373610
  C     -3.188080   -7.167030    0.567550
  C     -2.965560   -6.794210    1.909270
  C     -3.775450   -6.864120    3.034440
  C     -5.164450   -7.385450    3.170690
  C     -6.184990   -6.380310    2.598770
  N     -6.270360   -5.213580    3.462650
  C     -5.373210   -8.767690    2.527720
  N     -6.588030   -9.361780    3.062690
  C     -3.034270   -6.254690    4.114890
  C     -3.379770   -5.998000    5.389060
  C     -2.450920   -5.301110    6.325030
  C     -1.121050   -4.955780    5.740470
  C     -0.793530   -5.213930    4.460550
  C     -1.719960   -5.851360    3.602820
  C     -1.686600   -6.189560    2.263800
  C     -0.685130   -6.038320    1.278520
  C     -0.937630   -6.430240    0.004280
  C     -2.351420   -6.119370    7.591920
  C     -1.289060   -6.856140    7.907460
  C     -1.147330   -7.649900    9.111790
  C     -0.006670   -8.392160    9.384650
  C      1.213840   -8.517480    8.539500
  C      2.258650   -9.455110    9.129620
  S     -0.118180   -9.216010   10.885710
  C     -1.717020   -8.576120   11.182140
  C     -2.095260   -7.748490   10.146320
  C     -2.438750   -8.791550   12.377110
  C     -2.243470   -9.716860   13.358120
  C     -2.764750   -9.453330   14.722850
  O     -3.575190   -8.619150   15.051120
  C     -2.021540  -10.389130   15.601080
  C     -2.029970  -10.469540   16.976870
  C     -1.205350  -11.417180   17.586940
  C     -0.392030  -12.258850   16.802390
  C     -0.402320  -12.180530   15.408940
  C     -1.224130  -11.241530   14.809570
  C     -1.474900  -10.941160   13.402270
  C     -1.279080  -11.811880   12.361130
  C     -1.840470  -11.611470   11.082940
  N     -2.331340  -11.504240   10.050900
  C     -0.593380  -13.036620   12.479520
  N     -0.025010  -14.032710   12.526720
  C      0.456910  -13.196600   17.440420
  N      1.150740  -13.955020   17.944820
  C     -1.180360  -11.527450   18.997440
  N     -1.171670  -11.600950   20.140350
  H     -9.427150   -8.750920   -6.979380
  H     -9.239970   -8.502590   -2.000930
  H     -4.180750   -8.212590   -5.708050
  H     -0.602420   -7.801550   -5.587660
  H     -2.213160   -7.761940   -6.311870
  H     -0.917060  -10.187270   -4.970430
  H     -1.152980   -9.947120   -6.705710
  H     -2.547760  -10.163610   -5.647150
  H     -4.576540   -7.501280   -1.883100
  H     -4.133550   -7.594390    0.279300
  H     -5.384720   -7.494630    4.238250
  H     -7.141960   -6.911130    2.484360
  H     -5.849140   -6.047510    1.614070
  H     -6.747820   -5.455780    4.325030
  H     -6.804260   -4.478880    3.012890
  H     -4.472490   -9.380840    2.697650
  H     -5.515300   -8.664180    1.451000
  H     -6.462280   -9.608630    4.039190
  H     -6.821540  -10.209420    2.558400
  H     -4.344580   -6.276800    5.788170
  H     -2.944430   -4.355250    6.606590
  H     -0.431950   -4.456120    6.405040
  H      0.173020   -4.928490    4.070640
  H      0.268500   -5.608570    1.547350
  H     -0.184060   -6.316370   -0.762260
  H     -3.225580   -6.094700    8.225860
  H     -0.444950   -6.871730    7.232670
  H      1.652100   -7.523250    8.399430
  H      0.915480   -8.880780    7.550510
  H      2.592160   -9.096420   10.101180
  H      3.121190   -9.517050    8.471250
  H      1.847820  -10.454970    9.253260
  H     -3.047310   -7.250150   10.140970
  H     -3.203180   -8.050620   12.593310
  H     -2.654870   -9.816390   17.566890
  H      0.233670  -12.836540   14.835270

 Total Charge           Charge          ....    0
 Multiplicity           Mult            ....    1
 Number of Electrons    NEL             ....  514
 Basis Dimension        Dim             .... 1224

ORBITAL ENERGIES
----------------

  NO   OCC          E(Eh)            E(eV)
   0   2.0000     -88.982980     -2421.3500
   1   2.0000     -88.976993     -2421.1871
   2   2.0000     -19.239770      -523.5408
   3   2.0000     -19.236180      -523.4431
   4   2.0000     -14.438270      -392.8853
   5   2.0000     -14.434102      -392.7719
   6   2.0000     -14.430993      -392.6873
   7   2.0000     -14.430666      -392.6784
   8   2.0000     -14.429994      -392.6601
   9   2.0000     -14.429708      -392.6523
  10   2.0000     -14.429349      -392.6426
  11   2.0000     -14.428036      -392.6068
  12   2.0000     -14.383493      -391.3947
  13   2.0000     -14.378424      -391.2568
  14   2.0000     -10.391859      -282.7769
  15   2.0000     -10.388382      -282.6822
  16   2.0000     -10.365447      -282.0582
  17   2.0000     -10.363457      -282.0040
  18   2.0000     -10.362360      -281.9742
  19   2.0000     -10.362314      -281.9729
  20   2.0000     -10.361831      -281.9598
  21   2.0000     -10.360656      -281.9278
  22   2.0000     -10.360633      -281.9272
  23   2.0000     -10.360289      -281.9178
  24   2.0000     -10.341768      -281.4138
  25   2.0000     -10.340897      -281.3901
  26   2.0000     -10.340490      -281.3790
  27   2.0000     -10.340017      -281.3662
  28   2.0000     -10.335892      -281.2539
  29   2.0000     -10.335837      -281.2524
  30   2.0000     -10.335661      -281.2476
  31   2.0000     -10.335269      -281.2370
  32   2.0000     -10.334584      -281.2183
  33   2.0000     -10.334354      -281.2121
  34   2.0000     -10.333372      -281.1853
  35   2.0000     -10.333030      -281.1760
  36   2.0000     -10.332368      -281.1580
  37   2.0000     -10.331828      -281.1433
  38   2.0000     -10.327225      -281.0181
  39   2.0000     -10.326861      -281.0082
  40   2.0000     -10.326526      -280.9991
  41   2.0000     -10.326300      -280.9929
  42   2.0000     -10.325660      -280.9755
  43   2.0000     -10.324804      -280.9522
  44   2.0000     -10.324359      -280.9401
  45   2.0000     -10.314850      -280.6813
  46   2.0000     -10.313000      -280.6310
  47   2.0000     -10.310162      -280.5538
  48   2.0000     -10.309618      -280.5390
  49   2.0000     -10.305434      -280.4251
  50   2.0000     -10.302294      -280.3397
  51   2.0000     -10.301896      -280.3288
  52   2.0000     -10.301513      -280.3184
  53   2.0000     -10.300136      -280.2809
  54   2.0000     -10.295533      -280.1557
  55   2.0000     -10.295421      -280.1526
  56   2.0000     -10.290495      -280.0186
  57   2.0000     -10.287177      -279.9283
  58   2.0000     -10.284614      -279.8586
  59   2.0000     -10.280797      -279.7547
  60   2.0000     -10.277085      -279.6537
  61   2.0000     -10.276529      -279.6386
  62   2.0000     -10.276025      -279.6248
  63   2.0000     -10.275070      -279.5989
  64   2.0000     -10.274686      -279.5884
  65   2.0000     -10.274072      -279.5717
  66   2.0000     -10.273614      -279.5593
  67   2.0000     -10.272303      -279.5236
  68   2.0000     -10.272248      -279.5221
  69   2.0000     -10.266367      -279.3621
  70   2.0000     -10.265203      -279.3304
  71   2.0000     -10.264881      -279.3216
  72   2.0000     -10.262887      -279.2674
  73   2.0000     -10.261202      -279.2215
  74   2.0000      -8.077993      -219.8134
  75   2.0000      -8.072757      -219.6709
  76   2.0000      -6.047238      -164.5537
  77   2.0000      -6.042990      -164.4381
  78   2.0000      -6.041671      -164.4022
  79   2.0000      -6.040314      -164.3653
  80   2.0000      -6.037515      -164.2891
  81   2.0000      -6.035589      -164.2367
  82   2.0000      -1.154463       -31.4145
  83   2.0000      -1.151734       -31.3403
  84   2.0000      -1.045011       -28.4362
  85   2.0000      -1.044187       -28.4138
  86   2.0000      -1.031349       -28.0644
  87   2.0000      -1.029789       -28.0220
  88   2.0000      -1.016525       -27.6610
  89   2.0000      -1.014237       -27.5988
  90   2.0000      -1.012095       -27.5405
  91   2.0000      -1.011350       -27.5202
  92   2.0000      -1.008764       -27.4499
  93   2.0000      -1.008544       -27.4439
  94   2.0000      -1.008135       -27.4327
  95   2.0000      -1.006941       -27.4002
  96   2.0000      -0.985113       -26.8063
  97   2.0000      -0.980377       -26.6774
  98   2.0000      -0.979611       -26.6566
  99   2.0000      -0.967971       -26.3398
 100   2.0000      -0.952060       -25.9069
 101   2.0000      -0.950788       -25.8723
 102   2.0000      -0.930399       -25.3175
 103   2.0000      -0.927801       -25.2467
 104   2.0000      -0.927571       -25.2405
 105   2.0000      -0.924364       -25.1532
 106   2.0000      -0.912901       -24.8413
 107   2.0000      -0.906194       -24.6588
 108   2.0000      -0.904621       -24.6160
 109   2.0000      -0.899310       -24.4715
 110   2.0000      -0.893173       -24.3045
 111   2.0000      -0.887408       -24.1476
 112   2.0000      -0.872002       -23.7284
 113   2.0000      -0.862976       -23.4828
 114   2.0000      -0.849763       -23.1232
 115   2.0000      -0.846453       -23.0332
 116   2.0000      -0.839285       -22.8381
 117   2.0000      -0.834164       -22.6988
 118   2.0000      -0.818648       -22.2766
 119   2.0000      -0.815520       -22.1914
 120   2.0000      -0.811313       -22.0769
 121   2.0000      -0.809802       -22.0358
 122   2.0000      -0.803227       -21.8569
 123   2.0000      -0.784902       -21.3583
 124   2.0000      -0.760350       -20.6902
 125   2.0000      -0.756905       -20.5964
 126   2.0000      -0.754249       -20.5242
 127   2.0000      -0.750497       -20.4221
 128   2.0000      -0.747013       -20.3273
 129   2.0000      -0.734936       -19.9986
 130   2.0000      -0.720492       -19.6056
 131   2.0000      -0.719880       -19.5889
 132   2.0000      -0.716727       -19.5031
 133   2.0000      -0.712075       -19.3765
 134   2.0000      -0.704938       -19.1823
 135   2.0000      -0.698995       -19.0206
 136   2.0000      -0.691804       -18.8249
 137   2.0000      -0.685604       -18.6562
 138   2.0000      -0.683180       -18.5903
 139   2.0000      -0.671099       -18.2615
 140   2.0000      -0.668319       -18.1859
 141   2.0000      -0.661111       -17.9897
 142   2.0000      -0.658294       -17.9131
 143   2.0000      -0.655289       -17.8313
 144   2.0000      -0.651729       -17.7345
 145   2.0000      -0.643333       -17.5060
 146   2.0000      -0.640114       -17.4184
 147   2.0000      -0.631913       -17.1952
 148   2.0000      -0.626331       -17.0433
 149   2.0000      -0.618053       -16.8181
 150   2.0000      -0.612116       -16.6565
 151   2.0000      -0.603873       -16.4322
 152   2.0000      -0.602348       -16.3907
 153   2.0000      -0.599272       -16.3070
 154   2.0000      -0.597175       -16.2500
 155   2.0000      -0.590291       -16.0626
 156   2.0000      -0.580085       -15.7849
 157   2.0000      -0.575113       -15.6496
 158   2.0000      -0.571747       -15.5580
 159   2.0000      -0.570673       -15.5288
 160   2.0000      -0.569489       -15.4966
 161   2.0000      -0.566924       -15.4268
 162   2.0000      -0.565899       -15.3989
 163   2.0000      -0.564256       -15.3542
 164   2.0000      -0.564082       -15.3494
 165   2.0000      -0.560714       -15.2578
 166   2.0000      -0.558772       -15.2050
 167   2.0000      -0.549696       -14.9580
 168   2.0000      -0.545400       -14.8411
 169   2.0000      -0.538673       -14.6580
 170   2.0000      -0.537000       -14.6125
 171   2.0000      -0.535936       -14.5835
 172   2.0000      -0.535349       -14.5676
 173   2.0000      -0.533566       -14.5191
 174   2.0000      -0.529402       -14.4058
 175   2.0000      -0.528922       -14.3927
 176   2.0000      -0.526724       -14.3329
 177   2.0000      -0.525694       -14.3048
 178   2.0000      -0.524337       -14.2679
 179   2.0000      -0.523068       -14.2334
 180   2.0000      -0.519473       -14.1356
 181   2.0000      -0.518811       -14.1176
 182   2.0000      -0.516452       -14.0534
 183   2.0000      -0.513997       -13.9866
 184   2.0000      -0.512296       -13.9403
 185   2.0000      -0.508570       -13.8389
 186   2.0000      -0.503004       -13.6874
 187   2.0000      -0.500434       -13.6175
 188   2.0000      -0.498984       -13.5780
 189   2.0000      -0.494079       -13.4446
 190   2.0000      -0.492569       -13.4035
 191   2.0000      -0.491555       -13.3759
 192   2.0000      -0.487005       -13.2521
 193   2.0000      -0.481529       -13.1031
 194   2.0000      -0.479081       -13.0365
 195   2.0000      -0.476420       -12.9641
 196   2.0000      -0.470692       -12.8082
 197   2.0000      -0.469107       -12.7650
 198   2.0000      -0.465150       -12.6574
 199   2.0000      -0.463102       -12.6016
 200   2.0000      -0.462474       -12.5846
 201   2.0000      -0.462258       -12.5787
 202   2.0000      -0.460345       -12.5266
 203   2.0000      -0.459852       -12.5132
 204   2.0000      -0.459284       -12.4978
 205   2.0000      -0.458415       -12.4741
 206   2.0000      -0.455909       -12.4059
 207   2.0000      -0.455494       -12.3946
 208   2.0000      -0.455361       -12.3910
 209   2.0000      -0.455032       -12.3820
 210   2.0000      -0.454144       -12.3579
 211   2.0000      -0.453442       -12.3388
 212   2.0000      -0.452757       -12.3201
 213   2.0000      -0.452440       -12.3115
 214   2.0000      -0.451178       -12.2772
 215   2.0000      -0.448760       -12.2114
 216   2.0000      -0.447019       -12.1640
 217   2.0000      -0.445370       -12.1191
 218   2.0000      -0.444484       -12.0950
 219   2.0000      -0.442906       -12.0521
 220   2.0000      -0.441526       -12.0145
 221   2.0000      -0.440071       -11.9749
 222   2.0000      -0.436317       -11.8728
 223   2.0000      -0.435581       -11.8528
 224   2.0000      -0.434028       -11.8105
 225   2.0000      -0.430443       -11.7130
 226   2.0000      -0.429864       -11.6972
 227   2.0000      -0.429279       -11.6813
 228   2.0000      -0.428932       -11.6718
 229   2.0000      -0.426828       -11.6146
 230   2.0000      -0.426157       -11.5963
 231   2.0000      -0.422618       -11.5000
 232   2.0000      -0.421612       -11.4726
 233   2.0000      -0.418983       -11.4011
 234   2.0000      -0.411695       -11.2028
 235   2.0000      -0.408338       -11.1114
 236   2.0000      -0.398517       -10.8442
 237   2.0000      -0.394395       -10.7320
 238   2.0000      -0.389740       -10.6054
 239   2.0000      -0.384721       -10.4688
 240   2.0000      -0.376957       -10.2575
 241   2.0000      -0.369826       -10.0635
 242   2.0000      -0.368804       -10.0357
 243   2.0000      -0.367294        -9.9946
 244   2.0000      -0.359351        -9.7784
 245   2.0000      -0.359323        -9.7777
 246   2.0000      -0.347189        -9.4475
 247   2.0000      -0.342582        -9.3221
 248   2.0000      -0.340065        -9.2536
 249   2.0000      -0.330490        -8.9931
 250   2.0000      -0.320551        -8.7226
 251   2.0000      -0.314693        -8.5632
 252   2.0000      -0.311440        -8.4747
 253   2.0000      -0.293114        -7.9760
 254   2.0000      -0.288612        -7.8535
 255   2.0000      -0.280407        -7.6303
 256   2.0000      -0.223787        -6.0896
 257   0.0000      -0.110810        -3.0153
 258   0.0000      -0.109458        -2.9785
 259   0.0000      -0.092580        -2.5192
 260   0.0000      -0.092455        -2.5158
 261   0.0000      -0.071230        -1.9383

MULLIKEN ATOMIC CHARGES
-----------------------
   0 C :    0.044186
   1 C :   -0.039571
   2 C :   -0.059259
   3 C :   -0.177685
   4 N :    0.202495
   5 C :   -0.063796
   6 C :   -0.175746
   7 N :    0.196982
   8 C :   -0.038245
   9 C :    0.001693
  10 C :    0.156179
  11 O :   -0.144390
  12 C :   -0.072902
  13 C :    0.316532
  14 C :   -0.353180
  15 C :   -0.189322
  16 N :    0.168652
  17 C :   -0.167788
  18 N :    0.150638
  19 C :   -0.024600
  20 C :    0.137388
  21 C :   -0.236734
  22 C :    0.083149
  23 C :    0.025319
  24 S :    0.151646
  25 C :   -0.085027
  26 C :   -0.042020
  27 C :    0.162817
  28 C :   -0.105241
  29 C :    0.039110
  30 C :    0.021989
  31 C :   -0.067163
  32 C :    0.151473
  33 N :   -0.225507
  34 C :    0.125188
  35 N :   -0.219973
  36 C :    0.102538
  37 C :   -0.098280
  38 C :    0.178223
  39 C :   -0.066480
  40 C :    0.015459
  41 C :    0.008485
  42 C :    0.030526
  43 C :   -0.004010
  44 C :   -0.044113
  45 C :   -0.106790
  46 C :    0.014911
  47 C :    0.156021
  48 C :   -0.219525
  49 C :    0.044577
  50 C :   -0.000721
  51 S :    0.134287
  52 C :   -0.078741
  53 C :    0.012677
  54 C :    0.055914
  55 C :   -0.144462
  56 C :    0.147332
  57 O :   -0.130377
  58 C :    0.005331
  59 C :   -0.030875
  60 C :   -0.064909
  61 C :   -0.060751
  62 C :   -0.035484
  63 C :    0.034243
  64 C :    0.251037
  65 C :   -0.308166
  66 C :   -0.210801
  67 N :    0.183847
  68 C :   -0.173593
  69 N :    0.168758
  70 C :   -0.173651
  71 N :    0.198969
  72 C :   -0.174923
  73 N :    0.193041
  74 H :    0.021568
  75 H :    0.017077
  76 H :   -0.029867
  77 H :    0.012167
  78 H :    0.049755
  79 H :    0.016590
  80 H :    0.034368
  81 H :    0.014377
  82 H :    0.006142
  83 H :   -0.039404
  84 H :   -0.044034
  85 H :   -0.001026
  86 H :   -0.013125
  87 H :    0.082483
  88 H :    0.091571
  89 H :   -0.000818
  90 H :    0.002253
  91 H :    0.090032
  92 H :    0.092606
  93 H :   -0.020474
  94 H :    0.041420
  95 H :   -0.012011
  96 H :   -0.040819
  97 H :   -0.038570
  98 H :   -0.022823
  99 H :   -0.008060
 100 H :   -0.003402
 101 H :    0.042377
 102 H :    0.050300
 103 H :    0.026513
 104 H :    0.029771
 105 H :    0.033531
 106 H :   -0.009188
 107 H :    0.030289
 108 H :    0.018185
 109 H :    0.023439
Sum of atomic charges:   -0.0000000

LOEWDIN ATOMIC CHARGES
----------------------
   0 C :    0.001063
   1 C :    0.034661
   2 C :   -0.024700
   3 C :   -0.031650
   4 N :   -0.011585
   5 C :   -0.028628
   6 C :   -0.031680
   7 N :   -0.014600
   8 C :    0.047365
   9 C :   -0.027756
  10 C :    0.089022
  11 O :   -0.132906
  12 C :   -0.112957
  13 C :    0.074917
  14 C :   -0.133126
  15 C :   -0.021957
  16 N :   -0.038994
  17 C :   -0.017429
  18 N :   -0.044929
  19 C :    0.093750
  20 C :   -0.088737
  21 C :   -0.118029
  22 C :   -0.049063
  23 C :   -0.042420
  24 S :    0.474982
  25 C :   -0.154695
  26 C :   -0.039382
  27 C :   -0.046776
  28 C :   -0.006672
  29 C :   -0.023146
  30 C :   -0.019260
  31 C :   -0.040714
  32 C :    0.028130
  33 N :   -0.122238
  34 C :    0.026158
  35 N :   -0.117022
  36 C :   -0.012933
  37 C :    0.078528
  38 C :   -0.029677
  39 C :   -0.040296
  40 C :   -0.016465
  41 C :   -0.040116
  42 C :   -0.028057
  43 C :   -0.004893
  44 C :   -0.042393
  45 C :   -0.005030
  46 C :   -0.025063
  47 C :   -0.072667
  48 C :   -0.128801
  49 C :   -0.045811
  50 C :   -0.062200
  51 S :    0.486623
  52 C :   -0.193096
  53 C :    0.010057
  54 C :    0.069320
  55 C :   -0.113119
  56 C :    0.083125
  57 O :   -0.132550
  58 C :   -0.030239
  59 C :    0.048853
  60 C :   -0.029877
  61 C :   -0.023408
  62 C :    0.031314
  63 C :    0.005473
  64 C :    0.056259
  65 C :   -0.129629
  66 C :   -0.037323
  67 N :   -0.035874
  68 C :   -0.023989
  69 N :   -0.036044
  70 C :   -0.031390
  71 N :   -0.011636
  72 C :   -0.032184
  73 N :   -0.014400
  74 H :    0.052402
  75 H :    0.053629
  76 H :    0.043046
  77 H :    0.033712
  78 H :    0.040655
  79 H :    0.025740
  80 H :    0.033223
  81 H :    0.022970
  82 H :    0.027777
  83 H :    0.025651
  84 H :    0.016880
  85 H :    0.000997
  86 H :    0.015880
  87 H :    0.047900
  88 H :    0.054965
  89 H :    0.003903
  90 H :    0.018298
  91 H :    0.051574
  92 H :    0.055759
  93 H :    0.025524
  94 H :    0.063878
  95 H :    0.023159
  96 H :    0.028285
  97 H :    0.027100
  98 H :    0.016071
  99 H :    0.020790
 100 H :    0.031073
 101 H :    0.043266
 102 H :    0.046634
 103 H :    0.023831
 104 H :    0.034266
 105 H :    0.027171
 106 H :    0.033834
 107 H :    0.053811
 108 H :    0.054548
 109 H :    0.052403

  Mayer bond orders larger than 0.100000
B(  0-C ,  1-C ) :   1.3544 B(  0-C ,  9-C ) :   1.3361 B(  0-C , 13-C ) :   0.9525
B(  1-C ,  2-C ) :   1.3957 B(  1-C , 74-H ) :   0.9845 B(  2-C ,  3-C ) :   1.0872
B(  2-C ,  5-C ) :   1.4019 B(  3-C ,  4-N ) :   3.0441 B(  5-C ,  6-C ) :   1.0862
B(  5-C ,  8-C ) :   1.3606 B(  6-C ,  7-N ) :   3.0442 B(  8-C ,  9-C ) :   1.3635
B(  8-C , 75-H ) :   1.0149 B(  9-C , 10-C ) :   0.9328 B( 10-C , 11-O ) :   2.1867
B( 10-C , 12-C ) :   0.9342 B( 12-C , 13-C ) :   1.0943 B( 12-C , 19-C ) :   1.5338
B( 13-C , 14-C ) :   1.6278 B( 14-C , 15-C ) :   1.1513 B( 14-C , 17-C ) :   1.1496
B( 15-C , 16-N ) :   2.9578 B( 17-C , 18-N ) :   2.9499 B( 19-C , 20-C ) :   1.2005
B( 19-C , 76-H ) :   0.9225 B( 20-C , 21-C ) :   1.3740 B( 20-C , 26-C ) :   1.1807
B( 21-C , 22-C ) :   1.0711 B( 21-C , 24-S ) :   1.2351 B( 22-C , 23-C ) :   1.0927
B( 22-C , 77-H ) :   0.9140 B( 22-C , 78-H ) :   0.9064 B( 23-C , 79-H ) :   0.9665
B( 23-C , 80-H ) :   0.9672 B( 23-C , 81-H ) :   0.9731 B( 24-S , 25-C ) :   1.0720
B( 25-C , 26-C ) :   1.5866 B( 25-C , 27-C ) :   1.0306 B( 26-C , 82-H ) :   0.9794
B( 27-C , 28-C ) :   1.5584 B( 27-C , 44-C ) :   1.1086 B( 28-C , 29-C ) :   1.1234
B( 28-C , 83-H ) :   0.9932 B( 29-C , 30-C ) :   1.4838 B( 29-C , 42-C ) :   1.1209
B( 30-C , 31-C ) :   0.9957 B( 30-C , 36-C ) :   1.1193 B( 31-C , 32-C ) :   1.0346
B( 31-C , 34-C ) :   1.0309 B( 31-C , 84-H ) :   0.8956 B( 32-C , 33-N ) :   1.0866
B( 32-C , 85-H ) :   0.9389 B( 32-C , 86-H ) :   0.9348 B( 33-N , 87-H ) :   0.9724
B( 33-N , 88-H ) :   0.9695 B( 34-C , 35-N ) :   1.0733 B( 34-C , 89-H ) :   0.9536
B( 34-C , 90-H ) :   0.9282 B( 35-N , 91-H ) :   0.9713 B( 35-N , 92-H ) :   0.9679
B( 36-C , 37-C ) :   1.6896 B( 36-C , 41-C ) :   1.0507 B( 37-C , 38-C ) :   0.9682
B( 37-C , 93-H ) :   0.9572 B( 38-C , 39-C ) :   1.0038 B( 38-C , 45-C ) :   0.9485
B( 38-C , 94-H ) :   0.8457 B( 39-C , 40-C ) :   1.7065 B( 39-C , 95-H ) :   0.9697
B( 40-C , 41-C ) :   1.1265 B( 40-C , 96-H ) :   0.9911 B( 41-C , 42-C ) :   1.4327
B( 42-C , 43-C ) :   1.1497 B( 43-C , 44-C ) :   1.6160 B( 43-C , 97-H ) :   0.9897
B( 44-C , 98-H ) :   0.9787 B( 45-C , 46-C ) :   1.8716 B( 45-C , 99-H ) :   0.9684
B( 46-C , 47-C ) :   1.0584 B( 46-C ,100-H ) :   0.9496 B( 47-C , 48-C ) :   1.4668
B( 47-C , 53-C ) :   1.2555 B( 48-C , 49-C ) :   1.0807 B( 48-C , 51-S ) :   1.1867
B( 49-C , 50-C ) :   1.1109 B( 49-C ,101-H ) :   0.9194 B( 49-C ,102-H ) :   0.9203
B( 50-C ,103-H ) :   0.9644 B( 50-C ,104-H ) :   0.9619 B( 50-C ,105-H ) :   0.9659
B( 51-S , 52-C ) :   1.0859 B( 52-C , 53-C ) :   1.4379 B( 52-C , 54-C ) :   1.1634
B( 53-C ,106-H ) :   0.9993 B( 54-C , 55-C ) :   1.6027 B( 54-C ,107-H ) :   0.9497
B( 55-C , 56-C ) :   0.9543 B( 55-C , 64-C ) :   1.0426 B( 56-C , 57-O ) :   2.2774
B( 56-C , 58-C ) :   0.9002 B( 58-C , 59-C ) :   1.3752 B( 58-C , 63-C ) :   1.3344
B( 59-C , 60-C ) :   1.3656 B( 59-C ,108-H ) :   1.0131 B( 60-C , 61-C ) :   1.4027
B( 60-C , 72-C ) :   1.0871 B( 61-C , 62-C ) :   1.3901 B( 61-C , 70-C ) :   1.0839
B( 62-C , 63-C ) :   1.3647 B( 62-C ,109-H ) :   0.9904 B( 63-C , 64-C ) :   0.9825
B( 64-C , 65-C ) :   1.6686 B( 65-C , 66-C ) :   1.1523 B( 65-C , 68-C ) :   1.1340
B( 66-C , 67-N ) :   3.0282 B( 68-C , 69-N ) :   2.9846 B( 70-C , 71-N ) :   3.0443
B( 72-C , 73-N ) :   3.0425

-----------------------------------------------------------------------------
         ABSORPTION SPECTRUM VIA TRANSITION ELECTRIC DIPOLE MOMENTS
-----------------------------------------------------------------------------
State   Energy  Wavelength   fosc         T2         TX        TY        TZ
        (cm-1)    (nm)                  (au**2)     (au)      (au)      (au)
-----------------------------------------------------------------------------
   0   12938.1    772.9   0.009398259   0.23914   0.26690  -0.05553   0.40598
   1   14470.9    691.0   0.015344964   0.34910   0.49094   0.32524  -0.04785
   2   14572.6    686.2   0.041289636   0.93278  -0.82130  -0.33608  -0.38117
   3   15632.4    639.7   0.008253233   0.17381   0.40631   0.08207  -0.04454
   4   19886.6    502.9   0.000734898   0.01217  -0.00911   0.08739   0.06668
   5   20533.1    487.0   0.297881640   4.77601  -0.20217  -1.43915   1.63218
   6   22401.7    446.4   0.395839308   5.81719   1.53486   0.34831   1.82759
   7   25217.4    396.6   0.141716006   1.85010   1.22129   0.20593   0.56226
   8   25759.2    388.2   0.252701740   3.22962  -0.58633  -0.30289   1.67156
   9   26957.2    371.0   0.080066125   0.97780   0.73745   0.03901  -0.65760
  10   27652.9    361.6   0.522380791   6.21901   1.25377   0.30172   2.13449
  11   27782.3    359.9   0.005801220   0.06874   0.15074   0.16436   0.13787
  12   28169.5    355.0   0.099257426   1.16000  -0.04798   0.96550  -0.47487
  13   28571.9    350.0   0.063134315   0.72745  -0.14766   0.72469  -0.42482
  14   28862.2    346.5   0.018558619   0.21169   0.38336   0.03865   0.25145
  15   29053.7    344.2   0.027382637   0.31028  -0.47634  -0.19177  -0.21586
  16   29437.7    339.7   0.042863907   0.47936  -0.25123   0.32506  -0.55730
  17   29490.8    339.1   0.015664326   0.17486   0.30427   0.28348  -0.04384
  18   30250.1    330.6   0.150105253   1.63360  -0.54076  -0.33229  -1.10940
  19   30368.4    329.3   0.001444320   0.01566   0.02003  -0.01631  -0.12243
  20   30490.7    328.0   0.069328673   0.74855  -0.15487  -0.17346  -0.83335
  21   30781.9    324.9   0.202331684   2.16393  -0.48961   0.10988   1.38280
  22   30933.5    323.3   0.170482259   1.81437   0.05795  -0.10475   1.34166
  23   31232.5    320.2   0.010523816   0.11093  -0.29623   0.15210   0.00672
  24   31843.9    314.0   0.078620019   0.81280   0.18049   0.13508   0.87291
  25   32088.0    311.6   0.003204492   0.03288   0.09213  -0.14039   0.06841
  26   32195.0    310.6   0.431261328   4.40989   0.49366   0.50707   1.97714
  27   32440.3    308.3   0.017447265   0.17706  -0.02382  -0.00055   0.42011
  28   32641.6    306.4   0.001269885   0.01281   0.02139   0.06733  -0.08842
  29   33018.8    302.9   0.083403955   0.83157  -0.73477  -0.18391  -0.50780
  30   33322.2    300.1   0.459805456   4.54272  -1.43899  -0.00749   1.57226
  31   33451.9    298.9   0.009990983   0.09832  -0.21583   0.14375  -0.17629
  32   33614.3    297.5   0.023311216   0.22831  -0.24285  -0.06601   0.40617
  33   34114.1    293.1   0.325124576   3.13756   0.08015  -0.23267   1.75414
  34   34193.7    292.5   0.031678665   0.30500   0.31475  -0.11112  -0.43998
  35   34417.5    290.5   0.000661895   0.00633  -0.02420  -0.02973   0.06972
  36   34470.1    290.1   0.006230538   0.05951  -0.20862  -0.07638  -0.10073
  37   34716.5    288.0   0.758496462   7.19271  -1.76095  -0.08142   2.02117
  38   34812.6    287.3   0.317437924   3.00192   0.07898   0.45927   1.66876
  39   35456.7    282.0   0.000213962   0.00199   0.03028   0.00037  -0.03270
  40   35487.8    281.8   0.060584283   0.56203  -0.55868  -0.03603   0.49860
  41   35643.1    280.6   0.031920838   0.29483  -0.39827  -0.08377   0.35944
  42   36678.7    272.6   0.096682249   0.86778   0.10290   0.28684   0.88029
  43   36833.6    271.5   0.000764191   0.00683  -0.00950  -0.06419  -0.05118
  44   36921.1    270.8   0.001017243   0.00907   0.03911   0.03975  -0.07721
  45   37617.9    265.8   0.133818816   1.17111   0.74156  -0.76903   0.17258
  46   37715.7    265.1   0.007858450   0.06859   0.20629   0.12979   0.09588
  47   37822.8    264.4   0.313075244   2.72502  -1.19964  -0.31252  -1.09006
  48   37955.1    263.5   0.003638857   0.03156  -0.02237   0.02297  -0.17474
  49   38358.7    260.7   0.010163781   0.08723  -0.26403   0.04259   0.12531
  50   38567.7    259.3   0.060293990   0.51467   0.70499  -0.02357  -0.13077
  51   39544.9    252.9   0.023672251   0.19707  -0.16246   0.01821  -0.41273
  52   39621.1    252.4   0.030965654   0.25729   0.01743   0.01792  -0.50663
  53   39631.4    252.3   0.185351158   1.53968  -0.25390  -0.34082   1.16579
  54   39798.0    251.3   0.024091995   0.19929  -0.11893   0.39322  -0.17471
  55   39947.9    250.3   0.396832915   3.27031  -0.34543  -0.56810  -1.68174

FINAL SINGLE POINT ENERGY     -3798.099965469334

DIPOLE MOMENT
-------------
                                X             Y             Z
Electronic contribution:    -19.80606     -25.06745      26.77909
Nuclear contribution   :     22.60279      27.75457     -26.98595
                        -----------------------------------------
Total Dipole Moment    :      2.79673       2.68712      -0.20687
                        -----------------------------------------
Magnitude (a.u.)       :      3.88396
Magnitude (Debye)      :      9.87224

Rotational constants in cm-1:     0.001726     0.000220     0.000208
Rotational constants in MHz :    51.746890     6.588277     6.248618

                             ****ORCA TERMINATED NORMALLY****
TOTAL RUN TIME: 0 days 0 hours 12 minutes 1 seconds 707 msec
