                         Program Version 4.2.0 -  RELEASE  -
|  1> # ORCA input file
|  2> # SCF done       -196.691084733739          0.000688660607
|  3> ! CAM-B3LYP def2-SVP def2/J RIJCOSX Grid4 TightSCF
|  4> %maxcore 5000
|  5> %tddft
|  6>     Mode sTDDFT
|  7>     Ethresh 5.0
|  8>     maxcore 5000
|  9> end
| 10>
| 11> %pal
| 12>   nprocs 6
| 13>   end
| 14> * xyz 0 1
| 15>    C       -9.13902         6.00826         3.47900
| 16>    C       -8.70413         6.34296         4.74971
| 17>    C       -9.43786         7.28408         5.47602
| 18>    C       -9.00515         7.65058         6.77396
| 19>    N       -8.64604         7.94311         7.82129
| 20>    C      -10.59592         7.87780         4.94011
| 21>    C      -11.32149         8.82533         5.69968
| 22>    N      -11.92395         9.59522         6.29683
| 23>    C      -11.02767         7.53675         3.65569
| 24>    C      -10.29296         6.61184         2.94826
| 25>    C      -10.52943         6.11379         1.56542
| 26>    O      -11.40869         6.49876         0.82755
| 27>    C       -9.42492         5.17137         1.30397
| 28>    C       -8.61344         5.07018         2.48842
| 29>    C       -7.58821         4.17787         2.71100
| 30>    C       -6.80388         4.14212         3.87965
| 31>    N       -6.11710         4.07527         4.79784
| 32>    C       -7.22733         3.15095         1.82170
| 33>    N       -6.91806         2.26603         1.15503
| 34>    C       -9.08523         4.60065         0.09222
| 35>    C       -9.84994         4.50164        -1.07014
| 36>    O      -11.17456         4.81962        -1.07951
| 37>    C      -11.61965         4.71963        -2.32274
| 38>    C      -10.63631         4.32905        -3.17955
| 39>    C       -9.47023         4.14998        -2.39011
| 40>    N       -8.28115         3.76463        -2.91217
| 41>    C       -7.15999         3.25933        -2.30198
| 42>    C       -6.00433         3.12049        -2.97968
| 43>    C       -4.76949         2.56694        -2.48890
| 44>    C       -3.63939         2.68199        -3.26877
| 45>    C       -2.41150         2.14810        -2.83180
| 46>    C       -1.15730         2.13442        -3.42527
| 47>    C       -0.79525         2.74663        -4.73548
| 48>    C        0.42795         3.69283        -4.63181
| 49>    N        0.50356         4.70067        -5.66603
| 50>    C       -0.57719         1.66054        -5.80372
| 51>    N       -1.86219         1.08750        -6.16434
| 52>    C       -0.28495         1.39790        -2.53726
| 53>    C        1.01424         1.06071        -2.62666
| 54>    C        1.70312         0.28633        -1.55043
| 55>    C        0.82125        -0.13196        -0.42039
| 56>    C       -0.47890         0.20347        -0.34802
| 57>    C       -1.07904         0.97646        -1.37160
| 58>    C       -2.36204         1.44322        -1.55721
| 59>    C       -3.53738         1.34573        -0.77446
| 60>    C       -4.69310         1.89386        -1.22231
| 61>    C        2.88789         1.10962        -1.10647
| 62>    C        3.00941         1.66247         0.10232
| 63>    C        4.14576         2.43521         0.51433
| 64>    O        5.12689         2.74612        -0.36409
| 65>    C        6.06814         3.43010         0.29757
| 66>    C        5.73898         3.58274         1.60795
| 67>    C        4.48266         2.93777         1.76519
| 68>    N        3.73424         2.80476         2.91417
| 69>    C        4.17004         3.02687         4.15959
| 70>    C        3.39547         2.84394         5.27200
| 71>    C        3.80784         3.03647         6.59566
| 72>    C        5.05805         3.17082         7.16080
| 73>    C        5.13195         3.78152         8.50687
| 74>    O        4.20973         4.04872         9.24435
| 75>    C        6.57309         4.03576         8.75047
| 76>    C        7.16952         4.67248         9.81634
| 77>    C        8.55829         4.82159         9.80052
| 78>    C        9.30757         4.33534         8.71312
| 79>    C        8.69133         3.67978         7.64402
| 80>    C        7.31698         3.52484         7.67075
| 81>    C        6.39638         2.86455         6.73619
| 82>    C        6.80102         1.93539         5.80385
| 83>    C        5.92229         1.11009         5.08240
| 84>    N        5.24117         0.41619         4.46996
| 85>    C        8.14547         1.65309         5.49403
| 86>    N        9.21930         1.40113         5.17393
| 87>    C       10.71238         4.51550         8.69840
| 88>    N       11.84796         4.66100         8.67278
| 89>    C        9.21280         5.46731        10.87625
| 90>    N        9.72529         5.99237        11.75574
| 91>    H       -7.82022         5.91017         5.19075
| 92>    H      -11.91192         7.98553         3.22918
| 93>    H       -8.08170         4.21289         0.01340
| 94>    H      -12.65556         4.94061        -2.49217
| 95>    H      -10.72117         4.16936        -4.23477
| 96>    H       -8.22713         3.82609        -3.92229
| 97>    H       -7.27090         2.94762        -1.27720
| 98>    H       -5.97434         3.47459        -4.00485
| 99>    H       -3.69332         3.18290        -4.22514
|100>    H       -1.64835         3.34728        -5.07113
|101>    H        1.35369         3.11493        -4.67760
|102>    H        0.39713         4.20966        -3.66860
|103>    H        0.53224         4.27283        -6.58538
|104>    H       -0.30744         5.30906        -5.63259
|105>    H        0.14593         0.91882        -5.42441
|106>    H       -0.15561         2.11068        -6.70880
|107>    H       -2.29895         0.67801        -5.34414
|108>    H       -1.74703         0.35488        -6.85581
|109>    H        1.62975         1.35041        -3.46590
|110>    H        2.11865        -0.62324        -2.01590
|111>    H        1.28908        -0.73630         0.34235
|112>    H       -1.08842        -0.12197         0.48269
|113>    H       -3.50450         0.83245         0.17493
|114>    H       -5.58258         1.81307        -0.62099
|115>    H        3.66154         1.26197        -1.84533
|116>    H        2.23701         1.52069         0.84487
|117>    H        6.92257         3.75732        -0.26028
|118>    H        6.31364         4.09293         2.35202
|119>    H        2.82669         2.36780         2.80957
|120>    H        5.16760         3.43175         4.24212
|121>    H        2.35874         2.57124         5.12503
|122>    H        3.00716         3.16041         7.31954
|123>    H        6.57995         5.04517        10.64006
|124>    H        9.29889         3.32228         6.82780
|125> *
|126>
|127>                          ****END OF INPUT****

CARTESIAN COORDINATES (ANGSTROEM)
---------------------------------
  C     -9.139020    6.008260    3.479000
  C     -8.704130    6.342960    4.749710
  C     -9.437860    7.284080    5.476020
  C     -9.005150    7.650580    6.773960
  N     -8.646040    7.943110    7.821290
  C    -10.595920    7.877800    4.940110
  C    -11.321490    8.825330    5.699680
  N    -11.923950    9.595220    6.296830
  C    -11.027670    7.536750    3.655690
  C    -10.292960    6.611840    2.948260
  C    -10.529430    6.113790    1.565420
  O    -11.408690    6.498760    0.827550
  C     -9.424920    5.171370    1.303970
  C     -8.613440    5.070180    2.488420
  C     -7.588210    4.177870    2.711000
  C     -6.803880    4.142120    3.879650
  N     -6.117100    4.075270    4.797840
  C     -7.227330    3.150950    1.821700
  N     -6.918060    2.266030    1.155030
  C     -9.085230    4.600650    0.092220
  C     -9.849940    4.501640   -1.070140
  O    -11.174560    4.819620   -1.079510
  C    -11.619650    4.719630   -2.322740
  C    -10.636310    4.329050   -3.179550
  C     -9.470230    4.149980   -2.390110
  N     -8.281150    3.764630   -2.912170
  C     -7.159990    3.259330   -2.301980
  C     -6.004330    3.120490   -2.979680
  C     -4.769490    2.566940   -2.488900
  C     -3.639390    2.681990   -3.268770
  C     -2.411500    2.148100   -2.831800
  C     -1.157300    2.134420   -3.425270
  C     -0.795250    2.746630   -4.735480
  C      0.427950    3.692830   -4.631810
  N      0.503560    4.700670   -5.666030
  C     -0.577190    1.660540   -5.803720
  N     -1.862190    1.087500   -6.164340
  C     -0.284950    1.397900   -2.537260
  C      1.014240    1.060710   -2.626660
  C      1.703120    0.286330   -1.550430
  C      0.821250   -0.131960   -0.420390
  C     -0.478900    0.203470   -0.348020
  C     -1.079040    0.976460   -1.371600
  C     -2.362040    1.443220   -1.557210
  C     -3.537380    1.345730   -0.774460
  C     -4.693100    1.893860   -1.222310
  C      2.887890    1.109620   -1.106470
  C      3.009410    1.662470    0.102320
  C      4.145760    2.435210    0.514330
  O      5.126890    2.746120   -0.364090
  C      6.068140    3.430100    0.297570
  C      5.738980    3.582740    1.607950
  C      4.482660    2.937770    1.765190
  N      3.734240    2.804760    2.914170
  C      4.170040    3.026870    4.159590
  C      3.395470    2.843940    5.272000
  C      3.807840    3.036470    6.595660
  C      5.058050    3.170820    7.160800
  C      5.131950    3.781520    8.506870
  O      4.209730    4.048720    9.244350
  C      6.573090    4.035760    8.750470
  C      7.169520    4.672480    9.816340
  C      8.558290    4.821590    9.800520
  C      9.307570    4.335340    8.713120
  C      8.691330    3.679780    7.644020
  C      7.316980    3.524840    7.670750
  C      6.396380    2.864550    6.736190
  C      6.801020    1.935390    5.803850
  C      5.922290    1.110090    5.082400
  N      5.241170    0.416190    4.469960
  C      8.145470    1.653090    5.494030
  N      9.219300    1.401130    5.173930
  C     10.712380    4.515500    8.698400
  N     11.847960    4.661000    8.672780
  C      9.212800    5.467310   10.876250
  N      9.725290    5.992370   11.755740
  H     -7.820220    5.910170    5.190750
  H    -11.911920    7.985530    3.229180
  H     -8.081700    4.212890    0.013400
  H    -12.655560    4.940610   -2.492170
  H    -10.721170    4.169360   -4.234770
  H     -8.227130    3.826090   -3.922290
  H     -7.270900    2.947620   -1.277200
  H     -5.974340    3.474590   -4.004850
  H     -3.693320    3.182900   -4.225140
  H     -1.648350    3.347280   -5.071130
  H      1.353690    3.114930   -4.677600
  H      0.397130    4.209660   -3.668600
  H      0.532240    4.272830   -6.585380
  H     -0.307440    5.309060   -5.632590
  H      0.145930    0.918820   -5.424410
  H     -0.155610    2.110680   -6.708800
  H     -2.298950    0.678010   -5.344140
  H     -1.747030    0.354880   -6.855810
  H      1.629750    1.350410   -3.465900
  H      2.118650   -0.623240   -2.015900
  H      1.289080   -0.736300    0.342350
  H     -1.088420   -0.121970    0.482690
  H     -3.504500    0.832450    0.174930
  H     -5.582580    1.813070   -0.620990
  H      3.661540    1.261970   -1.845330
  H      2.237010    1.520690    0.844870
  H      6.922570    3.757320   -0.260280
  H      6.313640    4.092930    2.352020
  H      2.826690    2.367800    2.809570
  H      5.167600    3.431750    4.242120
  H      2.358740    2.571240    5.125030
  H      3.007160    3.160410    7.319540
  H      6.579950    5.045170   10.640060
  H      9.298890    3.322280    6.827800

 Total Charge           Charge          ....    0
 Multiplicity           Mult            ....    1
 Number of Electrons    NEL             ....  510
 Basis Dimension        Dim             .... 1234

ORBITAL ENERGIES
----------------

  NO   OCC          E(Eh)            E(eV)
   0   2.0000     -19.312240      -525.5128
   1   2.0000     -19.309198      -525.4300
   2   2.0000     -19.221535      -523.0446
   3   2.0000     -19.219901      -523.0001
   4   2.0000     -14.500509      -394.5789
   5   2.0000     -14.491645      -394.3377
   6   2.0000     -14.432930      -392.7400
   7   2.0000     -14.426031      -392.5523
   8   2.0000     -14.423476      -392.4827
   9   2.0000     -14.422901      -392.4671
  10   2.0000     -14.421753      -392.4359
  11   2.0000     -14.420641      -392.4056
  12   2.0000     -14.420330      -392.3971
  13   2.0000     -14.420144      -392.3921
  14   2.0000     -14.382617      -391.3709
  15   2.0000     -14.381933      -391.3523
  16   2.0000     -10.376662      -282.3633
  17   2.0000     -10.371765      -282.2301
  18   2.0000     -10.371365      -282.2192
  19   2.0000     -10.370081      -282.1843
  20   2.0000     -10.369021      -282.1554
  21   2.0000     -10.359273      -281.8901
  22   2.0000     -10.353085      -281.7218
  23   2.0000     -10.352643      -281.7097
  24   2.0000     -10.352208      -281.6979
  25   2.0000     -10.351496      -281.6785
  26   2.0000     -10.350725      -281.6575
  27   2.0000     -10.350512      -281.6518
  28   2.0000     -10.349701      -281.6297
  29   2.0000     -10.347419      -281.5676
  30   2.0000     -10.346648      -281.5466
  31   2.0000     -10.346382      -281.5394
  32   2.0000     -10.339555      -281.3536
  33   2.0000     -10.338491      -281.3246
  34   2.0000     -10.336371      -281.2669
  35   2.0000     -10.331632      -281.1380
  36   2.0000     -10.330794      -281.1152
  37   2.0000     -10.329230      -281.0727
  38   2.0000     -10.327517      -281.0260
  39   2.0000     -10.326686      -281.0034
  40   2.0000     -10.326270      -280.9921
  41   2.0000     -10.325669      -280.9757
  42   2.0000     -10.324297      -280.9384
  43   2.0000     -10.323802      -280.9249
  44   2.0000     -10.323775      -280.9242
  45   2.0000     -10.323238      -280.9096
  46   2.0000     -10.320292      -280.8294
  47   2.0000     -10.318464      -280.7797
  48   2.0000     -10.317540      -280.7545
  49   2.0000     -10.316910      -280.7374
  50   2.0000     -10.315822      -280.7078
  51   2.0000     -10.313598      -280.6473
  52   2.0000     -10.308651      -280.5127
  53   2.0000     -10.305279      -280.4209
  54   2.0000     -10.303948      -280.3847
  55   2.0000     -10.303206      -280.3645
  56   2.0000     -10.298734      -280.2428
  57   2.0000     -10.296929      -280.1937
  58   2.0000     -10.294580      -280.1298
  59   2.0000     -10.293525      -280.1011
  60   2.0000     -10.292566      -280.0750
  61   2.0000     -10.289639      -279.9953
  62   2.0000     -10.288599      -279.9670
  63   2.0000     -10.286960      -279.9224
  64   2.0000     -10.284928      -279.8671
  65   2.0000     -10.280282      -279.7407
  66   2.0000     -10.279999      -279.7330
  67   2.0000     -10.276319      -279.6329
  68   2.0000     -10.272128      -279.5188
  69   2.0000     -10.270302      -279.4691
  70   2.0000     -10.268733      -279.4264
  71   2.0000     -10.267462      -279.3918
  72   2.0000     -10.267164      -279.3837
  73   2.0000     -10.266519      -279.3662
  74   2.0000     -10.265715      -279.3443
  75   2.0000     -10.264289      -279.3055
  76   2.0000      -1.241296       -33.7774
  77   2.0000      -1.229768       -33.4637
  78   2.0000      -1.137589       -30.9554
  79   2.0000      -1.135318       -30.8936
  80   2.0000      -1.097614       -29.8676
  81   2.0000      -1.088963       -29.6322
  82   2.0000      -1.036316       -28.1996
  83   2.0000      -1.032830       -28.1047
  84   2.0000      -1.025031       -27.8925
  85   2.0000      -1.020375       -27.7658
  86   2.0000      -1.008092       -27.4316
  87   2.0000      -1.003516       -27.3071
  88   2.0000      -1.003453       -27.3053
  89   2.0000      -1.001822       -27.2610
  90   2.0000      -1.000550       -27.2264
  91   2.0000      -0.999775       -27.2053
  92   2.0000      -0.989440       -26.9240
  93   2.0000      -0.973518       -26.4908
  94   2.0000      -0.971280       -26.4299
  95   2.0000      -0.969319       -26.3765
  96   2.0000      -0.956601       -26.0304
  97   2.0000      -0.953631       -25.9496
  98   2.0000      -0.938290       -25.5322
  99   2.0000      -0.934863       -25.4389
 100   2.0000      -0.926482       -25.2108
 101   2.0000      -0.921069       -25.0636
 102   2.0000      -0.918703       -24.9992
 103   2.0000      -0.915601       -24.9148
 104   2.0000      -0.906253       -24.6604
 105   2.0000      -0.901416       -24.5288
 106   2.0000      -0.897308       -24.4170
 107   2.0000      -0.894467       -24.3397
 108   2.0000      -0.879252       -23.9257
 109   2.0000      -0.870597       -23.6902
 110   2.0000      -0.865238       -23.5443
 111   2.0000      -0.859266       -23.3818
 112   2.0000      -0.842112       -22.9150
 113   2.0000      -0.836335       -22.7578
 114   2.0000      -0.831711       -22.6320
 115   2.0000      -0.815920       -22.2023
 116   2.0000      -0.810866       -22.0648
 117   2.0000      -0.801253       -21.8032
 118   2.0000      -0.798602       -21.7311
 119   2.0000      -0.794941       -21.6314
 120   2.0000      -0.764830       -20.8121
 121   2.0000      -0.761152       -20.7120
 122   2.0000      -0.756979       -20.5984
 123   2.0000      -0.749029       -20.3821
 124   2.0000      -0.746925       -20.3249
 125   2.0000      -0.743543       -20.2328
 126   2.0000      -0.729492       -19.8505
 127   2.0000      -0.728459       -19.8224
 128   2.0000      -0.727074       -19.7847
 129   2.0000      -0.715518       -19.4702
 130   2.0000      -0.709275       -19.3003
 131   2.0000      -0.705846       -19.2070
 132   2.0000      -0.701868       -19.0988
 133   2.0000      -0.699904       -19.0454
 134   2.0000      -0.686429       -18.6787
 135   2.0000      -0.684268       -18.6199
 136   2.0000      -0.679821       -18.4989
 137   2.0000      -0.675042       -18.3688
 138   2.0000      -0.672614       -18.3028
 139   2.0000      -0.664501       -18.0820
 140   2.0000      -0.663893       -18.0655
 141   2.0000      -0.653760       -17.7897
 142   2.0000      -0.648842       -17.6559
 143   2.0000      -0.646380       -17.5889
 144   2.0000      -0.645176       -17.5561
 145   2.0000      -0.636054       -17.3079
 146   2.0000      -0.625648       -17.0248
 147   2.0000      -0.622721       -16.9451
 148   2.0000      -0.607391       -16.5279
 149   2.0000      -0.607311       -16.5258
 150   2.0000      -0.599922       -16.3247
 151   2.0000      -0.597842       -16.2681
 152   2.0000      -0.596485       -16.2312
 153   2.0000      -0.591935       -16.1074
 154   2.0000      -0.589931       -16.0528
 155   2.0000      -0.587608       -15.9896
 156   2.0000      -0.586060       -15.9475
 157   2.0000      -0.579466       -15.7681
 158   2.0000      -0.578930       -15.7535
 159   2.0000      -0.577006       -15.7011
 160   2.0000      -0.570049       -15.5118
 161   2.0000      -0.569309       -15.4917
 162   2.0000      -0.561204       -15.2711
 163   2.0000      -0.561026       -15.2663
 164   2.0000      -0.559531       -15.2256
 165   2.0000      -0.557668       -15.1749
 166   2.0000      -0.556615       -15.1463
 167   2.0000      -0.553076       -15.0500
 168   2.0000      -0.549562       -14.9544
 169   2.0000      -0.548742       -14.9320
 170   2.0000      -0.547855       -14.9079
 171   2.0000      -0.543153       -14.7799
 172   2.0000      -0.539598       -14.6832
 173   2.0000      -0.536094       -14.5879
 174   2.0000      -0.530554       -14.4371
 175   2.0000      -0.526898       -14.3376
 176   2.0000      -0.526604       -14.3296
 177   2.0000      -0.522733       -14.2243
 178   2.0000      -0.521379       -14.1874
 179   2.0000      -0.518916       -14.1204
 180   2.0000      -0.518804       -14.1174
 181   2.0000      -0.516574       -14.0567
 182   2.0000      -0.513629       -13.9766
 183   2.0000      -0.512082       -13.9345
 184   2.0000      -0.510040       -13.8789
 185   2.0000      -0.508693       -13.8422
 186   2.0000      -0.506843       -13.7919
 187   2.0000      -0.502760       -13.6808
 188   2.0000      -0.501924       -13.6580
 189   2.0000      -0.499969       -13.6048
 190   2.0000      -0.498921       -13.5763
 191   2.0000      -0.495374       -13.4798
 192   2.0000      -0.491427       -13.3724
 193   2.0000      -0.483685       -13.1617
 194   2.0000      -0.483233       -13.1494
 195   2.0000      -0.481710       -13.1080
 196   2.0000      -0.477527       -12.9942
 197   2.0000      -0.474459       -12.9107
 198   2.0000      -0.472468       -12.8565
 199   2.0000      -0.471230       -12.8228
 200   2.0000      -0.466303       -12.6888
 201   2.0000      -0.465300       -12.6615
 202   2.0000      -0.463437       -12.6108
 203   2.0000      -0.459029       -12.4908
 204   2.0000      -0.455651       -12.3989
 205   2.0000      -0.454348       -12.3634
 206   2.0000      -0.452801       -12.3214
 207   2.0000      -0.452360       -12.3093
 208   2.0000      -0.450986       -12.2720
 209   2.0000      -0.449489       -12.2312
 210   2.0000      -0.447019       -12.1640
 211   2.0000      -0.446804       -12.1582
 212   2.0000      -0.446247       -12.1430
 213   2.0000      -0.444939       -12.1074
 214   2.0000      -0.444697       -12.1008
 215   2.0000      -0.443085       -12.0570
 216   2.0000      -0.442604       -12.0439
 217   2.0000      -0.441706       -12.0194
 218   2.0000      -0.439931       -11.9711
 219   2.0000      -0.434248       -11.8165
 220   2.0000      -0.432699       -11.7743
 221   2.0000      -0.431285       -11.7359
 222   2.0000      -0.430515       -11.7149
 223   2.0000      -0.429660       -11.6917
 224   2.0000      -0.429281       -11.6813
 225   2.0000      -0.424991       -11.5646
 226   2.0000      -0.423912       -11.5352
 227   2.0000      -0.422710       -11.5025
 228   2.0000      -0.420524       -11.4430
 229   2.0000      -0.419093       -11.4041
 230   2.0000      -0.413761       -11.2590
 231   2.0000      -0.410496       -11.1702
 232   2.0000      -0.399598       -10.8736
 233   2.0000      -0.396582       -10.7915
 234   2.0000      -0.390262       -10.6196
 235   2.0000      -0.388164       -10.5625
 236   2.0000      -0.386444       -10.5157
 237   2.0000      -0.384766       -10.4700
 238   2.0000      -0.373565       -10.1652
 239   2.0000      -0.362674        -9.8689
 240   2.0000      -0.361025        -9.8240
 241   2.0000      -0.357958        -9.7405
 242   2.0000      -0.348926        -9.4948
 243   2.0000      -0.345345        -9.3973
 244   2.0000      -0.342297        -9.3144
 245   2.0000      -0.335068        -9.1177
 246   2.0000      -0.331093        -9.0095
 247   2.0000      -0.329505        -8.9663
 248   2.0000      -0.308649        -8.3988
 249   2.0000      -0.305783        -8.3208
 250   2.0000      -0.302929        -8.2431
 251   2.0000      -0.298217        -8.1149
 252   2.0000      -0.269194        -7.3251
 253   2.0000      -0.264747        -7.2041
 254   2.0000      -0.226229        -6.1560
 255   0.0000      -0.105436        -2.8691
 256   0.0000      -0.097256        -2.6465
 257   0.0000      -0.085984        -2.3397
 258   0.0000      -0.078728        -2.1423
 259   0.0000      -0.070257        -1.9118

MULLIKEN ATOMIC CHARGES
-----------------------
   0 C :    0.047408
   1 C :   -0.041077
   2 C :   -0.065632
   3 C :   -0.174523
   4 N :    0.199511
   5 C :   -0.067535
   6 C :   -0.174225
   7 N :    0.191834
   8 C :   -0.037657
   9 C :   -0.012792
  10 C :    0.146305
  11 O :   -0.127582
  12 C :   -0.110071
  13 C :    0.302585
  14 C :   -0.352223
  15 C :   -0.185339
  16 N :    0.156738
  17 C :   -0.171894
  18 N :    0.135237
  19 C :   -0.060208
  20 C :    0.072688
  21 O :   -0.155893
  22 C :    0.201139
  23 C :   -0.070251
  24 C :    0.095624
  25 N :    0.000627
  26 C :    0.044193
  27 C :   -0.017203
  28 C :    0.125170
  29 C :   -0.113893
  30 C :    0.054137
  31 C :   -0.070331
  32 C :   -0.037203
  33 C :    0.128153
  34 N :   -0.204530
  35 C :    0.160237
  36 N :   -0.230111
  37 C :    0.098708
  38 C :   -0.127735
  39 C :    0.185629
  40 C :   -0.069998
  41 C :    0.016805
  42 C :    0.001941
  43 C :    0.039338
  44 C :   -0.003861
  45 C :   -0.016349
  46 C :   -0.109564
  47 C :   -0.012085
  48 C :    0.134602
  49 O :   -0.187885
  50 C :    0.165061
  51 C :   -0.078383
  52 C :    0.055435
  53 N :    0.017052
  54 C :    0.085791
  55 C :   -0.014498
  56 C :    0.046363
  57 C :   -0.159234
  58 C :    0.138136
  59 O :   -0.140386
  60 C :    0.014440
  61 C :   -0.039495
  62 C :   -0.071729
  63 C :   -0.061484
  64 C :   -0.045392
  65 C :    0.029268
  66 C :    0.282192
  67 C :   -0.366963
  68 C :   -0.200386
  69 N :    0.155848
  70 C :   -0.171178
  71 N :    0.155142
  72 C :   -0.175658
  73 N :    0.192056
  74 C :   -0.173337
  75 N :    0.194403
  76 H :    0.018227
  77 H :    0.011277
  78 H :    0.009420
  79 H :    0.036595
  80 H :   -0.009575
  81 H :    0.133645
  82 H :    0.037716
  83 H :   -0.029377
  84 H :   -0.041811
  85 H :   -0.035516
  86 H :   -0.008341
  87 H :    0.008914
  88 H :    0.085167
  89 H :    0.089269
  90 H :   -0.026039
  91 H :   -0.025254
  92 H :    0.098759
  93 H :    0.090182
  94 H :   -0.005372
  95 H :    0.038616
  96 H :   -0.004307
  97 H :   -0.033863
  98 H :   -0.035710
  99 H :   -0.029375
 100 H :    0.009372
 101 H :   -0.007757
 102 H :    0.023250
 103 H :   -0.006709
 104 H :    0.139148
 105 H :    0.043452
 106 H :   -0.004326
 107 H :    0.033336
 108 H :    0.014806
 109 H :    0.018159
Sum of atomic charges:   -0.0000000

LOEWDIN ATOMIC CHARGES
----------------------
   0 C :    0.000083
   1 C :    0.031995
   2 C :   -0.028727
   3 C :   -0.031317
   4 N :   -0.016816
   5 C :   -0.030581
   6 C :   -0.031194
   7 N :   -0.019012
   8 C :    0.043578
   9 C :   -0.024232
  10 C :    0.072344
  11 O :   -0.133930
  12 C :   -0.124410
  13 C :    0.075150
  14 C :   -0.154495
  15 C :   -0.024588
  16 N :   -0.051343
  17 C :   -0.001509
  18 N :   -0.063882
  19 C :    0.054134
  20 C :   -0.024598
  21 O :    0.042499
  22 C :    0.106448
  23 C :   -0.102438
  24 C :    0.041213
  25 N :    0.058541
  26 C :    0.011312
  27 C :   -0.047380
  28 C :   -0.025600
  29 C :   -0.021348
  30 C :   -0.023504
  31 C :   -0.041888
  32 C :   -0.052494
  33 C :    0.022260
  34 N :   -0.106007
  35 C :    0.026423
  36 N :   -0.122015
  37 C :   -0.017617
  38 C :    0.062700
  39 C :   -0.029542
  40 C :   -0.040500
  41 C :   -0.015229
  42 C :   -0.039346
  43 C :   -0.028452
  44 C :   -0.006578
  45 C :   -0.025026
  46 C :    0.003183
  47 C :   -0.049190
  48 C :    0.004684
  49 O :    0.026288
  50 C :    0.061653
  51 C :   -0.088404
  52 C :   -0.024591
  53 N :    0.090448
  54 C :    0.114798
  55 C :   -0.115339
  56 C :    0.083104
  57 C :   -0.138989
  58 C :    0.079201
  59 O :   -0.142208
  60 C :   -0.027753
  61 C :    0.045354
  62 C :   -0.032336
  63 C :   -0.027667
  64 C :    0.027317
  65 C :    0.004168
  66 C :    0.061116
  67 C :   -0.161118
  68 C :   -0.014395
  69 N :   -0.051611
  70 C :   -0.027129
  71 N :   -0.053600
  72 C :   -0.030747
  73 N :   -0.017884
  74 C :   -0.031666
  75 N :   -0.018976
  76 H :    0.051376
  77 H :    0.051888
  78 H :    0.046676
  79 H :    0.037303
  80 H :    0.035003
  81 H :    0.098531
  82 H :    0.029822
  83 H :    0.025555
  84 H :    0.022330
  85 H :    0.022150
  86 H :    0.013471
  87 H :    0.021628
  88 H :    0.047877
  89 H :    0.051943
  90 H :   -0.003506
  91 H :    0.006435
  92 H :    0.053339
  93 H :    0.054087
  94 H :    0.025737
  95 H :    0.060735
  96 H :    0.025425
  97 H :    0.030834
  98 H :    0.028832
  99 H :    0.021446
 100 H :    0.028670
 101 H :    0.029938
 102 H :    0.029860
 103 H :    0.033218
 104 H :    0.101354
 105 H :    0.039359
 106 H :    0.033749
 107 H :    0.050194
 108 H :    0.053374
 109 H :    0.050577

  Mayer bond orders larger than 0.100000
B(  0-C ,  1-C ) :   1.3622 B(  0-C ,  9-C ) :   1.3375 B(  0-C , 13-C ) :   0.9573
B(  1-C ,  2-C ) :   1.3827 B(  1-C , 76-H ) :   0.9877 B(  2-C ,  3-C ) :   1.0858
B(  2-C ,  5-C ) :   1.4119 B(  3-C ,  4-N ) :   3.0449 B(  5-C ,  6-C ) :   1.0878
B(  5-C ,  8-C ) :   1.3514 B(  6-C ,  7-N ) :   3.0435 B(  8-C ,  9-C ) :   1.3765
B(  8-C , 77-H ) :   1.0153 B(  9-C , 10-C ) :   0.9140 B( 10-C , 11-O ) :   2.2702
B( 10-C , 12-C ) :   0.9548 B( 12-C , 13-C ) :   1.1356 B( 12-C , 19-C ) :   1.4252
B( 13-C , 14-C ) :   1.5910 B( 14-C , 15-C ) :   1.1454 B( 14-C , 17-C ) :   1.1611
B( 15-C , 16-N ) :   2.9621 B( 17-C , 18-N ) :   2.9094 B( 19-C , 20-C ) :   1.3569
B( 19-C , 78-H ) :   0.9330 B( 20-C , 21-O ) :   1.1050 B( 20-C , 24-C ) :   1.2428
B( 21-O , 22-C ) :   1.2097 B( 22-C , 23-C ) :   1.4868 B( 22-C , 79-H ) :   1.0035
B( 23-C , 24-C ) :   1.2366 B( 23-C , 80-H ) :   1.0121 B( 24-C , 25-N ) :   1.2504
B( 25-N , 26-C ) :   1.0878 B( 25-N , 81-H ) :   0.9157 B( 26-C , 27-C ) :   1.6888
B( 26-C , 82-H ) :   0.9357 B( 27-C , 28-C ) :   1.1125 B( 27-C , 83-H ) :   0.9715
B( 28-C , 29-C ) :   1.5027 B( 28-C , 45-C ) :   1.1114 B( 29-C , 30-C ) :   1.1259
B( 29-C , 84-H ) :   1.0000 B( 30-C , 31-C ) :   1.4952 B( 30-C , 43-C ) :   1.1131
B( 31-C , 32-C ) :   1.0208 B( 31-C , 37-C ) :   1.0789 B( 32-C , 33-C ) :   1.0061
B( 32-C , 35-C ) :   1.0233 B( 32-C , 85-H ) :   0.8779 B( 33-C , 34-N ) :   1.1225
B( 33-C , 86-H ) :   0.9357 B( 33-C , 87-H ) :   0.9549 B( 34-N , 88-H ) :   0.9809
B( 34-N , 89-H ) :   0.9786 B( 35-C , 36-N ) :   1.0904 B( 35-C , 90-H ) :   0.9318
B( 35-C , 91-H ) :   0.9315 B( 36-N , 92-H ) :   0.9686 B( 36-N , 93-H ) :   0.9663
B( 37-C , 38-C ) :   1.6908 B( 37-C , 42-C ) :   1.0495 B( 38-C , 39-C ) :   0.9628
B( 38-C , 94-H ) :   0.9583 B( 39-C , 40-C ) :   1.0107 B( 39-C , 46-C ) :   0.9338
B( 39-C , 95-H ) :   0.8510 B( 40-C , 41-C ) :   1.7137 B( 40-C , 96-H ) :   0.9654
B( 41-C , 42-C ) :   1.1265 B( 41-C , 97-H ) :   0.9926 B( 42-C , 43-C ) :   1.4483
B( 43-C , 44-C ) :   1.1252 B( 44-C , 45-C ) :   1.6411 B( 44-C , 98-H ) :   0.9916
B( 45-C , 99-H ) :   0.9697 B( 46-C , 47-C ) :   1.8560 B( 46-C ,100-H ) :   0.9792
B( 47-C , 48-C ) :   1.0943 B( 47-C ,101-H ) :   0.9326 B( 48-C , 49-O ) :   1.1525
B( 48-C , 52-C ) :   1.4363 B( 49-O , 50-C ) :   1.1528 B( 50-C , 51-C ) :   1.5404
B( 50-C ,102-H ) :   1.0028 B( 51-C , 52-C ) :   1.2155 B( 51-C ,103-H ) :   1.0135
B( 52-C , 53-N ) :   1.1075 B( 53-N , 54-C ) :   1.3285 B( 53-N ,104-H ) :   0.9103
B( 54-C , 55-C ) :   1.4246 B( 54-C ,105-H ) :   0.9612 B( 55-C , 56-C ) :   1.3429
B( 55-C ,106-H ) :   0.9561 B( 56-C , 57-C ) :   1.4815 B( 56-C ,107-H ) :   0.9320
B( 57-C , 58-C ) :   0.9821 B( 57-C , 66-C ) :   1.1076 B( 58-C , 59-O ) :   2.2581
B( 58-C , 60-C ) :   0.8935 B( 60-C , 61-C ) :   1.3775 B( 60-C , 65-C ) :   1.3369
B( 61-C , 62-C ) :   1.3556 B( 61-C ,108-H ) :   1.0145 B( 62-C , 63-C ) :   1.4095
B( 62-C , 74-C ) :   1.0859 B( 63-C , 64-C ) :   1.3822 B( 63-C , 72-C ) :   1.0859
B( 64-C , 65-C ) :   1.3679 B( 64-C ,109-H ) :   0.9881 B( 65-C , 66-C ) :   0.9695
B( 66-C , 67-C ) :   1.5878 B( 67-C , 68-C ) :   1.1900 B( 67-C , 70-C ) :   1.1302
B( 68-C , 69-N ) :   2.9584 B( 70-C , 71-N ) :   2.9736 B( 72-C , 73-N ) :   3.0437
B( 74-C , 75-N ) :   3.0455

-----------------------------------------------------------------------------
         ABSORPTION SPECTRUM VIA TRANSITION ELECTRIC DIPOLE MOMENTS
-----------------------------------------------------------------------------
State   Energy  Wavelength   fosc         T2         TX        TY        TZ
        (cm-1)    (nm)                  (au**2)     (au)      (au)      (au)
-----------------------------------------------------------------------------
   0   13002.2    769.1   0.169730017   4.29751   1.29933  -0.30142  -1.58695
   1   15396.5    649.5   0.037520298   0.80227  -0.47374   0.75731  -0.06569
   2   18233.7    548.4   0.222187528   4.01162  -1.48599   0.32164  -1.30384
   3   19059.5    524.7   0.172510774   2.97975  -1.53665   0.43395  -0.65585
   4   19307.2    517.9   0.289959476   4.94416  -0.94563   0.74805   1.86825
   5   19606.3    510.0   0.203834834   3.42261   0.05908  -0.11062  -1.84577
   6   23259.8    429.9   0.223567805   3.16430   0.86272   0.15628   1.54777
   7   23965.0    417.3   0.260303592   3.57584  -1.59539   0.21030  -0.99315
   8   24211.3    413.0   0.346658837   4.71368  -0.46710   0.85164   1.94170
   9   25694.1    389.2   0.079547179   1.01922   0.90084  -0.00452   0.45572
  10   26323.8    379.9   0.327496992   4.09576   1.75513  -0.43221   0.91021
  11   27093.1    369.1   0.016063294   0.19519   0.30667   0.31261   0.05843
  12   27755.0    360.3   0.004412802   0.05234   0.13790  -0.01578   0.18187
  13   28106.0    355.8   0.010389290   0.12169  -0.18395  -0.16593  -0.24560
  14   28267.1    353.8   0.077634745   0.90417  -0.56409   0.54764   0.53485
  15   29192.6    342.6   0.009213124   0.10390   0.09678   0.16511   0.25936
  16   29328.7    341.0   0.017368199   0.19496   0.10568   0.19462   0.38199
  17   29665.7    337.1   0.001844471   0.02047  -0.04739   0.11091   0.07696
  18   29917.2    334.3   0.041147046   0.45279   0.14012  -0.02985   0.65747
  19   30891.0    323.7   0.066773860   0.71162   0.47950  -0.25262   0.64644
  20   31103.1    321.5   0.032681973   0.34592   0.44078   0.22440   0.31825
  21   31365.3    318.8   0.016667066   0.17494  -0.31921   0.22145  -0.15493
  22   31527.1    317.2   0.294873549   3.07913  -1.53449  -0.00396  -0.85115
  23   31645.3    316.0   0.408302320   4.24764   1.92103  -0.74352  -0.06691
  24   32150.2    311.0   0.000809588   0.00829  -0.06989   0.00901   0.05766
  25   33140.0    301.8   0.289751696   2.87839  -0.72201   1.18549   0.97555
  26   33180.8    301.4   0.002796965   0.02775  -0.15974   0.02383  -0.04081
  27   33814.9    295.7   0.010310914   0.10038   0.06544  -0.04299  -0.30701
  28   34088.6    293.4   0.012901212   0.12459  -0.07806  -0.23614  -0.25048
  29   34328.4    291.3   0.211856797   2.03172   0.40614   0.62501   1.21497
  30   34530.2    289.6   0.032185365   0.30686  -0.32833   0.05812  -0.44235
  31   34838.6    287.0   0.151363926   1.43033   0.91227   0.27303   0.72358
  32   34927.5    286.3   0.191264626   1.80278   0.95878   0.08532   0.93608
  33   34954.1    286.1   0.703247781   6.62347   0.48604  -1.74883  -1.82450
  34   35389.1    282.6   0.000356578   0.00332   0.05472   0.01743   0.00438
  35   36048.8    277.4   0.115662874   1.05628  -0.90239   0.45890  -0.17716
  36   36147.1    276.6   0.004549054   0.04143  -0.11408   0.11502  -0.12323
  37   36309.1    275.4   0.061337845   0.55615  -0.52512   0.52948   0.00635
  38   36513.9    273.9   0.192822204   1.73850  -1.04433   0.43935   0.67442
  39   36812.7    271.6   0.042051661   0.37606  -0.45409   0.36509  -0.19123
  40   36993.9    270.3   0.019165317   0.17055   0.04591  -0.21870  -0.34730
  41   37220.3    268.7   0.256429850   2.26811   1.38068   0.08945   0.59485
  42   37396.2    267.4   0.139638768   1.22929  -1.01421   0.09049  -0.43872
  43   37520.5    266.5   0.012232961   0.10733  -0.08999   0.28558   0.13296
  44   38011.6    263.1   0.222155981   1.92405  -1.03092   0.14431  -0.91675
  45   38087.9    262.6   0.119053381   1.02903   0.98044   0.21942   0.14009
  46   38183.6    261.9   0.058752426   0.50655   0.36131  -0.26819  -0.55144
  47   38483.6    259.9   0.003824209   0.03271  -0.18031  -0.01428  -0.00000
  48   38783.9    257.8   0.015211041   0.12912   0.24308  -0.11873   0.23650
  49   39014.2    256.3   0.006459394   0.05451  -0.16713  -0.06878  -0.14779
  50   39721.5    251.8   0.444888587   3.68724  -0.50811  -0.81115  -1.66466
  51   39853.7    250.9   0.217962474   1.80048  -1.09150   0.48209  -0.61375
  52   40203.4    248.7   0.050037008   0.40974  -0.23639   0.58371   0.11464
  53   40293.1    248.2   0.042973142   0.35111  -0.09890   0.57210   0.11842

FINAL SINGLE POINT ENERGY     -3260.363402266923

DIPOLE MOMENT
-------------
                                X             Y             Z
Electronic contribution:     -6.77715      24.21783      89.31760
Nuclear contribution   :      3.18773     -25.79872     -97.34197
                        -----------------------------------------
Total Dipole Moment    :     -3.58943      -1.58088      -8.02437
                        -----------------------------------------
Magnitude (a.u.)       :      8.93161
Magnitude (Debye)      :     22.70236

Rotational constants in cm-1:     0.000854     0.000297     0.000229
Rotational constants in MHz :    25.602937     8.918556     6.860664

                             ****ORCA TERMINATED NORMALLY****
TOTAL RUN TIME: 0 days 0 hours 12 minutes 5 seconds 467 msec
