                         Program Version 4.2.0 -  RELEASE  -
|  1> # ORCA input file
|  2> # SCF done       -165.040163526487          0.000441032719
|  3> ! CAM-B3LYP def2-SVP def2/J RIJCOSX Grid4 TightSCF
|  4> %maxcore 5000
|  5> %tddft
|  6>     Mode sTDDFT
|  7>     Ethresh 5.0
|  8>     maxcore 5000
|  9> end
| 10>
| 11> %pal
| 12>   nprocs 6
| 13>   end
| 14> * xyz 0 1
| 15>    C       -8.12286         0.75692         6.81857
| 16>    C       -8.75161         0.14106         7.89081
| 17>    C       -8.63884        -1.22597         8.09899
| 18>    C       -7.88565        -2.01696         7.24410
| 19>    C       -7.25558        -1.41345         6.16914
| 20>    C       -7.37644        -0.02241         5.94904
| 21>    C       -6.63561         0.33142         4.74392
| 22>    C       -6.42715         1.60059         4.27155
| 23>    C       -6.91102         2.76789         4.89872
| 24>    N       -7.27459         3.75679         5.35451
| 25>    C       -5.67466         1.92928         3.12497
| 26>    N       -5.07491         2.27009         2.20663
| 27>    C       -6.17978        -0.91853         4.15166
| 28>    C       -6.37936        -1.96281         5.14584
| 29>    C       -5.66861        -3.12879         5.24837
| 30>    C       -4.56659        -3.44695         4.42648
| 31>    N       -3.62520        -3.70939         3.82421
| 32>    C       -5.89214        -4.10569         6.23809
| 33>    N       -6.05111        -4.95506         6.99437
| 34>    C       -5.79140        -1.06079         2.84453
| 35>    C       -5.74100        -2.23942         2.07857
| 36>    O       -6.29072        -3.41845         2.51983
| 37>    C       -6.08727        -4.31988         1.55295
| 38>    C       -6.37031        -5.67246         1.39889
| 39>    C       -5.90924        -6.13528         0.17622
| 40>    S       -5.13675        -4.88146        -0.78427
| 41>    C       -5.41876        -3.72890         0.46417
| 42>    C       -5.21096        -2.39498         0.79608
| 43>    C       -5.97669        -7.45310        -0.34013
| 44>    N       -6.52941        -8.50320         0.36508
| 45>    C       -6.41944        -9.62854        -0.38892
| 46>    C       -6.68619       -10.99233        -0.41524
| 47>    C       -6.21239       -11.45516        -1.65070
| 48>    N       -5.67769       -10.39717        -2.35954
| 49>    C       -5.78799        -9.27239        -1.61025
| 50>    C       -5.51216        -7.91010        -1.57848
| 51>    C       -6.20343       -12.76101        -2.19617
| 52>    C       -6.68663       -13.87759        -1.59438
| 53>    C       -6.61015       -15.16335        -2.18589
| 54>    O       -6.03480       -15.30739        -3.41927
| 55>    C       -6.06934       -16.61911        -3.70518
| 56>    C       -5.62900       -17.40196        -4.75724
| 57>    C       -5.90616       -18.74752        -4.52993
| 58>    S       -6.75187       -19.00752        -3.00024
| 59>    C       -6.68674       -17.33124        -2.65612
| 60>    C       -7.03119       -16.38973        -1.68406
| 61>    C       -5.68433       -19.86699        -5.35175
| 62>    C       -4.83452       -19.98191        -6.42351
| 63>    C       -4.99089       -20.96442        -7.48786
| 64>    C       -5.75216       -22.10346        -7.46934
| 65>    C       -6.51046       -22.57029        -6.37531
| 66>    N       -7.14773       -23.01874        -5.53158
| 67>    C       -5.84969       -23.00575        -8.54973
| 68>    N       -5.97638       -23.78130        -9.38662
| 69>    C       -4.17755       -20.50433        -8.60766
| 70>    C       -3.42881       -19.37933        -8.19559
| 71>    C       -2.58429       -18.72887        -9.07938
| 72>    C       -2.49039       -19.20662       -10.37802
| 73>    C       -3.21829       -20.31586       -10.78309
| 74>    C       -4.06640       -20.97595        -9.90590
| 75>    C       -3.71326       -19.13065        -6.79023
| 76>    C       -2.89833       -18.44199        -5.92928
| 77>    C       -1.77447       -17.69559        -6.33654
| 78>    N       -0.86570       -17.04950        -6.61023
| 79>    C       -3.03096       -18.46206        -4.52589
| 80>    N       -3.05800       -18.47891        -3.37835
| 81>    H       -8.22411         1.81962         6.67223
| 82>    H       -9.33968         0.73805         8.57098
| 83>    H       -9.14294        -1.68280         8.93692
| 84>    H       -7.80688        -3.07897         7.41229
| 85>    H       -5.56706        -0.16844         2.27808
| 86>    H       -6.86683        -6.27699         2.13388
| 87>    H       -4.72914        -1.63094         0.22202
| 88>    H       -6.90802        -8.43792         1.29303
| 89>    H       -7.15062       -11.59013         0.34166
| 90>    H       -5.26239       -10.47488        -3.27200
| 91>    H       -5.04126        -7.30156        -2.32381
| 92>    H       -5.75735       -12.86773        -3.17666
| 93>    H       -7.14245       -13.83289        -0.61827
| 94>    H       -5.17469       -17.02454        -5.65427
| 95>    H       -7.51214       -16.55645        -0.74315
| 96>    H       -6.32343       -20.71282        -5.13518
| 97>    H       -2.01889       -17.86226        -8.77702
| 98>    H       -1.84255       -18.70556       -11.08092
| 99>    H       -3.12846       -20.67201       -11.79792
|100>    H       -4.62646       -21.83308       -10.24102
|101> *
|102>
|103>                          ****END OF INPUT****

CARTESIAN COORDINATES (ANGSTROEM)
---------------------------------
  C     -8.122860    0.756920    6.818570
  C     -8.751610    0.141060    7.890810
  C     -8.638840   -1.225970    8.098990
  C     -7.885650   -2.016960    7.244100
  C     -7.255580   -1.413450    6.169140
  C     -7.376440   -0.022410    5.949040
  C     -6.635610    0.331420    4.743920
  C     -6.427150    1.600590    4.271550
  C     -6.911020    2.767890    4.898720
  N     -7.274590    3.756790    5.354510
  C     -5.674660    1.929280    3.124970
  N     -5.074910    2.270090    2.206630
  C     -6.179780   -0.918530    4.151660
  C     -6.379360   -1.962810    5.145840
  C     -5.668610   -3.128790    5.248370
  C     -4.566590   -3.446950    4.426480
  N     -3.625200   -3.709390    3.824210
  C     -5.892140   -4.105690    6.238090
  N     -6.051110   -4.955060    6.994370
  C     -5.791400   -1.060790    2.844530
  C     -5.741000   -2.239420    2.078570
  O     -6.290720   -3.418450    2.519830
  C     -6.087270   -4.319880    1.552950
  C     -6.370310   -5.672460    1.398890
  C     -5.909240   -6.135280    0.176220
  S     -5.136750   -4.881460   -0.784270
  C     -5.418760   -3.728900    0.464170
  C     -5.210960   -2.394980    0.796080
  C     -5.976690   -7.453100   -0.340130
  N     -6.529410   -8.503200    0.365080
  C     -6.419440   -9.628540   -0.388920
  C     -6.686190  -10.992330   -0.415240
  C     -6.212390  -11.455160   -1.650700
  N     -5.677690  -10.397170   -2.359540
  C     -5.787990   -9.272390   -1.610250
  C     -5.512160   -7.910100   -1.578480
  C     -6.203430  -12.761010   -2.196170
  C     -6.686630  -13.877590   -1.594380
  C     -6.610150  -15.163350   -2.185890
  O     -6.034800  -15.307390   -3.419270
  C     -6.069340  -16.619110   -3.705180
  C     -5.629000  -17.401960   -4.757240
  C     -5.906160  -18.747520   -4.529930
  S     -6.751870  -19.007520   -3.000240
  C     -6.686740  -17.331240   -2.656120
  C     -7.031190  -16.389730   -1.684060
  C     -5.684330  -19.866990   -5.351750
  C     -4.834520  -19.981910   -6.423510
  C     -4.990890  -20.964420   -7.487860
  C     -5.752160  -22.103460   -7.469340
  C     -6.510460  -22.570290   -6.375310
  N     -7.147730  -23.018740   -5.531580
  C     -5.849690  -23.005750   -8.549730
  N     -5.976380  -23.781300   -9.386620
  C     -4.177550  -20.504330   -8.607660
  C     -3.428810  -19.379330   -8.195590
  C     -2.584290  -18.728870   -9.079380
  C     -2.490390  -19.206620  -10.378020
  C     -3.218290  -20.315860  -10.783090
  C     -4.066400  -20.975950   -9.905900
  C     -3.713260  -19.130650   -6.790230
  C     -2.898330  -18.441990   -5.929280
  C     -1.774470  -17.695590   -6.336540
  N     -0.865700  -17.049500   -6.610230
  C     -3.030960  -18.462060   -4.525890
  N     -3.058000  -18.478910   -3.378350
  H     -8.224110    1.819620    6.672230
  H     -9.339680    0.738050    8.570980
  H     -9.142940   -1.682800    8.936920
  H     -7.806880   -3.078970    7.412290
  H     -5.567060   -0.168440    2.278080
  H     -6.866830   -6.276990    2.133880
  H     -4.729140   -1.630940    0.222020
  H     -6.908020   -8.437920    1.293030
  H     -7.150620  -11.590130    0.341660
  H     -5.262390  -10.474880   -3.272000
  H     -5.041260   -7.301560   -2.323810
  H     -5.757350  -12.867730   -3.176660
  H     -7.142450  -13.832890   -0.618270
  H     -5.174690  -17.024540   -5.654270
  H     -7.512140  -16.556450   -0.743150
  H     -6.323430  -20.712820   -5.135180
  H     -2.018890  -17.862260   -8.777020
  H     -1.842550  -18.705560  -11.080920
  H     -3.128460  -20.672010  -11.797920
  H     -4.626460  -21.833080  -10.241020

 Total Charge           Charge          ....    0
 Multiplicity           Mult            ....    1
 Number of Electrons    NEL             ....  450
 Basis Dimension        Dim             .... 1032

ORBITAL ENERGIES
----------------

  NO   OCC          E(Eh)            E(eV)
   0   2.0000     -88.981965     -2421.3224
   1   2.0000     -88.979176     -2421.2465
   2   2.0000     -19.315426      -525.5995
   3   2.0000     -19.311083      -525.4813
   4   2.0000     -14.479491      -394.0070
   5   2.0000     -14.477447      -393.9514
   6   2.0000     -14.421047      -392.4167
   7   2.0000     -14.420665      -392.4062
   8   2.0000     -14.420493      -392.4016
   9   2.0000     -14.419571      -392.3765
  10   2.0000     -14.419144      -392.3649
  11   2.0000     -14.416681      -392.2978
  12   2.0000     -14.416601      -392.2957
  13   2.0000     -14.414343      -392.2342
  14   2.0000     -10.362849      -281.9875
  15   2.0000     -10.361945      -281.9628
  16   2.0000     -10.357922      -281.8534
  17   2.0000     -10.350539      -281.6525
  18   2.0000     -10.348695      -281.6023
  19   2.0000     -10.346606      -281.5455
  20   2.0000     -10.346276      -281.5365
  21   2.0000     -10.346211      -281.5347
  22   2.0000     -10.346038      -281.5300
  23   2.0000     -10.345981      -281.5285
  24   2.0000     -10.345529      -281.5162
  25   2.0000     -10.342040      -281.4212
  26   2.0000     -10.341980      -281.4196
  27   2.0000     -10.333227      -281.1814
  28   2.0000     -10.329344      -281.0758
  29   2.0000     -10.327863      -281.0354
  30   2.0000     -10.326520      -280.9989
  31   2.0000     -10.325911      -280.9823
  32   2.0000     -10.323514      -280.9171
  33   2.0000     -10.323457      -280.9156
  34   2.0000     -10.322804      -280.8978
  35   2.0000     -10.322801      -280.8977
  36   2.0000     -10.322146      -280.8799
  37   2.0000     -10.320621      -280.8384
  38   2.0000     -10.319754      -280.8148
  39   2.0000     -10.319694      -280.8131
  40   2.0000     -10.317602      -280.7562
  41   2.0000     -10.317550      -280.7548
  42   2.0000     -10.317201      -280.7453
  43   2.0000     -10.315338      -280.6946
  44   2.0000     -10.314690      -280.6770
  45   2.0000     -10.314669      -280.6764
  46   2.0000     -10.314248      -280.6650
  47   2.0000     -10.312534      -280.6183
  48   2.0000     -10.311658      -280.5945
  49   2.0000     -10.311344      -280.5859
  50   2.0000     -10.310103      -280.5522
  51   2.0000     -10.309790      -280.5436
  52   2.0000     -10.306631      -280.4577
  53   2.0000     -10.305523      -280.4275
  54   2.0000     -10.300466      -280.2899
  55   2.0000     -10.299597      -280.2663
  56   2.0000     -10.299232      -280.2563
  57   2.0000     -10.299174      -280.2548
  58   2.0000     -10.299084      -280.2523
  59   2.0000     -10.298574      -280.2384
  60   2.0000     -10.298411      -280.2340
  61   2.0000     -10.298213      -280.2286
  62   2.0000     -10.297915      -280.2205
  63   2.0000     -10.296655      -280.1862
  64   2.0000     -10.288840      -279.9736
  65   2.0000     -10.284281      -279.8495
  66   2.0000      -8.076821      -219.7815
  67   2.0000      -8.074127      -219.7082
  68   2.0000      -6.046567      -164.5355
  69   2.0000      -6.043626      -164.4554
  70   2.0000      -6.042489      -164.4245
  71   2.0000      -6.039650      -164.3472
  72   2.0000      -6.038006      -164.3025
  73   2.0000      -6.035661      -164.2387
  74   2.0000      -1.234452       -33.5911
  75   2.0000      -1.229696       -33.4617
  76   2.0000      -1.111147       -30.2358
  77   2.0000      -1.075088       -29.2546
  78   2.0000      -1.035121       -28.1671
  79   2.0000      -1.032798       -28.1039
  80   2.0000      -1.016853       -27.6700
  81   2.0000      -1.015461       -27.6321
  82   2.0000      -1.006240       -27.3812
  83   2.0000      -1.005240       -27.3540
  84   2.0000      -1.005172       -27.3521
  85   2.0000      -1.004972       -27.3467
  86   2.0000      -0.997098       -27.1324
  87   2.0000      -0.996939       -27.1281
  88   2.0000      -0.996460       -27.1150
  89   2.0000      -0.995248       -27.0821
  90   2.0000      -0.958241       -26.0751
  91   2.0000      -0.957894       -26.0656
  92   2.0000      -0.938460       -25.5368
  93   2.0000      -0.936722       -25.4895
  94   2.0000      -0.933849       -25.4113
  95   2.0000      -0.930957       -25.3326
  96   2.0000      -0.916643       -24.9431
  97   2.0000      -0.906782       -24.6748
  98   2.0000      -0.896592       -24.3975
  99   2.0000      -0.892184       -24.2776
 100   2.0000      -0.890456       -24.2305
 101   2.0000      -0.884616       -24.0716
 102   2.0000      -0.880544       -23.9608
 103   2.0000      -0.865356       -23.5475
 104   2.0000      -0.863843       -23.5063
 105   2.0000      -0.858354       -23.3570
 106   2.0000      -0.852901       -23.2086
 107   2.0000      -0.845806       -23.0155
 108   2.0000      -0.832868       -22.6635
 109   2.0000      -0.814145       -22.1540
 110   2.0000      -0.798916       -21.7396
 111   2.0000      -0.790150       -21.5011
 112   2.0000      -0.788302       -21.4508
 113   2.0000      -0.771286       -20.9878
 114   2.0000      -0.752683       -20.4816
 115   2.0000      -0.726579       -19.7712
 116   2.0000      -0.720289       -19.6001
 117   2.0000      -0.717115       -19.5137
 118   2.0000      -0.714665       -19.4470
 119   2.0000      -0.713053       -19.4032
 120   2.0000      -0.712239       -19.3810
 121   2.0000      -0.707708       -19.2577
 122   2.0000      -0.707312       -19.2469
 123   2.0000      -0.705202       -19.1895
 124   2.0000      -0.699106       -19.0237
 125   2.0000      -0.689347       -18.7581
 126   2.0000      -0.674021       -18.3410
 127   2.0000      -0.670722       -18.2513
 128   2.0000      -0.666996       -18.1499
 129   2.0000      -0.664539       -18.0830
 130   2.0000      -0.663487       -18.0544
 131   2.0000      -0.659565       -17.9477
 132   2.0000      -0.654307       -17.8046
 133   2.0000      -0.640340       -17.4245
 134   2.0000      -0.633508       -17.2386
 135   2.0000      -0.625254       -17.0140
 136   2.0000      -0.618358       -16.8264
 137   2.0000      -0.611613       -16.6428
 138   2.0000      -0.608786       -16.5659
 139   2.0000      -0.596015       -16.2184
 140   2.0000      -0.589906       -16.0522
 141   2.0000      -0.589010       -16.0278
 142   2.0000      -0.584746       -15.9118
 143   2.0000      -0.583827       -15.8868
 144   2.0000      -0.583042       -15.8654
 145   2.0000      -0.580398       -15.7934
 146   2.0000      -0.574678       -15.6378
 147   2.0000      -0.570624       -15.5275
 148   2.0000      -0.560473       -15.2512
 149   2.0000      -0.555903       -15.1269
 150   2.0000      -0.553604       -15.0643
 151   2.0000      -0.546255       -14.8643
 152   2.0000      -0.544202       -14.8085
 153   2.0000      -0.541486       -14.7346
 154   2.0000      -0.539544       -14.6817
 155   2.0000      -0.537053       -14.6140
 156   2.0000      -0.535878       -14.5820
 157   2.0000      -0.535651       -14.5758
 158   2.0000      -0.531595       -14.4654
 159   2.0000      -0.521954       -14.2031
 160   2.0000      -0.520130       -14.1534
 161   2.0000      -0.517701       -14.0874
 162   2.0000      -0.513071       -13.9614
 163   2.0000      -0.510530       -13.8922
 164   2.0000      -0.508159       -13.8277
 165   2.0000      -0.505799       -13.7635
 166   2.0000      -0.504844       -13.7375
 167   2.0000      -0.504056       -13.7160
 168   2.0000      -0.500134       -13.6093
 169   2.0000      -0.491028       -13.3615
 170   2.0000      -0.490461       -13.3461
 171   2.0000      -0.482570       -13.1314
 172   2.0000      -0.482189       -13.1210
 173   2.0000      -0.479545       -13.0491
 174   2.0000      -0.477296       -12.9879
 175   2.0000      -0.474460       -12.9107
 176   2.0000      -0.469855       -12.7854
 177   2.0000      -0.467413       -12.7190
 178   2.0000      -0.463405       -12.6099
 179   2.0000      -0.463174       -12.6036
 180   2.0000      -0.461865       -12.5680
 181   2.0000      -0.458338       -12.4720
 182   2.0000      -0.457719       -12.4552
 183   2.0000      -0.453235       -12.3332
 184   2.0000      -0.452467       -12.3122
 185   2.0000      -0.451459       -12.2848
 186   2.0000      -0.450865       -12.2687
 187   2.0000      -0.447368       -12.1735
 188   2.0000      -0.446293       -12.1442
 189   2.0000      -0.445563       -12.1244
 190   2.0000      -0.444099       -12.0846
 191   2.0000      -0.442708       -12.0467
 192   2.0000      -0.440360       -11.9828
 193   2.0000      -0.440034       -11.9739
 194   2.0000      -0.435231       -11.8432
 195   2.0000      -0.431163       -11.7325
 196   2.0000      -0.430527       -11.7152
 197   2.0000      -0.429456       -11.6861
 198   2.0000      -0.428881       -11.6704
 199   2.0000      -0.427837       -11.6420
 200   2.0000      -0.425671       -11.5831
 201   2.0000      -0.422859       -11.5066
 202   2.0000      -0.422013       -11.4836
 203   2.0000      -0.420204       -11.4343
 204   2.0000      -0.414245       -11.2722
 205   2.0000      -0.413227       -11.2445
 206   2.0000      -0.410206       -11.1623
 207   2.0000      -0.409907       -11.1541
 208   2.0000      -0.405562       -11.0359
 209   2.0000      -0.390583       -10.6283
 210   2.0000      -0.384169       -10.4538
 211   2.0000      -0.382250       -10.4016
 212   2.0000      -0.380286       -10.3481
 213   2.0000      -0.363255        -9.8847
 214   2.0000      -0.344002        -9.3608
 215   2.0000      -0.334095        -9.0912
 216   2.0000      -0.333354        -9.0710
 217   2.0000      -0.331369        -9.0170
 218   2.0000      -0.328905        -8.9500
 219   2.0000      -0.319833        -8.7031
 220   2.0000      -0.310568        -8.4510
 221   2.0000      -0.309461        -8.4209
 222   2.0000      -0.291746        -7.9388
 223   2.0000      -0.269076        -7.3219
 224   2.0000      -0.232483        -6.3262
 225   0.0000      -0.108517        -2.9529
 226   0.0000      -0.096854        -2.6355
 227   0.0000      -0.086695        -2.3591
 228   0.0000      -0.084386        -2.2963
 229   0.0000      -0.049736        -1.3534

MULLIKEN ATOMIC CHARGES
-----------------------
   0 C :   -0.034579
   1 C :    0.045464
   2 C :    0.047381
   3 C :   -0.035901
   4 C :    0.010302
   5 C :    0.008912
   6 C :    0.294545
   7 C :   -0.348858
   8 C :   -0.189166
   9 N :    0.160133
  10 C :   -0.182584
  11 N :    0.148902
  12 C :   -0.058187
  13 C :    0.231742
  14 C :   -0.316041
  15 C :   -0.202112
  16 N :    0.166472
  17 C :   -0.184909
  18 N :    0.150710
  19 C :    0.038811
  20 C :    0.111338
  21 O :   -0.208174
  22 C :    0.235615
  23 C :   -0.095799
  24 C :   -0.048688
  25 S :    0.151393
  26 C :   -0.001823
  27 C :   -0.056573
  28 C :    0.089915
  29 N :   -0.036271
  30 C :    0.118010
  31 C :   -0.159380
  32 C :    0.105456
  33 N :   -0.028925
  34 C :    0.113928
  35 C :   -0.167966
  36 C :    0.026153
  37 C :   -0.041032
  38 C :    0.204032
  39 O :   -0.206722
  40 C :    0.198280
  41 C :   -0.006626
  42 C :   -0.171652
  43 S :    0.184951
  44 C :    0.013459
  45 C :   -0.114966
  46 C :    0.091525
  47 C :   -0.079373
  48 C :    0.299417
  49 C :   -0.351244
  50 C :   -0.180238
  51 N :    0.150986
  52 C :   -0.187178
  53 N :    0.155250
  54 C :    0.015569
  55 C :   -0.000316
  56 C :   -0.032994
  57 C :    0.045324
  58 C :    0.046900
  59 C :   -0.034906
  60 C :    0.225316
  61 C :   -0.347035
  62 C :   -0.177990
  63 N :    0.158074
  64 C :   -0.199834
  65 N :    0.180834
  66 H :    0.006215
  67 H :    0.003031
  68 H :    0.002387
  69 H :    0.005197
  70 H :    0.010767
  71 H :   -0.016170
  72 H :    0.015815
  73 H :    0.128971
  74 H :   -0.028833
  75 H :    0.126314
  76 H :   -0.018107
  77 H :   -0.008065
  78 H :   -0.005661
  79 H :    0.013072
  80 H :   -0.003238
  81 H :    0.015306
  82 H :    0.004026
  83 H :    0.003716
  84 H :    0.003063
  85 H :    0.005132
Sum of atomic charges:    0.0000000

LOEWDIN ATOMIC CHARGES
----------------------
   0 C :    0.004246
   1 C :   -0.001128
   2 C :    0.002839
   3 C :   -0.001674
   4 C :   -0.008361
   5 C :   -0.014139
   6 C :    0.079381
   7 C :   -0.140055
   8 C :   -0.019679
   9 N :   -0.050636
  10 C :   -0.020484
  11 N :   -0.051552
  12 C :   -0.065298
  13 C :    0.069371
  14 C :   -0.130234
  15 C :   -0.025254
  16 N :   -0.054757
  17 C :   -0.019934
  18 N :   -0.054260
  19 C :    0.040199
  20 C :    0.016709
  21 O :    0.016785
  22 C :    0.043816
  23 C :   -0.091720
  24 C :   -0.128213
  25 S :    0.439191
  26 C :   -0.211543
  27 C :   -0.003325
  28 C :   -0.020701
  29 N :    0.072785
  30 C :   -0.009744
  31 C :   -0.083768
  32 C :   -0.000923
  33 N :    0.075883
  34 C :   -0.016788
  35 C :   -0.084271
  36 C :   -0.006531
  37 C :   -0.050443
  38 C :    0.071728
  39 O :    0.000355
  40 C :    0.008594
  41 C :   -0.025294
  42 C :   -0.178241
  43 S :    0.462687
  44 C :   -0.175926
  45 C :   -0.077739
  46 C :    0.039442
  47 C :   -0.071208
  48 C :    0.078439
  49 C :   -0.139032
  50 C :   -0.022067
  51 N :   -0.048019
  52 C :   -0.019129
  53 N :   -0.050991
  54 C :   -0.012625
  55 C :   -0.011687
  56 C :   -0.000653
  57 C :    0.002209
  58 C :    0.000610
  59 C :    0.004466
  60 C :    0.065545
  61 C :   -0.139741
  62 C :   -0.021459
  63 N :   -0.051361
  64 C :   -0.020572
  65 N :   -0.040508
  66 H :    0.041366
  67 H :    0.036973
  68 H :    0.036698
  69 H :    0.040236
  70 H :    0.054309
  71 H :    0.033343
  72 H :    0.045903
  73 H :    0.091630
  74 H :    0.026135
  75 H :    0.092826
  76 H :    0.025439
  77 H :    0.033571
  78 H :    0.038044
  79 H :    0.041330
  80 H :    0.037079
  81 H :    0.045693
  82 H :    0.040069
  83 H :    0.037092
  84 H :    0.037259
  85 H :    0.041394

  Mayer bond orders larger than 0.100000
B(  0-C ,  1-C ) :   1.3685 B(  0-C ,  5-C ) :   1.3858 B(  0-C , 66-H ) :   0.9834
B(  1-C ,  2-C ) :   1.3798 B(  1-C , 67-H ) :   0.9862 B(  2-C ,  3-C ) :   1.3616
B(  2-C , 68-H ) :   0.9866 B(  3-C ,  4-C ) :   1.3866 B(  3-C , 69-H ) :   0.9858
B(  4-C ,  5-C ) :   1.3121 B(  4-C , 13-C ) :   1.0122 B(  5-C ,  6-C ) :   0.9983
B(  6-C ,  7-C ) :   1.6259 B(  6-C , 12-C ) :   1.0726 B(  7-C ,  8-C ) :   1.1475
B(  7-C , 10-C ) :   1.1400 B(  8-C ,  9-N ) :   2.9774 B( 10-C , 11-N ) :   2.9674
B( 12-C , 13-C ) :   1.0320 B( 12-C , 19-C ) :   1.5114 B( 13-C , 14-C ) :   1.6531
B( 14-C , 15-C ) :   1.1498 B( 14-C , 17-C ) :   1.1469 B( 15-C , 16-N ) :   3.0129
B( 17-C , 18-N ) :   2.9873 B( 19-C , 20-C ) :   1.2422 B( 19-C , 70-H ) :   0.9254
B( 20-C , 21-O ) :   1.0660 B( 20-C , 27-C ) :   1.3738 B( 21-O , 22-C ) :   1.1544
B( 22-C , 23-C ) :   1.2815 B( 22-C , 26-C ) :   1.3404 B( 23-C , 24-C ) :   1.4147
B( 23-C , 71-H ) :   1.0093 B( 24-C , 25-S ) :   1.1233 B( 24-C , 28-C ) :   1.1494
B( 25-S , 26-C ) :   1.0285 B( 26-C , 27-C ) :   1.2939 B( 27-C , 72-H ) :   1.0180
B( 28-C , 29-N ) :   1.2091 B( 28-C , 35-C ) :   1.3909 B( 29-N , 30-C ) :   1.1646
B( 29-N , 73-H ) :   0.9314 B( 30-C , 31-C ) :   1.2743 B( 30-C , 34-C ) :   1.3034
B( 31-C , 32-C ) :   1.3884 B( 31-C , 74-H ) :   1.0294 B( 32-C , 33-N ) :   1.1720
B( 32-C , 36-C ) :   1.1162 B( 33-N , 34-C ) :   1.1753 B( 33-N , 75-H ) :   0.9350
B( 34-C , 35-C ) :   1.2765 B( 35-C , 76-H ) :   1.0204 B( 36-C , 37-C ) :   1.6295
B( 36-C , 77-H ) :   0.9674 B( 37-C , 38-C ) :   1.1778 B( 37-C , 78-H ) :   0.9629
B( 38-C , 39-O ) :   1.1139 B( 38-C , 45-C ) :   1.4199 B( 39-O , 40-C ) :   1.1268
B( 40-C , 41-C ) :   1.3514 B( 40-C , 44-C ) :   1.3295 B( 41-C , 42-C ) :   1.3492
B( 41-C , 79-H ) :   0.9995 B( 42-C , 43-S ) :   1.0876 B( 42-C , 46-C ) :   1.2484
B( 43-S , 44-C ) :   1.0902 B( 44-C , 45-C ) :   1.2451 B( 45-C , 80-H ) :   1.0210
B( 46-C , 47-C ) :   1.5635 B( 46-C , 81-H ) :   0.9107 B( 47-C , 48-C ) :   1.0796
B( 47-C , 60-C ) :   1.0353 B( 48-C , 49-C ) :   1.6233 B( 48-C , 54-C ) :   0.9930
B( 49-C , 50-C ) :   1.1375 B( 49-C , 52-C ) :   1.1493 B( 50-C , 51-N ) :   2.9649
B( 52-C , 53-N ) :   2.9750 B( 54-C , 55-C ) :   1.3142 B( 54-C , 59-C ) :   1.3823
B( 55-C , 56-C ) :   1.3831 B( 55-C , 60-C ) :   1.0058 B( 56-C , 57-C ) :   1.3627
B( 56-C , 82-H ) :   0.9877 B( 57-C , 58-C ) :   1.3787 B( 57-C , 83-H ) :   0.9872
B( 58-C , 59-C ) :   1.3678 B( 58-C , 84-H ) :   0.9863 B( 59-C , 85-H ) :   0.9850
B( 60-C , 61-C ) :   1.6363 B( 61-C , 62-C ) :   1.1387 B( 61-C , 64-C ) :   1.1568
B( 62-C , 63-N ) :   2.9911 B( 64-C , 65-N ) :   3.0156

-----------------------------------------------------------------------------
         ABSORPTION SPECTRUM VIA TRANSITION ELECTRIC DIPOLE MOMENTS
-----------------------------------------------------------------------------
State   Energy  Wavelength   fosc         T2         TX        TY        TZ
        (cm-1)    (nm)                  (au**2)     (au)      (au)      (au)
-----------------------------------------------------------------------------
   0   13218.9    756.5   2.483206086  61.84322   0.77287  -6.66053  -4.10893
   1   16685.9    599.3   0.069861392   1.37836   0.87602   0.53572   0.56917
   2   19430.9    514.6   0.281698348   4.77274  -0.47087  -2.07077  -0.51275
   3   19732.5    506.8   0.057449522   0.95847   0.28325  -0.91563   0.19967
   4   22467.5    445.1   0.028091411   0.41162  -0.63188  -0.05113   0.09863
   5   24318.1    411.2   0.117311071   1.58812  -0.44764  -0.89131   0.77026
   6   26833.6    372.7   0.348573800   4.27653  -0.25933  -2.05109   0.04807
   7   27202.8    367.6   0.140893983   1.70512  -0.75287  -1.06633  -0.03534
   8   27678.9    361.3   0.035684026   0.42442  -0.15557  -0.54860   0.31505
   9   27952.8    357.7   0.091475973   1.07735   0.20096  -0.10061   1.01333
  10   28334.6    352.9   0.355845609   4.13447  -0.39198   1.65525   1.11399
  11   29893.6    334.5   0.005551872   0.06114   0.01623  -0.23657  -0.07008
  12   30588.2    326.9   0.093880458   1.01041   0.44067   0.37697  -0.82104
  13   31030.8    322.3   0.099400542   1.05456   0.45275   0.54938  -0.74011
  14   31548.7    317.0   0.062260991   0.64970  -0.76487   0.00378  -0.25426
  15   31624.5    316.2   0.180496961   1.87898  -0.14068  -1.29667  -0.42171
  16   32013.3    312.4   0.044070183   0.45320  -0.42693  -0.09611   0.51156
  17   32673.9    306.1   0.023922874   0.24104  -0.21304   0.35103   0.26912
  18   33180.8    301.4   0.098634296   0.97863   0.22692  -0.91829   0.28963
  19   33339.7    299.9   0.515886653   5.09411  -0.06723   2.24751  -0.19571
  20   33456.0    298.9   0.440465827   4.33425  -1.36035  -1.16254  -1.06405
  21   33956.6    294.5   0.010817128   0.10487   0.14336  -0.14534   0.25139
  22   34563.2    289.3   0.015213184   0.14490   0.29263  -0.24097  -0.03468
  23   34916.5    286.4   0.743045899   7.00585  -1.35756  -0.26134   2.25712
  24   35412.9    282.4   0.010915542   0.10147  -0.28782  -0.13323   0.02979
  25   35612.4    280.8   0.027598029   0.25512   0.20752   0.33206  -0.31906
  26   35905.3    278.5   0.011221306   0.10289   0.21729   0.12946  -0.19726
  27   36227.3    276.0   0.006525388   0.05930   0.14419   0.08117  -0.17866
  28   37642.0    265.7   0.011429623   0.09996   0.14450  -0.28061  -0.01846
  29   38449.8    260.1   0.005080928   0.04350  -0.01555   0.03411   0.20518
  30   38497.2    259.8   0.086598945   0.74056  -0.39102   0.06370   0.76394
  31   38844.4    257.4   0.081984999   0.69484  -0.39633  -0.01815   0.73310
  32   39475.8    253.3   0.002489769   0.02076  -0.08639   0.10382   0.05021
  33   39702.8    251.9   0.003077240   0.02552  -0.04706   0.01101  -0.15225
  34   39920.3    250.5   0.101269170   0.83514  -0.47635   0.10387   0.77294

FINAL SINGLE POINT ENERGY     -3484.027356323696

DIPOLE MOMENT
-------------
                                X             Y             Z
Electronic contribution:      4.20716      -1.10918       1.51730
Nuclear contribution   :     -6.40588       1.80787      -2.59364
                        -----------------------------------------
Total Dipole Moment    :     -2.19871       0.69869      -1.07634
                        -----------------------------------------
Magnitude (a.u.)       :      2.54578
Magnitude (Debye)      :      6.47087

Rotational constants in cm-1:     0.003656     0.000202     0.000195
Rotational constants in MHz :   109.602489     6.044482     5.849805

                             ****ORCA TERMINATED NORMALLY****
TOTAL RUN TIME: 0 days 0 hours 18 minutes 28 seconds 771 msec
