                         Program Version 4.2.0 -  RELEASE  -
|  1> # ORCA input file
|  2> # SCF done       -200.104816995546          0.000696648335
|  3> ! CAM-B3LYP def2-SVP def2/J RIJCOSX Grid4 TightSCF
|  4> %maxcore 5000
|  5> %tddft
|  6>     Mode sTDDFT
|  7>     Ethresh 5.0
|  8>     maxcore 5000
|  9> end
| 10>
| 11> %pal
| 12>   nprocs 6
| 13>   end
| 14> * xyz 0 1
| 15>    C        0.22815        -0.59444         2.77287
| 16>    C        0.26758        -0.95462         4.11120
| 17>    C       -0.50789        -1.99935         4.59562
| 18>    C       -1.34140        -2.71946         3.75367
| 19>    C       -1.38966        -2.36998         2.41364
| 20>    C       -0.60603        -1.30075         1.92012
| 21>    C       -0.86629        -1.14245         0.49724
| 22>    C       -0.18247        -0.33284        -0.36768
| 23>    C        0.89220         0.50051         0.01095
| 24>    N        1.76996         1.19753         0.25595
| 25>    C       -0.42064        -0.26086        -1.75643
| 26>    N       -0.56867        -0.17543        -2.89206
| 27>    C       -1.98074        -2.03187         0.17496
| 28>    C       -2.13891        -2.94367         1.30786
| 29>    C       -2.66602        -4.20465         1.26944
| 30>    C       -3.16893        -4.83686         0.11229
| 31>    N       -3.54057        -5.44714        -0.78707
| 32>    C       -2.68893        -5.07792         2.37830
| 33>    N       -2.74200        -5.82791         3.24505
| 34>    C       -2.76296        -1.92784        -0.93141
| 35>    C       -4.05667        -2.50447        -1.10494
| 36>    C       -5.01454        -2.63300        -0.13110
| 37>    C       -6.18511        -3.22977        -0.71212
| 38>    C       -7.38494        -3.46238        -0.03024
| 39>    N       -8.36216        -3.67096         0.53552
| 40>    C       -5.91277        -3.54380        -2.02401
| 41>    C       -4.58979        -3.10393        -2.33379
| 42>    C       -3.92864        -3.31105        -3.53345
| 43>    C       -4.28426        -4.37528        -4.51784
| 44>    C       -3.54082        -4.13687        -5.65639
| 45>    C       -2.70195        -3.01155        -5.41707
| 46>    C       -2.89869        -2.54645        -4.12337
| 47>    C       -1.81396        -2.47898        -6.36281
| 48>    N       -1.09832        -2.06608        -7.15921
| 49>    C       -5.05558        -5.50708        -4.20533
| 50>    C       -5.40722        -6.48301        -5.10238
| 51>    C       -6.19117        -7.60256        -4.78813
| 52>    N       -6.48147        -8.55913        -5.74085
| 53>    C       -7.27121        -9.50956        -5.18029
| 54>    C       -7.93906       -10.69145        -5.42039
| 55>    C       -8.58596       -11.03228        -4.20942
| 56>    N       -8.30501       -10.07367        -3.25934
| 57>    C       -7.49830        -9.13233        -3.81760
| 58>    C       -6.82509        -7.95463        -3.57094
| 59>    C       -9.40433       -12.15702        -4.00825
| 60>    C      -10.14106       -12.43066        -2.88841
| 61>    C      -10.94748       -13.57927        -2.74110
| 62>    C      -10.86079       -14.75554        -3.45645
| 63>    C      -11.73943       -15.71074        -2.86708
| 64>    C      -11.91184       -17.03621        -3.28683
| 65>    N      -12.03823       -18.13636        -3.58901
| 66>    C      -12.36940       -15.14055        -1.77376
| 67>    C      -11.94459       -13.79487        -1.65953
| 68>    C      -12.44792       -12.83343        -0.80194
| 69>    C      -13.16173       -13.04888         0.47723
| 70>    C      -13.59163       -11.81972         0.91600
| 71>    C      -13.19607       -10.82630        -0.03939
| 72>    C      -12.47835       -11.43169        -1.05034
| 73>    C      -13.49477        -9.46030         0.04679
| 74>    N      -13.72325        -8.33720         0.11306
| 75>    C      -13.27195       -14.29220         1.14933
| 76>    C      -13.97438       -14.51379         2.29307
| 77>    C      -14.07116       -15.78318         2.92214
| 78>    C      -14.07243       -17.00015         2.30031
| 79>    C      -13.72882       -18.27310         2.92758
| 80>    C      -13.69299       -18.55415         4.26632
| 81>    C      -14.03185       -17.65279         5.29770
| 82>    N      -14.29492       -16.97567         6.18676
| 83>    C      -13.35184       -19.81607         4.79880
| 84>    N      -13.08550       -20.81501         5.29694
| 85>    C      -13.41978       -19.20131         1.84728
| 86>    C      -13.73854       -18.59057         0.61228
| 87>    C      -13.50862       -19.24634        -0.58576
| 88>    C      -12.96109       -20.51974        -0.54481
| 89>    C      -12.66131       -21.12869         0.66582
| 90>    C      -12.88586       -20.48013         1.87155
| 91>    C      -14.30631       -17.28089         0.88582
| 92>    C      -15.13908       -16.58798         0.04900
| 93>    C      -15.42175       -16.97542        -1.27876
| 94>    N      -15.66921       -17.21726        -2.37289
| 95>    C      -15.86655       -15.43748         0.42161
| 96>    N      -16.51475       -14.52273         0.66623
| 97>    H        0.83114         0.22374         2.41465
| 98>    H        0.90940        -0.40907         4.78575
| 99>    H       -0.46513        -2.25513         5.64309
|100>    H       -1.94570        -3.52274         4.14311
|101>    H       -2.42638        -1.27627        -1.72267
|102>    H       -4.94667        -2.29666         0.88788
|103>    H       -6.61642        -3.95046        -2.72471
|104>    H       -3.52603        -4.71502        -6.56052
|105>    H       -2.40859        -1.68231        -3.72025
|106>    H       -5.34969        -5.63078        -3.17474
|107>    H       -5.08530        -6.39434        -6.13149
|108>    H       -6.14281        -8.54092        -6.68773
|109>    H       -7.99173       -11.26125        -6.32590
|110>    H       -8.63002       -10.08757        -2.30828
|111>    H       -6.77693        -7.39716        -2.65806
|112>    H       -9.47191       -12.82924        -4.85094
|113>    H      -10.12033       -11.73928        -2.05766
|114>    H      -10.20931       -14.96558        -4.28301
|115>    H      -13.15196       -15.61076        -1.21446
|116>    H      -14.11950       -11.60178         1.82420
|117>    H      -12.13653       -10.94365        -1.94309
|118>    H      -12.72019       -15.12238         0.72924
|119>    H      -14.42115       -13.68111         2.81684
|120>    H      -14.09568       -15.76718         4.00402
|121>    H      -13.72383       -18.78276        -1.53496
|122>    H      -12.76399       -21.03589        -1.47120
|123>    H      -12.24014       -22.12233         0.67364
|124>    H      -12.63875       -20.96644         2.80091
|125> *
|126>
|127>                          ****END OF INPUT****

CARTESIAN COORDINATES (ANGSTROEM)
---------------------------------
  C      0.228150   -0.594440    2.772870
  C      0.267580   -0.954620    4.111200
  C     -0.507890   -1.999350    4.595620
  C     -1.341400   -2.719460    3.753670
  C     -1.389660   -2.369980    2.413640
  C     -0.606030   -1.300750    1.920120
  C     -0.866290   -1.142450    0.497240
  C     -0.182470   -0.332840   -0.367680
  C      0.892200    0.500510    0.010950
  N      1.769960    1.197530    0.255950
  C     -0.420640   -0.260860   -1.756430
  N     -0.568670   -0.175430   -2.892060
  C     -1.980740   -2.031870    0.174960
  C     -2.138910   -2.943670    1.307860
  C     -2.666020   -4.204650    1.269440
  C     -3.168930   -4.836860    0.112290
  N     -3.540570   -5.447140   -0.787070
  C     -2.688930   -5.077920    2.378300
  N     -2.742000   -5.827910    3.245050
  C     -2.762960   -1.927840   -0.931410
  C     -4.056670   -2.504470   -1.104940
  C     -5.014540   -2.633000   -0.131100
  C     -6.185110   -3.229770   -0.712120
  C     -7.384940   -3.462380   -0.030240
  N     -8.362160   -3.670960    0.535520
  C     -5.912770   -3.543800   -2.024010
  C     -4.589790   -3.103930   -2.333790
  C     -3.928640   -3.311050   -3.533450
  C     -4.284260   -4.375280   -4.517840
  C     -3.540820   -4.136870   -5.656390
  C     -2.701950   -3.011550   -5.417070
  C     -2.898690   -2.546450   -4.123370
  C     -1.813960   -2.478980   -6.362810
  N     -1.098320   -2.066080   -7.159210
  C     -5.055580   -5.507080   -4.205330
  C     -5.407220   -6.483010   -5.102380
  C     -6.191170   -7.602560   -4.788130
  N     -6.481470   -8.559130   -5.740850
  C     -7.271210   -9.509560   -5.180290
  C     -7.939060  -10.691450   -5.420390
  C     -8.585960  -11.032280   -4.209420
  N     -8.305010  -10.073670   -3.259340
  C     -7.498300   -9.132330   -3.817600
  C     -6.825090   -7.954630   -3.570940
  C     -9.404330  -12.157020   -4.008250
  C    -10.141060  -12.430660   -2.888410
  C    -10.947480  -13.579270   -2.741100
  C    -10.860790  -14.755540   -3.456450
  C    -11.739430  -15.710740   -2.867080
  C    -11.911840  -17.036210   -3.286830
  N    -12.038230  -18.136360   -3.589010
  C    -12.369400  -15.140550   -1.773760
  C    -11.944590  -13.794870   -1.659530
  C    -12.447920  -12.833430   -0.801940
  C    -13.161730  -13.048880    0.477230
  C    -13.591630  -11.819720    0.916000
  C    -13.196070  -10.826300   -0.039390
  C    -12.478350  -11.431690   -1.050340
  C    -13.494770   -9.460300    0.046790
  N    -13.723250   -8.337200    0.113060
  C    -13.271950  -14.292200    1.149330
  C    -13.974380  -14.513790    2.293070
  C    -14.071160  -15.783180    2.922140
  C    -14.072430  -17.000150    2.300310
  C    -13.728820  -18.273100    2.927580
  C    -13.692990  -18.554150    4.266320
  C    -14.031850  -17.652790    5.297700
  N    -14.294920  -16.975670    6.186760
  C    -13.351840  -19.816070    4.798800
  N    -13.085500  -20.815010    5.296940
  C    -13.419780  -19.201310    1.847280
  C    -13.738540  -18.590570    0.612280
  C    -13.508620  -19.246340   -0.585760
  C    -12.961090  -20.519740   -0.544810
  C    -12.661310  -21.128690    0.665820
  C    -12.885860  -20.480130    1.871550
  C    -14.306310  -17.280890    0.885820
  C    -15.139080  -16.587980    0.049000
  C    -15.421750  -16.975420   -1.278760
  N    -15.669210  -17.217260   -2.372890
  C    -15.866550  -15.437480    0.421610
  N    -16.514750  -14.522730    0.666230
  H      0.831140    0.223740    2.414650
  H      0.909400   -0.409070    4.785750
  H     -0.465130   -2.255130    5.643090
  H     -1.945700   -3.522740    4.143110
  H     -2.426380   -1.276270   -1.722670
  H     -4.946670   -2.296660    0.887880
  H     -6.616420   -3.950460   -2.724710
  H     -3.526030   -4.715020   -6.560520
  H     -2.408590   -1.682310   -3.720250
  H     -5.349690   -5.630780   -3.174740
  H     -5.085300   -6.394340   -6.131490
  H     -6.142810   -8.540920   -6.687730
  H     -7.991730  -11.261250   -6.325900
  H     -8.630020  -10.087570   -2.308280
  H     -6.776930   -7.397160   -2.658060
  H     -9.471910  -12.829240   -4.850940
  H    -10.120330  -11.739280   -2.057660
  H    -10.209310  -14.965580   -4.283010
  H    -13.151960  -15.610760   -1.214460
  H    -14.119500  -11.601780    1.824200
  H    -12.136530  -10.943650   -1.943090
  H    -12.720190  -15.122380    0.729240
  H    -14.421150  -13.681110    2.816840
  H    -14.095680  -15.767180    4.004020
  H    -13.723830  -18.782760   -1.534960
  H    -12.763990  -21.035890   -1.471200
  H    -12.240140  -22.122330    0.673640
  H    -12.638750  -20.966440    2.800910

 Total Charge           Charge          ....    0
 Multiplicity           Mult            ....    1
 Number of Electrons    NEL             ....  534
 Basis Dimension        Dim             .... 1288

ORBITAL ENERGIES
----------------

  NO   OCC          E(Eh)            E(eV)
   0   2.0000     -14.490335      -394.3021
   1   2.0000     -14.488579      -394.2543
   2   2.0000     -14.437718      -392.8703
   3   2.0000     -14.435662      -392.8143
   4   2.0000     -14.433112      -392.7450
   5   2.0000     -14.431386      -392.6980
   6   2.0000     -14.427899      -392.6031
   7   2.0000     -14.426230      -392.5577
   8   2.0000     -14.425091      -392.5267
   9   2.0000     -14.424409      -392.5081
  10   2.0000     -14.423338      -392.4790
  11   2.0000     -14.419584      -392.3768
  12   2.0000     -14.417211      -392.3123
  13   2.0000     -14.415481      -392.2652
  14   2.0000     -10.365406      -282.0570
  15   2.0000     -10.364151      -282.0229
  16   2.0000     -10.362101      -281.9671
  17   2.0000     -10.361861      -281.9606
  18   2.0000     -10.356023      -281.8017
  19   2.0000     -10.354902      -281.7712
  20   2.0000     -10.353692      -281.7383
  21   2.0000     -10.353157      -281.7237
  22   2.0000     -10.342669      -281.4383
  23   2.0000     -10.342416      -281.4314
  24   2.0000     -10.339876      -281.3623
  25   2.0000     -10.338834      -281.3340
  26   2.0000     -10.338554      -281.3264
  27   2.0000     -10.337806      -281.3060
  28   2.0000     -10.337662      -281.3021
  29   2.0000     -10.334921      -281.2275
  30   2.0000     -10.334411      -281.2136
  31   2.0000     -10.333665      -281.1933
  32   2.0000     -10.333452      -281.1875
  33   2.0000     -10.333418      -281.1866
  34   2.0000     -10.332705      -281.1672
  35   2.0000     -10.332119      -281.1512
  36   2.0000     -10.331600      -281.1371
  37   2.0000     -10.330656      -281.1114
  38   2.0000     -10.329930      -281.0917
  39   2.0000     -10.328059      -281.0408
  40   2.0000     -10.326778      -281.0059
  41   2.0000     -10.326607      -281.0013
  42   2.0000     -10.326355      -280.9944
  43   2.0000     -10.326348      -280.9942
  44   2.0000     -10.326266      -280.9920
  45   2.0000     -10.325930      -280.9828
  46   2.0000     -10.325709      -280.9768
  47   2.0000     -10.325622      -280.9745
  48   2.0000     -10.325298      -280.9656
  49   2.0000     -10.317639      -280.7572
  50   2.0000     -10.316891      -280.7369
  51   2.0000     -10.316641      -280.7301
  52   2.0000     -10.315930      -280.7107
  53   2.0000     -10.315294      -280.6934
  54   2.0000     -10.315107      -280.6883
  55   2.0000     -10.314849      -280.6813
  56   2.0000     -10.314835      -280.6809
  57   2.0000     -10.314692      -280.6770
  58   2.0000     -10.313837      -280.6538
  59   2.0000     -10.313704      -280.6502
  60   2.0000     -10.313225      -280.6371
  61   2.0000     -10.312133      -280.6074
  62   2.0000     -10.312101      -280.6065
  63   2.0000     -10.311553      -280.5916
  64   2.0000     -10.311202      -280.5821
  65   2.0000     -10.311092      -280.5791
  66   2.0000     -10.310070      -280.5513
  67   2.0000     -10.309494      -280.5356
  68   2.0000     -10.309427      -280.5338
  69   2.0000     -10.309336      -280.5313
  70   2.0000     -10.305829      -280.4359
  71   2.0000     -10.303576      -280.3746
  72   2.0000     -10.303280      -280.3665
  73   2.0000     -10.301781      -280.3257
  74   2.0000     -10.301408      -280.3156
  75   2.0000     -10.300665      -280.2953
  76   2.0000     -10.300352      -280.2868
  77   2.0000     -10.300236      -280.2837
  78   2.0000     -10.297984      -280.2224
  79   2.0000     -10.297584      -280.2115
  80   2.0000     -10.291163      -280.0368
  81   2.0000     -10.290782      -280.0264
  82   2.0000      -1.123025       -30.5591
  83   2.0000      -1.086301       -29.5598
  84   2.0000      -1.050599       -28.5882
  85   2.0000      -1.041014       -28.3274
  86   2.0000      -1.032305       -28.0904
  87   2.0000      -1.026529       -27.9333
  88   2.0000      -1.023029       -27.8380
  89   2.0000      -1.022010       -27.8103
  90   2.0000      -1.020636       -27.7729
  91   2.0000      -1.014563       -27.6077
  92   2.0000      -1.012235       -27.5443
  93   2.0000      -1.011657       -27.5286
  94   2.0000      -1.011496       -27.5242
  95   2.0000      -1.007081       -27.4041
  96   2.0000      -1.003112       -27.2961
  97   2.0000      -1.002766       -27.2866
  98   2.0000      -1.001030       -27.2394
  99   2.0000      -0.994358       -27.0579
 100   2.0000      -0.990224       -26.9454
 101   2.0000      -0.985549       -26.8182
 102   2.0000      -0.971208       -26.4279
 103   2.0000      -0.964682       -26.2503
 104   2.0000      -0.954137       -25.9634
 105   2.0000      -0.945179       -25.7196
 106   2.0000      -0.933366       -25.3982
 107   2.0000      -0.931665       -25.3519
 108   2.0000      -0.929407       -25.2904
 109   2.0000      -0.915204       -24.9040
 110   2.0000      -0.905743       -24.6465
 111   2.0000      -0.899792       -24.4846
 112   2.0000      -0.899321       -24.4718
 113   2.0000      -0.896182       -24.3863
 114   2.0000      -0.891753       -24.2658
 115   2.0000      -0.885431       -24.0938
 116   2.0000      -0.880125       -23.9494
 117   2.0000      -0.879202       -23.9243
 118   2.0000      -0.868717       -23.6390
 119   2.0000      -0.859749       -23.3950
 120   2.0000      -0.846462       -23.0334
 121   2.0000      -0.836583       -22.7646
 122   2.0000      -0.832021       -22.6404
 123   2.0000      -0.813620       -22.1397
 124   2.0000      -0.809108       -22.0169
 125   2.0000      -0.805402       -21.9161
 126   2.0000      -0.797466       -21.7001
 127   2.0000      -0.795830       -21.6556
 128   2.0000      -0.793896       -21.6030
 129   2.0000      -0.790680       -21.5155
 130   2.0000      -0.767287       -20.8789
 131   2.0000      -0.742996       -20.2180
 132   2.0000      -0.735842       -20.0233
 133   2.0000      -0.734491       -19.9865
 134   2.0000      -0.730211       -19.8701
 135   2.0000      -0.727866       -19.8062
 136   2.0000      -0.727292       -19.7906
 137   2.0000      -0.724950       -19.7269
 138   2.0000      -0.724105       -19.7039
 139   2.0000      -0.719532       -19.5795
 140   2.0000      -0.717507       -19.5244
 141   2.0000      -0.715896       -19.4805
 142   2.0000      -0.699565       -19.0361
 143   2.0000      -0.689952       -18.7746
 144   2.0000      -0.682292       -18.5661
 145   2.0000      -0.680336       -18.5129
 146   2.0000      -0.676367       -18.4049
 147   2.0000      -0.673724       -18.3330
 148   2.0000      -0.670213       -18.2374
 149   2.0000      -0.666461       -18.1353
 150   2.0000      -0.659588       -17.9483
 151   2.0000      -0.654667       -17.8144
 152   2.0000      -0.654117       -17.7994
 153   2.0000      -0.646810       -17.6006
 154   2.0000      -0.645129       -17.5549
 155   2.0000      -0.637104       -17.3365
 156   2.0000      -0.632167       -17.2021
 157   2.0000      -0.624641       -16.9973
 158   2.0000      -0.620360       -16.8809
 159   2.0000      -0.607206       -16.5229
 160   2.0000      -0.602270       -16.3886
 161   2.0000      -0.600443       -16.3389
 162   2.0000      -0.597830       -16.2678
 163   2.0000      -0.593116       -16.1395
 164   2.0000      -0.590344       -16.0641
 165   2.0000      -0.588513       -16.0142
 166   2.0000      -0.582151       -15.8411
 167   2.0000      -0.578480       -15.7412
 168   2.0000      -0.567404       -15.4398
 169   2.0000      -0.565278       -15.3820
 170   2.0000      -0.563481       -15.3331
 171   2.0000      -0.558837       -15.2067
 172   2.0000      -0.557145       -15.1607
 173   2.0000      -0.554577       -15.0908
 174   2.0000      -0.554288       -15.0829
 175   2.0000      -0.550556       -14.9814
 176   2.0000      -0.549341       -14.9483
 177   2.0000      -0.544433       -14.8148
 178   2.0000      -0.542294       -14.7566
 179   2.0000      -0.537703       -14.6317
 180   2.0000      -0.537330       -14.6215
 181   2.0000      -0.534011       -14.5312
 182   2.0000      -0.532405       -14.4875
 183   2.0000      -0.530587       -14.4380
 184   2.0000      -0.526201       -14.3187
 185   2.0000      -0.523453       -14.2439
 186   2.0000      -0.519698       -14.1417
 187   2.0000      -0.518593       -14.1116
 188   2.0000      -0.517005       -14.0684
 189   2.0000      -0.516302       -14.0493
 190   2.0000      -0.513644       -13.9770
 191   2.0000      -0.512135       -13.9359
 192   2.0000      -0.510805       -13.8997
 193   2.0000      -0.509025       -13.8513
 194   2.0000      -0.507632       -13.8134
 195   2.0000      -0.505897       -13.7662
 196   2.0000      -0.503601       -13.7037
 197   2.0000      -0.502378       -13.6704
 198   2.0000      -0.500539       -13.6203
 199   2.0000      -0.498182       -13.5562
 200   2.0000      -0.496023       -13.4975
 201   2.0000      -0.491773       -13.3818
 202   2.0000      -0.488576       -13.2948
 203   2.0000      -0.484793       -13.1919
 204   2.0000      -0.478253       -13.0139
 205   2.0000      -0.477278       -12.9874
 206   2.0000      -0.474562       -12.9135
 207   2.0000      -0.471890       -12.8408
 208   2.0000      -0.471729       -12.8364
 209   2.0000      -0.470971       -12.8158
 210   2.0000      -0.469404       -12.7731
 211   2.0000      -0.464887       -12.6502
 212   2.0000      -0.462166       -12.5762
 213   2.0000      -0.461154       -12.5486
 214   2.0000      -0.461097       -12.5471
 215   2.0000      -0.459351       -12.4996
 216   2.0000      -0.458882       -12.4868
 217   2.0000      -0.457573       -12.4512
 218   2.0000      -0.456857       -12.4317
 219   2.0000      -0.456591       -12.4245
 220   2.0000      -0.454185       -12.3590
 221   2.0000      -0.453043       -12.3279
 222   2.0000      -0.450816       -12.2673
 223   2.0000      -0.450730       -12.2650
 224   2.0000      -0.449653       -12.2357
 225   2.0000      -0.449336       -12.2270
 226   2.0000      -0.445945       -12.1348
 227   2.0000      -0.445705       -12.1283
 228   2.0000      -0.444342       -12.0912
 229   2.0000      -0.443888       -12.0788
 230   2.0000      -0.442933       -12.0528
 231   2.0000      -0.442471       -12.0402
 232   2.0000      -0.441761       -12.0209
 233   2.0000      -0.439462       -11.9584
 234   2.0000      -0.436051       -11.8656
 235   2.0000      -0.434349       -11.8192
 236   2.0000      -0.433579       -11.7983
 237   2.0000      -0.430417       -11.7122
 238   2.0000      -0.429408       -11.6848
 239   2.0000      -0.425332       -11.5739
 240   2.0000      -0.424303       -11.5459
 241   2.0000      -0.419904       -11.4262
 242   2.0000      -0.418828       -11.3969
 243   2.0000      -0.418314       -11.3829
 244   2.0000      -0.416742       -11.3401
 245   2.0000      -0.415685       -11.3114
 246   2.0000      -0.413386       -11.2488
 247   2.0000      -0.411650       -11.2016
 248   2.0000      -0.404037       -10.9944
 249   2.0000      -0.398725       -10.8499
 250   2.0000      -0.392422       -10.6784
 251   2.0000      -0.389148       -10.5893
 252   2.0000      -0.375300       -10.2124
 253   2.0000      -0.370034       -10.0691
 254   2.0000      -0.355847        -9.6831
 255   2.0000      -0.347482        -9.4555
 256   2.0000      -0.341498        -9.2926
 257   2.0000      -0.337487        -9.1835
 258   2.0000      -0.336453        -9.1553
 259   2.0000      -0.330464        -8.9924
 260   2.0000      -0.325585        -8.8596
 261   2.0000      -0.318581        -8.6690
 262   2.0000      -0.316845        -8.6218
 263   2.0000      -0.298236        -8.1154
 264   2.0000      -0.288572        -7.8524
 265   2.0000      -0.281947        -7.6722
 266   2.0000      -0.236614        -6.4386
 267   0.0000      -0.153887        -4.1875
 268   0.0000      -0.139856        -3.8057
 269   0.0000      -0.100850        -2.7443
 270   0.0000      -0.100289        -2.7290
 271   0.0000      -0.099003        -2.6940

MULLIKEN ATOMIC CHARGES
-----------------------
   0 C :   -0.029712
   1 C :    0.048501
   2 C :    0.048907
   3 C :   -0.031099
   4 C :    0.008331
   5 C :    0.012111
   6 C :    0.281664
   7 C :   -0.334938
   8 C :   -0.186830
   9 N :    0.166286
  10 C :   -0.156197
  11 N :    0.154926
  12 C :   -0.053696
  13 C :    0.227882
  14 C :   -0.336117
  15 C :   -0.157834
  16 N :    0.174205
  17 C :   -0.199304
  18 N :    0.175702
  19 C :    0.029978
  20 C :   -0.003553
  21 C :   -0.006606
  22 C :   -0.106709
  23 C :   -0.138855
  24 N :    0.148561
  25 C :   -0.029440
  26 C :    0.077942
  27 C :    0.095109
  28 C :    0.097283
  29 C :   -0.059180
  30 C :   -0.085460
  31 C :   -0.040739
  32 C :   -0.121028
  33 N :    0.150020
  34 C :   -0.042088
  35 C :    0.013583
  36 C :    0.113630
  37 N :   -0.031338
  38 C :    0.143126
  39 C :   -0.165475
  40 C :    0.095856
  41 N :   -0.035990
  42 C :    0.138135
  43 C :   -0.160007
  44 C :    0.032566
  45 C :   -0.041774
  46 C :    0.079476
  47 C :   -0.050177
  48 C :   -0.070947
  49 C :   -0.097851
  50 N :    0.124365
  51 C :   -0.020927
  52 C :    0.084117
  53 C :    0.060677
  54 C :    0.081206
  55 C :   -0.002558
  56 C :   -0.096722
  57 C :   -0.046941
  58 C :   -0.134005
  59 N :    0.149242
  60 C :    0.000722
  61 C :   -0.004809
  62 C :    0.044734
  63 C :   -0.067421
  64 C :    0.291670
  65 C :   -0.340007
  66 C :   -0.183459
  67 N :    0.160685
  68 C :   -0.186560
  69 N :    0.162477
  70 C :    0.023378
  71 C :    0.011720
  72 C :   -0.036730
  73 C :    0.049856
  74 C :    0.051353
  75 C :   -0.040699
  76 C :    0.198782
  77 C :   -0.327754
  78 C :   -0.220879
  79 N :    0.194766
  80 C :   -0.198559
  81 N :    0.191273
  82 H :    0.009747
  83 H :    0.009954
  84 H :    0.010356
  85 H :    0.010699
  86 H :    0.024663
  87 H :    0.003124
  88 H :    0.007285
  89 H :   -0.016051
  90 H :   -0.024681
  91 H :    0.018961
  92 H :   -0.021219
  93 H :    0.130512
  94 H :   -0.020588
  95 H :    0.135992
  96 H :   -0.007954
  97 H :   -0.006025
  98 H :   -0.023684
  99 H :   -0.010540
 100 H :   -0.052317
 101 H :    0.004056
 102 H :    0.005535
 103 H :    0.011900
 104 H :    0.015534
 105 H :    0.032900
 106 H :    0.012269
 107 H :    0.013525
 108 H :    0.005962
 109 H :    0.006255
Sum of atomic charges:   -0.0000000

LOEWDIN ATOMIC CHARGES
----------------------
   0 C :    0.007369
   1 C :    0.006991
   2 C :    0.008193
   3 C :    0.004851
   4 C :   -0.011187
   5 C :   -0.012402
   6 C :    0.079107
   7 C :   -0.128845
   8 C :   -0.020027
   9 N :   -0.038060
  10 C :   -0.012528
  11 N :   -0.040232
  12 C :   -0.046726
  13 C :    0.070926
  14 C :   -0.124769
  15 C :   -0.007680
  16 N :   -0.048638
  17 C :   -0.021209
  18 N :   -0.038846
  19 C :    0.069524
  20 C :   -0.054855
  21 C :    0.035138
  22 C :   -0.071446
  23 C :   -0.035548
  24 N :   -0.045120
  25 C :    0.016831
  26 C :    0.018508
  27 C :    0.065976
  28 C :   -0.007871
  29 C :   -0.033575
  30 C :   -0.018365
  31 C :   -0.044321
  32 C :   -0.024517
  33 N :   -0.028908
  34 C :   -0.009879
  35 C :   -0.005830
  36 C :    0.016942
  37 N :    0.074584
  38 C :   -0.005472
  39 C :   -0.072414
  40 C :    0.013416
  41 N :    0.070712
  42 C :    0.004406
  43 C :   -0.070632
  44 C :   -0.003521
  45 C :   -0.039520
  46 C :   -0.012179
  47 C :   -0.028192
  48 C :   -0.027720
  49 C :   -0.017425
  50 N :   -0.041123
  51 C :   -0.040785
  52 C :    0.050297
  53 C :    0.030828
  54 C :   -0.039157
  55 C :    0.037334
  56 C :   -0.052762
  57 C :   -0.006607
  58 C :   -0.033416
  59 N :   -0.034690
  60 C :    0.025388
  61 C :   -0.020863
  62 C :    0.060948
  63 C :   -0.051423
  64 C :    0.077703
  65 C :   -0.130288
  66 C :   -0.021613
  67 N :   -0.041418
  68 C :   -0.019090
  69 N :   -0.043339
  70 C :   -0.013443
  71 C :   -0.014785
  72 C :    0.007447
  73 C :    0.012530
  74 C :    0.004708
  75 C :    0.004429
  76 C :    0.065667
  77 C :   -0.138824
  78 C :   -0.028942
  79 N :   -0.036750
  80 C :   -0.018877
  81 N :   -0.038385
  82 H :    0.042966
  83 H :    0.039984
  84 H :    0.040003
  85 H :    0.042539
  86 H :    0.044374
  87 H :    0.034615
  88 H :    0.036404
  89 H :    0.026840
  90 H :    0.027907
  91 H :    0.036067
  92 H :    0.031037
  93 H :    0.094891
  94 H :    0.031211
  95 H :    0.094202
  96 H :    0.034223
  97 H :    0.040272
  98 H :    0.022708
  99 H :    0.029313
 100 H :    0.025971
 101 H :    0.037411
 102 H :    0.034313
 103 H :    0.034044
 104 H :    0.040225
 105 H :    0.049633
 106 H :    0.040991
 107 H :    0.042125
 108 H :    0.038459
 109 H :    0.041557

  Mayer bond orders larger than 0.100000
B(  0-C ,  1-C ) :   1.3741 B(  0-C ,  5-C ) :   1.3783 B(  0-C , 82-H ) :   0.9850
B(  1-C ,  2-C ) :   1.3711 B(  1-C , 83-H ) :   0.9866 B(  2-C ,  3-C ) :   1.3706
B(  2-C , 84-H ) :   0.9866 B(  3-C ,  4-C ) :   1.3756 B(  3-C , 85-H ) :   0.9881
B(  4-C ,  5-C ) :   1.3053 B(  4-C , 13-C ) :   1.0134 B(  5-C ,  6-C ) :   1.0049
B(  6-C ,  7-C ) :   1.6603 B(  6-C , 12-C ) :   1.0278 B(  7-C ,  8-C ) :   1.1389
B(  7-C , 10-C ) :   1.1453 B(  8-C ,  9-N ) :   2.9820 B( 10-C , 11-N ) :   2.9451
B( 12-C , 13-C ) :   0.9928 B( 12-C , 19-C ) :   1.6977 B( 13-C , 14-C ) :   1.6807
B( 14-C , 15-C ) :   1.1489 B( 14-C , 17-C ) :   1.1450 B( 15-C , 16-N ) :   2.9797
B( 17-C , 18-N ) :   2.9992 B( 19-C , 20-C ) :   1.0446 B( 19-C , 86-H ) :   0.9254
B( 20-C , 21-C ) :   1.5424 B( 20-C , 26-C ) :   1.1168 B( 21-C , 22-C ) :   1.1444
B( 21-C , 87-H ) :   1.0201 B( 22-C , 23-C ) :   1.0546 B( 22-C , 25-C ) :   1.5733
B( 23-C , 24-N ) :   3.0446 B( 25-C , 26-C ) :   1.1231 B( 25-C , 88-H ) :   1.0153
B( 26-C , 27-C ) :   1.3886 B( 27-C , 28-C ) :   1.0131 B( 27-C , 31-C ) :   1.1589
B( 28-C , 29-C ) :   1.5147 B( 28-C , 34-C ) :   1.1777 B( 29-C , 30-C ) :   1.1728
B( 29-C , 89-H ) :   1.0106 B( 30-C , 31-C ) :   1.5190 B( 30-C , 32-C ) :   1.0574
B( 31-C , 90-H ) :   1.0152 B( 32-C , 33-N ) :   3.0321 B( 34-C , 35-C ) :   1.5497
B( 34-C , 91-H ) :   0.9666 B( 35-C , 36-C ) :   1.1732 B( 35-C , 92-H ) :   0.9696
B( 36-C , 37-N ) :   1.1677 B( 36-C , 43-C ) :   1.3227 B( 37-N , 38-C ) :   1.1729
B( 37-N , 93-H ) :   0.9341 B( 38-C , 39-C ) :   1.2869 B( 38-C , 42-C ) :   1.2493
B( 39-C , 40-C ) :   1.2958 B( 39-C , 94-H ) :   1.0439 B( 40-C , 41-N ) :   1.1918
B( 40-C , 44-C ) :   1.2039 B( 41-N , 42-C ) :   1.1680 B( 41-N , 95-H ) :   0.9295
B( 42-C , 43-C ) :   1.3164 B( 43-C , 96-H ) :   1.0321 B( 44-C , 45-C ) :   1.5430
B( 44-C , 97-H ) :   0.9619 B( 45-C , 46-C ) :   1.1674 B( 45-C , 98-H ) :   0.9611
B( 46-C , 47-C ) :   1.5368 B( 46-C , 52-C ) :   1.0205 B( 47-C , 48-C ) :   1.1478
B( 47-C , 99-H ) :   1.0134 B( 48-C , 49-C ) :   1.0588 B( 48-C , 51-C ) :   1.5571
B( 49-C , 50-N ) :   2.9706 B( 51-C , 52-C ) :   1.1485 B( 51-C ,100-H ) :   1.0182
B( 52-C , 53-C ) :   1.4194 B( 53-C , 54-C ) :   1.0595 B( 53-C , 57-C ) :   1.1213
B( 54-C , 55-C ) :   1.5530 B( 54-C , 60-C ) :   1.1238 B( 55-C , 56-C ) :   1.1400
B( 55-C ,101-H ) :   1.0104 B( 56-C , 57-C ) :   1.5737 B( 56-C , 58-C ) :   1.0543
B( 57-C ,102-H ) :   1.0123 B( 58-C , 59-N ) :   3.0392 B( 60-C , 61-C ) :   1.6590
B( 60-C ,103-H ) :   0.9599 B( 61-C , 62-C ) :   1.1448 B( 61-C ,104-H ) :   0.9520
B( 62-C , 63-C ) :   1.6422 B( 62-C ,105-H ) :   0.9228 B( 63-C , 64-C ) :   1.0419
B( 63-C , 76-C ) :   1.0129 B( 64-C , 65-C ) :   1.6504 B( 64-C , 70-C ) :   1.0007
B( 65-C , 66-C ) :   1.1371 B( 65-C , 68-C ) :   1.1435 B( 66-C , 67-N ) :   2.9750
B( 68-C , 69-N ) :   2.9799 B( 70-C , 71-C ) :   1.3075 B( 70-C , 75-C ) :   1.3776
B( 71-C , 72-C ) :   1.3666 B( 71-C , 76-C ) :   1.0092 B( 72-C , 73-C ) :   1.3732
B( 72-C ,106-H ) :   0.9892 B( 73-C , 74-C ) :   1.3691 B( 73-C ,107-H ) :   0.9884
B( 74-C , 75-C ) :   1.3688 B( 74-C ,108-H ) :   0.9864 B( 75-C ,109-H ) :   0.9856
B( 76-C , 77-C ) :   1.6501 B( 77-C , 78-C ) :   1.1430 B( 77-C , 80-C ) :   1.1660
B( 78-C , 79-N ) :   2.9980 B( 80-C , 81-N ) :   3.0044

-----------------------------------------------------------------------------
         ABSORPTION SPECTRUM VIA TRANSITION ELECTRIC DIPOLE MOMENTS
-----------------------------------------------------------------------------
State   Energy  Wavelength   fosc         T2         TX        TY        TZ
        (cm-1)    (nm)                  (au**2)     (au)      (au)      (au)
-----------------------------------------------------------------------------
   0    3387.8   2951.8   0.196589001  19.10360   2.68359   3.43499  -0.32065
   1    6182.9   1617.4   0.073277443   3.90168   0.86240  -0.13399  -1.77200
   2   11194.1    893.3   0.040997103   1.20570  -0.44998  -0.62702   0.78107
   3   14357.3    696.5   0.032922680   0.75492   0.33601   0.18403   0.77984
   4   14714.1    679.6   0.005972868   0.13364  -0.31570   0.15594   0.09824
   5   16564.3    603.7   0.039968301   0.79436   0.32593   0.76728  -0.31531
   6   17069.7    585.8   0.519143672  10.01239  -1.84142  -2.50432   0.59158
   7   17911.0    558.3   0.008595406   0.15799  -0.04812  -0.33913   0.20165
   8   18245.3    548.1   0.000556993   0.01005   0.08521   0.04827   0.02142
   9   20501.0    487.8   0.072464064   1.16365  -0.50543  -0.93821   0.16720
  10   20564.5    486.3   0.199569406   3.19486   1.02586   1.37202  -0.50992
  11   21602.0    462.9   0.058221374   0.88729  -0.50381  -0.53288  -0.59119
  12   21651.4    461.9   0.043372111   0.65948   0.20544   0.65679  -0.43117
  13   21992.5    454.7   0.049332026   0.73846   0.33163   0.48137   0.62990
  14   22370.7    447.0   0.142622022   2.09886   0.75971   0.36416   1.17859
  15   22945.1    435.8   0.039951544   0.57322  -0.23825   0.71560  -0.06613
  16   23583.0    424.0   0.031334979   0.43743   0.23866   0.38186  -0.48441
  17   23667.6    422.5   0.076337716   1.06185  -0.40387  -0.55080   0.77159
  18   23965.0    417.3   0.417641441   5.73721  -1.02582  -1.82181   1.16872
  19   24297.7    411.6   0.154633332   2.09514  -0.63307  -0.46168  -1.21705
  20   24394.5    409.9   0.024256489   0.32735  -0.37749  -0.26648  -0.33740
  21   24858.1    402.3   0.067351815   0.89198   0.02965  -0.59275  -0.73468
  22   26142.6    382.5   0.021656023   0.27271  -0.13944  -0.18369   0.46854
  23   26733.1    374.1   0.083203707   1.02464   0.35265   0.94188   0.11464
  24   26810.0    373.0   0.581878072   7.14514   1.14998  -1.95214  -1.41839
  25   27533.8    363.2   0.437925164   5.23612   1.32909   1.42665  -1.19763
  26   27862.1    358.9   0.075226843   0.88886  -0.82649  -0.44868   0.06681
  27   28321.5    353.1   0.135494873   1.57501  -0.96954  -0.22998   0.76296
  28   28642.1    349.1   0.018366516   0.21110   0.42276   0.11795  -0.13588
  29   28831.7    346.8   0.027711409   0.31642   0.53149  -0.05913  -0.17447
  30   29310.1    341.2   0.488934098   5.49172  -0.33900  -2.29662   0.31993
  31   29657.7    337.2   0.001426909   0.01584   0.01511  -0.04554   0.11635
  32   30232.0    330.8   0.128929019   1.40397  -0.73994  -0.74563  -0.54818
  33   30589.5    326.9   0.051034927   0.54925   0.03876  -0.73878  -0.04428
  34   30839.1    324.3   0.077228237   0.82442  -0.90148   0.10829   0.00480
  35   31414.7    318.3   0.334213060   3.50240  -0.65668   0.48706  -1.68343
  36   32235.0    310.2   0.092195614   0.94158   0.66800   0.64105  -0.29052
  37   32285.0    309.7   0.042604697   0.43444   0.23322   0.51830  -0.33379
  38   32368.7    308.9   0.164970108   1.67786  -0.51236  -1.18842  -0.05489
  39   32401.3    308.6   0.210618237   2.13998  -0.55360  -1.21261   0.60255
  40   32597.5    306.8   0.028523502   0.28807   0.15272  -0.03961  -0.51301
  41   32953.7    303.5   0.132526139   1.32395   0.14476   0.53940  -1.00600
  42   33113.0    302.0   0.036916530   0.36703   0.31484   0.24625  -0.45526
  43   33355.7    299.8   0.262144174   2.58730   0.69851  -1.08753   0.95742
  44   33608.1    297.5   0.054354696   0.53244  -0.71192   0.12804   0.09601
  45   33704.3    296.7   0.002705456   0.02643   0.02505  -0.15633   0.03686
  46   33840.6    295.5   0.108752055   1.05797  -0.40998  -0.11081   0.93681
  47   34680.8    288.3   0.195871092   1.85933   0.36047  -1.07006  -0.76444
  48   34979.7    285.9   0.030792683   0.28981   0.00809  -0.50965  -0.17320
  49   34997.8    285.7   0.037691501   0.35455  -0.49288   0.04684   0.33080
  50   35203.1    284.1   0.088740638   0.82988   0.12633  -0.71279  -0.55304
  51   35508.8    281.6   0.045399675   0.42091  -0.46390   0.42029  -0.17049
  52   35586.3    281.0   0.513296217   4.74855  -0.12368  -0.30986  -2.15342
  53   35673.7    280.3   0.009850490   0.09090  -0.00255  -0.12794  -0.27300
  54   35813.3    279.2   0.111555912   1.02547  -0.68181  -0.74833  -0.02482
  55   35903.2    278.5   0.076254663   0.69921  -0.48431  -0.53389  -0.42381
  56   36078.0    277.2   0.031534561   0.28775   0.15636  -0.28073  -0.42953
  57   36163.9    276.5   0.006814491   0.06203  -0.24426  -0.02322   0.04283
  58   36353.8    275.1   0.036851867   0.33372  -0.06280  -0.47494  -0.32281
  59   36665.8    272.7   0.141315652   1.26883   0.63182  -0.68051  -0.63761
  60   37237.3    268.5   0.012473280   0.11028  -0.22164  -0.23075   0.08892
  61   37315.5    268.0   0.035598488   0.31406   0.05684  -0.39400  -0.39446
  62   37512.8    266.6   0.087082091   0.76423  -0.27759   0.44318  -0.70055
  63   37628.8    265.8   0.064499218   0.56430  -0.15268   0.69487   0.24113
  64   38153.0    262.1   0.000895244   0.00772  -0.06054   0.04081  -0.04894
  65   38246.3    261.5   0.001811998   0.01560  -0.02903   0.09146  -0.07993
  66   38324.4    260.9   0.001150332   0.00988  -0.01364   0.08216   0.05426
  67   38378.4    260.6   0.020495647   0.17581   0.06557   0.19006   0.36795
  68   38621.1    258.9   0.004503601   0.03839  -0.14094   0.13078   0.03773
  69   39059.4    256.0   0.010981201   0.09256  -0.01820  -0.02958  -0.30224
  70   39156.5    255.4   0.001581599   0.01330  -0.00215   0.10906   0.03739
  71   39195.1    255.1   0.041268483   0.34663  -0.42702  -0.38301  -0.13259
  72   39401.9    253.8   0.004884435   0.04081  -0.01544   0.05551   0.19363
  73   39496.9    253.2   0.005436579   0.04531  -0.18285  -0.10418   0.03204
  74   39660.5    252.1   0.009225875   0.07658   0.02647  -0.27514   0.01332
  75   40050.9    249.7   0.034781478   0.28590   0.32757  -0.01221  -0.42243
  76   40145.0    249.1   0.083628654   0.68580   0.08600   0.76144   0.31403
  77   40277.1    248.3   0.048940988   0.40003   0.04364  -0.63097   0.00214

FINAL SINGLE POINT ENERGY     -3369.813651297899

DIPOLE MOMENT
-------------
                                X             Y             Z
Electronic contribution:     -0.00111       8.88586       8.46849
Nuclear contribution   :      2.46549      -9.12862      -9.69421
                        -----------------------------------------
Total Dipole Moment    :      2.46438      -0.24276      -1.22572
                        -----------------------------------------
Magnitude (a.u.)       :      2.76306
Magnitude (Debye)      :      7.02314

Rotational constants in cm-1:     0.001360     0.000219     0.000202
Rotational constants in MHz :    40.784562     6.553014     6.050871

                             ****ORCA TERMINATED NORMALLY****
TOTAL RUN TIME: 0 days 0 hours 17 minutes 30 seconds 170 msec
