                         Program Version 4.2.0 -  RELEASE  -
|  1> # ORCA input file
|  2> # SCF done       -165.105201902870          0.000927974847
|  3> ! CAM-B3LYP def2-SVP def2/J RIJCOSX Grid4 TightSCF
|  4> %maxcore 5000
|  5> %tddft
|  6>     Mode sTDDFT
|  7>     Ethresh 5.0
|  8>     maxcore 5000
|  9> end
| 10>
| 11> %pal
| 12>   nprocs 6
| 13>   end
| 14> * xyz 0 1
| 15>    C      -11.42546        -5.59317         0.55700
| 16>    C      -11.57149        -6.66412        -0.31108
| 17>    C      -10.49089        -7.15944        -1.02920
| 18>    C       -9.22738        -6.60551        -0.89140
| 19>    C       -9.06818        -5.53895        -0.02235
| 20>    C      -10.16966        -5.02142         0.69872
| 21>    C       -9.72516        -3.88763         1.49252
| 22>    C      -10.45262        -3.21495         2.43330
| 23>    C      -11.78984        -3.52154         2.76852
| 24>    N      -12.87908        -3.71072         3.07462
| 25>    C       -9.96183        -2.14757         3.21468
| 26>    N       -9.61631        -1.27687         3.87873
| 27>    C       -8.34801        -3.60314         1.07766
| 28>    C       -7.88405        -4.77443         0.32745
| 29>    C       -6.58825        -5.17032         0.16568
| 30>    C       -5.49059        -4.50061         0.74491
| 31>    N       -4.58687        -4.02155         1.26438
| 32>    C       -6.20742        -6.36797        -0.48055
| 33>    N       -5.84622        -7.33698        -0.97541
| 34>    C       -7.72921        -2.40783         1.22890
| 35>    C       -6.57749        -1.93183         0.50683
| 36>    C       -5.56425        -1.16027         1.05608
| 37>    C       -5.24610        -0.77869         2.43722
| 38>    O       -4.41530         0.07896         2.64050
| 39>    C       -5.96130        -1.50104         3.54606
| 40>    S       -4.42644        -0.64844        -0.13539
| 41>    C       -5.31334        -1.41621        -1.36704
| 42>    C       -6.42747        -2.06385        -0.90945
| 43>    C       -7.43105        -2.67031        -1.80380
| 44>    S       -6.92101        -4.13431        -2.86208
| 45>    C       -7.51564        -2.90951        -3.96495
| 46>    C       -7.77737        -1.94239        -3.07508
| 47>    C       -8.35948        -0.59977        -3.10474
| 48>    O       -8.00123         0.30884        -2.39131
| 49>    O       -9.35425        -0.52449        -3.99108
| 50>    C      -10.12730         0.66459        -4.01809
| 51>    C      -10.29323         1.38835        -2.71371
| 52>    C      -10.70721         0.86056        -1.50722
| 53>    C      -10.87566        -0.52739        -1.07262
| 54>    O      -10.35557        -1.47072        -1.63286
| 55>    C      -11.72703        -0.70523         0.15998
| 56>    S      -10.96798         2.11672        -0.33147
| 57>    C      -10.56356         3.32306        -1.45102
| 58>    C      -10.22195         2.81383        -2.67954
| 59>    C       -9.75396         3.62539        -3.77991
| 60>    C      -10.25746         4.81143        -4.18271
| 61>    C       -9.56968         5.74725        -5.08005
| 62>    C       -8.62999         5.42908        -6.01671
| 63>    C       -8.22342         4.10815        -6.30977
| 64>    N       -7.89266         3.04903        -6.60227
| 65>    C       -8.00487         6.37392        -6.86054
| 66>    N       -7.46585         7.09862        -7.56713
| 67>    C      -10.13352         7.06067        -4.81590
| 68>    C      -11.25915         6.91528        -3.96997
| 69>    C      -11.98356         8.02538        -3.56471
| 70>    C      -11.57999         9.27579        -4.00683
| 71>    C      -10.47910         9.41905        -4.84142
| 72>    C       -9.74596         8.31751        -5.25510
| 73>    C      -11.45893         5.50127        -3.70231
| 74>    C      -12.62034         4.90941        -3.29673
| 75>    C      -13.76893         5.62732        -2.89719
| 76>    N      -14.71934         6.16582        -2.54826
| 77>    C      -12.84155         3.51600        -3.32487
| 78>    N      -13.08826         2.39725        -3.39440
| 79>    H      -12.27780        -5.21541         1.09795
| 80>    H      -12.54495        -7.11345        -0.43448
| 81>    H      -10.63536        -7.98577        -1.70803
| 82>    H       -8.39572        -6.98469        -1.46264
| 83>    H       -8.19303        -1.67485         1.87384
| 84>    H       -6.03883        -2.56256         3.32629
| 85>    H       -6.96154        -1.08995         3.67695
| 86>    H       -5.41146        -1.35217         4.47188
| 87>    H       -4.98889        -1.35398        -2.38747
| 88>    H       -8.34443        -2.94249        -1.27547
| 89>    H       -7.58568        -2.99113        -5.03104
| 90>    H      -11.11412         0.35124        -4.37805
| 91>    H       -9.68776         1.34404        -4.75793
| 92>    H      -11.21265        -0.29821         1.03009
| 93>    H      -11.92157        -1.76338         0.31783
| 94>    H      -12.67081        -0.17693         0.04814
| 95>    H      -10.54131         4.35170        -1.14542
| 96>    H       -8.85304         3.26230        -4.25704
| 97>    H      -12.83590         7.92724        -2.91197
| 98>    H      -12.13081        10.14985        -3.69541
| 99>    H      -10.18581        10.40318        -5.17286
|100>    H       -8.89043         8.44487        -5.89815
|101> *
|102>
|103>                          ****END OF INPUT****

CARTESIAN COORDINATES (ANGSTROEM)
---------------------------------
  C    -11.425460   -5.593170    0.557000
  C    -11.571490   -6.664120   -0.311080
  C    -10.490890   -7.159440   -1.029200
  C     -9.227380   -6.605510   -0.891400
  C     -9.068180   -5.538950   -0.022350
  C    -10.169660   -5.021420    0.698720
  C     -9.725160   -3.887630    1.492520
  C    -10.452620   -3.214950    2.433300
  C    -11.789840   -3.521540    2.768520
  N    -12.879080   -3.710720    3.074620
  C     -9.961830   -2.147570    3.214680
  N     -9.616310   -1.276870    3.878730
  C     -8.348010   -3.603140    1.077660
  C     -7.884050   -4.774430    0.327450
  C     -6.588250   -5.170320    0.165680
  C     -5.490590   -4.500610    0.744910
  N     -4.586870   -4.021550    1.264380
  C     -6.207420   -6.367970   -0.480550
  N     -5.846220   -7.336980   -0.975410
  C     -7.729210   -2.407830    1.228900
  C     -6.577490   -1.931830    0.506830
  C     -5.564250   -1.160270    1.056080
  C     -5.246100   -0.778690    2.437220
  O     -4.415300    0.078960    2.640500
  C     -5.961300   -1.501040    3.546060
  S     -4.426440   -0.648440   -0.135390
  C     -5.313340   -1.416210   -1.367040
  C     -6.427470   -2.063850   -0.909450
  C     -7.431050   -2.670310   -1.803800
  S     -6.921010   -4.134310   -2.862080
  C     -7.515640   -2.909510   -3.964950
  C     -7.777370   -1.942390   -3.075080
  C     -8.359480   -0.599770   -3.104740
  O     -8.001230    0.308840   -2.391310
  O     -9.354250   -0.524490   -3.991080
  C    -10.127300    0.664590   -4.018090
  C    -10.293230    1.388350   -2.713710
  C    -10.707210    0.860560   -1.507220
  C    -10.875660   -0.527390   -1.072620
  O    -10.355570   -1.470720   -1.632860
  C    -11.727030   -0.705230    0.159980
  S    -10.967980    2.116720   -0.331470
  C    -10.563560    3.323060   -1.451020
  C    -10.221950    2.813830   -2.679540
  C     -9.753960    3.625390   -3.779910
  C    -10.257460    4.811430   -4.182710
  C     -9.569680    5.747250   -5.080050
  C     -8.629990    5.429080   -6.016710
  C     -8.223420    4.108150   -6.309770
  N     -7.892660    3.049030   -6.602270
  C     -8.004870    6.373920   -6.860540
  N     -7.465850    7.098620   -7.567130
  C    -10.133520    7.060670   -4.815900
  C    -11.259150    6.915280   -3.969970
  C    -11.983560    8.025380   -3.564710
  C    -11.579990    9.275790   -4.006830
  C    -10.479100    9.419050   -4.841420
  C     -9.745960    8.317510   -5.255100
  C    -11.458930    5.501270   -3.702310
  C    -12.620340    4.909410   -3.296730
  C    -13.768930    5.627320   -2.897190
  N    -14.719340    6.165820   -2.548260
  C    -12.841550    3.516000   -3.324870
  N    -13.088260    2.397250   -3.394400
  H    -12.277800   -5.215410    1.097950
  H    -12.544950   -7.113450   -0.434480
  H    -10.635360   -7.985770   -1.708030
  H     -8.395720   -6.984690   -1.462640
  H     -8.193030   -1.674850    1.873840
  H     -6.038830   -2.562560    3.326290
  H     -6.961540   -1.089950    3.676950
  H     -5.411460   -1.352170    4.471880
  H     -4.988890   -1.353980   -2.387470
  H     -8.344430   -2.942490   -1.275470
  H     -7.585680   -2.991130   -5.031040
  H    -11.114120    0.351240   -4.378050
  H     -9.687760    1.344040   -4.757930
  H    -11.212650   -0.298210    1.030090
  H    -11.921570   -1.763380    0.317830
  H    -12.670810   -0.176930    0.048140
  H    -10.541310    4.351700   -1.145420
  H     -8.853040    3.262300   -4.257040
  H    -12.835900    7.927240   -2.911970
  H    -12.130810   10.149850   -3.695410
  H    -10.185810   10.403180   -5.172860
  H     -8.890430    8.444870   -5.898150

 Total Charge           Charge          ....    0
 Multiplicity           Mult            ....    1
 Number of Electrons    NEL             ....  452
 Basis Dimension        Dim             .... 1018

ORBITAL ENERGIES
----------------

  NO   OCC          E(Eh)            E(eV)
   0   2.0000     -88.987161     -2421.4638
   1   2.0000     -88.968589     -2420.9584
   2   2.0000     -88.938098     -2420.1287
   3   2.0000     -19.265235      -524.2337
   4   2.0000     -19.225038      -523.1399
   5   2.0000     -19.207738      -522.6691
   6   2.0000     -19.199873      -522.4551
   7   2.0000     -14.438399      -392.8888
   8   2.0000     -14.437374      -392.8609
   9   2.0000     -14.437268      -392.8580
  10   2.0000     -14.436700      -392.8426
  11   2.0000     -14.435009      -392.7966
  12   2.0000     -14.431979      -392.7141
  13   2.0000     -14.426501      -392.5650
  14   2.0000     -14.425291      -392.5321
  15   2.0000     -10.407160      -283.1932
  16   2.0000     -10.382193      -282.5138
  17   2.0000     -10.369926      -282.1800
  18   2.0000     -10.368515      -282.1416
  19   2.0000     -10.365234      -282.0523
  20   2.0000     -10.364836      -282.0415
  21   2.0000     -10.362608      -281.9809
  22   2.0000     -10.361380      -281.9475
  23   2.0000     -10.360687      -281.9286
  24   2.0000     -10.359546      -281.8976
  25   2.0000     -10.355302      -281.7821
  26   2.0000     -10.348884      -281.6075
  27   2.0000     -10.341508      -281.4067
  28   2.0000     -10.340038      -281.3667
  29   2.0000     -10.339519      -281.3526
  30   2.0000     -10.338958      -281.3374
  31   2.0000     -10.338662      -281.3293
  32   2.0000     -10.338138      -281.3150
  33   2.0000     -10.336644      -281.2744
  34   2.0000     -10.333972      -281.2017
  35   2.0000     -10.333836      -281.1980
  36   2.0000     -10.331412      -281.1320
  37   2.0000     -10.330381      -281.1040
  38   2.0000     -10.330349      -281.1031
  39   2.0000     -10.329840      -281.0892
  40   2.0000     -10.327992      -281.0389
  41   2.0000     -10.326806      -281.0067
  42   2.0000     -10.321598      -280.8650
  43   2.0000     -10.320652      -280.8392
  44   2.0000     -10.319967      -280.8206
  45   2.0000     -10.319237      -280.8007
  46   2.0000     -10.317029      -280.7406
  47   2.0000     -10.316622      -280.7295
  48   2.0000     -10.315268      -280.6927
  49   2.0000     -10.314673      -280.6765
  50   2.0000     -10.314460      -280.6707
  51   2.0000     -10.314047      -280.6595
  52   2.0000     -10.313842      -280.6539
  53   2.0000     -10.309081      -280.5244
  54   2.0000     -10.307177      -280.4725
  55   2.0000     -10.306767      -280.4614
  56   2.0000     -10.306748      -280.4609
  57   2.0000     -10.306221      -280.4465
  58   2.0000     -10.305322      -280.4221
  59   2.0000     -10.304026      -280.3868
  60   2.0000     -10.295904      -280.1658
  61   2.0000     -10.288627      -279.9678
  62   2.0000     -10.283917      -279.8396
  63   2.0000     -10.262695      -279.2621
  64   2.0000      -8.082840      -219.9453
  65   2.0000      -8.064092      -219.4351
  66   2.0000      -8.033536      -218.6036
  67   2.0000      -6.051994      -164.6831
  68   2.0000      -6.047540      -164.5619
  69   2.0000      -6.045483      -164.5060
  70   2.0000      -6.033048      -164.1676
  71   2.0000      -6.028683      -164.0488
  72   2.0000      -6.027004      -164.0031
  73   2.0000      -6.003396      -163.3607
  74   2.0000      -6.000315      -163.2769
  75   2.0000      -5.993308      -163.0862
  76   2.0000      -1.199775       -32.6475
  77   2.0000      -1.141501       -31.0618
  78   2.0000      -1.120502       -30.4904
  79   2.0000      -1.103241       -30.0207
  80   2.0000      -1.053801       -28.6754
  81   2.0000      -1.046721       -28.4827
  82   2.0000      -1.034115       -28.1397
  83   2.0000      -1.028992       -28.0003
  84   2.0000      -1.023479       -27.8503
  85   2.0000      -1.019094       -27.7309
  86   2.0000      -1.015921       -27.6446
  87   2.0000      -1.014765       -27.6132
  88   2.0000      -1.012392       -27.5486
  89   2.0000      -1.011304       -27.5190
  90   2.0000      -1.007191       -27.4071
  91   2.0000      -1.001059       -27.2402
  92   2.0000      -0.979758       -26.6606
  93   2.0000      -0.975136       -26.5348
  94   2.0000      -0.966582       -26.3020
  95   2.0000      -0.957671       -26.0596
  96   2.0000      -0.950774       -25.8719
  97   2.0000      -0.923988       -25.1430
  98   2.0000      -0.912824       -24.8392
  99   2.0000      -0.909998       -24.7623
 100   2.0000      -0.901739       -24.5376
 101   2.0000      -0.890014       -24.2185
 102   2.0000      -0.882480       -24.0135
 103   2.0000      -0.874085       -23.7851
 104   2.0000      -0.872996       -23.7554
 105   2.0000      -0.863916       -23.5083
 106   2.0000      -0.850718       -23.1492
 107   2.0000      -0.837715       -22.7954
 108   2.0000      -0.824561       -22.4374
 109   2.0000      -0.818315       -22.2675
 110   2.0000      -0.807737       -21.9796
 111   2.0000      -0.800674       -21.7874
 112   2.0000      -0.794964       -21.6321
 113   2.0000      -0.788192       -21.4478
 114   2.0000      -0.778248       -21.1772
 115   2.0000      -0.764851       -20.8126
 116   2.0000      -0.734123       -19.9765
 117   2.0000      -0.733046       -19.9472
 118   2.0000      -0.725428       -19.7399
 119   2.0000      -0.724706       -19.7202
 120   2.0000      -0.720697       -19.6112
 121   2.0000      -0.720425       -19.6038
 122   2.0000      -0.712051       -19.3759
 123   2.0000      -0.694360       -18.8945
 124   2.0000      -0.686766       -18.6879
 125   2.0000      -0.685889       -18.6640
 126   2.0000      -0.683319       -18.5941
 127   2.0000      -0.677880       -18.4461
 128   2.0000      -0.674670       -18.3587
 129   2.0000      -0.667089       -18.1524
 130   2.0000      -0.662039       -18.0150
 131   2.0000      -0.648623       -17.6499
 132   2.0000      -0.640377       -17.4255
 133   2.0000      -0.631464       -17.1830
 134   2.0000      -0.619327       -16.8527
 135   2.0000      -0.610954       -16.6249
 136   2.0000      -0.604072       -16.4376
 137   2.0000      -0.600678       -16.3453
 138   2.0000      -0.598817       -16.2946
 139   2.0000      -0.596358       -16.2277
 140   2.0000      -0.590293       -16.0627
 141   2.0000      -0.581007       -15.8100
 142   2.0000      -0.576165       -15.6782
 143   2.0000      -0.572035       -15.5659
 144   2.0000      -0.566217       -15.4075
 145   2.0000      -0.565298       -15.3825
 146   2.0000      -0.559999       -15.2383
 147   2.0000      -0.556305       -15.1378
 148   2.0000      -0.554452       -15.0874
 149   2.0000      -0.553166       -15.0524
 150   2.0000      -0.551344       -15.0028
 151   2.0000      -0.548325       -14.9207
 152   2.0000      -0.546401       -14.8683
 153   2.0000      -0.544457       -14.8154
 154   2.0000      -0.539180       -14.6718
 155   2.0000      -0.537261       -14.6196
 156   2.0000      -0.531199       -14.4547
 157   2.0000      -0.530239       -14.4285
 158   2.0000      -0.528547       -14.3825
 159   2.0000      -0.524977       -14.2853
 160   2.0000      -0.523999       -14.2587
 161   2.0000      -0.520739       -14.1700
 162   2.0000      -0.519173       -14.1274
 163   2.0000      -0.511719       -13.9246
 164   2.0000      -0.507344       -13.8055
 165   2.0000      -0.502573       -13.6757
 166   2.0000      -0.500681       -13.6242
 167   2.0000      -0.495446       -13.4818
 168   2.0000      -0.495183       -13.4746
 169   2.0000      -0.489751       -13.3268
 170   2.0000      -0.485692       -13.2163
 171   2.0000      -0.484117       -13.1735
 172   2.0000      -0.479250       -13.0411
 173   2.0000      -0.477547       -12.9947
 174   2.0000      -0.476586       -12.9686
 175   2.0000      -0.472149       -12.8478
 176   2.0000      -0.471338       -12.8258
 177   2.0000      -0.469474       -12.7750
 178   2.0000      -0.467482       -12.7208
 179   2.0000      -0.467066       -12.7095
 180   2.0000      -0.465566       -12.6687
 181   2.0000      -0.463458       -12.6113
 182   2.0000      -0.461662       -12.5625
 183   2.0000      -0.460055       -12.5187
 184   2.0000      -0.458926       -12.4880
 185   2.0000      -0.458168       -12.4674
 186   2.0000      -0.454521       -12.3682
 187   2.0000      -0.453861       -12.3502
 188   2.0000      -0.452142       -12.3034
 189   2.0000      -0.450820       -12.2674
 190   2.0000      -0.448344       -12.2001
 191   2.0000      -0.446811       -12.1584
 192   2.0000      -0.445876       -12.1329
 193   2.0000      -0.444708       -12.1011
 194   2.0000      -0.442439       -12.0394
 195   2.0000      -0.440902       -11.9976
 196   2.0000      -0.439391       -11.9564
 197   2.0000      -0.436814       -11.8863
 198   2.0000      -0.434735       -11.8298
 199   2.0000      -0.433767       -11.8034
 200   2.0000      -0.432417       -11.7667
 201   2.0000      -0.431570       -11.7436
 202   2.0000      -0.429090       -11.6761
 203   2.0000      -0.428353       -11.6561
 204   2.0000      -0.426429       -11.6037
 205   2.0000      -0.422934       -11.5086
 206   2.0000      -0.419250       -11.4084
 207   2.0000      -0.409964       -11.1557
 208   2.0000      -0.401680       -10.9303
 209   2.0000      -0.393360       -10.7039
 210   2.0000      -0.389729       -10.6051
 211   2.0000      -0.383403       -10.4329
 212   2.0000      -0.381002       -10.3676
 213   2.0000      -0.371390       -10.1060
 214   2.0000      -0.369105       -10.0439
 215   2.0000      -0.350839        -9.5468
 216   2.0000      -0.347559        -9.4575
 217   2.0000      -0.342234        -9.3127
 218   2.0000      -0.337636        -9.1875
 219   2.0000      -0.330026        -8.9805
 220   2.0000      -0.326748        -8.8913
 221   2.0000      -0.324025        -8.8172
 222   2.0000      -0.311902        -8.4873
 223   2.0000      -0.308220        -8.3871
 224   2.0000      -0.304738        -8.2923
 225   2.0000      -0.284821        -7.7504
 226   0.0000      -0.104046        -2.8312
 227   0.0000      -0.102195        -2.7809
 228   0.0000      -0.100075        -2.7232
 229   0.0000      -0.094247        -2.5646
 230   0.0000      -0.046972        -1.2782

MULLIKEN ATOMIC CHARGES
-----------------------
   0 C :   -0.035754
   1 C :    0.049022
   2 C :    0.048194
   3 C :   -0.016664
   4 C :    0.020245
   5 C :    0.023909
   6 C :    0.309002
   7 C :   -0.370388
   8 C :   -0.194193
   9 N :    0.176938
  10 C :   -0.177792
  11 N :    0.160310
  12 C :   -0.066408
  13 C :    0.214784
  14 C :   -0.344405
  15 C :   -0.167218
  16 N :    0.184806
  17 C :   -0.187160
  18 N :    0.179092
  19 C :   -0.038764
  20 C :    0.064677
  21 C :   -0.181317
  22 C :    0.024766
  23 O :   -0.184080
  24 C :    0.035973
  25 S :    0.226140
  26 C :   -0.093138
  27 C :    0.141970
  28 C :   -0.149022
  29 S :    0.021156
  30 C :   -0.048117
  31 C :    0.044066
  32 C :    0.213772
  33 O :   -0.212482
  34 O :   -0.283087
  35 C :    0.367989
  36 C :    0.015553
  37 C :   -0.180127
  38 C :    0.035573
  39 O :   -0.195282
  40 C :    0.001349
  41 S :    0.159891
  42 C :   -0.059076
  43 C :   -0.035921
  44 C :   -0.012574
  45 C :   -0.046622
  46 C :    0.267962
  47 C :   -0.325851
  48 C :   -0.178087
  49 N :    0.162193
  50 C :   -0.189311
  51 N :    0.172317
  52 C :    0.018210
  53 C :    0.013859
  54 C :   -0.032719
  55 C :    0.049498
  56 C :    0.050933
  57 C :   -0.031530
  58 C :    0.218861
  59 C :   -0.330479
  60 C :   -0.193024
  61 N :    0.178213
  62 C :   -0.164462
  63 N :    0.178811
  64 H :    0.005948
  65 H :    0.006521
  66 H :    0.008875
  67 H :    0.009908
  68 H :    0.031465
  69 H :    0.042646
  70 H :    0.048491
  71 H :    0.035003
  72 H :    0.032387
  73 H :    0.085394
  74 H :    0.023900
  75 H :    0.051567
  76 H :    0.014168
  77 H :    0.059875
  78 H :    0.043587
  79 H :    0.057073
  80 H :    0.039573
  81 H :    0.055278
  82 H :    0.010982
  83 H :    0.010751
  84 H :    0.010088
  85 H :    0.011539
Sum of atomic charges:    0.0000000

LOEWDIN ATOMIC CHARGES
----------------------
   0 C :    0.006615
   1 C :    0.005396
   2 C :    0.010316
   3 C :    0.010331
   4 C :   -0.006901
   5 C :   -0.013571
   6 C :    0.086421
   7 C :   -0.135186
   8 C :   -0.022084
   9 N :   -0.039663
  10 C :   -0.016710
  11 N :   -0.044491
  12 C :   -0.046330
  13 C :    0.062333
  14 C :   -0.122464
  15 C :   -0.015191
  16 N :   -0.033917
  17 C :   -0.024570
  18 N :   -0.033181
  19 C :    0.068218
  20 C :   -0.062136
  21 C :   -0.197604
  22 C :    0.061512
  23 O :   -0.152741
  24 C :   -0.077536
  25 S :    0.544102
  26 C :   -0.147443
  27 C :   -0.071923
  28 C :   -0.066589
  29 S :    0.266759
  30 C :   -0.093225
  31 C :   -0.108147
  32 C :    0.078718
  33 O :   -0.174629
  34 O :   -0.067608
  35 C :    0.098309
  36 C :   -0.006369
  37 C :   -0.216619
  38 C :    0.072994
  39 O :   -0.149096
  40 C :   -0.087751
  41 S :    0.504763
  42 C :   -0.153061
  43 C :   -0.080373
  44 C :    0.065704
  45 C :   -0.043418
  46 C :    0.078691
  47 C :   -0.123430
  48 C :   -0.019759
  49 N :   -0.039207
  50 C :   -0.020234
  51 N :   -0.034662
  52 C :   -0.012404
  53 C :   -0.011316
  54 C :    0.004294
  55 C :    0.009088
  56 C :    0.007979
  57 C :    0.008001
  58 C :    0.068407
  59 C :   -0.121213
  60 C :   -0.021452
  61 N :   -0.034368
  62 C :   -0.013720
  63 N :   -0.041277
  64 H :    0.041255
  65 H :    0.038918
  66 H :    0.039569
  67 H :    0.041751
  68 H :    0.046759
  69 H :    0.036768
  70 H :    0.046542
  71 H :    0.046085
  72 H :    0.031167
  73 H :    0.036839
  74 H :    0.023820
  75 H :    0.050321
  76 H :    0.030599
  77 H :    0.043034
  78 H :    0.038811
  79 H :    0.045318
  80 H :    0.029660
  81 H :    0.051169
  82 H :    0.042457
  83 H :    0.040309
  84 H :    0.040204
  85 H :    0.043266

  Mayer bond orders larger than 0.100000
B(  0-C ,  1-C ) :   1.3761 B(  0-C ,  5-C ) :   1.3703 B(  0-C , 64-H ) :   0.9858
B(  1-C ,  2-C ) :   1.3687 B(  1-C , 65-H ) :   0.9864 B(  2-C ,  3-C ) :   1.3677
B(  2-C , 66-H ) :   0.9870 B(  3-C ,  4-C ) :   1.3823 B(  3-C , 67-H ) :   0.9854
B(  4-C ,  5-C ) :   1.3043 B(  4-C , 13-C ) :   1.0151 B(  5-C ,  6-C ) :   1.0108
B(  6-C ,  7-C ) :   1.6565 B(  6-C , 12-C ) :   1.0141 B(  7-C ,  8-C ) :   1.1393
B(  7-C , 10-C ) :   1.1506 B(  8-C ,  9-N ) :   2.9854 B( 10-C , 11-N ) :   2.9378
B( 12-C , 13-C ) :   0.9913 B( 12-C , 19-C ) :   1.7185 B( 13-C , 14-C ) :   1.6761
B( 14-C , 15-C ) :   1.1627 B( 14-C , 17-C ) :   1.1303 B( 15-C , 16-N ) :   2.9758
B( 17-C , 18-N ) :   3.0050 B( 19-C , 20-C ) :   1.0416 B( 19-C , 68-H ) :   0.9273
B( 20-C , 21-C ) :   1.4399 B( 20-C , 27-C ) :   1.2615 B( 21-C , 22-C ) :   0.9487
B( 21-C , 25-S ) :   1.1949 B( 22-C , 23-O ) :   2.1962 B( 22-C , 24-C ) :   1.0780
B( 24-C , 69-H ) :   0.9411 B( 24-C , 70-H ) :   0.9297 B( 24-C , 71-H ) :   0.9314
B( 25-S , 26-C ) :   1.2142 B( 26-C , 27-C ) :   1.5444 B( 26-C , 72-H ) :   0.9565
B( 27-C , 28-C ) :   0.9890 B( 28-C , 29-S ) :   1.0183 B( 28-C , 31-C ) :   1.0124
B( 28-C , 73-H ) :   0.8751 B( 29-S , 30-C ) :   1.0528 B( 30-C , 31-C ) :   1.6964
B( 30-C , 74-H ) :   1.0130 B( 31-C , 32-C ) :   0.9372 B( 32-C , 33-O ) :   2.0835
B( 32-C , 34-O ) :   1.2110 B( 34-O , 35-C ) :   0.9353 B( 35-C , 36-C ) :   1.0566
B( 35-C , 75-H ) :   0.9208 B( 35-C , 76-H ) :   0.9242 B( 36-C , 37-C ) :   1.5164
B( 36-C , 43-C ) :   1.2825 B( 37-C , 38-C ) :   0.9730 B( 37-C , 41-S ) :   1.1331
B( 38-C , 39-O ) :   2.0851 B( 38-C , 40-C ) :   1.0557 B( 40-C , 77-H ) :   0.9383
B( 40-C , 78-H ) :   0.9459 B( 40-C , 79-H ) :   0.9516 B( 41-S , 42-C ) :   1.2227
B( 42-C , 43-C ) :   1.4995 B( 42-C , 80-H ) :   0.9689 B( 43-C , 44-C ) :   1.0193
B( 44-C , 45-C ) :   1.7399 B( 44-C , 81-H ) :   0.9298 B( 45-C , 46-C ) :   1.0017
B( 45-C , 58-C ) :   0.9865 B( 46-C , 47-C ) :   1.6824 B( 46-C , 52-C ) :   1.0133
B( 47-C , 48-C ) :   1.1383 B( 47-C , 50-C ) :   1.1373 B( 48-C , 49-N ) :   2.9708
B( 50-C , 51-N ) :   2.9898 B( 52-C , 53-C ) :   1.3052 B( 52-C , 57-C ) :   1.3756
B( 53-C , 54-C ) :   1.3770 B( 53-C , 58-C ) :   1.0163 B( 54-C , 55-C ) :   1.3709
B( 54-C , 82-H ) :   0.9880 B( 55-C , 56-C ) :   1.3711 B( 55-C , 83-H ) :   0.9867
B( 56-C , 57-C ) :   1.3745 B( 56-C , 84-H ) :   0.9868 B( 57-C , 85-H ) :   0.9864
B( 58-C , 59-C ) :   1.6887 B( 59-C , 60-C ) :   1.1368 B( 59-C , 62-C ) :   1.1535
B( 60-C , 61-N ) :   2.9996 B( 62-C , 63-N ) :   2.9956

-----------------------------------------------------------------------------
         ABSORPTION SPECTRUM VIA TRANSITION ELECTRIC DIPOLE MOMENTS
-----------------------------------------------------------------------------
State   Energy  Wavelength   fosc         T2         TX        TY        TZ
        (cm-1)    (nm)                  (au**2)     (au)      (au)      (au)
-----------------------------------------------------------------------------
   0   21202.6    471.6   0.013827930   0.21471  -0.05590   0.08603  -0.45186
   1   23207.5    430.9   0.002308591   0.03275   0.04517   0.16883   0.04697
   2   25515.3    391.9   0.104771169   1.35182   0.65260  -0.76147   0.58830
   3   25839.5    387.0   0.228471058   2.91087   1.17757   1.20458  -0.27054
   4   26844.2    372.5   0.029330162   0.35970  -0.13451  -0.10054   0.57576
   5   26867.8    372.2   0.045753207   0.56062   0.32182  -0.67605  -0.00216
   6   26978.8    370.7   0.120971056   1.47616  -1.00073   0.55558   0.40745
   7   27637.2    361.8   0.237418944   2.82811   0.97166   0.46822  -1.29026
   8   28044.6    356.6   0.006975606   0.08189   0.14220   0.22508  -0.10489
   9   28108.2    355.8   0.044908995   0.52599   0.08641   0.56527  -0.44608
  10   28749.8    347.8   0.041532754   0.47559   0.19091  -0.38274  -0.54097
  11   28821.8    347.0   0.010551504   0.12052  -0.14229  -0.24505   0.20057
  12   29642.7    337.4   0.113126115   1.25638   0.86555   0.69649  -0.14867
  13   30147.8    331.7   0.096350745   1.05214  -0.12706  -0.87029   0.52783
  14   30709.3    325.6   0.174033437   1.86569   0.56194   0.93741  -0.81925
  15   32054.4    312.0   0.317285908   3.25866  -1.59672   0.49438   0.68171
  16   32642.4    306.4   0.252902392   2.55062   1.42808  -0.21193  -0.68286
  17   32944.0    303.5   0.007872774   0.07867  -0.14963  -0.17538   0.15977
  18   32958.3    303.4   0.004211882   0.04207   0.17625   0.01756  -0.10343
  19   33732.6    296.4   0.003000666   0.02928   0.01012   0.17059   0.00896
  20   34039.1    293.8   0.008615801   0.08333  -0.04371  -0.22854   0.17084
  21   34226.3    292.2   0.147396857   1.41776   0.56546  -0.91151  -0.51687
  22   34300.2    291.5   0.103699604   0.99531   0.73353  -0.19317  -0.64802
  23   34482.4    290.0   0.001250237   0.01194  -0.02676  -0.08723   0.06009
  24   34493.2    289.9   0.052307779   0.49924  -0.28533   0.48895   0.42279
  25   34570.1    289.3   0.049423156   0.47066   0.16969  -0.45602  -0.48364
  26   34778.3    287.5   0.004859543   0.04600   0.15026   0.14798   0.03905
  27   34892.3    286.6   0.289242123   2.72902   1.21488   0.56686  -0.96527
  28   35050.2    285.3   0.126698728   1.19003   0.84011   0.57421   0.39311
  29   35493.4    281.7   0.273034436   2.53247   1.44078   0.46773   0.48770
  30   35805.6    279.3   0.456463132   4.19691   0.33198  -1.99327  -0.33703
  31   36136.8    276.7   0.083911044   0.76444   0.18751   0.85389  -0.01264
  32   36402.6    274.7   0.001345363   0.01217  -0.01546  -0.05138  -0.09637
  33   36725.6    272.3   0.038198649   0.34242  -0.31974  -0.07535   0.48426
  34   36791.5    271.8   0.028293591   0.25317   0.17898  -0.45718  -0.11009
  35   37400.2    267.4   0.005237624   0.04610  -0.12529  -0.13714   0.10770
  36   37560.1    266.2   0.091234978   0.79967   0.55900   0.33286  -0.61351
  37   38089.9    262.5   0.000164582   0.00142   0.00682  -0.03424   0.01426
  38   38321.5    261.0   0.001659190   0.01425  -0.05143  -0.07367   0.07862
  39   38511.0    259.7   0.005254074   0.04491  -0.12070  -0.17420   0.00078
  40   39253.3    254.8   0.006235979   0.05230  -0.20065   0.10922   0.01045
  41   39451.3    253.5   0.000028564   0.00024   0.01414  -0.00615   0.00073
  42   39737.7    251.6   0.005055267   0.04188   0.18875  -0.03209  -0.07229
  43   39848.1    251.0   0.000056059   0.00046   0.01245   0.00052  -0.01755

FINAL SINGLE POINT ENERGY     -3810.025554818844

DIPOLE MOMENT
-------------
                                X             Y             Z
Electronic contribution:      9.39930       0.89689      -6.05190
Nuclear contribution   :    -11.46579       0.64403       4.89650
                        -----------------------------------------
Total Dipole Moment    :     -2.06648       1.54092      -1.15540
                        -----------------------------------------
Magnitude (a.u.)       :      2.82484
Magnitude (Debye)      :      7.18017

Rotational constants in cm-1:     0.002133     0.000681     0.000635
Rotational constants in MHz :    63.940259    20.423711    19.027955

                             ****ORCA TERMINATED NORMALLY****
TOTAL RUN TIME: 0 days 0 hours 9 minutes 10 seconds 855 msec
