                         Program Version 4.2.0 -  RELEASE  -
|  1> # ORCA input file
|  2> # SCF done       -190.362307638330          0.000312561954
|  3> ! CAM-B3LYP def2-SVP def2/J RIJCOSX Grid4 TightSCF
|  4> %maxcore 5000
|  5> %tddft
|  6>     Mode sTDDFT
|  7>     Ethresh 5.0
|  8>     maxcore 5000
|  9> end
| 10>
| 11> %pal
| 12>   nprocs 6
| 13>   end
| 14> * xyz 0 1
| 15>    C       -4.73095        -8.06750         6.22241
| 16>    C       -3.47816        -8.58278         6.00857
| 17>    C       -3.16512        -9.95341         6.09446
| 18>    N       -2.86355       -11.06063         6.12942
| 19>    C       -2.34190        -7.77677         5.78633
| 20>    N       -1.38603        -7.15156         5.66926
| 21>    C       -5.85448        -8.79746         6.80644
| 22>    C       -6.75430        -7.86860         7.36009
| 23>    C       -7.89092        -8.27425         8.02818
| 24>    C       -8.14195        -9.63711         8.13461
| 25>    C       -7.25882       -10.56490         7.57337
| 26>    C       -6.10702       -10.15399         6.91098
| 27>   Cl       -7.59340       -12.24510         7.69874
| 28>   Cl       -9.54810       -10.18072         8.95898
| 29>    C       -6.27858        -6.49147         7.08334
| 30>    O       -6.77793        -5.45119         7.44447
| 31>    C       -5.09127        -6.66818         6.21325
| 32>    C       -4.60526        -5.61264         5.49710
| 33>    C       -3.81574        -5.62218         4.33294
| 34>    S       -3.62620        -6.99281         3.26739
| 35>    C       -2.63205        -6.09629         2.16154
| 36>    C       -2.45773        -4.80392         2.61222
| 37>    C       -3.13979        -4.52055         3.81465
| 38>    O       -3.12111        -3.34049         4.44360
| 39>    S       -1.43598        -3.54800         1.88354
| 40>    C       -2.10324        -6.76142         0.99584
| 41>    C       -1.83870        -8.10989         1.05278
| 42>    C       -1.27849        -8.76341        -0.06081
| 43>    C       -0.88149       -10.08137        -0.23110
| 44>    C       -0.98917       -11.16723         0.78360
| 45>    C       -1.60403       -12.46218         0.22082
| 46>    N       -2.44717       -13.06719         1.23387
| 47>    C        0.38238       -11.43457         1.43533
| 48>    N        0.77100       -10.28281         2.22307
| 49>    C       -0.30983       -10.17110        -1.55522
| 50>    C        0.29039       -11.18650        -2.20346
| 51>    C        0.84472       -11.01998        -3.57933
| 52>    C        0.63101        -9.67088        -4.18058
| 53>    C        0.05408        -8.65645        -3.51057
| 54>    C       -0.41733        -8.84660        -2.18987
| 55>    C       -1.00193        -7.99979        -1.27110
| 56>    C       -1.34202        -6.62741        -1.31585
| 57>    C       -1.87082        -6.03049        -0.21838
| 58>    C        0.32515       -12.15590        -4.42373
| 59>    C       -0.63211       -12.01953        -5.34693
| 60>    C       -1.13551       -13.08233        -6.16284
| 61>    S       -2.40072       -12.74840        -7.29424
| 62>    C       -2.41937       -14.40501        -7.85479
| 63>    C       -1.44876       -15.15425        -7.16597
| 64>    C       -0.73647       -14.41471        -6.21174
| 65>    O        0.24040       -14.92455        -5.42903
| 66>    S       -1.05704       -16.86286        -7.35941
| 67>    C       -3.25562       -14.93178        -8.83782
| 68>    C       -4.22473       -14.34534        -9.61673
| 69>    C       -4.98489       -15.01872       -10.64737
| 70>    C       -4.79405       -16.29216       -11.12774
| 71>    C       -5.56971       -16.88055       -12.14846
| 72>    N       -6.16364       -17.42066       -12.96861
| 73>    C       -3.78496       -17.17090       -10.69063
| 74>    N       -2.96393       -17.91062       -10.37036
| 75>    C       -5.97580       -14.06700       -11.14696
| 76>    C       -5.79873       -12.83856       -10.48525
| 77>    C       -4.68812       -12.95887        -9.51784
| 78>    O       -4.26259       -12.08373        -8.78764
| 79>    C       -6.59013       -11.74309       -10.75913
| 80>    C       -7.58818       -11.87496       -11.71788
| 81>    C       -7.77360       -13.09360       -12.37966
| 82>    C       -6.97091       -14.19547       -12.10102
| 83>   Cl       -9.01189       -13.24423       -13.55913
| 84>   Cl       -8.59534       -10.53528       -12.08778
| 85>    H       -8.56586        -7.55073         8.45729
| 86>    H       -5.44671       -10.89257         6.48600
| 87>    H       -4.93265        -4.62844         5.81781
| 88>    H       -2.51668        -2.73580         3.98669
| 89>    H       -0.48482        -4.37341         1.45796
| 90>    H       -2.01531        -8.65755         1.96641
| 91>    H       -1.65607       -10.82340         1.57866
| 92>    H       -0.80193       -13.13311        -0.13423
| 93>    H       -2.24319       -12.22198        -0.63408
| 94>    H       -1.90727       -13.29628         2.06120
| 95>    H       -2.87415       -13.91937         0.88956
| 96>    H        1.11068       -11.69825         0.64674
| 97>    H        0.29698       -12.28450         2.11817
| 98>    H        0.90314        -9.47257         1.62743
| 99>    H        1.63345       -10.45607         2.72508
|100>    H        0.39525       -12.16742        -1.76335
|101>    H        1.93462       -11.17589        -3.49900
|102>    H        0.99508        -9.54241        -5.18850
|103>    H       -0.05804        -7.68537        -3.97052
|104>    H       -1.18262        -6.06619        -2.22458
|105>    H       -2.16636        -4.99363        -0.25863
|106>    H        0.75384       -13.12598        -4.22595
|107>    H       -1.08035       -11.05166        -5.52881
|108>    H        0.39547       -15.84916        -5.66875
|109>    H       -1.64508       -17.10076        -8.52839
|110>    H       -3.11510       -15.99125        -9.00239
|111>    H       -6.43666       -10.80954       -10.24144
|112>    H       -7.14492       -15.11807       -12.62998
|113> *
|114>
|115>                          ****END OF INPUT****

CARTESIAN COORDINATES (ANGSTROEM)
---------------------------------
  C     -4.730950   -8.067500    6.222410
  C     -3.478160   -8.582780    6.008570
  C     -3.165120   -9.953410    6.094460
  N     -2.863550  -11.060630    6.129420
  C     -2.341900   -7.776770    5.786330
  N     -1.386030   -7.151560    5.669260
  C     -5.854480   -8.797460    6.806440
  C     -6.754300   -7.868600    7.360090
  C     -7.890920   -8.274250    8.028180
  C     -8.141950   -9.637110    8.134610
  C     -7.258820  -10.564900    7.573370
  C     -6.107020  -10.153990    6.910980
  Cl    -7.593400  -12.245100    7.698740
  Cl    -9.548100  -10.180720    8.958980
  C     -6.278580   -6.491470    7.083340
  O     -6.777930   -5.451190    7.444470
  C     -5.091270   -6.668180    6.213250
  C     -4.605260   -5.612640    5.497100
  C     -3.815740   -5.622180    4.332940
  S     -3.626200   -6.992810    3.267390
  C     -2.632050   -6.096290    2.161540
  C     -2.457730   -4.803920    2.612220
  C     -3.139790   -4.520550    3.814650
  O     -3.121110   -3.340490    4.443600
  S     -1.435980   -3.548000    1.883540
  C     -2.103240   -6.761420    0.995840
  C     -1.838700   -8.109890    1.052780
  C     -1.278490   -8.763410   -0.060810
  C     -0.881490  -10.081370   -0.231100
  C     -0.989170  -11.167230    0.783600
  C     -1.604030  -12.462180    0.220820
  N     -2.447170  -13.067190    1.233870
  C      0.382380  -11.434570    1.435330
  N      0.771000  -10.282810    2.223070
  C     -0.309830  -10.171100   -1.555220
  C      0.290390  -11.186500   -2.203460
  C      0.844720  -11.019980   -3.579330
  C      0.631010   -9.670880   -4.180580
  C      0.054080   -8.656450   -3.510570
  C     -0.417330   -8.846600   -2.189870
  C     -1.001930   -7.999790   -1.271100
  C     -1.342020   -6.627410   -1.315850
  C     -1.870820   -6.030490   -0.218380
  C      0.325150  -12.155900   -4.423730
  C     -0.632110  -12.019530   -5.346930
  C     -1.135510  -13.082330   -6.162840
  S     -2.400720  -12.748400   -7.294240
  C     -2.419370  -14.405010   -7.854790
  C     -1.448760  -15.154250   -7.165970
  C     -0.736470  -14.414710   -6.211740
  O      0.240400  -14.924550   -5.429030
  S     -1.057040  -16.862860   -7.359410
  C     -3.255620  -14.931780   -8.837820
  C     -4.224730  -14.345340   -9.616730
  C     -4.984890  -15.018720  -10.647370
  C     -4.794050  -16.292160  -11.127740
  C     -5.569710  -16.880550  -12.148460
  N     -6.163640  -17.420660  -12.968610
  C     -3.784960  -17.170900  -10.690630
  N     -2.963930  -17.910620  -10.370360
  C     -5.975800  -14.067000  -11.146960
  C     -5.798730  -12.838560  -10.485250
  C     -4.688120  -12.958870   -9.517840
  O     -4.262590  -12.083730   -8.787640
  C     -6.590130  -11.743090  -10.759130
  C     -7.588180  -11.874960  -11.717880
  C     -7.773600  -13.093600  -12.379660
  C     -6.970910  -14.195470  -12.101020
  Cl    -9.011890  -13.244230  -13.559130
  Cl    -8.595340  -10.535280  -12.087780
  H     -8.565860   -7.550730    8.457290
  H     -5.446710  -10.892570    6.486000
  H     -4.932650   -4.628440    5.817810
  H     -2.516680   -2.735800    3.986690
  H     -0.484820   -4.373410    1.457960
  H     -2.015310   -8.657550    1.966410
  H     -1.656070  -10.823400    1.578660
  H     -0.801930  -13.133110   -0.134230
  H     -2.243190  -12.221980   -0.634080
  H     -1.907270  -13.296280    2.061200
  H     -2.874150  -13.919370    0.889560
  H      1.110680  -11.698250    0.646740
  H      0.296980  -12.284500    2.118170
  H      0.903140   -9.472570    1.627430
  H      1.633450  -10.456070    2.725080
  H      0.395250  -12.167420   -1.763350
  H      1.934620  -11.175890   -3.499000
  H      0.995080   -9.542410   -5.188500
  H     -0.058040   -7.685370   -3.970520
  H     -1.182620   -6.066190   -2.224580
  H     -2.166360   -4.993630   -0.258630
  H      0.753840  -13.125980   -4.225950
  H     -1.080350  -11.051660   -5.528810
  H      0.395470  -15.849160   -5.668750
  H     -1.645080  -17.100760   -8.528390
  H     -3.115100  -15.991250   -9.002390
  H     -6.436660  -10.809540  -10.241440
  H     -7.144920  -15.118070  -12.629980

 Total Charge           Charge          ....    0
 Multiplicity           Mult            ....    1
 Number of Electrons    NEL             ....  546
 Basis Dimension        Dim             .... 1152

ORBITAL ENERGIES
----------------

  NO   OCC          E(Eh)            E(eV)
   0   2.0000    -101.604556     -2764.8005
   1   2.0000    -101.602685     -2764.7496
   2   2.0000    -101.592224     -2764.4650
   3   2.0000    -101.591584     -2764.4475
   4   2.0000     -88.972456     -2421.0636
   5   2.0000     -88.963422     -2420.8178
   6   2.0000     -88.962698     -2420.7981
   7   2.0000     -88.951537     -2420.4944
   8   2.0000     -19.274600      -524.4885
   9   2.0000     -19.271924      -524.4157
  10   2.0000     -19.230791      -523.2964
  11   2.0000     -19.206349      -522.6313
  12   2.0000     -14.434578      -392.7848
  13   2.0000     -14.421926      -392.4405
  14   2.0000     -14.407835      -392.0571
  15   2.0000     -14.403323      -391.9344
  16   2.0000     -14.376924      -391.2160
  17   2.0000     -14.375699      -391.1827
  18   2.0000     -10.379481      -282.4400
  19   2.0000     -10.362630      -281.9815
  20   2.0000     -10.360781      -281.9312
  21   2.0000     -10.360285      -281.9177
  22   2.0000     -10.358760      -281.8762
  23   2.0000     -10.357565      -281.8437
  24   2.0000     -10.353254      -281.7264
  25   2.0000     -10.351549      -281.6800
  26   2.0000     -10.347556      -281.5713
  27   2.0000     -10.346776      -281.5501
  28   2.0000     -10.339196      -281.3438
  29   2.0000     -10.337744      -281.3043
  30   2.0000     -10.334440      -281.2144
  31   2.0000     -10.333712      -281.1946
  32   2.0000     -10.332996      -281.1751
  33   2.0000     -10.327629      -281.0291
  34   2.0000     -10.326800      -281.0065
  35   2.0000     -10.325044      -280.9587
  36   2.0000     -10.320713      -280.8409
  37   2.0000     -10.320462      -280.8340
  38   2.0000     -10.314544      -280.6730
  39   2.0000     -10.314328      -280.6671
  40   2.0000     -10.313921      -280.6561
  41   2.0000     -10.313410      -280.6422
  42   2.0000     -10.312564      -280.6191
  43   2.0000     -10.310568      -280.5648
  44   2.0000     -10.307042      -280.4689
  45   2.0000     -10.306297      -280.4486
  46   2.0000     -10.306243      -280.4471
  47   2.0000     -10.305518      -280.4274
  48   2.0000     -10.304469      -280.3989
  49   2.0000     -10.303719      -280.3785
  50   2.0000     -10.300280      -280.2849
  51   2.0000     -10.300055      -280.2787
  52   2.0000     -10.297224      -280.2017
  53   2.0000     -10.294848      -280.1370
  54   2.0000     -10.294508      -280.1278
  55   2.0000     -10.291819      -280.0546
  56   2.0000     -10.286000      -279.8963
  57   2.0000     -10.284796      -279.8635
  58   2.0000     -10.283185      -279.8197
  59   2.0000     -10.282817      -279.8097
  60   2.0000     -10.282013      -279.7878
  61   2.0000     -10.280874      -279.7568
  62   2.0000     -10.278211      -279.6843
  63   2.0000     -10.277827      -279.6739
  64   2.0000     -10.276487      -279.6374
  65   2.0000     -10.271319      -279.4968
  66   2.0000     -10.270429      -279.4726
  67   2.0000     -10.270358      -279.4707
  68   2.0000     -10.269963      -279.4599
  69   2.0000     -10.264241      -279.3042
  70   2.0000      -9.559553      -260.1286
  71   2.0000      -9.557703      -260.0783
  72   2.0000      -9.547309      -259.7955
  73   2.0000      -9.546656      -259.7777
  74   2.0000      -8.066008      -219.4872
  75   2.0000      -8.058083      -219.2716
  76   2.0000      -8.058013      -219.2697
  77   2.0000      -8.046623      -218.9598
  78   2.0000      -7.329956      -199.4583
  79   2.0000      -7.328087      -199.4074
  80   2.0000      -7.319817      -199.1823
  81   2.0000      -7.319071      -199.1620
  82   2.0000      -7.317967      -199.1320
  83   2.0000      -7.317671      -199.1239
  84   2.0000      -7.317233      -199.1120
  85   2.0000      -7.317044      -199.1069
  86   2.0000      -7.307554      -198.8487
  87   2.0000      -7.306902      -198.8309
  88   2.0000      -7.306876      -198.8302
  89   2.0000      -7.306198      -198.8118
  90   2.0000      -6.035504      -164.2344
  91   2.0000      -6.031178      -164.1167
  92   2.0000      -6.028204      -164.0358
  93   2.0000      -6.027800      -164.0248
  94   2.0000      -6.027590      -164.0191
  95   2.0000      -6.024133      -163.9250
  96   2.0000      -6.023601      -163.9105
  97   2.0000      -6.019617      -163.8021
  98   2.0000      -6.018376      -163.7683
  99   2.0000      -6.017001      -163.7309
 100   2.0000      -6.012890      -163.6191
 101   2.0000      -6.006691      -163.4504
 102   2.0000      -1.171567       -31.8800
 103   2.0000      -1.171335       -31.8737
 104   2.0000      -1.146228       -31.1904
 105   2.0000      -1.121900       -30.5284
 106   2.0000      -1.037223       -28.2243
 107   2.0000      -1.027319       -27.9548
 108   2.0000      -1.022363       -27.8199
 109   2.0000      -1.008073       -27.4311
 110   2.0000      -1.007745       -27.4221
 111   2.0000      -1.006637       -27.3920
 112   2.0000      -1.000028       -27.2122
 113   2.0000      -0.997344       -27.1391
 114   2.0000      -0.990673       -26.9576
 115   2.0000      -0.983650       -26.7665
 116   2.0000      -0.980352       -26.6767
 117   2.0000      -0.967145       -26.3174
 118   2.0000      -0.965964       -26.2852
 119   2.0000      -0.954666       -25.9778
 120   2.0000      -0.953728       -25.9523
 121   2.0000      -0.951019       -25.8785
 122   2.0000      -0.941812       -25.6280
 123   2.0000      -0.931105       -25.3367
 124   2.0000      -0.925323       -25.1793
 125   2.0000      -0.916493       -24.9390
 126   2.0000      -0.908550       -24.7229
 127   2.0000      -0.903145       -24.5758
 128   2.0000      -0.887400       -24.1474
 129   2.0000      -0.886828       -24.1318
 130   2.0000      -0.881056       -23.9748
 131   2.0000      -0.873078       -23.7577
 132   2.0000      -0.866385       -23.5755
 133   2.0000      -0.859120       -23.3778
 134   2.0000      -0.851620       -23.1738
 135   2.0000      -0.846182       -23.0258
 136   2.0000      -0.836323       -22.7575
 137   2.0000      -0.833511       -22.6810
 138   2.0000      -0.823234       -22.4013
 139   2.0000      -0.814255       -22.1570
 140   2.0000      -0.804015       -21.8784
 141   2.0000      -0.795259       -21.6401
 142   2.0000      -0.777414       -21.1545
 143   2.0000      -0.773553       -21.0495
 144   2.0000      -0.765287       -20.8245
 145   2.0000      -0.762484       -20.7483
 146   2.0000      -0.754703       -20.5365
 147   2.0000      -0.741304       -20.1719
 148   2.0000      -0.727530       -19.7971
 149   2.0000      -0.722661       -19.6646
 150   2.0000      -0.711550       -19.3623
 151   2.0000      -0.706821       -19.2336
 152   2.0000      -0.702944       -19.1281
 153   2.0000      -0.697910       -18.9911
 154   2.0000      -0.696286       -18.9469
 155   2.0000      -0.688412       -18.7326
 156   2.0000      -0.685337       -18.6490
 157   2.0000      -0.676543       -18.4097
 158   2.0000      -0.671865       -18.2824
 159   2.0000      -0.670580       -18.2474
 160   2.0000      -0.659169       -17.9369
 161   2.0000      -0.656582       -17.8665
 162   2.0000      -0.650222       -17.6934
 163   2.0000      -0.638594       -17.3770
 164   2.0000      -0.629067       -17.1178
 165   2.0000      -0.627680       -17.0801
 166   2.0000      -0.618316       -16.8252
 167   2.0000      -0.612004       -16.6535
 168   2.0000      -0.606597       -16.5063
 169   2.0000      -0.604669       -16.4539
 170   2.0000      -0.600255       -16.3338
 171   2.0000      -0.596444       -16.2301
 172   2.0000      -0.594109       -16.1665
 173   2.0000      -0.590020       -16.0553
 174   2.0000      -0.583235       -15.8706
 175   2.0000      -0.579398       -15.7662
 176   2.0000      -0.568291       -15.4640
 177   2.0000      -0.567766       -15.4497
 178   2.0000      -0.559433       -15.2229
 179   2.0000      -0.555955       -15.1283
 180   2.0000      -0.555525       -15.1166
 181   2.0000      -0.554669       -15.0933
 182   2.0000      -0.554017       -15.0756
 183   2.0000      -0.553366       -15.0579
 184   2.0000      -0.547428       -14.8963
 185   2.0000      -0.546034       -14.8583
 186   2.0000      -0.543685       -14.7944
 187   2.0000      -0.540274       -14.7016
 188   2.0000      -0.537746       -14.6328
 189   2.0000      -0.534082       -14.5331
 190   2.0000      -0.532991       -14.5034
 191   2.0000      -0.531962       -14.4754
 192   2.0000      -0.528843       -14.3905
 193   2.0000      -0.524932       -14.2841
 194   2.0000      -0.523707       -14.2508
 195   2.0000      -0.519761       -14.1434
 196   2.0000      -0.518796       -14.1171
 197   2.0000      -0.514808       -14.0086
 198   2.0000      -0.513017       -13.9599
 199   2.0000      -0.509471       -13.8634
 200   2.0000      -0.508326       -13.8323
 201   2.0000      -0.506634       -13.7862
 202   2.0000      -0.505481       -13.7548
 203   2.0000      -0.501378       -13.6432
 204   2.0000      -0.498195       -13.5566
 205   2.0000      -0.496562       -13.5122
 206   2.0000      -0.496131       -13.5004
 207   2.0000      -0.491365       -13.3707
 208   2.0000      -0.487366       -13.2619
 209   2.0000      -0.485809       -13.2195
 210   2.0000      -0.485380       -13.2079
 211   2.0000      -0.482594       -13.1321
 212   2.0000      -0.476593       -12.9688
 213   2.0000      -0.474021       -12.8988
 214   2.0000      -0.473196       -12.8763
 215   2.0000      -0.468202       -12.7404
 216   2.0000      -0.465118       -12.6565
 217   2.0000      -0.463920       -12.6239
 218   2.0000      -0.460618       -12.5341
 219   2.0000      -0.456706       -12.4276
 220   2.0000      -0.453952       -12.3527
 221   2.0000      -0.452735       -12.3195
 222   2.0000      -0.450926       -12.2703
 223   2.0000      -0.449992       -12.2449
 224   2.0000      -0.446614       -12.1530
 225   2.0000      -0.444841       -12.1047
 226   2.0000      -0.442985       -12.0542
 227   2.0000      -0.441808       -12.0222
 228   2.0000      -0.440577       -11.9887
 229   2.0000      -0.438315       -11.9272
 230   2.0000      -0.434144       -11.8137
 231   2.0000      -0.433882       -11.8065
 232   2.0000      -0.433217       -11.7884
 233   2.0000      -0.427568       -11.6347
 234   2.0000      -0.425101       -11.5676
 235   2.0000      -0.424359       -11.5474
 236   2.0000      -0.423143       -11.5143
 237   2.0000      -0.422269       -11.4905
 238   2.0000      -0.419467       -11.4143
 239   2.0000      -0.417699       -11.3662
 240   2.0000      -0.416351       -11.3295
 241   2.0000      -0.415963       -11.3189
 242   2.0000      -0.414257       -11.2725
 243   2.0000      -0.412276       -11.2186
 244   2.0000      -0.411189       -11.1890
 245   2.0000      -0.404083       -10.9957
 246   2.0000      -0.402474       -10.9519
 247   2.0000      -0.401407       -10.9229
 248   2.0000      -0.397852       -10.8261
 249   2.0000      -0.393890       -10.7183
 250   2.0000      -0.392346       -10.6763
 251   2.0000      -0.385395       -10.4871
 252   2.0000      -0.377339       -10.2679
 253   2.0000      -0.374267       -10.1843
 254   2.0000      -0.372659       -10.1406
 255   2.0000      -0.366662        -9.9774
 256   2.0000      -0.354644        -9.6504
 257   2.0000      -0.352061        -9.5801
 258   2.0000      -0.345801        -9.4097
 259   2.0000      -0.341825        -9.3015
 260   2.0000      -0.336317        -9.1517
 261   2.0000      -0.332902        -9.0587
 262   2.0000      -0.328509        -8.9392
 263   2.0000      -0.318266        -8.6605
 264   2.0000      -0.317800        -8.6478
 265   2.0000      -0.303826        -8.2675
 266   2.0000      -0.301189        -8.1958
 267   2.0000      -0.298338        -8.1182
 268   2.0000      -0.297031        -8.0826
 269   2.0000      -0.294055        -8.0017
 270   2.0000      -0.274642        -7.4734
 271   2.0000      -0.268324        -7.3015
 272   2.0000      -0.230349        -6.2681
 273   0.0000      -0.102643        -2.7931
 274   0.0000      -0.088349        -2.4041
 275   0.0000      -0.074570        -2.0292
 276   0.0000      -0.070077        -1.9069
 277   0.0000      -0.051448        -1.4000

MULLIKEN ATOMIC CHARGES
-----------------------
   0 C :    0.250398
   1 C :   -0.323867
   2 C :   -0.173041
   3 N :    0.146314
   4 C :   -0.204830
   5 N :    0.164266
   6 C :    0.016636
   7 C :   -0.001971
   8 C :   -0.032773
   9 C :    0.058620
  10 C :    0.050119
  11 C :   -0.013777
  12 Cl:   -0.044057
  13 Cl:   -0.049949
  14 C :    0.138737
  15 O :   -0.141861
  16 C :   -0.139035
  17 C :    0.060476
  18 C :   -0.193442
  19 S :    0.159190
  20 C :   -0.097680
  21 C :   -0.068674
  22 C :    0.180054
  23 O :   -0.148669
  24 S :    0.003358
  25 C :    0.061904
  26 C :   -0.078802
  27 C :    0.041289
  28 C :   -0.072066
  29 C :   -0.039294
  30 C :    0.130785
  31 N :   -0.209604
  32 C :    0.161636
  33 N :   -0.223026
  34 C :    0.088529
  35 C :   -0.108173
  36 C :    0.178975
  37 C :   -0.057924
  38 C :    0.016198
  39 C :    0.008131
  40 C :    0.042005
  41 C :   -0.009539
  42 C :   -0.033238
  43 C :   -0.109189
  44 C :    0.075002
  45 C :   -0.119368
  46 S :    0.207631
  47 C :   -0.103495
  48 C :   -0.051557
  49 C :    0.135666
  50 O :   -0.178032
  51 S :    0.004079
  52 C :   -0.006247
  53 C :   -0.112286
  54 C :    0.316037
  55 C :   -0.350881
  56 C :   -0.183977
  57 N :    0.157458
  58 C :   -0.158130
  59 N :    0.117060
  60 C :    0.024549
  61 C :   -0.014261
  62 C :    0.166247
  63 O :   -0.169123
  64 C :   -0.029016
  65 C :    0.062099
  66 C :    0.043946
  67 C :   -0.010004
  68 Cl:   -0.033417
  69 Cl:   -0.041547
  70 H :   -0.001759
  71 H :    0.001291
  72 H :    0.032392
  73 H :    0.190041
  74 H :    0.095333
  75 H :   -0.004412
  76 H :   -0.000293
  77 H :   -0.019618
  78 H :    0.001738
  79 H :    0.093071
  80 H :    0.089861
  81 H :   -0.030846
  82 H :   -0.009366
  83 H :    0.097744
  84 H :    0.094935
  85 H :   -0.007638
  86 H :    0.045543
  87 H :   -0.006218
  88 H :   -0.035632
  89 H :   -0.034119
  90 H :   -0.010793
  91 H :    0.022021
  92 H :   -0.001521
  93 H :    0.189540
  94 H :    0.118052
  95 H :   -0.042394
  96 H :   -0.000426
  97 H :    0.001902
Sum of atomic charges:   -0.0000000

LOEWDIN ATOMIC CHARGES
----------------------
   0 C :    0.061028
   1 C :   -0.146865
   2 C :   -0.020040
   3 N :   -0.055674
   4 C :   -0.035679
   5 N :   -0.053829
   6 C :   -0.009941
   7 C :   -0.044398
   8 C :   -0.000906
   9 C :   -0.137449
  10 C :   -0.131973
  11 C :   -0.016207
  12 Cl:    0.156092
  13 Cl:    0.152504
  14 C :    0.081581
  15 O :   -0.144507
  16 C :   -0.118007
  17 C :    0.067801
  18 C :   -0.229746
  19 S :    0.481160
  20 C :   -0.131597
  21 C :   -0.239927
  22 C :    0.047244
  23 O :   -0.020917
  24 S :    0.227645
  25 C :   -0.062591
  26 C :    0.008163
  27 C :   -0.027183
  28 C :   -0.022954
  29 C :   -0.039874
  30 C :    0.026058
  31 N :   -0.113357
  32 C :    0.028012
  33 N :   -0.114482
  34 C :   -0.019763
  35 C :    0.074595
  36 C :   -0.031745
  37 C :   -0.035229
  38 C :   -0.015201
  39 C :   -0.037774
  40 C :   -0.031273
  41 C :   -0.009285
  42 C :   -0.036860
  43 C :    0.012440
  44 C :   -0.046911
  45 C :   -0.174908
  46 S :    0.512806
  47 C :   -0.213065
  48 C :   -0.182766
  49 C :   -0.009960
  50 O :   -0.043769
  51 S :    0.244734
  52 C :    0.050239
  53 C :   -0.117174
  54 C :    0.081538
  55 C :   -0.148883
  56 C :   -0.022638
  57 N :   -0.047516
  58 C :   -0.001914
  59 N :   -0.069986
  60 C :   -0.014727
  61 C :   -0.041855
  62 C :    0.083055
  63 O :   -0.158604
  64 C :    0.000539
  65 C :   -0.133846
  66 C :   -0.131358
  67 C :   -0.011103
  68 Cl:    0.163470
  69 Cl:    0.160591
  70 H :    0.045123
  71 H :    0.043749
  72 H :    0.053863
  73 H :    0.085762
  74 H :   -0.005489
  75 H :    0.026656
  76 H :    0.034741
  77 H :   -0.006017
  78 H :    0.019134
  79 H :    0.052304
  80 H :    0.054593
  81 H :   -0.006987
  82 H :    0.013961
  83 H :    0.051919
  84 H :    0.056845
  85 H :    0.027890
  86 H :    0.066176
  87 H :    0.026237
  88 H :    0.030494
  89 H :    0.028408
  90 H :    0.020762
  91 H :    0.027648
  92 H :    0.032346
  93 H :    0.083061
  94 H :   -0.005415
  95 H :    0.036218
  96 H :    0.046035
  97 H :    0.044907

  Mayer bond orders larger than 0.100000
B(  0-C ,  1-C ) :   1.6422 B(  0-C ,  6-C ) :   1.0033 B(  0-C , 16-C ) :   1.0616
B(  1-C ,  2-C ) :   1.1343 B(  1-C ,  4-C ) :   1.1531 B(  2-C ,  3-N ) :   2.9879
B(  4-C ,  5-N ) :   3.0253 B(  6-C ,  7-C ) :   1.3345 B(  6-C , 11-C ) :   1.3523
B(  7-C ,  8-C ) :   1.3522 B(  7-C , 14-C ) :   0.9157 B(  8-C ,  9-C ) :   1.3418
B(  8-C , 70-H ) :   1.0163 B(  9-C , 10-C ) :   1.4159 B(  9-C , 13-Cl) :   1.0403
B( 10-C , 11-C ) :   1.3532 B( 10-C , 12-Cl) :   1.0619 B( 11-C , 71-H ) :   0.9909
B( 14-C , 15-O ) :   2.2734 B( 14-C , 16-C ) :   0.9585 B( 16-C , 17-C ) :   1.5638
B( 17-C , 18-C ) :   1.1937 B( 17-C , 72-H ) :   0.9509 B( 18-C , 19-S ) :   1.0578
B( 18-C , 20-C ) :   0.1017 B( 18-C , 22-C ) :   1.4189 B( 19-S , 20-C ) :   1.1761
B( 20-C , 21-C ) :   1.5304 B( 20-C , 25-C ) :   1.0540 B( 21-C , 22-C ) :   1.2397
B( 21-C , 24-S ) :   1.0105 B( 22-C , 23-O ) :   1.3298 B( 23-O , 73-H ) :   0.9324
B( 24-S , 74-H ) :   0.9467 B( 25-C , 26-C ) :   1.5067 B( 25-C , 42-C ) :   1.1163
B( 26-C , 27-C ) :   1.1568 B( 26-C , 75-H ) :   0.9841 B( 27-C , 28-C ) :   1.4984
B( 27-C , 40-C ) :   1.1082 B( 28-C , 29-C ) :   1.0522 B( 28-C , 34-C ) :   1.0767
B( 29-C , 30-C ) :   1.0263 B( 29-C , 32-C ) :   1.0318 B( 29-C , 76-H ) :   0.8752
B( 30-C , 31-N ) :   1.1084 B( 30-C , 77-H ) :   0.9210 B( 30-C , 78-H ) :   0.9474
B( 31-N , 79-H ) :   0.9685 B( 31-N , 80-H ) :   0.9674 B( 32-C , 33-N ) :   1.0968
B( 32-C , 81-H ) :   0.9274 B( 32-C , 82-H ) :   0.9349 B( 33-N , 83-H ) :   0.9675
B( 33-N , 84-H ) :   0.9661 B( 34-C , 35-C ) :   1.6792 B( 34-C , 39-C ) :   1.0524
B( 35-C , 36-C ) :   0.9654 B( 35-C , 85-H ) :   0.9584 B( 36-C , 37-C ) :   1.0019
B( 36-C , 43-C ) :   0.9447 B( 36-C , 86-H ) :   0.8435 B( 37-C , 38-C ) :   1.7106
B( 37-C , 87-H ) :   0.9720 B( 38-C , 39-C ) :   1.1267 B( 38-C , 88-H ) :   0.9923
B( 39-C , 40-C ) :   1.4426 B( 40-C , 41-C ) :   1.1370 B( 41-C , 42-C ) :   1.6178
B( 41-C , 89-H ) :   0.9928 B( 42-C , 90-H ) :   0.9826 B( 43-C , 44-C ) :   1.8262
B( 43-C , 91-H ) :   0.9618 B( 44-C , 45-C ) :   1.1012 B( 44-C , 92-H ) :   0.9424
B( 45-C , 46-S ) :   1.1216 B( 45-C , 47-C ) :   0.1024 B( 45-C , 49-C ) :   1.4179
B( 46-S , 47-C ) :   1.0762 B( 47-C , 48-C ) :   1.3915 B( 47-C , 52-C ) :   1.3112
B( 48-C , 49-C ) :   1.3222 B( 48-C , 51-S ) :   1.0414 B( 49-C , 50-O ) :   1.2444
B( 50-O , 93-H ) :   0.9384 B( 51-S , 94-H ) :   0.9193 B( 52-C , 53-C ) :   1.5038
B( 52-C , 95-H ) :   0.9158 B( 53-C , 54-C ) :   1.1045 B( 53-C , 62-C ) :   0.9747
B( 54-C , 55-C ) :   1.6067 B( 54-C , 60-C ) :   0.9882 B( 55-C , 56-C ) :   1.1368
B( 55-C , 58-C ) :   1.1636 B( 56-C , 57-N ) :   2.9730 B( 58-C , 59-N ) :   2.9348
B( 60-C , 61-C ) :   1.3301 B( 60-C , 67-C ) :   1.3494 B( 61-C , 62-C ) :   0.9520
B( 61-C , 64-C ) :   1.3502 B( 62-C , 63-O ) :   2.1526 B( 64-C , 65-C ) :   1.3339
B( 64-C , 96-H ) :   1.0169 B( 65-C , 66-C ) :   1.4135 B( 65-C , 69-Cl) :   1.0470
B( 66-C , 67-C ) :   1.3533 B( 66-C , 68-Cl) :   1.0771 B( 67-C , 97-H ) :   0.9855

-----------------------------------------------------------------------------
         ABSORPTION SPECTRUM VIA TRANSITION ELECTRIC DIPOLE MOMENTS
-----------------------------------------------------------------------------
State   Energy  Wavelength   fosc         T2         TX        TY        TZ
        (cm-1)    (nm)                  (au**2)     (au)      (au)      (au)
-----------------------------------------------------------------------------
   0   13811.1    724.1   0.025369960   0.60474  -0.12653   0.71480   0.27891
   1   16873.0    592.7   0.048733323   0.95084  -0.71405  -0.39361  -0.53482
   2   18432.7    542.5   0.587835524  10.49886   0.66630   0.07456  -3.17007
   3   20932.3    477.7   0.914105456  14.37659   2.11617   1.27152   2.87779
   4   22094.4    452.6   0.146136673   2.17747   0.91644   0.52749  -1.02925
   5   23913.2    418.2   0.057285301   0.78864  -0.46815  -0.32252  -0.68225
   6   24515.8    407.9   0.071564377   0.96101  -0.21026   0.92273   0.25566
   7   25239.0    396.2   0.245220474   3.19860   0.93900  -0.61272  -1.39337
   8   25761.6    388.2   0.127181874   1.62528   1.06252  -0.29484   0.63984
   9   26478.0    377.7   0.127476929   1.58498  -0.18475   1.14785  -0.48299
  10   26531.3    376.9   0.045447046   0.56393   0.60764   0.31043  -0.31357
  11   27143.9    368.4   0.110668543   1.34223  -0.17979   1.14050   0.09571
  12   27734.9    360.6   0.023301733   0.27659  -0.48369   0.19061   0.07937
  13   28395.4    352.2   0.003929238   0.04555   0.07098   0.18649   0.07576
  14   28857.5    346.5   0.005352771   0.06107   0.11444   0.19450   0.10068
  15   29238.9    342.0   0.167401789   1.88484   1.05454  -0.60239  -0.64023
  16   29498.3    339.0   0.015490582   0.17288  -0.38578   0.15222   0.02972
  17   30412.5    328.8   0.287483636   3.11198  -1.02915   1.40792  -0.26567
  18   30941.9    323.2   0.138547159   1.47410   0.53902   0.93560  -0.55515
  19   31173.3    320.8   0.022856826   0.24138   0.24190   0.17764   0.38899
  20   31396.2    318.5   0.206977840   2.17032   1.27356   0.33708  -0.65934
  21   31540.5    317.1   0.011382852   0.11881  -0.10201  -0.23792  -0.22760
  22   31759.2    314.9   0.015976806   0.16561   0.10726   0.39025  -0.04263
  23   32000.5    312.5   0.059638722   0.61355  -0.66086   0.18055   0.37974
  24   32207.7    310.5   0.001867209   0.01909   0.06258   0.12025  -0.02664
  25   32733.5    305.5   0.131652994   1.32408  -0.72326  -0.00010   0.89497
  26   33199.5    301.2   0.011792493   0.11694   0.29819  -0.13917   0.09302
  27   33424.1    299.2   0.007045628   0.06940   0.01374  -0.24546  -0.09463
  28   33955.1    294.5   0.066123522   0.64110   0.32025  -0.05497   0.73179
  29   34183.5    292.5   0.558643228   5.38014   0.97150  -1.98253  -0.71127
  30   34256.0    291.9   0.009317988   0.08955   0.17467  -0.22045   0.10218
  31   34352.2    291.1   0.231723664   2.22071  -0.73684   1.23488   0.39096
  32   34706.5    288.1   0.001274333   0.01209  -0.00061  -0.08436   0.07050
  33   34883.1    286.7   0.006429318   0.06068   0.05157   0.24063   0.01075
  34   34902.3    286.5   0.035613760   0.33592  -0.23574   0.45675   0.26782
  35   35129.4    284.7   0.213297705   1.99890  -0.15628  -1.30495  -0.52114
  36   35414.0    282.4   0.264508103   2.45889   1.33397   0.53360  -0.62825
  37   35525.6    281.5   0.010547178   0.09774   0.23945   0.18040  -0.08865
  38   35993.3    277.8   0.194656181   1.78042  -1.09501   0.58141   0.49329
  39   36292.3    275.5   0.062726298   0.56900   0.73292   0.17557   0.03168
  40   36300.2    275.5   0.029364682   0.26631   0.39400   0.29864   0.14795
  41   36684.7    272.6   0.068423179   0.61404  -0.42871   0.53954   0.37301
  42   37167.6    269.1   0.036840366   0.32631  -0.21483   0.40529   0.34045
  43   37455.6    267.0   0.021023782   0.18479  -0.15880  -0.25812  -0.30486
  44   38087.0    262.6   0.024955775   0.21571  -0.16995   0.43217  -0.00746
  45   38633.0    258.8   0.074436402   0.63431  -0.01037   0.65217   0.45704
  46   39367.9    254.0   0.102149885   0.85422  -0.82498   0.27930  -0.30922
  47   39429.6    253.6   0.253573662   2.11718  -0.30126  -0.58920  -1.29586
  48   39550.6    252.8   0.017933958   0.14928   0.28172   0.11816   0.23654
  49   40150.9    249.1   0.153304151   1.25700   0.13582  -1.09074  -0.22100

FINAL SINGLE POINT ENERGY     -6056.865099806834

DIPOLE MOMENT
-------------
                                X             Y             Z
Electronic contribution:    -78.83715      -5.83321     -20.22787
Nuclear contribution   :     80.99588       6.42105      18.31144
                        -----------------------------------------
Total Dipole Moment    :      2.15873       0.58784      -1.91643
                        -----------------------------------------
Magnitude (a.u.)       :      2.94591
Magnitude (Debye)      :      7.48790

Rotational constants in cm-1:     0.001019     0.000242     0.000233
Rotational constants in MHz :    30.544635     7.262220     6.977338

                             ****ORCA TERMINATED NORMALLY****
TOTAL RUN TIME: 0 days 0 hours 10 minutes 28 seconds 821 msec
