                         Program Version 4.2.0 -  RELEASE  -
|  1> # ORCA input file
|  2> # SCF done       -203.444286081681          0.000622691868
|  3> ! CAM-B3LYP def2-SVP def2/J RIJCOSX Grid4 TightSCF
|  4> %maxcore 5000
|  5> %tddft
|  6>     Mode sTDDFT
|  7>     Ethresh 5.0
|  8>     maxcore 5000
|  9> end
| 10>
| 11> %pal
| 12>   nprocs 6
| 13>   end
| 14> * xyz 0 1
| 15>    C       -3.04960        -2.34918        -0.91484
| 16>    C       -1.72675        -2.07917        -0.67781
| 17>    C       -0.68251        -3.00589        -0.88384
| 18>    N        0.21076        -3.71194        -1.02925
| 19>    C       -1.20389        -0.85855        -0.20082
| 20>    N       -0.69685         0.09786         0.18271
| 21>    C       -3.57101        -3.62045        -1.40972
| 22>    C       -4.97920        -3.51953        -1.52776
| 23>    C       -5.76715        -4.55365        -1.97104
| 24>    C       -5.13369        -5.75131        -2.31738
| 25>    C       -3.72641        -5.84585        -2.19746
| 26>    C       -2.93112        -4.79821        -1.74796
| 27>    S       -3.14880        -7.41174        -2.67864
| 28>    C       -4.78210        -7.91133        -3.02983
| 29>    C       -5.71419        -6.95607        -2.79888
| 30>   Br       -5.10339        -9.64507        -3.66765
| 31>    C       -5.40094        -2.17404        -1.11036
| 32>    O       -6.54609        -1.75399        -1.08900
| 33>    C       -4.18018        -1.45562        -0.73257
| 34>    C       -4.12356        -0.15865        -0.28776
| 35>    C       -5.14799         0.77943        -0.09151
| 36>    C       -4.88244         2.07841         0.36411
| 37>    C       -6.02590         2.84420         0.47767
| 38>    C       -7.18865         2.12527         0.10707
| 39>    S       -6.87118         0.52525        -0.37438
| 40>    C       -8.30245         2.98676         0.24585
| 41>    C       -7.85391         4.24223         0.69950
| 42>    C       -6.40999         4.19478         0.86249
| 43>    C       -5.59424         5.20357         1.28276
| 44>    C       -4.19725         5.04521         1.40365
| 45>    N       -3.06173         4.92462         1.50363
| 46>    C       -6.10035         6.47571         1.62318
| 47>    N       -6.51755         7.50805         1.89729
| 48>    C       -8.89109         5.15775         0.85484
| 49>    C      -10.12253         4.61187         0.52391
| 50>    S       -9.99362         2.93944         0.01708
| 51>    C      -11.39991         5.25590         0.54776
| 52>    C      -11.58150         6.58373         0.91667
| 53>    C      -12.82696         7.20424         0.92012
| 54>    C      -13.99774         6.54954         0.55574
| 55>    C      -13.86249         5.18321         0.18012
| 56>    C      -12.57379         4.54152         0.17518
| 57>    N      -12.60286         3.27039        -0.19825
| 58>   Se      -14.24712         2.80214        -0.56900
| 59>    N      -14.86225         4.39584        -0.18973
| 60>    C      -15.28200         7.17945         0.54094
| 61>    C      -15.58403         8.49748         0.84922
| 62>    C      -16.94242         8.76902         0.71434
| 63>    C      -17.68219         7.64395         0.30254
| 64>    S      -16.70300         6.26286         0.08193
| 65>    C      -19.04417         8.01753         0.19529
| 66>    C      -19.16310         9.38172         0.53387
| 67>    C      -17.84847         9.89386         0.88119
| 68>    C      -17.54899        11.15585         1.30361
| 69>    C      -16.23219        11.54406         1.62671
| 70>    N      -15.15754        11.85349         1.87965
| 71>    C      -18.54932        12.14173         1.43744
| 72>    N      -19.37411        12.93270         1.53290
| 73>    C      -20.47152         9.84078         0.48213
| 74>    C      -21.36425         8.84269         0.11463
| 75>    S      -20.54104         7.31803        -0.20365
| 76>    C      -22.76019         8.91704        -0.07183
| 77>    C      -23.63793         9.86650         0.35791
| 78>    C      -23.55684        10.93773         1.32814
| 79>    C      -22.79872        10.95982         2.47059
| 80>    C      -22.87751        11.97647         3.44570
| 81>    N      -22.91043        12.77301         4.27079
| 82>    C      -21.92924         9.92214         2.85731
| 83>    N      -21.23030         9.08772         3.22288
| 84>    C      -24.63910        11.87112         1.03027
| 85>    C      -25.50623        11.27595         0.07921
| 86>    C      -24.96378         9.96291        -0.31672
| 87>    O      -25.45228         9.14774        -1.06445
| 88>    C      -26.64536        11.89865        -0.37029
| 89>    C      -26.93334        13.17238         0.13128
| 90>    C      -26.04956        13.76582         1.06514
| 91>    C      -24.90233        13.13248         1.52789
| 92>    S      -26.58828        15.34708         1.53918
| 93>    C      -27.97735        15.19098         0.49668
| 94>    C      -28.03547        14.01643        -0.17515
| 95>   Br      -29.21789        16.59286         0.39191
| 96>    H       -6.83723        -4.44175        -2.04842
| 97>    H       -1.86400        -4.92359        -1.67575
| 98>    H       -6.76760        -7.09379        -2.96105
| 99>    H       -3.14316         0.23321        -0.04520
|100>    H       -3.88467         2.41206         0.58929
|101>    H       -8.76039         6.16983         1.19002
|102>    H      -10.72539         7.16884         1.21204
|103>    H      -12.87460         8.23904         1.21912
|104>    H      -14.85033         9.22066         1.15346
|105>    H      -20.76963        10.85868         0.65502
|106>    H      -23.19911         8.14899        -0.70196
|107>    H      -27.29376        11.41972        -1.08700
|108>    H      -24.25254        13.62505         2.23221
|109>    H      -28.82185        13.75447        -0.85919
|110> *
|111>
|112>                          ****END OF INPUT****

CARTESIAN COORDINATES (ANGSTROEM)
---------------------------------
  C     -3.049600   -2.349180   -0.914840
  C     -1.726750   -2.079170   -0.677810
  C     -0.682510   -3.005890   -0.883840
  N      0.210760   -3.711940   -1.029250
  C     -1.203890   -0.858550   -0.200820
  N     -0.696850    0.097860    0.182710
  C     -3.571010   -3.620450   -1.409720
  C     -4.979200   -3.519530   -1.527760
  C     -5.767150   -4.553650   -1.971040
  C     -5.133690   -5.751310   -2.317380
  C     -3.726410   -5.845850   -2.197460
  C     -2.931120   -4.798210   -1.747960
  S     -3.148800   -7.411740   -2.678640
  C     -4.782100   -7.911330   -3.029830
  C     -5.714190   -6.956070   -2.798880
  Br    -5.103390   -9.645070   -3.667650
  C     -5.400940   -2.174040   -1.110360
  O     -6.546090   -1.753990   -1.089000
  C     -4.180180   -1.455620   -0.732570
  C     -4.123560   -0.158650   -0.287760
  C     -5.147990    0.779430   -0.091510
  C     -4.882440    2.078410    0.364110
  C     -6.025900    2.844200    0.477670
  C     -7.188650    2.125270    0.107070
  S     -6.871180    0.525250   -0.374380
  C     -8.302450    2.986760    0.245850
  C     -7.853910    4.242230    0.699500
  C     -6.409990    4.194780    0.862490
  C     -5.594240    5.203570    1.282760
  C     -4.197250    5.045210    1.403650
  N     -3.061730    4.924620    1.503630
  C     -6.100350    6.475710    1.623180
  N     -6.517550    7.508050    1.897290
  C     -8.891090    5.157750    0.854840
  C    -10.122530    4.611870    0.523910
  S     -9.993620    2.939440    0.017080
  C    -11.399910    5.255900    0.547760
  C    -11.581500    6.583730    0.916670
  C    -12.826960    7.204240    0.920120
  C    -13.997740    6.549540    0.555740
  C    -13.862490    5.183210    0.180120
  C    -12.573790    4.541520    0.175180
  N    -12.602860    3.270390   -0.198250
  Se   -14.247120    2.802140   -0.569000
  N    -14.862250    4.395840   -0.189730
  C    -15.282000    7.179450    0.540940
  C    -15.584030    8.497480    0.849220
  C    -16.942420    8.769020    0.714340
  C    -17.682190    7.643950    0.302540
  S    -16.703000    6.262860    0.081930
  C    -19.044170    8.017530    0.195290
  C    -19.163100    9.381720    0.533870
  C    -17.848470    9.893860    0.881190
  C    -17.548990   11.155850    1.303610
  C    -16.232190   11.544060    1.626710
  N    -15.157540   11.853490    1.879650
  C    -18.549320   12.141730    1.437440
  N    -19.374110   12.932700    1.532900
  C    -20.471520    9.840780    0.482130
  C    -21.364250    8.842690    0.114630
  S    -20.541040    7.318030   -0.203650
  C    -22.760190    8.917040   -0.071830
  C    -23.637930    9.866500    0.357910
  C    -23.556840   10.937730    1.328140
  C    -22.798720   10.959820    2.470590
  C    -22.877510   11.976470    3.445700
  N    -22.910430   12.773010    4.270790
  C    -21.929240    9.922140    2.857310
  N    -21.230300    9.087720    3.222880
  C    -24.639100   11.871120    1.030270
  C    -25.506230   11.275950    0.079210
  C    -24.963780    9.962910   -0.316720
  O    -25.452280    9.147740   -1.064450
  C    -26.645360   11.898650   -0.370290
  C    -26.933340   13.172380    0.131280
  C    -26.049560   13.765820    1.065140
  C    -24.902330   13.132480    1.527890
  S    -26.588280   15.347080    1.539180
  C    -27.977350   15.190980    0.496680
  C    -28.035470   14.016430   -0.175150
  Br   -29.217890   16.592860    0.391910
  H     -6.837230   -4.441750   -2.048420
  H     -1.864000   -4.923590   -1.675750
  H     -6.767600   -7.093790   -2.961050
  H     -3.143160    0.233210   -0.045200
  H     -3.884670    2.412060    0.589290
  H     -8.760390    6.169830    1.190020
  H    -10.725390    7.168840    1.212040
  H    -12.874600    8.239040    1.219120
  H    -14.850330    9.220660    1.153460
  H    -20.769630   10.858680    0.655020
  H    -23.199110    8.148990   -0.701960
  H    -27.293760   11.419720   -1.087000
  H    -24.252540   13.625050    2.232210
  H    -28.821850   13.754470   -0.859190

 Total Charge           Charge          ....    0
 Multiplicity           Mult            ....    1
 Number of Electrons    NEL             ....  660
 Basis Dimension        Dim             .... 1282

ORBITAL ENERGIES
----------------

  NO   OCC          E(Eh)            E(eV)
   0   2.0000    -482.889222    -13140.0837
   1   2.0000    -482.886209    -13140.0018
   2   2.0000    -454.005964    -12354.1304
   3   2.0000     -88.997710     -2421.7508
   4   2.0000     -88.992138     -2421.5992
   5   2.0000     -88.991342     -2421.5775
   6   2.0000     -88.991246     -2421.5749
   7   2.0000     -88.979717     -2421.2612
   8   2.0000     -88.976476     -2421.1730
   9   2.0000     -62.566910     -1702.5322
  10   2.0000     -62.563919     -1702.4508
  11   2.0000     -58.219440     -1584.2315
  12   2.0000     -56.400865     -1534.7456
  13   2.0000     -56.398142     -1534.6715
  14   2.0000     -56.398110     -1534.6706
  15   2.0000     -56.397867     -1534.6640
  16   2.0000     -56.395152     -1534.5901
  17   2.0000     -56.395120     -1534.5892
  18   2.0000     -52.290154     -1422.8874
  19   2.0000     -52.287875     -1422.8254
  20   2.0000     -52.287247     -1422.8083
  21   2.0000     -19.228265      -523.2277
  22   2.0000     -19.217495      -522.9346
  23   2.0000     -14.462385      -393.5415
  24   2.0000     -14.462102      -393.5338
  25   2.0000     -14.434235      -392.7755
  26   2.0000     -14.434163      -392.7735
  27   2.0000     -14.433265      -392.7491
  28   2.0000     -14.430874      -392.6841
  29   2.0000     -14.419247      -392.3677
  30   2.0000     -14.419159      -392.3653
  31   2.0000     -14.416736      -392.2993
  32   2.0000     -14.414919      -392.2499
  33   2.0000     -10.375890      -282.3423
  34   2.0000     -10.368704      -282.1468
  35   2.0000     -10.368235      -282.1340
  36   2.0000     -10.366646      -282.0908
  37   2.0000     -10.362874      -281.9881
  38   2.0000     -10.359639      -281.9001
  39   2.0000     -10.356383      -281.8115
  40   2.0000     -10.355715      -281.7933
  41   2.0000     -10.348686      -281.6021
  42   2.0000     -10.348415      -281.5947
  43   2.0000     -10.345546      -281.5166
  44   2.0000     -10.345437      -281.5137
  45   2.0000     -10.344926      -281.4997
  46   2.0000     -10.344716      -281.4940
  47   2.0000     -10.344618      -281.4914
  48   2.0000     -10.335694      -281.2485
  49   2.0000     -10.334642      -281.2199
  50   2.0000     -10.334531      -281.2169
  51   2.0000     -10.333897      -281.1996
  52   2.0000     -10.333796      -281.1969
  53   2.0000     -10.332894      -281.1723
  54   2.0000     -10.330788      -281.1150
  55   2.0000     -10.330745      -281.1139
  56   2.0000     -10.329746      -281.0867
  57   2.0000     -10.329726      -281.0861
  58   2.0000     -10.329384      -281.0768
  59   2.0000     -10.328701      -281.0582
  60   2.0000     -10.328541      -281.0539
  61   2.0000     -10.327026      -281.0127
  62   2.0000     -10.326678      -281.0032
  63   2.0000     -10.323092      -280.9056
  64   2.0000     -10.322557      -280.8910
  65   2.0000     -10.321611      -280.8653
  66   2.0000     -10.320522      -280.8357
  67   2.0000     -10.319829      -280.8168
  68   2.0000     -10.317338      -280.7490
  69   2.0000     -10.315578      -280.7012
  70   2.0000     -10.314713      -280.6776
  71   2.0000     -10.312333      -280.6128
  72   2.0000     -10.311755      -280.5971
  73   2.0000     -10.310606      -280.5659
  74   2.0000     -10.310300      -280.5575
  75   2.0000     -10.310232      -280.5557
  76   2.0000     -10.310003      -280.5494
  77   2.0000     -10.309638      -280.5395
  78   2.0000     -10.309392      -280.5328
  79   2.0000     -10.309163      -280.5266
  80   2.0000     -10.308603      -280.5113
  81   2.0000     -10.308098      -280.4976
  82   2.0000     -10.307589      -280.4838
  83   2.0000     -10.307224      -280.4738
  84   2.0000     -10.306846      -280.4635
  85   2.0000     -10.306345      -280.4499
  86   2.0000     -10.303066      -280.3607
  87   2.0000     -10.302010      -280.3319
  88   2.0000     -10.301855      -280.3277
  89   2.0000     -10.300763      -280.2980
  90   2.0000     -10.297457      -280.2081
  91   2.0000     -10.297141      -280.1995
  92   2.0000     -10.294712      -280.1334
  93   2.0000      -8.796327      -239.3602
  94   2.0000      -8.793359      -239.2795
  95   2.0000      -8.092408      -220.2056
  96   2.0000      -8.085236      -220.0105
  97   2.0000      -8.084419      -219.9882
  98   2.0000      -8.083607      -219.9661
  99   2.0000      -8.075592      -219.7480
 100   2.0000      -8.072434      -219.6621
 101   2.0000      -7.995015      -217.5554
 102   2.0000      -6.632635      -180.4832
 103   2.0000      -6.629638      -180.4016
 104   2.0000      -6.618067      -180.0868
 105   2.0000      -6.617848      -180.0808
 106   2.0000      -6.615100      -180.0060
 107   2.0000      -6.614902      -180.0006
 108   2.0000      -6.061548      -164.9431
 109   2.0000      -6.057398      -164.8302
 110   2.0000      -6.054949      -164.7635
 111   2.0000      -6.054680      -164.7562
 112   2.0000      -6.053814      -164.7327
 113   2.0000      -6.053022      -164.7111
 114   2.0000      -6.049971      -164.6281
 115   2.0000      -6.049150      -164.6057
 116   2.0000      -6.048258      -164.5815
 117   2.0000      -6.047778      -164.5684
 118   2.0000      -6.046996      -164.5471
 119   2.0000      -6.046196      -164.5254
 120   2.0000      -6.045297      -164.5009
 121   2.0000      -6.042126      -164.4146
 122   2.0000      -6.040975      -164.3833
 123   2.0000      -6.037834      -164.2978
 124   2.0000      -6.036872      -164.2716
 125   2.0000      -6.033685      -164.1849
 126   2.0000      -5.945262      -161.7788
 127   2.0000      -5.938671      -161.5995
 128   2.0000      -5.934587      -161.4883
 129   2.0000      -2.748514       -74.7909
 130   2.0000      -2.745555       -74.7103
 131   2.0000      -2.744414       -74.6793
 132   2.0000      -2.744257       -74.6750
 133   2.0000      -2.741412       -74.5976
 134   2.0000      -2.741274       -74.5938
 135   2.0000      -2.732669       -74.3597
 136   2.0000      -2.732662       -74.3595
 137   2.0000      -2.729707       -74.2791
 138   2.0000      -2.729701       -74.2789
 139   2.0000      -2.299420       -62.5704
 140   2.0000      -2.298753       -62.5522
 141   2.0000      -2.294040       -62.4240
 142   2.0000      -2.288918       -62.2846
 143   2.0000      -2.288767       -62.2805
 144   2.0000      -1.143901       -31.1271
 145   2.0000      -1.133136       -30.8342
 146   2.0000      -1.117644       -30.4126
 147   2.0000      -1.050719       -28.5915
 148   2.0000      -1.047936       -28.5158
 149   2.0000      -1.027038       -27.9471
 150   2.0000      -1.026364       -27.9288
 151   2.0000      -1.024765       -27.8853
 152   2.0000      -1.024207       -27.8701
 153   2.0000      -1.016862       -27.6702
 154   2.0000      -1.015660       -27.6375
 155   2.0000      -1.012129       -27.5414
 156   2.0000      -1.010644       -27.5010
 157   2.0000      -1.009387       -27.4668
 158   2.0000      -1.005848       -27.3705
 159   2.0000      -0.996910       -27.1273
 160   2.0000      -0.995743       -27.0955
 161   2.0000      -0.994348       -27.0576
 162   2.0000      -0.992313       -27.0022
 163   2.0000      -0.989727       -26.9318
 164   2.0000      -0.980098       -26.6698
 165   2.0000      -0.962552       -26.1924
 166   2.0000      -0.958372       -26.0786
 167   2.0000      -0.946475       -25.7549
 168   2.0000      -0.944481       -25.7006
 169   2.0000      -0.925279       -25.1781
 170   2.0000      -0.920842       -25.0574
 171   2.0000      -0.912593       -24.8329
 172   2.0000      -0.910116       -24.7655
 173   2.0000      -0.902178       -24.5495
 174   2.0000      -0.896610       -24.3980
 175   2.0000      -0.890071       -24.2201
 176   2.0000      -0.887354       -24.1461
 177   2.0000      -0.885261       -24.0892
 178   2.0000      -0.878052       -23.8930
 179   2.0000      -0.873812       -23.7776
 180   2.0000      -0.872614       -23.7450
 181   2.0000      -0.862714       -23.4756
 182   2.0000      -0.860671       -23.4200
 183   2.0000      -0.856496       -23.3064
 184   2.0000      -0.851585       -23.1728
 185   2.0000      -0.833649       -22.6847
 186   2.0000      -0.830760       -22.6061
 187   2.0000      -0.817639       -22.2491
 188   2.0000      -0.800659       -21.7870
 189   2.0000      -0.791137       -21.5279
 190   2.0000      -0.781898       -21.2765
 191   2.0000      -0.777403       -21.1542
 192   2.0000      -0.767968       -20.8975
 193   2.0000      -0.765757       -20.8373
 194   2.0000      -0.758428       -20.6379
 195   2.0000      -0.755925       -20.5698
 196   2.0000      -0.737226       -20.0609
 197   2.0000      -0.721717       -19.6389
 198   2.0000      -0.721486       -19.6326
 199   2.0000      -0.715703       -19.4753
 200   2.0000      -0.704990       -19.1838
 201   2.0000      -0.702903       -19.1270
 202   2.0000      -0.698167       -18.9981
 203   2.0000      -0.695678       -18.9303
 204   2.0000      -0.691568       -18.8185
 205   2.0000      -0.688055       -18.7229
 206   2.0000      -0.684577       -18.6283
 207   2.0000      -0.679856       -18.4998
 208   2.0000      -0.670641       -18.2491
 209   2.0000      -0.664056       -18.0699
 210   2.0000      -0.659965       -17.9586
 211   2.0000      -0.654598       -17.8125
 212   2.0000      -0.645419       -17.5627
 213   2.0000      -0.641996       -17.4696
 214   2.0000      -0.632964       -17.2238
 215   2.0000      -0.631365       -17.1803
 216   2.0000      -0.626235       -17.0407
 217   2.0000      -0.625111       -17.0101
 218   2.0000      -0.621866       -16.9218
 219   2.0000      -0.620522       -16.8853
 220   2.0000      -0.611744       -16.6464
 221   2.0000      -0.607982       -16.5440
 222   2.0000      -0.603328       -16.4174
 223   2.0000      -0.600173       -16.3315
 224   2.0000      -0.599153       -16.3038
 225   2.0000      -0.591253       -16.0888
 226   2.0000      -0.586365       -15.9558
 227   2.0000      -0.581478       -15.8228
 228   2.0000      -0.576610       -15.6903
 229   2.0000      -0.564295       -15.3552
 230   2.0000      -0.562644       -15.3103
 231   2.0000      -0.559443       -15.2232
 232   2.0000      -0.552733       -15.0406
 233   2.0000      -0.551635       -15.0108
 234   2.0000      -0.550668       -14.9844
 235   2.0000      -0.547878       -14.9085
 236   2.0000      -0.545592       -14.8463
 237   2.0000      -0.543927       -14.8010
 238   2.0000      -0.542806       -14.7705
 239   2.0000      -0.539572       -14.6825
 240   2.0000      -0.537284       -14.6202
 241   2.0000      -0.531467       -14.4620
 242   2.0000      -0.526341       -14.3225
 243   2.0000      -0.524198       -14.2641
 244   2.0000      -0.522144       -14.2083
 245   2.0000      -0.518412       -14.1067
 246   2.0000      -0.516383       -14.0515
 247   2.0000      -0.514271       -13.9940
 248   2.0000      -0.511567       -13.9205
 249   2.0000      -0.510385       -13.8883
 250   2.0000      -0.509141       -13.8544
 251   2.0000      -0.507468       -13.8089
 252   2.0000      -0.504116       -13.7177
 253   2.0000      -0.501799       -13.6547
 254   2.0000      -0.501077       -13.6350
 255   2.0000      -0.500509       -13.6195
 256   2.0000      -0.499574       -13.5941
 257   2.0000      -0.497090       -13.5265
 258   2.0000      -0.495875       -13.4934
 259   2.0000      -0.491821       -13.3831
 260   2.0000      -0.490867       -13.3572
 261   2.0000      -0.489796       -13.3280
 262   2.0000      -0.489361       -13.3162
 263   2.0000      -0.485060       -13.1992
 264   2.0000      -0.477733       -12.9998
 265   2.0000      -0.477111       -12.9829
 266   2.0000      -0.472696       -12.8627
 267   2.0000      -0.468607       -12.7514
 268   2.0000      -0.465227       -12.6595
 269   2.0000      -0.463961       -12.6250
 270   2.0000      -0.463448       -12.6111
 271   2.0000      -0.462987       -12.5985
 272   2.0000      -0.462241       -12.5782
 273   2.0000      -0.459725       -12.5097
 274   2.0000      -0.459083       -12.4923
 275   2.0000      -0.455870       -12.4049
 276   2.0000      -0.454680       -12.3725
 277   2.0000      -0.453093       -12.3293
 278   2.0000      -0.452068       -12.3014
 279   2.0000      -0.451210       -12.2781
 280   2.0000      -0.450570       -12.2606
 281   2.0000      -0.449985       -12.2447
 282   2.0000      -0.448383       -12.2011
 283   2.0000      -0.445956       -12.1351
 284   2.0000      -0.444506       -12.0956
 285   2.0000      -0.443381       -12.0650
 286   2.0000      -0.443345       -12.0640
 287   2.0000      -0.442384       -12.0379
 288   2.0000      -0.442144       -12.0313
 289   2.0000      -0.440755       -11.9935
 290   2.0000      -0.439595       -11.9620
 291   2.0000      -0.437173       -11.8961
 292   2.0000      -0.431375       -11.7383
 293   2.0000      -0.430082       -11.7031
 294   2.0000      -0.429488       -11.6870
 295   2.0000      -0.428692       -11.6653
 296   2.0000      -0.428121       -11.6498
 297   2.0000      -0.425212       -11.5706
 298   2.0000      -0.420651       -11.4465
 299   2.0000      -0.419861       -11.4250
 300   2.0000      -0.412037       -11.2121
 301   2.0000      -0.411556       -11.1990
 302   2.0000      -0.409443       -11.1415
 303   2.0000      -0.409280       -11.1371
 304   2.0000      -0.399337       -10.8665
 305   2.0000      -0.396935       -10.8012
 306   2.0000      -0.392815       -10.6890
 307   2.0000      -0.391233       -10.6460
 308   2.0000      -0.386784       -10.5249
 309   2.0000      -0.378499       -10.2995
 310   2.0000      -0.376279       -10.2391
 311   2.0000      -0.375508       -10.2181
 312   2.0000      -0.372592       -10.1388
 313   2.0000      -0.365340        -9.9414
 314   2.0000      -0.355410        -9.6712
 315   2.0000      -0.353275        -9.6131
 316   2.0000      -0.349741        -9.5169
 317   2.0000      -0.348673        -9.4879
 318   2.0000      -0.344309        -9.3691
 319   2.0000      -0.342210        -9.3120
 320   2.0000      -0.334377        -9.0989
 321   2.0000      -0.325796        -8.8654
 322   2.0000      -0.324908        -8.8412
 323   2.0000      -0.319773        -8.7015
 324   2.0000      -0.316544        -8.6136
 325   2.0000      -0.310187        -8.4406
 326   2.0000      -0.297602        -8.0982
 327   2.0000      -0.295316        -8.0359
 328   2.0000      -0.277114        -7.5406
 329   2.0000      -0.251169        -6.8346
 330   0.0000      -0.122695        -3.3387
 331   0.0000      -0.108558        -2.9540
 332   0.0000      -0.093880        -2.5546
 333   0.0000      -0.089619        -2.4387
 334   0.0000      -0.087716        -2.3869

MULLIKEN ATOMIC CHARGES
-----------------------
   0 C :    0.327482
   1 C :   -0.356237
   2 C :   -0.185268
   3 N :    0.150851
   4 C :   -0.191860
   5 N :    0.155277
   6 C :    0.015674
   7 C :   -0.010112
   8 C :   -0.074880
   9 C :    0.120397
  10 C :   -0.091984
  11 C :   -0.023465
  12 S :    0.189577
  13 C :   -0.122641
  14 C :    0.037366
  15 Br:    0.025260
  16 C :    0.164517
  17 O :   -0.194218
  18 C :   -0.089508
  19 C :   -0.030442
  20 C :   -0.053630
  21 C :   -0.063679
  22 C :    0.048842
  23 C :   -0.069096
  24 S :    0.238921
  25 C :   -0.090183
  26 C :    0.027686
  27 C :    0.305996
  28 C :   -0.298920
  29 C :   -0.194975
  30 N :    0.183112
  31 C :   -0.183750
  32 N :    0.168173
  33 C :   -0.053123
  34 C :   -0.092210
  35 S :    0.221152
  36 C :    0.146777
  37 C :   -0.044363
  38 C :   -0.044089
  39 C :    0.144965
  40 C :    0.004592
  41 C :    0.003943
  42 N :   -0.326116
  43 Se:    0.566386
  44 N :   -0.328944
  45 C :   -0.094529
  46 C :   -0.051686
  47 C :    0.029107
  48 C :   -0.088931
  49 S :    0.219484
  50 C :   -0.075926
  51 C :   -0.003592
  52 C :    0.306033
  53 C :   -0.289570
  54 C :   -0.186388
  55 N :    0.170805
  56 C :   -0.185164
  57 N :    0.171012
  58 C :   -0.002495
  59 C :   -0.110417
  60 S :    0.211584
  61 C :    0.078772
  62 C :   -0.129364
  63 C :    0.264609
  64 C :   -0.329729
  65 C :   -0.170962
  66 N :    0.162798
  67 C :   -0.204983
  68 N :    0.164741
  69 C :   -0.003387
  70 C :    0.008146
  71 C :    0.131016
  72 O :   -0.146663
  73 C :   -0.073885
  74 C :    0.112920
  75 C :   -0.088212
  76 C :   -0.018265
  77 S :    0.189679
  78 C :   -0.125092
  79 C :    0.039959
  80 Br:    0.025026
  81 H :   -0.011197
  82 H :   -0.005309
  83 H :   -0.002762
  84 H :    0.015296
  85 H :    0.028291
  86 H :    0.005865
  87 H :   -0.006989
  88 H :   -0.006906
  89 H :    0.006355
  90 H :    0.025176
  91 H :    0.020180
  92 H :   -0.008617
  93 H :    0.003364
  94 H :   -0.002453
Sum of atomic charges:   -0.0000000

LOEWDIN ATOMIC CHARGES
----------------------
   0 C :    0.076295
   1 C :   -0.141401
   2 C :   -0.017770
   3 N :   -0.053074
   4 C :   -0.023549
   5 N :   -0.046849
   6 C :   -0.019455
   7 C :   -0.051459
   8 C :    0.021674
   9 C :   -0.033263
  10 C :   -0.143514
  11 C :   -0.008790
  12 S :    0.435893
  13 C :   -0.271326
  14 C :   -0.071031
  15 Br:    0.138412
  16 C :    0.085937
  17 O :   -0.177267
  18 C :   -0.113574
  19 C :    0.056370
  20 C :   -0.185032
  21 C :    0.013344
  22 C :   -0.078430
  23 C :   -0.163412
  24 S :    0.546182
  25 C :   -0.196182
  26 C :   -0.057924
  27 C :    0.079123
  28 C :   -0.103517
  29 C :   -0.020757
  30 N :   -0.024878
  31 C :   -0.015012
  32 N :   -0.035932
  33 C :   -0.026095
  34 C :   -0.152685
  35 S :    0.522624
  36 C :   -0.045533
  37 C :    0.001875
  38 C :   -0.000329
  39 C :   -0.042734
  40 C :   -0.036990
  41 C :   -0.036852
  42 N :   -0.266051
  43 Se:    0.594907
  44 N :   -0.266396
  45 C :   -0.156474
  46 C :   -0.022628
  47 C :   -0.060728
  48 C :   -0.192381
  49 S :    0.521456
  50 C :   -0.156716
  51 C :   -0.066674
  52 C :    0.083362
  53 C :   -0.100739
  54 C :   -0.015580
  55 N :   -0.033257
  56 C :   -0.013359
  57 N :   -0.032901
  58 C :    0.010316
  59 C :   -0.181894
  60 S :    0.497897
  61 C :    0.041182
  62 C :   -0.092483
  63 C :    0.065524
  64 C :   -0.137840
  65 C :   -0.019550
  66 N :   -0.045750
  67 C :   -0.015743
  68 N :   -0.047046
  69 C :   -0.017516
  70 C :   -0.053625
  71 C :    0.083512
  72 O :   -0.144935
  73 C :    0.022808
  74 C :   -0.033343
  75 C :   -0.142594
  76 C :   -0.009443
  77 S :    0.435542
  78 C :   -0.271644
  79 C :   -0.070511
  80 Br:    0.137870
  81 H :    0.040536
  82 H :    0.041597
  83 H :    0.038791
  84 H :    0.053562
  85 H :    0.048186
  86 H :    0.038435
  87 H :    0.039496
  88 H :    0.039297
  89 H :    0.038903
  90 H :    0.042652
  91 H :    0.045402
  92 H :    0.041523
  93 H :    0.042920
  94 H :    0.039014

  Mayer bond orders larger than 0.100000
B(  0-C ,  1-C ) :   1.6221 B(  0-C ,  6-C ) :   0.9974 B(  0-C , 18-C ) :   1.0814
B(  1-C ,  2-C ) :   1.1474 B(  1-C ,  4-C ) :   1.1449 B(  2-C ,  3-N ) :   2.9661
B(  4-C ,  5-N ) :   2.9592 B(  6-C ,  7-C ) :   1.2741 B(  6-C , 11-C ) :   1.4132
B(  7-C ,  8-C ) :   1.4194 B(  7-C , 16-C ) :   0.9641 B(  8-C ,  9-C ) :   1.2418
B(  8-C , 81-H ) :   1.0180 B(  9-C , 10-C ) :   1.3060 B(  9-C , 14-C ) :   1.1637
B( 10-C , 11-C ) :   1.3262 B( 10-C , 12-S ) :   1.0886 B( 11-C , 82-H ) :   0.9805
B( 12-S , 13-C ) :   1.0877 B( 13-C , 14-C ) :   1.6160 B( 13-C , 15-Br) :   1.0196
B( 14-C , 83-H ) :   1.0004 B( 16-C , 17-O ) :   2.1055 B( 16-C , 18-C ) :   0.9846
B( 18-C , 19-C ) :   1.4842 B( 19-C , 20-C ) :   1.2736 B( 19-C , 84-H ) :   0.9393
B( 20-C , 21-C ) :   1.3226 B( 20-C , 24-S ) :   1.0657 B( 21-C , 22-C ) :   1.3341
B( 21-C , 85-H ) :   1.0097 B( 22-C , 23-C ) :   1.3506 B( 22-C , 27-C ) :   0.9827
B( 23-C , 24-S ) :   1.1279 B( 23-C , 25-C ) :   1.2051 B( 25-C , 26-C ) :   1.4111
B( 25-C , 35-S ) :   1.0876 B( 26-C , 27-C ) :   0.9981 B( 26-C , 33-C ) :   1.3128
B( 27-C , 28-C ) :   1.7146 B( 28-C , 29-C ) :   1.1326 B( 28-C , 31-C ) :   1.1345
B( 29-C , 30-N ) :   2.9967 B( 31-C , 32-N ) :   2.9858 B( 33-C , 34-C ) :   1.4388
B( 33-C , 86-H ) :   0.9857 B( 34-C , 35-S ) :   1.1266 B( 34-C , 36-C ) :   1.1088
B( 36-C , 37-C ) :   1.4424 B( 36-C , 39-C ) :   0.1024 B( 36-C , 41-C ) :   1.1501
B( 37-C , 38-C ) :   1.2372 B( 37-C , 87-H ) :   0.9938 B( 38-C , 39-C ) :   1.4463
B( 38-C , 88-H ) :   0.9929 B( 39-C , 40-C ) :   1.1477 B( 39-C , 45-C ) :   1.1103
B( 40-C , 41-C ) :   1.1325 B( 40-C , 44-N ) :   1.5525 B( 41-C , 42-N ) :   1.5544
B( 42-N , 43-Se) :   1.2272 B( 42-N , 44-N ) :   0.1256 B( 43-Se, 44-N ) :   1.2271
B( 45-C , 46-C ) :   1.4421 B( 45-C , 49-S ) :   1.1229 B( 46-C , 47-C ) :   1.3144
B( 46-C , 89-H ) :   0.9853 B( 47-C , 48-C ) :   1.4178 B( 47-C , 52-C ) :   0.9957
B( 48-C , 49-S ) :   1.0905 B( 48-C , 50-C ) :   1.1968 B( 50-C , 51-C ) :   1.4059
B( 50-C , 60-S ) :   1.1561 B( 51-C , 52-C ) :   0.9976 B( 51-C , 58-C ) :   1.3617
B( 52-C , 53-C ) :   1.7136 B( 53-C , 54-C ) :   1.1345 B( 53-C , 56-C ) :   1.1341
B( 54-C , 55-N ) :   2.9885 B( 56-C , 57-N ) :   2.9840 B( 58-C , 59-C ) :   1.3920
B( 58-C , 90-H ) :   0.9788 B( 59-C , 60-S ) :   1.0864 B( 59-C , 61-C ) :   1.1403
B( 61-C , 62-C ) :   1.6679 B( 61-C , 91-H ) :   0.9272 B( 62-C , 63-C ) :   1.0367
B( 62-C , 71-C ) :   0.9452 B( 63-C , 64-C ) :   1.6473 B( 63-C , 69-C ) :   1.0121
B( 64-C , 65-C ) :   1.1238 B( 64-C , 67-C ) :   1.1745 B( 65-C , 66-N ) :   2.9957
B( 67-C , 68-N ) :   2.9942 B( 69-C , 70-C ) :   1.2736 B( 69-C , 76-C ) :   1.4166
B( 70-C , 71-C ) :   0.9216 B( 70-C , 73-C ) :   1.4245 B( 71-C , 72-O ) :   2.2611
B( 73-C , 74-C ) :   1.2514 B( 73-C , 92-H ) :   1.0169 B( 74-C , 75-C ) :   1.3057
B( 74-C , 79-C ) :   1.1640 B( 75-C , 76-C ) :   1.3256 B( 75-C , 77-S ) :   1.0865
B( 76-C , 93-H ) :   0.9837 B( 77-S , 78-C ) :   1.0873 B( 78-C , 79-C ) :   1.6191
B( 78-C , 80-Br) :   1.0203 B( 79-C , 94-H ) :   0.9999

-----------------------------------------------------------------------------
         ABSORPTION SPECTRUM VIA TRANSITION ELECTRIC DIPOLE MOMENTS
-----------------------------------------------------------------------------
State   Energy  Wavelength   fosc         T2         TX        TY        TZ
        (cm-1)    (nm)                  (au**2)     (au)      (au)      (au)
-----------------------------------------------------------------------------
   0   12475.3    801.6   1.177274883  31.06734   4.72903  -2.92556  -0.38044
   1   14281.9    700.2   0.087690162   2.02134   0.87385  -1.10180  -0.20917
   2   16994.6    588.4   0.637151468  12.34259  -2.98999   1.82729   0.25209
   3   20433.1    489.4   0.144507927   2.32827   1.47670  -0.16757  -0.34576
   4   20794.9    480.9   0.147886206   2.34125  -1.14776   0.94842   0.35271
   5   21546.2    464.1   0.685927009  10.48050  -1.83820   2.58305   0.65526
   6   23792.0    420.3   0.024790856   0.34303   0.06576  -0.42937  -0.39287
   7   25595.9    390.7   0.028441660   0.36581  -0.22533   0.41420  -0.37879
   8   25851.0    386.8   0.025590040   0.32589  -0.45149   0.34693  -0.04110
   9   26307.8    380.1   0.026422770   0.33065   0.54675  -0.13653   0.11433
  10   27139.8    368.5   0.189685296   2.30093   0.13889   1.44373   0.44417
  11   28010.0    357.0   0.087448617   1.02781   0.42138   0.85897   0.33531
  12   28067.6    356.3   0.329414618   3.86379  -1.84081   0.60105  -0.33755
  13   28812.3    347.1   0.091513826   1.04565  -0.83845   0.52971  -0.24909
  14   28987.9    345.0   0.013220122   0.15014  -0.29002  -0.24312  -0.08320
  15   29009.3    344.7   0.014285984   0.16212  -0.31123  -0.24298   0.07888
  16   29240.2    342.0   0.115688571   1.30252   0.24876   0.84372   0.72718
  17   29532.8    338.6   0.199231150   2.22090  -0.69228   1.31571  -0.10269
  18   29692.4    336.8   0.012761374   0.14149   0.26725  -0.21042  -0.16059
  19   29945.8    333.9   0.208139734   2.28820  -0.80901  -1.16708  -0.52118
  20   30081.0    332.4   0.270627887   2.96180   0.63848  -1.59644  -0.07421
  21   30257.9    330.5   0.195808827   2.13044  -1.42290   0.15027  -0.28847
  22   30800.1    324.7   0.025748771   0.27522   0.16198  -0.46753   0.17434
  23   31536.1    317.1   0.280710717   2.93039   1.17122  -1.18391  -0.39625
  24   31901.1    313.5   0.216493519   2.23416   1.18679   0.79302   0.44364
  25   32081.9    311.7   0.264528571   2.71449   1.47321   0.11937   0.72794
  26   32174.2    310.8   0.110110490   1.12667  -0.95163   0.30646  -0.35659
  27   32438.0    308.3   0.185056383   1.87813   0.43124  -1.30007   0.04450
  28   32742.6    305.4   0.327834766   3.29623   1.46959  -1.06524  -0.04263
  29   32766.8    305.2   0.620749745   6.23674   1.24322   2.03527   0.74083
  30   33043.6    302.6   0.000513984   0.00512   0.02048   0.05943  -0.03419
  31   33138.1    301.8   0.019183507   0.19058   0.15792   0.27239   0.30240
  32   33358.7    299.8   0.345167582   3.40641   1.14926   1.35078   0.51088
  33   33467.1    298.8   0.067757354   0.66652  -0.41666   0.67540   0.19170
  34   33707.2    296.7   0.041291912   0.40329  -0.29547  -0.51158  -0.23297
  35   33890.0    295.1   0.028657945   0.27839   0.12380  -0.43995   0.26363
  36   33949.3    294.6   0.024016944   0.23290  -0.30136  -0.24155  -0.28937
  37   34565.0    289.3   0.063626613   0.60601  -0.19491   0.66766   0.34964
  38   34687.6    288.3   0.111378961   1.05707  -0.76467   0.44271  -0.52570
  39   34775.5    287.6   0.404510158   3.82941   0.74835   1.72266   0.54939
  40   34885.2    286.7   0.076502485   0.72195  -0.71955   0.02903  -0.45096
  41   35046.6    285.3   0.135578825   1.27356  -0.80270  -0.63536  -0.47493
  42   35297.1    283.3   0.020244502   0.18882   0.38134  -0.10795  -0.17817
  43   36115.5    276.9   0.000315996   0.00288   0.00668  -0.03319   0.04164
  44   36194.8    276.3   0.025885626   0.23544  -0.04430  -0.44812  -0.18074
  45   36404.0    274.7   0.150209127   1.35839   1.14723   0.10668   0.17569
  46   36451.3    274.3   0.000086656   0.00078   0.01021   0.02306   0.01211
  47   36835.6    271.5   0.200926021   1.79574   1.07403  -0.74588   0.29302
  48   37143.2    269.2   0.010885240   0.09648   0.21371  -0.22344  -0.02970
  49   37328.5    267.9   0.044317101   0.39085   0.35361  -0.47803  -0.19312
  50   37417.1    267.3   0.007904162   0.06954   0.07330  -0.21230  -0.13820
  51   37448.0    267.0   0.020957712   0.18424  -0.13966   0.35616   0.19464
  52   37577.6    266.1   0.007964042   0.06977   0.08007  -0.24974  -0.03148
  53   37784.4    264.7   0.031212846   0.27195  -0.37658  -0.17289  -0.31663
  54   37943.0    263.6   0.025424653   0.22060  -0.33415   0.32864   0.03059
  55   37983.9    263.3   0.067629365   0.58615   0.62270  -0.44257  -0.05028
  56   38207.6    261.7   0.003216856   0.02772   0.12930   0.03818   0.09768
  57   38534.2    259.5   0.028133946   0.24036   0.07362  -0.46803  -0.12605
  58   38597.3    259.1   0.005183245   0.04421   0.10866  -0.15021   0.09920
  59   38667.3    258.6   0.021428451   0.18244  -0.42338   0.04803  -0.02974
  60   38890.6    257.1   0.061735648   0.52260   0.50010  -0.51080  -0.10765
  61   39024.1    256.3   0.002045587   0.01726  -0.02883  -0.12513  -0.02773
  62   39319.6    254.3   0.077552399   0.64932  -0.03739  -0.74109  -0.31418
  63   39533.6    252.9   0.074419485   0.61972  -0.78054   0.06727  -0.07719
  64   39682.1    252.0   0.132396037   1.09839  -0.32310   0.82940   0.55326
  65   39967.8    250.2   0.006835949   0.05631  -0.17748   0.07979  -0.13580
  66   40132.9    249.2   0.036855204   0.30232   0.54503  -0.06972   0.02019

FINAL SINGLE POINT ENERGY    -12926.510828096189

DIPOLE MOMENT
-------------
                                X             Y             Z
Electronic contribution:    -69.31649     -55.51593     -37.44129
Nuclear contribution   :     65.47530      52.77046      34.60386
                        -----------------------------------------
Total Dipole Moment    :     -3.84119      -2.74548      -2.83742
                        -----------------------------------------
Magnitude (a.u.)       :      5.50848
Magnitude (Debye)      :     14.00145

Rotational constants in cm-1:     0.001367     0.000102     0.000095
Rotational constants in MHz :    40.984254     3.051070     2.857089

                             ****ORCA TERMINATED NORMALLY****
TOTAL RUN TIME: 0 days 0 hours 12 minutes 8 seconds 700 msec
