                         Program Version 4.2.0 -  RELEASE  -
|  1> # ORCA input file
|  2> # SCF done       -188.029308752883          0.000285159921
|  3> ! CAM-B3LYP def2-SVP def2/J RIJCOSX Grid4 TightSCF
|  4> %maxcore 5000
|  5> %tddft
|  6>     Mode sTDDFT
|  7>     Ethresh 5.0
|  8>     maxcore 5000
|  9> end
| 10>
| 11> %pal
| 12>   nprocs 6
| 13>   end
| 14> * xyz 0 1
| 15>    C        0.89110         0.19190         0.29287
| 16>    O        0.92069        -0.49011         1.29252
| 17>    C        1.51707         1.52214         0.13460
| 18>    C        1.30040         2.00193        -1.16809
| 19>    C        1.81986         3.23114        -1.54025
| 20>    C        2.54237         3.95967        -0.60208
| 21>    C        2.74577         3.47667         0.69315
| 22>    C        2.23046         2.24311         1.06937
| 23>   Br        3.72781         4.49157         1.94770
| 24>   Br        3.25777         5.63320        -1.11172
| 25>    C        0.50711         1.02059        -1.90307
| 26>    C       -0.01950         1.20665        -3.15350
| 27>    C        0.19821         2.36184        -3.93596
| 28>    N        0.34475         3.27216        -4.61858
| 29>    C       -0.87792         0.30718        -3.82262
| 30>    N       -1.59516        -0.36132        -4.42000
| 31>    C        0.30705        -0.12578        -1.03203
| 32>    C       -0.19080        -1.32955        -1.45290
| 33>    C       -0.53422        -2.48041        -0.71778
| 34>    C       -0.74079        -2.69407         0.64062
| 35>    C       -1.13742        -3.99575         0.91035
| 36>    C       -1.22802        -4.80052        -0.24804
| 37>    S       -0.85620        -3.94161        -1.66421
| 38>    C       -1.61584        -6.10515         0.14213
| 39>    C       -1.78412        -6.12803         1.53922
| 40>    C       -1.49448        -4.80309         2.06730
| 41>    C       -1.56076        -4.40351         3.36811
| 42>    C       -1.91214        -5.29256         4.40799
| 43>    N       -2.19141        -6.00941         5.25743
| 44>    C       -1.30476        -3.07523         3.77594
| 45>    N       -1.12344        -2.00071         4.13009
| 46>    C       -2.18344        -7.37718         2.01225
| 47>    C       -2.30724        -8.29761         0.98935
| 48>    S       -1.93344        -7.61928        -0.57974
| 49>    C       -2.69993        -9.66996         1.13767
| 50>    C       -2.68548       -10.59600         0.08086
| 51>    N       -3.06742       -11.83857         0.24527
| 52>    C       -3.48043       -12.22077         1.46261
| 53>    C       -3.46700       -11.30174         2.52744
| 54>    N       -3.08662       -10.05932         2.36231
| 55>    C       -3.90348       -13.58398         1.58196
| 56>    C       -4.47817       -14.23637         2.65467
| 57>    C       -4.74907       -15.57166         2.35538
| 58>    C       -4.36492       -15.92322         1.04703
| 59>    S       -3.69055       -14.61517         0.18432
| 60>    C       -4.67331       -17.29195         0.84562
| 61>    C       -5.25286       -17.80507         2.02406
| 62>    C       -5.32241       -16.73665         3.00944
| 63>    C       -5.81878       -16.81231         4.27689
| 64>    C       -6.34690       -18.00890         4.80783
| 65>    N       -6.77060       -18.98029         5.24425
| 66>    C       -5.82899       -15.69704         5.14203
| 67>    N       -5.83269       -14.78965         5.84242
| 68>    C       -5.56926       -19.15360         1.92477
| 69>    C       -5.26938       -19.67592         0.67263
| 70>    S       -4.53582       -18.46364        -0.37743
| 71>    C       -5.40891       -21.03170         0.30623
| 72>    C       -5.33768       -21.62686        -0.91687
| 73>    C       -5.01774       -23.07901        -0.99498
| 74>    O       -5.04093       -23.87980        -0.09248
| 75>    C       -4.60356       -23.29976        -2.39902
| 76>    C       -4.79522       -22.11753        -3.13839
| 77>    C       -5.40425       -21.11347        -2.26813
| 78>    C       -6.15299       -20.04947        -2.69557
| 79>    C       -6.97566       -19.29410        -1.83381
| 80>    N       -7.68597       -18.69308        -1.16213
| 81>    C       -6.26036       -19.65961        -4.04651
| 82>    N       -6.35815       -19.29908        -5.13111
| 83>    C       -4.44383       -22.07395        -4.47609
| 84>    C       -3.90871       -23.21755        -5.05880
| 85>    C       -3.73515       -24.39236        -4.32278
| 86>    C       -4.08390       -24.43845        -2.97860
| 87>   Br       -3.01715       -25.93481        -5.14455
| 88>   Br       -3.40839       -23.15824        -6.87994
| 89>    H        1.68767         3.63558        -2.53054
| 90>    H        2.38073         1.85590         2.06523
| 91>    H       -0.33670        -1.44287        -2.52107
| 92>    H       -0.59940        -1.92589         1.37822
| 93>    H       -2.37983        -7.63831         3.03573
| 94>    H       -2.35488       -10.31968        -0.91186
| 95>    H       -3.76489       -11.57949         3.52811
| 96>    H       -4.69308       -13.76255         3.59476
| 97>    H       -6.01733       -19.74475         2.70306
| 98>    H       -5.49765       -21.72175         1.14096
| 99>    H       -4.56166       -21.18179        -5.07021
|100>    H       -3.95240       -25.34066        -2.40167
|101> *
|102>
|103>                          ****END OF INPUT****

CARTESIAN COORDINATES (ANGSTROEM)
---------------------------------
  C      0.891100    0.191900    0.292870
  O      0.920690   -0.490110    1.292520
  C      1.517070    1.522140    0.134600
  C      1.300400    2.001930   -1.168090
  C      1.819860    3.231140   -1.540250
  C      2.542370    3.959670   -0.602080
  C      2.745770    3.476670    0.693150
  C      2.230460    2.243110    1.069370
  Br     3.727810    4.491570    1.947700
  Br     3.257770    5.633200   -1.111720
  C      0.507110    1.020590   -1.903070
  C     -0.019500    1.206650   -3.153500
  C      0.198210    2.361840   -3.935960
  N      0.344750    3.272160   -4.618580
  C     -0.877920    0.307180   -3.822620
  N     -1.595160   -0.361320   -4.420000
  C      0.307050   -0.125780   -1.032030
  C     -0.190800   -1.329550   -1.452900
  C     -0.534220   -2.480410   -0.717780
  C     -0.740790   -2.694070    0.640620
  C     -1.137420   -3.995750    0.910350
  C     -1.228020   -4.800520   -0.248040
  S     -0.856200   -3.941610   -1.664210
  C     -1.615840   -6.105150    0.142130
  C     -1.784120   -6.128030    1.539220
  C     -1.494480   -4.803090    2.067300
  C     -1.560760   -4.403510    3.368110
  C     -1.912140   -5.292560    4.407990
  N     -2.191410   -6.009410    5.257430
  C     -1.304760   -3.075230    3.775940
  N     -1.123440   -2.000710    4.130090
  C     -2.183440   -7.377180    2.012250
  C     -2.307240   -8.297610    0.989350
  S     -1.933440   -7.619280   -0.579740
  C     -2.699930   -9.669960    1.137670
  C     -2.685480  -10.596000    0.080860
  N     -3.067420  -11.838570    0.245270
  C     -3.480430  -12.220770    1.462610
  C     -3.467000  -11.301740    2.527440
  N     -3.086620  -10.059320    2.362310
  C     -3.903480  -13.583980    1.581960
  C     -4.478170  -14.236370    2.654670
  C     -4.749070  -15.571660    2.355380
  C     -4.364920  -15.923220    1.047030
  S     -3.690550  -14.615170    0.184320
  C     -4.673310  -17.291950    0.845620
  C     -5.252860  -17.805070    2.024060
  C     -5.322410  -16.736650    3.009440
  C     -5.818780  -16.812310    4.276890
  C     -6.346900  -18.008900    4.807830
  N     -6.770600  -18.980290    5.244250
  C     -5.828990  -15.697040    5.142030
  N     -5.832690  -14.789650    5.842420
  C     -5.569260  -19.153600    1.924770
  C     -5.269380  -19.675920    0.672630
  S     -4.535820  -18.463640   -0.377430
  C     -5.408910  -21.031700    0.306230
  C     -5.337680  -21.626860   -0.916870
  C     -5.017740  -23.079010   -0.994980
  O     -5.040930  -23.879800   -0.092480
  C     -4.603560  -23.299760   -2.399020
  C     -4.795220  -22.117530   -3.138390
  C     -5.404250  -21.113470   -2.268130
  C     -6.152990  -20.049470   -2.695570
  C     -6.975660  -19.294100   -1.833810
  N     -7.685970  -18.693080   -1.162130
  C     -6.260360  -19.659610   -4.046510
  N     -6.358150  -19.299080   -5.131110
  C     -4.443830  -22.073950   -4.476090
  C     -3.908710  -23.217550   -5.058800
  C     -3.735150  -24.392360   -4.322780
  C     -4.083900  -24.438450   -2.978600
  Br    -3.017150  -25.934810   -5.144550
  Br    -3.408390  -23.158240   -6.879940
  H      1.687670    3.635580   -2.530540
  H      2.380730    1.855900    2.065230
  H     -0.336700   -1.442870   -2.521070
  H     -0.599400   -1.925890    1.378220
  H     -2.379830   -7.638310    3.035730
  H     -2.354880  -10.319680   -0.911860
  H     -3.764890  -11.579490    3.528110
  H     -4.693080  -13.762550    3.594760
  H     -6.017330  -19.744750    2.703060
  H     -5.497650  -21.721750    1.140960
  H     -4.561660  -21.181790   -5.070210
  H     -3.952400  -25.340660   -2.401670

 Total Charge           Charge          ....    0
 Multiplicity           Mult            ....    1
 Number of Electrons    NEL             ....  626
 Basis Dimension        Dim             .... 1184

ORBITAL ENERGIES
----------------

  NO   OCC          E(Eh)            E(eV)
   0   2.0000    -482.882659    -13139.9052
   1   2.0000    -482.882043    -13139.8884
   2   2.0000    -482.880187    -13139.8379
   3   2.0000    -482.878730    -13139.7983
   4   2.0000     -89.008957     -2422.0569
   5   2.0000     -89.007610     -2422.0202
   6   2.0000     -89.006737     -2421.9965
   7   2.0000     -89.003547     -2421.9096
   8   2.0000     -62.560265     -1702.3513
   9   2.0000     -62.559666     -1702.3351
  10   2.0000     -62.557754     -1702.2830
  11   2.0000     -62.556334     -1702.2444
  12   2.0000     -56.394219     -1534.5647
  13   2.0000     -56.393633     -1534.5488
  14   2.0000     -56.391706     -1534.4963
  15   2.0000     -56.391558     -1534.4923
  16   2.0000     -56.391463     -1534.4897
  17   2.0000     -56.390952     -1534.4758
  18   2.0000     -56.390859     -1534.4733
  19   2.0000     -56.390296     -1534.4580
  20   2.0000     -56.389055     -1534.4242
  21   2.0000     -56.388951     -1534.4214
  22   2.0000     -56.387625     -1534.3853
  23   2.0000     -56.387527     -1534.3826
  24   2.0000     -19.231633      -523.3193
  25   2.0000     -19.229544      -523.2625
  26   2.0000     -14.452821      -393.2812
  27   2.0000     -14.449678      -393.1957
  28   2.0000     -14.441785      -392.9809
  29   2.0000     -14.440891      -392.9566
  30   2.0000     -14.439325      -392.9140
  31   2.0000     -14.437706      -392.8699
  32   2.0000     -14.428793      -392.6274
  33   2.0000     -14.428289      -392.6137
  34   2.0000     -14.427704      -392.5978
  35   2.0000     -14.424030      -392.4978
  36   2.0000     -10.383296      -282.5439
  37   2.0000     -10.381422      -282.4929
  38   2.0000     -10.377929      -282.3978
  39   2.0000     -10.377809      -282.3945
  40   2.0000     -10.365272      -282.0534
  41   2.0000     -10.363509      -282.0054
  42   2.0000     -10.361185      -281.9422
  43   2.0000     -10.360331      -281.9189
  44   2.0000     -10.359752      -281.9032
  45   2.0000     -10.357986      -281.8551
  46   2.0000     -10.357881      -281.8523
  47   2.0000     -10.357515      -281.8423
  48   2.0000     -10.356880      -281.8250
  49   2.0000     -10.355820      -281.7962
  50   2.0000     -10.355240      -281.7804
  51   2.0000     -10.354408      -281.7578
  52   2.0000     -10.354282      -281.7543
  53   2.0000     -10.353641      -281.7369
  54   2.0000     -10.349651      -281.6283
  55   2.0000     -10.345968      -281.5281
  56   2.0000     -10.345644      -281.5193
  57   2.0000     -10.343737      -281.4674
  58   2.0000     -10.341765      -281.4137
  59   2.0000     -10.340633      -281.3829
  60   2.0000     -10.340025      -281.3664
  61   2.0000     -10.339801      -281.3603
  62   2.0000     -10.339527      -281.3528
  63   2.0000     -10.339219      -281.3444
  64   2.0000     -10.338719      -281.3309
  65   2.0000     -10.338607      -281.3278
  66   2.0000     -10.337397      -281.2949
  67   2.0000     -10.336561      -281.2721
  68   2.0000     -10.330530      -281.1080
  69   2.0000     -10.330169      -281.0982
  70   2.0000     -10.329587      -281.0823
  71   2.0000     -10.326698      -281.0037
  72   2.0000     -10.326331      -280.9938
  73   2.0000     -10.325263      -280.9647
  74   2.0000     -10.322790      -280.8974
  75   2.0000     -10.322664      -280.8940
  76   2.0000     -10.321215      -280.8545
  77   2.0000     -10.319595      -280.8105
  78   2.0000     -10.319571      -280.8098
  79   2.0000     -10.319485      -280.8075
  80   2.0000     -10.319431      -280.8060
  81   2.0000     -10.319153      -280.7984
  82   2.0000     -10.318154      -280.7712
  83   2.0000     -10.315774      -280.7065
  84   2.0000     -10.315560      -280.7007
  85   2.0000     -10.314978      -280.6848
  86   2.0000     -10.313145      -280.6349
  87   2.0000     -10.311955      -280.6026
  88   2.0000     -10.311716      -280.5961
  89   2.0000     -10.308296      -280.5030
  90   2.0000      -8.789586      -239.1768
  91   2.0000      -8.788993      -239.1607
  92   2.0000      -8.787054      -239.1079
  93   2.0000      -8.785657      -239.0699
  94   2.0000      -8.103434      -220.5057
  95   2.0000      -8.101720      -220.4590
  96   2.0000      -8.101562      -220.4547
  97   2.0000      -8.097468      -220.3433
  98   2.0000      -6.625730      -180.2953
  99   2.0000      -6.625186      -180.2805
 100   2.0000      -6.623173      -180.2257
 101   2.0000      -6.621813      -180.1887
 102   2.0000      -6.611708      -179.9137
 103   2.0000      -6.611083      -179.8967
 104   2.0000      -6.610908      -179.8919
 105   2.0000      -6.610296      -179.8753
 106   2.0000      -6.609196      -179.8454
 107   2.0000      -6.608381      -179.8232
 108   2.0000      -6.607766      -179.8065
 109   2.0000      -6.606979      -179.7850
 110   2.0000      -6.072654      -165.2453
 111   2.0000      -6.070949      -165.1989
 112   2.0000      -6.070646      -165.1907
 113   2.0000      -6.068479      -165.1317
 114   2.0000      -6.066713      -165.0837
 115   2.0000      -6.066702      -165.0833
 116   2.0000      -6.066544      -165.0791
 117   2.0000      -6.065898      -165.0615
 118   2.0000      -6.064219      -165.0158
 119   2.0000      -6.064095      -165.0124
 120   2.0000      -6.062351      -164.9650
 121   2.0000      -6.060050      -164.9023
 122   2.0000      -2.741639       -74.6038
 123   2.0000      -2.741061       -74.5881
 124   2.0000      -2.739115       -74.5351
 125   2.0000      -2.737852       -74.5007
 126   2.0000      -2.737739       -74.4977
 127   2.0000      -2.737277       -74.4851
 128   2.0000      -2.737266       -74.4848
 129   2.0000      -2.736711       -74.4697
 130   2.0000      -2.735302       -74.4313
 131   2.0000      -2.734707       -74.4152
 132   2.0000      -2.733924       -74.3939
 133   2.0000      -2.733324       -74.3775
 134   2.0000      -2.726093       -74.1808
 135   2.0000      -2.726075       -74.1803
 136   2.0000      -2.725465       -74.1637
 137   2.0000      -2.725454       -74.1634
 138   2.0000      -2.723571       -74.1121
 139   2.0000      -2.723550       -74.1116
 140   2.0000      -2.722137       -74.0731
 141   2.0000      -2.722131       -74.0730
 142   2.0000      -1.147869       -31.2351
 143   2.0000      -1.145834       -31.1797
 144   2.0000      -1.109870       -30.2011
 145   2.0000      -1.061563       -28.8866
 146   2.0000      -1.060475       -28.8570
 147   2.0000      -1.036214       -28.1968
 148   2.0000      -1.035687       -28.1825
 149   2.0000      -1.032385       -28.0926
 150   2.0000      -1.032370       -28.0922
 151   2.0000      -1.030675       -28.0461
 152   2.0000      -1.019014       -27.7288
 153   2.0000      -1.017707       -27.6932
 154   2.0000      -1.015876       -27.6434
 155   2.0000      -1.015572       -27.6351
 156   2.0000      -1.013387       -27.5757
 157   2.0000      -1.011708       -27.5300
 158   2.0000      -1.006036       -27.3756
 159   2.0000      -1.004182       -27.3252
 160   2.0000      -0.986581       -26.8462
 161   2.0000      -0.984176       -26.7808
 162   2.0000      -0.973541       -26.4914
 163   2.0000      -0.972167       -26.4540
 164   2.0000      -0.939020       -25.5520
 165   2.0000      -0.934904       -25.4400
 166   2.0000      -0.929151       -25.2835
 167   2.0000      -0.926453       -25.2101
 168   2.0000      -0.920350       -25.0440
 169   2.0000      -0.917880       -24.9768
 170   2.0000      -0.915012       -24.8987
 171   2.0000      -0.907457       -24.6932
 172   2.0000      -0.899495       -24.4765
 173   2.0000      -0.886694       -24.1282
 174   2.0000      -0.883976       -24.0542
 175   2.0000      -0.873848       -23.7786
 176   2.0000      -0.872571       -23.7439
 177   2.0000      -0.870298       -23.6820
 178   2.0000      -0.864214       -23.5165
 179   2.0000      -0.860640       -23.4192
 180   2.0000      -0.857449       -23.3324
 181   2.0000      -0.837706       -22.7951
 182   2.0000      -0.812911       -22.1204
 183   2.0000      -0.803713       -21.8701
 184   2.0000      -0.795677       -21.6515
 185   2.0000      -0.789472       -21.4826
 186   2.0000      -0.781452       -21.2644
 187   2.0000      -0.775500       -21.1024
 188   2.0000      -0.773988       -21.0613
 189   2.0000      -0.768291       -20.9063
 190   2.0000      -0.758991       -20.6532
 191   2.0000      -0.734785       -19.9945
 192   2.0000      -0.728459       -19.8224
 193   2.0000      -0.716372       -19.4935
 194   2.0000      -0.714146       -19.4329
 195   2.0000      -0.709947       -19.3186
 196   2.0000      -0.704288       -19.1646
 197   2.0000      -0.701924       -19.1003
 198   2.0000      -0.697690       -18.9851
 199   2.0000      -0.696282       -18.9468
 200   2.0000      -0.692275       -18.8378
 201   2.0000      -0.682684       -18.5768
 202   2.0000      -0.679776       -18.4977
 203   2.0000      -0.664231       -18.0747
 204   2.0000      -0.661253       -17.9936
 205   2.0000      -0.653482       -17.7821
 206   2.0000      -0.644177       -17.5290
 207   2.0000      -0.635511       -17.2931
 208   2.0000      -0.635148       -17.2833
 209   2.0000      -0.633002       -17.2249
 210   2.0000      -0.630253       -17.1501
 211   2.0000      -0.623647       -16.9703
 212   2.0000      -0.622566       -16.9409
 213   2.0000      -0.616989       -16.7891
 214   2.0000      -0.611952       -16.6521
 215   2.0000      -0.603177       -16.4133
 216   2.0000      -0.592503       -16.1228
 217   2.0000      -0.589915       -16.0524
 218   2.0000      -0.583290       -15.8721
 219   2.0000      -0.577964       -15.7272
 220   2.0000      -0.566920       -15.4267
 221   2.0000      -0.566822       -15.4240
 222   2.0000      -0.563119       -15.3232
 223   2.0000      -0.562043       -15.2940
 224   2.0000      -0.558730       -15.2038
 225   2.0000      -0.557135       -15.1604
 226   2.0000      -0.554221       -15.0811
 227   2.0000      -0.553349       -15.0574
 228   2.0000      -0.551345       -15.0029
 229   2.0000      -0.548444       -14.9239
 230   2.0000      -0.545363       -14.8401
 231   2.0000      -0.541225       -14.7275
 232   2.0000      -0.539236       -14.6734
 233   2.0000      -0.534895       -14.5552
 234   2.0000      -0.529444       -14.4069
 235   2.0000      -0.525859       -14.3094
 236   2.0000      -0.523055       -14.2331
 237   2.0000      -0.520971       -14.1763
 238   2.0000      -0.516509       -14.0549
 239   2.0000      -0.514388       -13.9972
 240   2.0000      -0.513317       -13.9681
 241   2.0000      -0.512646       -13.9498
 242   2.0000      -0.509919       -13.8756
 243   2.0000      -0.508508       -13.8372
 244   2.0000      -0.505799       -13.7635
 245   2.0000      -0.503849       -13.7104
 246   2.0000      -0.502442       -13.6721
 247   2.0000      -0.499419       -13.5899
 248   2.0000      -0.498693       -13.5701
 249   2.0000      -0.495104       -13.4725
 250   2.0000      -0.491324       -13.3696
 251   2.0000      -0.485446       -13.2097
 252   2.0000      -0.483015       -13.1435
 253   2.0000      -0.471879       -12.8405
 254   2.0000      -0.470639       -12.8067
 255   2.0000      -0.470194       -12.7946
 256   2.0000      -0.469003       -12.7622
 257   2.0000      -0.468899       -12.7594
 258   2.0000      -0.468046       -12.7362
 259   2.0000      -0.466604       -12.6969
 260   2.0000      -0.465699       -12.6723
 261   2.0000      -0.463534       -12.6134
 262   2.0000      -0.462379       -12.5820
 263   2.0000      -0.461112       -12.5475
 264   2.0000      -0.458854       -12.4860
 265   2.0000      -0.457886       -12.4597
 266   2.0000      -0.457049       -12.4369
 267   2.0000      -0.455711       -12.4005
 268   2.0000      -0.453185       -12.3318
 269   2.0000      -0.452055       -12.3010
 270   2.0000      -0.451324       -12.2812
 271   2.0000      -0.450470       -12.2579
 272   2.0000      -0.447685       -12.1821
 273   2.0000      -0.447195       -12.1688
 274   2.0000      -0.442055       -12.0289
 275   2.0000      -0.441100       -12.0029
 276   2.0000      -0.438439       -11.9305
 277   2.0000      -0.437849       -11.9145
 278   2.0000      -0.437419       -11.9028
 279   2.0000      -0.436333       -11.8732
 280   2.0000      -0.434996       -11.8368
 281   2.0000      -0.433576       -11.7982
 282   2.0000      -0.430046       -11.7022
 283   2.0000      -0.428362       -11.6563
 284   2.0000      -0.419544       -11.4164
 285   2.0000      -0.419290       -11.4094
 286   2.0000      -0.411185       -11.1889
 287   2.0000      -0.410872       -11.1804
 288   2.0000      -0.409346       -11.1389
 289   2.0000      -0.406364       -11.0577
 290   2.0000      -0.403456       -10.9786
 291   2.0000      -0.399639       -10.8747
 292   2.0000      -0.396177       -10.7805
 293   2.0000      -0.393107       -10.6970
 294   2.0000      -0.384903       -10.4737
 295   2.0000      -0.374309       -10.1855
 296   2.0000      -0.365967        -9.9585
 297   2.0000      -0.361898        -9.8477
 298   2.0000      -0.357991        -9.7414
 299   2.0000      -0.355258        -9.6671
 300   2.0000      -0.353016        -9.6061
 301   2.0000      -0.352451        -9.5907
 302   2.0000      -0.349375        -9.5070
 303   2.0000      -0.347966        -9.4686
 304   2.0000      -0.343769        -9.3544
 305   2.0000      -0.338982        -9.2242
 306   2.0000      -0.335786        -9.1372
 307   2.0000      -0.334314        -9.0971
 308   2.0000      -0.324981        -8.8432
 309   2.0000      -0.319166        -8.6850
 310   2.0000      -0.316265        -8.6060
 311   2.0000      -0.289085        -7.8664
 312   2.0000      -0.269177        -7.3247
 313   0.0000      -0.128020        -3.4836
 314   0.0000      -0.120935        -3.2908
 315   0.0000      -0.099009        -2.6942
 316   0.0000      -0.098005        -2.6668
 317   0.0000      -0.078290        -2.1304

MULLIKEN ATOMIC CHARGES
-----------------------
   0 C :    0.154068
   1 O :   -0.141132
   2 C :   -0.014669
   3 C :    0.031569
   4 C :   -0.007575
   5 C :   -0.024151
   6 C :   -0.015565
   7 C :   -0.019035
   8 Br:    0.019385
   9 Br:    0.024634
  10 C :    0.297626
  11 C :   -0.337740
  12 C :   -0.187427
  13 N :    0.160832
  14 C :   -0.198984
  15 N :    0.161165
  16 C :   -0.092270
  17 C :    0.034874
  18 C :   -0.113631
  19 C :    0.014136
  20 C :   -0.013670
  21 C :   -0.080395
  22 S :    0.210915
  23 C :   -0.098059
  24 C :    0.036142
  25 C :    0.302927
  26 C :   -0.289900
  27 C :   -0.194250
  28 N :    0.185481
  29 C :   -0.186368
  30 N :    0.193597
  31 C :   -0.042584
  32 C :   -0.040401
  33 S :    0.194020
  34 C :   -0.010282
  35 C :   -0.004330
  36 N :   -0.056823
  37 C :    0.000266
  38 C :    0.011763
  39 N :   -0.023509
  40 C :   -0.056952
  41 C :   -0.026083
  42 C :    0.005086
  43 C :   -0.098203
  44 S :    0.250400
  45 C :   -0.083316
  46 C :    0.025887
  47 C :    0.301761
  48 C :   -0.291334
  49 C :   -0.187754
  50 N :    0.184114
  51 C :   -0.187541
  52 N :    0.175404
  53 C :   -0.000366
  54 C :   -0.084380
  55 S :    0.212480
  56 C :    0.047291
  57 C :   -0.137978
  58 C :    0.141966
  59 O :   -0.129622
  60 C :    0.001290
  61 C :    0.025633
  62 C :    0.235517
  63 C :   -0.313691
  64 C :   -0.210110
  65 N :    0.178553
  66 C :   -0.176433
  67 N :    0.164496
  68 C :   -0.012857
  69 C :   -0.022470
  70 C :   -0.015680
  71 C :   -0.022350
  72 Br:    0.018509
  73 Br:    0.023934
  74 H :    0.009062
  75 H :    0.010007
  76 H :    0.018874
  77 H :    0.039117
  78 H :    0.024301
  79 H :    0.013483
  80 H :    0.017019
  81 H :    0.011851
  82 H :    0.022258
  83 H :    0.036155
  84 H :    0.011827
  85 H :    0.010193
Sum of atomic charges:   -0.0000000

LOEWDIN ATOMIC CHARGES
----------------------
   0 C :    0.085786
   1 O :   -0.129268
   2 C :   -0.041447
   3 C :   -0.013033
   4 C :   -0.006643
   5 C :   -0.118439
   6 C :   -0.121956
   7 C :    0.008447
   8 Br:    0.141427
   9 Br:    0.143574
  10 C :    0.074236
  11 C :   -0.134251
  12 C :   -0.020315
  13 N :   -0.042480
  14 C :   -0.024534
  15 N :   -0.046772
  16 C :   -0.097295
  17 C :    0.045027
  18 C :   -0.176612
  19 C :    0.022046
  20 C :   -0.071203
  21 C :   -0.160051
  22 S :    0.498838
  23 C :   -0.184848
  24 C :   -0.052967
  25 C :    0.072768
  26 C :   -0.087189
  27 C :   -0.018131
  28 N :   -0.020840
  29 C :   -0.021083
  30 N :   -0.013384
  31 C :   -0.004066
  32 C :   -0.169915
  33 S :    0.486275
  34 C :   -0.027829
  35 C :    0.006119
  36 N :   -0.055747
  37 C :   -0.028704
  38 C :    0.023458
  39 N :   -0.033142
  40 C :   -0.168819
  41 C :   -0.021196
  42 C :   -0.058180
  43 C :   -0.183954
  44 S :    0.523123
  45 C :   -0.151310
  46 C :   -0.071324
  47 C :    0.078308
  48 C :   -0.095596
  49 C :   -0.017992
  50 N :   -0.023937
  51 C :   -0.016188
  52 N :   -0.027866
  53 C :    0.016571
  54 C :   -0.178449
  55 S :    0.516829
  56 C :    0.054393
  57 C :   -0.103812
  58 C :    0.083805
  59 O :   -0.131736
  60 C :   -0.043502
  61 C :   -0.009842
  62 C :    0.059243
  63 C :   -0.138519
  64 C :   -0.038638
  65 N :   -0.041126
  66 C :   -0.022677
  67 N :   -0.040018
  68 C :   -0.009567
  69 C :   -0.117864
  70 C :   -0.123044
  71 C :    0.008137
  72 Br:    0.140683
  73 Br:    0.144036
  74 H :    0.044931
  75 H :    0.047860
  76 H :    0.043984
  77 H :    0.045107
  78 H :    0.047727
  79 H :    0.022671
  80 H :    0.032322
  81 H :    0.041855
  82 H :    0.048340
  83 H :    0.056880
  84 H :    0.044826
  85 H :    0.047662

  Mayer bond orders larger than 0.100000
B(  0-C ,  1-O ) :   2.1944 B(  0-C ,  2-C ) :   0.9490 B(  0-C , 16-C ) :   0.9455
B(  2-C ,  3-C ) :   1.3298 B(  2-C ,  7-C ) :   1.3700 B(  3-C ,  4-C ) :   1.3654
B(  3-C , 10-C ) :   0.9900 B(  4-C ,  5-C ) :   1.3688 B(  4-C , 74-H ) :   0.9797
B(  5-C ,  6-C ) :   1.4196 B(  5-C ,  9-Br) :   1.0593 B(  6-C ,  7-C ) :   1.3495
B(  6-C ,  8-Br) :   1.0384 B(  7-C , 75-H ) :   1.0088 B( 10-C , 11-C ) :   1.6441
B( 10-C , 16-C ) :   1.0776 B( 11-C , 12-C ) :   1.1396 B( 11-C , 14-C ) :   1.1378
B( 12-C , 13-N ) :   2.9745 B( 14-C , 15-N ) :   2.9878 B( 16-C , 17-C ) :   1.5933
B( 17-C , 18-C ) :   1.2086 B( 17-C , 76-H ) :   0.9201 B( 18-C , 19-C ) :   1.3975
B( 18-C , 22-S ) :   1.0776 B( 19-C , 20-C ) :   1.3308 B( 19-C , 77-H ) :   0.9726
B( 20-C , 21-C ) :   1.3844 B( 20-C , 25-C ) :   0.9946 B( 21-C , 22-S ) :   1.1671
B( 21-C , 23-C ) :   1.2029 B( 23-C , 24-C ) :   1.4284 B( 23-C , 33-S ) :   1.1235
B( 24-C , 25-C ) :   0.9914 B( 24-C , 31-C ) :   1.2558 B( 25-C , 26-C ) :   1.7273
B( 26-C , 27-C ) :   1.1347 B( 26-C , 29-C ) :   1.1326 B( 27-C , 28-N ) :   2.9960
B( 29-C , 30-N ) :   2.9937 B( 31-C , 32-C ) :   1.4661 B( 31-C , 78-H ) :   1.0094
B( 32-C , 33-S ) :   1.1194 B( 32-C , 34-C ) :   1.0646 B( 34-C , 35-C ) :   1.3041
B( 34-C , 39-N ) :   1.5445 B( 35-C , 36-N ) :   1.5983 B( 35-C , 79-H ) :   0.9740
B( 36-N , 37-C ) :   1.5326 B( 37-C , 38-C ) :   1.3041 B( 37-C , 40-C ) :   1.0452
B( 38-C , 39-N ) :   1.6019 B( 38-C , 80-H ) :   0.9779 B( 40-C , 41-C ) :   1.4939
B( 40-C , 44-S ) :   1.1198 B( 41-C , 42-C ) :   1.3048 B( 41-C , 81-H ) :   0.9825
B( 42-C , 43-C ) :   1.4318 B( 42-C , 47-C ) :   1.0022 B( 43-C , 44-S ) :   1.1149
B( 43-C , 45-C ) :   1.2072 B( 45-C , 46-C ) :   1.3995 B( 45-C , 55-S ) :   1.1673
B( 46-C , 47-C ) :   0.9898 B( 46-C , 53-C ) :   1.3120 B( 47-C , 48-C ) :   1.7180
B( 48-C , 49-C ) :   1.1319 B( 48-C , 51-C ) :   1.1352 B( 49-C , 50-N ) :   2.9944
B( 51-C , 52-N ) :   2.9888 B( 53-C , 54-C ) :   1.3879 B( 53-C , 82-H ) :   1.0008
B( 54-C , 55-S ) :   1.0823 B( 54-C , 56-C ) :   1.1637 B( 56-C , 57-C ) :   1.6250
B( 56-C , 83-H ) :   0.9444 B( 57-C , 58-C ) :   0.9427 B( 57-C , 62-C ) :   1.0405
B( 58-C , 59-O ) :   2.2772 B( 58-C , 60-C ) :   0.9212 B( 60-C , 61-C ) :   1.3288
B( 60-C , 71-C ) :   1.3776 B( 61-C , 62-C ) :   1.0063 B( 61-C , 68-C ) :   1.3687
B( 62-C , 63-C ) :   1.6624 B( 63-C , 64-C ) :   1.1521 B( 63-C , 66-C ) :   1.1290
B( 64-C , 65-N ) :   3.0243 B( 66-C , 67-N ) :   2.9942 B( 68-C , 69-C ) :   1.3686
B( 68-C , 84-H ) :   0.9838 B( 69-C , 70-C ) :   1.4219 B( 69-C , 73-Br) :   1.0530
B( 70-C , 71-C ) :   1.3534 B( 70-C , 72-Br) :   1.0370 B( 71-C , 85-H ) :   1.0079

-----------------------------------------------------------------------------
         ABSORPTION SPECTRUM VIA TRANSITION ELECTRIC DIPOLE MOMENTS
-----------------------------------------------------------------------------
State   Energy  Wavelength   fosc         T2         TX        TY        TZ
        (cm-1)    (nm)                  (au**2)     (au)      (au)      (au)
-----------------------------------------------------------------------------
   0   14215.7    703.4   0.688661320  15.94821   1.02834   3.84239   0.35603
   1   15256.4    655.5   0.131943562   2.84715  -0.47569  -1.38883   0.83187
   2   20614.5    485.1   1.348003053  21.52752  -1.18507  -4.39606  -0.89318
   3   22033.7    453.9   0.832815993  12.44336   0.77935   2.51037  -2.35245
   4   23374.3    427.8   0.001483396   0.02089  -0.05538   0.07699  -0.10908
   5   24590.1    406.7   0.005269788   0.07055   0.05069  -0.20179  -0.16511
   6   26437.2    378.3   0.174136872   2.16846  -0.60138  -1.34207  -0.07527
   7   26909.3    371.6   0.016907153   0.20684  -0.24639  -0.27000  -0.27062
   8   27998.5    357.2   0.474312740   5.57706   0.14564  -2.30477  -0.49385
   9   28271.1    353.7   0.137255596   1.59832  -0.82184  -0.78743  -0.55032
  10   28788.2    347.4   0.071376769   0.81624   0.34100   0.82373  -0.14640
  11   28894.9    346.1   0.009022461   0.10280   0.31279   0.02895   0.06422
  12   29657.7    337.2   0.278033978   3.08628  -0.86970   0.07100   1.52475
  13   29941.7    334.0   0.099471229   1.09370   0.44831  -0.41539  -0.84863
  14   30239.8    330.7   0.040958446   0.44590   0.19278   0.59223   0.24083
  15   30660.4    326.2   0.001105635   0.01187   0.10466   0.02985  -0.00525
  16   30857.6    324.1   0.001945047   0.02075  -0.14061  -0.03071   0.00606
  17   31068.4    321.9   0.118331652   1.25388   0.42498   0.22307  -1.01169
  18   31258.7    319.9   0.570546052   6.00890  -0.07016   0.68227   2.35340
  19   31946.6    313.0   0.123178570   1.26936  -0.20817  -0.90800   0.63370
  20   32409.3    308.6   0.264383557   2.68559   0.41366   1.55391   0.31599
  21   32613.9    306.6   0.082670287   0.83449   0.30558  -0.86014  -0.03572
  22   32852.7    304.4   0.010070391   0.10091   0.24625  -0.00242   0.20067
  23   32947.0    303.5   0.021175099   0.21159   0.29657  -0.07995   0.34240
  24   33035.3    302.7   0.083038419   0.82751   0.07884   0.63165   0.64986
  25   33230.5    300.9   0.191394531   1.89613  -0.05742   0.65914  -1.20763
  26   33550.4    298.1   0.266540482   2.61542  -0.86900  -1.34035  -0.25242
  27   33803.5    295.8   0.260694347   2.53890   0.85670  -1.14866  -0.69682
  28   34354.4    291.1   0.001409260   0.01350  -0.06692  -0.08786   0.03617
  29   34510.4    289.8   0.014789221   0.14108   0.30367   0.13022  -0.17863
  30   34778.3    287.5   0.363378455   3.43974   0.06836  -0.16902  -1.84567
  31   34936.0    286.2   0.051476280   0.48508  -0.65359   0.03151   0.23854
  32   35302.7    283.3   0.088173177   0.82225   0.81661  -0.23709   0.31493
  33   35488.5    281.8   0.216388194   2.00734  -0.09798  -1.12076  -0.86119
  34   35774.8    279.5   0.402854857   3.70721   0.38539   0.17103   1.87868
  35   35965.7    278.0   0.115638134   1.05849  -0.23184   0.98673   0.17639
  36   36050.8    277.4   0.168253315   1.53647  -0.67449   0.98078  -0.34583
  37   36200.6    276.2   0.106948666   0.97260   0.07973   0.14769   0.97182
  38   36467.3    274.2   0.018979288   0.17134   0.26500  -0.30633   0.08529
  39   36594.3    273.3   0.000667668   0.00601   0.00352  -0.02938   0.07163
  40   37003.7    270.2   0.036867055   0.32800   0.02431  -0.53801  -0.19481
  41   37131.9    269.3   0.103410562   0.91684   0.27901   0.86123  -0.31189
  42   37199.0    268.8   0.003188702   0.02822   0.10774   0.12206   0.04140
  43   37266.9    268.3   0.020867139   0.18434   0.01058  -0.42232   0.07662
  44   37444.7    267.1   0.038603573   0.33940  -0.43891   0.31211   0.22214
  45   37619.5    265.8   0.118005523   1.03268  -0.10998   0.16155  -0.99724
  46   38135.1    262.2   0.014625048   0.12625   0.01147  -0.24157   0.26032
  47   38418.1    260.3   0.042088784   0.36067   0.07407   0.57874   0.14227
  48   38606.3    259.0   0.003800964   0.03241   0.05529  -0.00192   0.17132
  49   38733.7    258.2   0.001493441   0.01269  -0.07772   0.07637  -0.02864
  50   39256.5    254.7   0.053826309   0.45140  -0.01345   0.03220   0.67095
  51   39307.3    254.4   0.002385891   0.01998   0.09859  -0.03661  -0.09446
  52   39598.5    252.5   0.288356464   2.39732  -0.29745  -1.13080   1.01495
  53   40135.7    249.2   0.000602413   0.00494   0.02751   0.06066   0.02248

FINAL SINGLE POINT ENERGY    -14647.372704713423

DIPOLE MOMENT
-------------
                                X             Y             Z
Electronic contribution:     89.61843      26.30425     -92.23731
Nuclear contribution   :    -87.36647     -27.75845      91.55197
                        -----------------------------------------
Total Dipole Moment    :      2.25196      -1.45419      -0.68534
                        -----------------------------------------
Magnitude (a.u.)       :      2.76689
Magnitude (Debye)      :      7.03288

Rotational constants in cm-1:     0.001207     0.000108     0.000101
Rotational constants in MHz :    36.199710     3.232245     3.030884

                             ****ORCA TERMINATED NORMALLY****
TOTAL RUN TIME: 0 days 0 hours 9 minutes 0 seconds 978 msec
