                         Program Version 4.2.0 -  RELEASE  -
|  1> # ORCA input file
|  2> # SCF done       -167.698485231999          0.000448584391
|  3> ! CAM-B3LYP def2-SVP def2/J RIJCOSX Grid4 TightSCF
|  4> %maxcore 5000
|  5> %tddft
|  6>     Mode sTDDFT
|  7>     Ethresh 5.0
|  8>     maxcore 5000
|  9> end
| 10>
| 11> %pal
| 12>   nprocs 6
| 13>   end
| 14> * xyz 0 1
| 15>    C       -2.91560         0.50252        -4.04664
| 16>    C       -3.29420        -0.74433        -4.49039
| 17>    C       -2.48764        -1.56793        -5.30166
| 18>    N       -1.87811        -2.28732        -5.95748
| 19>    C       -4.51729        -1.38820        -4.22313
| 20>    N       -5.48093        -1.99728        -4.07027
| 21>    C       -1.64682         1.15630        -4.36542
| 22>    C       -1.63011         2.43409        -3.75541
| 23>    C       -0.56961         3.29813        -3.86850
| 24>    C        0.53502         2.88044        -4.61904
| 25>    C        0.51181         1.60207        -5.22293
| 26>    C       -0.56442         0.72904        -5.11039
| 27>    S        1.97860         1.28283        -6.09912
| 28>    C        2.59323         2.85079        -5.64771
| 29>    C        1.74622         3.57758        -4.88121
| 30>   Br        4.29683         3.37994        -6.22853
| 31>    C       -2.89215         2.63663        -3.01444
| 32>    O       -3.20017         3.62819        -2.38129
| 33>    C       -3.66989         1.39689        -3.20682
| 34>    C       -4.90229         1.15211        -2.63521
| 35>    C       -5.57933         2.03868        -1.80352
| 36>    C       -6.79626         1.74934        -1.21894
| 37>    C       -7.52968         2.58057        -0.34149
| 38>    C       -8.69507         2.03133         0.10674
| 39>    C       -8.94135         0.73862        -0.40133
| 40>    S       -7.64545         0.24200        -1.46932
| 41>    C      -10.01713        -0.09145        -0.14513
| 42>    C      -11.12364         0.13512         0.70442
| 43>    C      -12.01513        -0.89316         0.74772
| 44>    C      -11.66498        -1.99305        -0.07362
| 45>    S      -10.14085        -1.65929        -0.90164
| 46>    C      -12.35176        -3.15965        -0.25126
| 47>    N      -11.91994        -4.13221        -1.08743
| 48>    C      -12.51430        -5.32090        -1.34058
| 49>    S      -13.97802        -5.78686        -0.53448
| 50>    C      -13.96987        -7.27621        -1.42648
| 51>    N      -15.01102        -8.17387        -1.18678
| 52>    O      -15.01383        -9.22067        -1.81037
| 53>    O      -15.84548        -7.83505        -0.36178
| 54>    C      -12.90940        -7.39548        -2.28450
| 55>    C      -12.05020        -6.28102        -2.25713
| 56>    C      -10.86417        -6.11370        -3.04610
| 57>    C      -10.45244        -6.95681        -4.01775
| 58>    C       -9.26406        -6.75987        -4.77406
| 59>    O       -8.45255        -5.68850        -4.53459
| 60>    C       -7.42783        -5.74111        -5.36586
| 61>    C       -7.53542        -6.83192        -6.20122
| 62>    N       -6.68563        -7.09453        -7.30355
| 63>    O       -5.57781        -6.60412        -7.28053
| 64>    O       -7.14035        -7.75688        -8.21620
| 65>    C       -8.73177        -7.51796        -5.81780
| 66>    N       -9.24520        -8.67443        -6.32270
| 67>    C       -8.51652        -9.67454        -6.93293
| 68>    O       -7.21341        -9.85704        -6.62373
| 69>    C       -6.78712       -10.92217        -7.30854
| 70>    C       -7.80709       -11.46860        -8.05150
| 71>    C       -8.95397       -10.64744        -7.80159
| 72>    O      -10.23395       -10.72498        -8.23405
| 73>    C      -10.52527       -11.72100        -9.19355
| 74>    C       -7.69627       -12.60460        -8.86875
| 75>    N       -7.59975       -13.54105        -9.52316
| 76>    H       -0.58991         4.26573        -3.39194
| 77>    H       -0.53019        -0.23425        -5.59062
| 78>    H        1.96466         4.56380        -4.51419
| 79>    H       -5.38015         0.19884        -2.82914
| 80>    H       -5.13232         2.99868        -1.58945
| 81>    H       -7.16923         3.55583        -0.06715
| 82>    H       -9.37539         2.51954         0.78112
| 83>    H      -11.22756         1.04845         1.26124
| 84>    H      -12.91279        -0.89917         1.33917
| 85>    H      -13.27709        -3.34087         0.27497
| 86>    H      -11.05587        -3.94208        -1.58634
| 87>    H      -12.77402        -8.26861        -2.89482
| 88>    H      -10.25181        -5.24370        -2.85412
| 89>    H      -11.02310        -7.83820        -4.26593
| 90>    H       -6.68609        -4.96632        -5.32459
| 91>    H      -10.22278        -8.87257        -6.17462
| 92>    H       -5.75688       -11.20116        -7.21905
| 93>    H      -11.57819       -11.59417        -9.43753
| 94>    H      -10.36013       -12.72381        -8.78978
| 95>    H       -9.92113       -11.59280       -10.09531
| 96> *
| 97>
| 98>                          ****END OF INPUT****

CARTESIAN COORDINATES (ANGSTROEM)
---------------------------------
  C     -2.915600    0.502520   -4.046640
  C     -3.294200   -0.744330   -4.490390
  C     -2.487640   -1.567930   -5.301660
  N     -1.878110   -2.287320   -5.957480
  C     -4.517290   -1.388200   -4.223130
  N     -5.480930   -1.997280   -4.070270
  C     -1.646820    1.156300   -4.365420
  C     -1.630110    2.434090   -3.755410
  C     -0.569610    3.298130   -3.868500
  C      0.535020    2.880440   -4.619040
  C      0.511810    1.602070   -5.222930
  C     -0.564420    0.729040   -5.110390
  S      1.978600    1.282830   -6.099120
  C      2.593230    2.850790   -5.647710
  C      1.746220    3.577580   -4.881210
  Br     4.296830    3.379940   -6.228530
  C     -2.892150    2.636630   -3.014440
  O     -3.200170    3.628190   -2.381290
  C     -3.669890    1.396890   -3.206820
  C     -4.902290    1.152110   -2.635210
  C     -5.579330    2.038680   -1.803520
  C     -6.796260    1.749340   -1.218940
  C     -7.529680    2.580570   -0.341490
  C     -8.695070    2.031330    0.106740
  C     -8.941350    0.738620   -0.401330
  S     -7.645450    0.242000   -1.469320
  C    -10.017130   -0.091450   -0.145130
  C    -11.123640    0.135120    0.704420
  C    -12.015130   -0.893160    0.747720
  C    -11.664980   -1.993050   -0.073620
  S    -10.140850   -1.659290   -0.901640
  C    -12.351760   -3.159650   -0.251260
  N    -11.919940   -4.132210   -1.087430
  C    -12.514300   -5.320900   -1.340580
  S    -13.978020   -5.786860   -0.534480
  C    -13.969870   -7.276210   -1.426480
  N    -15.011020   -8.173870   -1.186780
  O    -15.013830   -9.220670   -1.810370
  O    -15.845480   -7.835050   -0.361780
  C    -12.909400   -7.395480   -2.284500
  C    -12.050200   -6.281020   -2.257130
  C    -10.864170   -6.113700   -3.046100
  C    -10.452440   -6.956810   -4.017750
  C     -9.264060   -6.759870   -4.774060
  O     -8.452550   -5.688500   -4.534590
  C     -7.427830   -5.741110   -5.365860
  C     -7.535420   -6.831920   -6.201220
  N     -6.685630   -7.094530   -7.303550
  O     -5.577810   -6.604120   -7.280530
  O     -7.140350   -7.756880   -8.216200
  C     -8.731770   -7.517960   -5.817800
  N     -9.245200   -8.674430   -6.322700
  C     -8.516520   -9.674540   -6.932930
  O     -7.213410   -9.857040   -6.623730
  C     -6.787120  -10.922170   -7.308540
  C     -7.807090  -11.468600   -8.051500
  C     -8.953970  -10.647440   -7.801590
  O    -10.233950  -10.724980   -8.234050
  C    -10.525270  -11.721000   -9.193550
  C     -7.696270  -12.604600   -8.868750
  N     -7.599750  -13.541050   -9.523160
  H     -0.589910    4.265730   -3.391940
  H     -0.530190   -0.234250   -5.590620
  H      1.964660    4.563800   -4.514190
  H     -5.380150    0.198840   -2.829140
  H     -5.132320    2.998680   -1.589450
  H     -7.169230    3.555830   -0.067150
  H     -9.375390    2.519540    0.781120
  H    -11.227560    1.048450    1.261240
  H    -12.912790   -0.899170    1.339170
  H    -13.277090   -3.340870    0.274970
  H    -11.055870   -3.942080   -1.586340
  H    -12.774020   -8.268610   -2.894820
  H    -10.251810   -5.243700   -2.854120
  H    -11.023100   -7.838200   -4.265930
  H     -6.686090   -4.966320   -5.324590
  H    -10.222780   -8.872570   -6.174620
  H     -5.756880  -11.201160   -7.219050
  H    -11.578190  -11.594170   -9.437530
  H    -10.360130  -12.723810   -8.789780
  H     -9.921130  -11.592800  -10.095310

 Total Charge           Charge          ....    0
 Multiplicity           Mult            ....    1
 Number of Electrons    NEL             ....  478
 Basis Dimension        Dim             ....  988

ORBITAL ENERGIES
----------------

  NO   OCC          E(Eh)            E(eV)
   0   2.0000    -482.878939    -13139.8040
   1   2.0000     -88.997483     -2421.7446
   2   2.0000     -88.977974     -2421.2138
   3   2.0000     -88.966895     -2420.9123
   4   2.0000     -88.963955     -2420.8323
   5   2.0000     -62.556615     -1702.2520
   6   2.0000     -56.390555     -1534.4650
   7   2.0000     -56.387859     -1534.3917
   8   2.0000     -56.387823     -1534.3907
   9   2.0000     -19.321180      -525.7560
  10   2.0000     -19.311989      -525.5059
  11   2.0000     -19.256326      -523.9913
  12   2.0000     -19.243617      -523.6454
  13   2.0000     -19.243137      -523.6324
  14   2.0000     -19.241240      -523.5807
  15   2.0000     -19.240408      -523.5581
  16   2.0000     -19.203342      -522.5495
  17   2.0000     -14.655383      -398.7933
  18   2.0000     -14.652028      -398.7020
  19   2.0000     -14.511333      -394.8735
  20   2.0000     -14.469974      -393.7480
  21   2.0000     -14.409095      -392.0914
  22   2.0000     -14.403843      -391.9485
  23   2.0000     -14.401180      -391.8760
  24   2.0000     -10.381871      -282.5051
  25   2.0000     -10.368893      -282.1519
  26   2.0000     -10.367841      -282.1233
  27   2.0000     -10.364238      -282.0252
  28   2.0000     -10.353404      -281.7304
  29   2.0000     -10.352381      -281.7026
  30   2.0000     -10.350553      -281.6529
  31   2.0000     -10.350420      -281.6492
  32   2.0000     -10.346678      -281.5474
  33   2.0000     -10.345284      -281.5095
  34   2.0000     -10.344931      -281.4999
  35   2.0000     -10.340004      -281.3658
  36   2.0000     -10.334631      -281.2196
  37   2.0000     -10.332315      -281.1566
  38   2.0000     -10.330849      -281.1167
  39   2.0000     -10.328163      -281.0436
  40   2.0000     -10.325979      -280.9842
  41   2.0000     -10.325744      -280.9778
  42   2.0000     -10.324090      -280.9328
  43   2.0000     -10.319974      -280.8208
  44   2.0000     -10.319827      -280.8168
  45   2.0000     -10.315343      -280.6948
  46   2.0000     -10.313710      -280.6503
  47   2.0000     -10.313555      -280.6461
  48   2.0000     -10.311582      -280.5924
  49   2.0000     -10.310558      -280.5645
  50   2.0000     -10.310425      -280.5609
  51   2.0000     -10.308860      -280.5183
  52   2.0000     -10.308384      -280.5054
  53   2.0000     -10.305457      -280.4257
  54   2.0000     -10.303082      -280.3611
  55   2.0000     -10.302069      -280.3336
  56   2.0000     -10.297557      -280.2108
  57   2.0000     -10.296766      -280.1892
  58   2.0000     -10.296168      -280.1730
  59   2.0000     -10.294419      -280.1254
  60   2.0000     -10.290270      -280.0125
  61   2.0000     -10.288646      -279.9683
  62   2.0000     -10.280388      -279.7436
  63   2.0000     -10.279659      -279.7237
  64   2.0000     -10.275952      -279.6229
  65   2.0000      -8.786024      -239.0799
  66   2.0000      -8.092883      -220.2185
  67   2.0000      -8.074359      -219.7145
  68   2.0000      -8.062869      -219.4018
  69   2.0000      -8.059990      -219.3235
  70   2.0000      -6.622252      -180.2006
  71   2.0000      -6.607785      -179.8070
  72   2.0000      -6.607607      -179.8021
  73   2.0000      -6.062622      -164.9723
  74   2.0000      -6.058228      -164.8528
  75   2.0000      -6.054200      -164.7431
  76   2.0000      -6.044139      -164.4694
  77   2.0000      -6.040126      -164.3602
  78   2.0000      -6.035163      -164.2251
  79   2.0000      -6.032551      -164.1541
  80   2.0000      -6.029580      -164.0732
  81   2.0000      -6.028303      -164.0385
  82   2.0000      -6.025620      -163.9654
  83   2.0000      -6.024099      -163.9241
  84   2.0000      -6.021132      -163.8433
  85   2.0000      -2.738172       -74.5094
  86   2.0000      -2.734063       -74.3976
  87   2.0000      -2.733916       -74.3936
  88   2.0000      -2.722423       -74.0809
  89   2.0000      -2.722407       -74.0805
  90   2.0000      -1.323705       -36.0198
  91   2.0000      -1.323251       -36.0075
  92   2.0000      -1.241786       -33.7907
  93   2.0000      -1.234758       -33.5995
  94   2.0000      -1.157704       -31.5027
  95   2.0000      -1.143035       -31.1036
  96   2.0000      -1.141675       -31.0666
  97   2.0000      -1.117689       -30.4139
  98   2.0000      -1.116833       -30.3906
  99   2.0000      -1.065738       -29.0002
 100   2.0000      -1.023825       -27.8597
 101   2.0000      -1.014387       -27.6029
 102   2.0000      -1.012282       -27.5456
 103   2.0000      -1.003804       -27.3149
 104   2.0000      -0.994301       -27.0563
 105   2.0000      -0.990321       -26.9480
 106   2.0000      -0.984192       -26.7812
 107   2.0000      -0.977533       -26.6000
 108   2.0000      -0.946259       -25.7490
 109   2.0000      -0.938842       -25.5472
 110   2.0000      -0.933708       -25.4075
 111   2.0000      -0.921206       -25.0673
 112   2.0000      -0.917564       -24.9682
 113   2.0000      -0.908264       -24.7151
 114   2.0000      -0.898119       -24.4391
 115   2.0000      -0.893184       -24.3048
 116   2.0000      -0.884318       -24.0635
 117   2.0000      -0.875766       -23.8308
 118   2.0000      -0.871000       -23.7011
 119   2.0000      -0.868660       -23.6374
 120   2.0000      -0.860498       -23.4153
 121   2.0000      -0.844653       -22.9842
 122   2.0000      -0.841880       -22.9087
 123   2.0000      -0.834883       -22.7183
 124   2.0000      -0.819606       -22.3026
 125   2.0000      -0.814044       -22.1513
 126   2.0000      -0.809512       -22.0280
 127   2.0000      -0.799083       -21.7442
 128   2.0000      -0.784568       -21.3492
 129   2.0000      -0.765299       -20.8248
 130   2.0000      -0.751405       -20.4468
 131   2.0000      -0.747976       -20.3535
 132   2.0000      -0.745688       -20.2912
 133   2.0000      -0.736427       -20.0392
 134   2.0000      -0.727217       -19.7886
 135   2.0000      -0.716363       -19.4932
 136   2.0000      -0.707538       -19.2531
 137   2.0000      -0.687810       -18.7163
 138   2.0000      -0.685066       -18.6416
 139   2.0000      -0.680429       -18.5154
 140   2.0000      -0.676254       -18.4018
 141   2.0000      -0.665074       -18.0976
 142   2.0000      -0.663150       -18.0452
 143   2.0000      -0.660492       -17.9729
 144   2.0000      -0.650047       -17.6887
 145   2.0000      -0.647752       -17.6262
 146   2.0000      -0.641688       -17.4612
 147   2.0000      -0.638624       -17.3779
 148   2.0000      -0.636562       -17.3217
 149   2.0000      -0.636041       -17.3076
 150   2.0000      -0.633410       -17.2360
 151   2.0000      -0.628648       -17.1064
 152   2.0000      -0.624674       -16.9983
 153   2.0000      -0.620432       -16.8828
 154   2.0000      -0.612985       -16.6802
 155   2.0000      -0.609686       -16.5904
 156   2.0000      -0.597550       -16.2602
 157   2.0000      -0.594519       -16.1777
 158   2.0000      -0.592025       -16.1098
 159   2.0000      -0.590405       -16.0657
 160   2.0000      -0.589813       -16.0496
 161   2.0000      -0.584436       -15.9033
 162   2.0000      -0.581463       -15.8224
 163   2.0000      -0.577978       -15.7276
 164   2.0000      -0.571638       -15.5550
 165   2.0000      -0.570221       -15.5165
 166   2.0000      -0.559415       -15.2224
 167   2.0000      -0.555197       -15.1077
 168   2.0000      -0.553185       -15.0529
 169   2.0000      -0.552522       -15.0349
 170   2.0000      -0.550299       -14.9744
 171   2.0000      -0.546153       -14.8616
 172   2.0000      -0.543686       -14.7945
 173   2.0000      -0.538660       -14.6577
 174   2.0000      -0.534787       -14.5523
 175   2.0000      -0.528478       -14.3806
 176   2.0000      -0.524810       -14.2808
 177   2.0000      -0.524244       -14.2654
 178   2.0000      -0.521091       -14.1796
 179   2.0000      -0.519807       -14.1447
 180   2.0000      -0.516018       -14.0416
 181   2.0000      -0.509407       -13.8617
 182   2.0000      -0.504160       -13.7189
 183   2.0000      -0.499595       -13.5947
 184   2.0000      -0.499225       -13.5846
 185   2.0000      -0.492960       -13.4141
 186   2.0000      -0.492289       -13.3959
 187   2.0000      -0.488343       -13.2885
 188   2.0000      -0.483543       -13.1579
 189   2.0000      -0.482685       -13.1345
 190   2.0000      -0.481425       -13.1002
 191   2.0000      -0.479949       -13.0601
 192   2.0000      -0.476805       -12.9745
 193   2.0000      -0.468368       -12.7449
 194   2.0000      -0.464618       -12.6429
 195   2.0000      -0.462114       -12.5748
 196   2.0000      -0.460450       -12.5295
 197   2.0000      -0.456215       -12.4142
 198   2.0000      -0.451876       -12.2962
 199   2.0000      -0.450493       -12.2585
 200   2.0000      -0.448218       -12.1966
 201   2.0000      -0.444487       -12.0951
 202   2.0000      -0.444054       -12.0833
 203   2.0000      -0.438296       -11.9267
 204   2.0000      -0.434426       -11.8213
 205   2.0000      -0.432737       -11.7754
 206   2.0000      -0.429934       -11.6991
 207   2.0000      -0.429117       -11.6769
 208   2.0000      -0.423587       -11.5264
 209   2.0000      -0.420918       -11.4538
 210   2.0000      -0.419780       -11.4228
 211   2.0000      -0.417456       -11.3596
 212   2.0000      -0.414455       -11.2779
 213   2.0000      -0.400354       -10.8942
 214   2.0000      -0.397562       -10.8182
 215   2.0000      -0.395197       -10.7539
 216   2.0000      -0.391570       -10.6552
 217   2.0000      -0.387529       -10.5452
 218   2.0000      -0.384151       -10.4533
 219   2.0000      -0.380730       -10.3602
 220   2.0000      -0.378781       -10.3071
 221   2.0000      -0.376501       -10.2451
 222   2.0000      -0.373059       -10.1515
 223   2.0000      -0.372321       -10.1314
 224   2.0000      -0.368321       -10.0225
 225   2.0000      -0.364071        -9.9069
 226   2.0000      -0.361406        -9.8344
 227   2.0000      -0.359541        -9.7836
 228   2.0000      -0.352407        -9.5895
 229   2.0000      -0.342446        -9.3184
 230   2.0000      -0.333772        -9.0824
 231   2.0000      -0.327828        -8.9206
 232   2.0000      -0.323444        -8.8014
 233   2.0000      -0.305967        -8.3258
 234   2.0000      -0.303178        -8.2499
 235   2.0000      -0.285542        -7.7700
 236   2.0000      -0.280668        -7.6374
 237   2.0000      -0.249293        -6.7836
 238   2.0000      -0.229346        -6.2408
 239   0.0000      -0.110868        -3.0169
 240   0.0000      -0.067364        -1.8331
 241   0.0000      -0.055518        -1.5107
 242   0.0000      -0.044626        -1.2143
 243   0.0000      -0.038127        -1.0375

MULLIKEN ATOMIC CHARGES
-----------------------
   0 C :    0.334774
   1 C :   -0.367613
   2 C :   -0.191285
   3 N :    0.139247
   4 C :   -0.184592
   5 N :    0.119604
   6 C :    0.011305
   7 C :   -0.006900
   8 C :   -0.077326
   9 C :    0.117164
  10 C :   -0.093867
  11 C :   -0.022446
  12 S :    0.181996
  13 C :   -0.123728
  14 C :    0.038577
  15 Br:    0.016650
  16 C :    0.139347
  17 O :   -0.166081
  18 C :   -0.095468
  19 C :   -0.040363
  20 C :   -0.029200
  21 C :    0.008703
  22 C :    0.028219
  23 C :    0.040753
  24 C :   -0.055456
  25 S :    0.098817
  26 C :   -0.025529
  27 C :    0.021369
  28 C :    0.057147
  29 C :   -0.058477
  30 S :    0.065490
  31 C :    0.052312
  32 N :   -0.024703
  33 C :   -0.122357
  34 S :    0.154290
  35 C :   -0.002219
  36 N :    0.280253
  37 O :   -0.251984
  38 O :   -0.266685
  39 C :    0.005596
  40 C :    0.145282
  41 C :   -0.053010
  42 C :   -0.045238
  43 C :    0.068952
  44 O :   -0.169284
  45 C :    0.096836
  46 C :    0.084773
  47 N :    0.267429
  48 O :   -0.235860
  49 O :   -0.236461
  50 C :    0.065878
  51 N :   -0.010174
  52 C :    0.105282
  53 O :   -0.188015
  54 C :    0.113342
  55 C :   -0.161374
  56 C :    0.157070
  57 O :   -0.317884
  58 C :    0.185087
  59 C :   -0.186887
  60 N :    0.136065
  61 H :   -0.016273
  62 H :   -0.009189
  63 H :   -0.006591
  64 H :    0.012468
  65 H :    0.016990
  66 H :   -0.000245
  67 H :   -0.004526
  68 H :   -0.004498
  69 H :    0.001400
  70 H :    0.035477
  71 H :    0.156788
  72 H :    0.009771
  73 H :   -0.017862
  74 H :   -0.022324
  75 H :    0.045132
  76 H :    0.142679
  77 H :    0.018704
  78 H :    0.035093
  79 H :    0.039069
  80 H :    0.040796
Sum of atomic charges:   -0.0000000

LOEWDIN ATOMIC CHARGES
----------------------
   0 C :    0.075365
   1 C :   -0.160002
   2 C :   -0.020124
   3 N :   -0.065994
   4 C :   -0.013988
   5 N :   -0.083747
   6 C :   -0.019008
   7 C :   -0.048466
   8 C :    0.017583
   9 C :   -0.035257
  10 C :   -0.145940
  11 C :   -0.012455
  12 S :    0.428959
  13 C :   -0.274191
  14 C :   -0.071104
  15 Br:    0.131286
  16 C :    0.082560
  17 O :   -0.158129
  18 C :   -0.109946
  19 C :    0.049207
  20 C :   -0.076296
  21 C :   -0.102548
  22 C :   -0.043227
  23 C :   -0.007235
  24 C :   -0.200260
  25 S :    0.402573
  26 C :   -0.141867
  27 C :   -0.046666
  28 C :   -0.007148
  29 C :   -0.194532
  30 S :    0.369802
  31 C :    0.020152
  32 N :    0.058039
  33 C :   -0.109581
  34 S :    0.453739
  35 C :   -0.206483
  36 N :    0.274219
  37 O :   -0.217787
  38 O :   -0.233333
  39 C :    0.004091
  40 C :   -0.094647
  41 C :   -0.043245
  42 C :   -0.030002
  43 C :   -0.019774
  44 O :    0.041876
  45 C :    0.099751
  46 C :   -0.098992
  47 N :    0.286285
  48 O :   -0.198279
  49 O :   -0.202828
  50 C :    0.004752
  51 N :    0.021280
  52 C :    0.023680
  53 O :    0.029374
  54 C :    0.071372
  55 C :   -0.134735
  56 C :   -0.006770
  57 O :   -0.113285
  58 C :    0.084039
  59 C :   -0.034023
  60 N :   -0.060549
  61 H :    0.038846
  62 H :    0.040338
  63 H :    0.037528
  64 H :    0.030681
  65 H :    0.038751
  66 H :    0.038981
  67 H :    0.035432
  68 H :    0.036167
  69 H :    0.039321
  70 H :    0.036159
  71 H :    0.089530
  72 H :    0.043503
  73 H :    0.024668
  74 H :    0.030424
  75 H :    0.046306
  76 H :    0.096813
  77 H :    0.034425
  78 H :    0.029400
  79 H :    0.021840
  80 H :    0.023343

  Mayer bond orders larger than 0.100000
B(  0-C ,  1-C ) :   1.5768 B(  0-C ,  6-C ) :   0.9884 B(  0-C , 18-C ) :   1.1145
B(  1-C ,  2-C ) :   1.1469 B(  1-C ,  4-C ) :   1.1583 B(  2-C ,  3-N ) :   2.9632
B(  4-C ,  5-N ) :   2.9501 B(  6-C ,  7-C ) :   1.2801 B(  6-C , 11-C ) :   1.4194
B(  7-C ,  8-C ) :   1.4309 B(  7-C , 16-C ) :   0.9370 B(  8-C ,  9-C ) :   1.2381
B(  8-C , 61-H ) :   1.0158 B(  9-C , 10-C ) :   1.3179 B(  9-C , 14-C ) :   1.1606
B( 10-C , 11-C ) :   1.3211 B( 10-C , 12-S ) :   1.0835 B( 11-C , 62-H ) :   0.9779
B( 12-S , 13-C ) :   1.0868 B( 13-C , 14-C ) :   1.6187 B( 13-C , 15-Br) :   1.0152
B( 14-C , 63-H ) :   0.9999 B( 16-C , 17-O ) :   2.1813 B( 16-C , 18-C ) :   0.9661
B( 18-C , 19-C ) :   1.4773 B( 19-C , 20-C ) :   1.2616 B( 19-C , 64-H ) :   0.9436
B( 20-C , 21-C ) :   1.4134 B( 20-C , 65-H ) :   0.9774 B( 21-C , 22-C ) :   1.1813
B( 21-C , 25-S ) :   1.0863 B( 22-C , 23-C ) :   1.5401 B( 22-C , 66-H ) :   1.0022
B( 23-C , 24-C ) :   1.2179 B( 23-C , 67-H ) :   0.9948 B( 24-C , 25-S ) :   1.0377
B( 24-C , 26-C ) :   1.4747 B( 26-C , 27-C ) :   1.2000 B( 26-C , 30-S ) :   1.0808
B( 27-C , 28-C ) :   1.5920 B( 27-C , 68-H ) :   0.9924 B( 28-C , 29-C ) :   1.1680
B( 28-C , 69-H ) :   0.9947 B( 29-C , 30-S ) :   1.0076 B( 29-C , 31-C ) :   1.5759
B( 31-C , 32-N ) :   1.1813 B( 31-C , 70-H ) :   0.9598 B( 32-N , 33-C ) :   1.2197
B( 32-N , 71-H ) :   0.8997 B( 33-C , 34-S ) :   1.1262 B( 33-C , 40-C ) :   1.3556
B( 34-S , 35-C ) :   1.0704 B( 35-C , 36-N ) :   0.9784 B( 35-C , 39-C ) :   1.4959
B( 36-N , 37-O ) :   1.5270 B( 36-N , 38-O ) :   1.5045 B( 37-O , 38-O ) :   0.2566
B( 39-C , 40-C ) :   1.2304 B( 39-C , 72-H ) :   0.9973 B( 40-C , 41-C ) :   1.0479
B( 41-C , 42-C ) :   1.7125 B( 41-C , 73-H ) :   0.9767 B( 42-C , 43-C ) :   1.1529
B( 42-C , 74-H ) :   0.9611 B( 43-C , 44-O ) :   1.0935 B( 43-C , 50-C ) :   1.3785
B( 44-O , 45-C ) :   1.2150 B( 45-C , 46-C ) :   1.4448 B( 45-C , 75-H ) :   1.0142
B( 46-C , 47-N ) :   0.9232 B( 46-C , 50-C ) :   1.2498 B( 47-N , 48-O ) :   1.5396
B( 47-N , 49-O ) :   1.5286 B( 48-O , 49-O ) :   0.2669 B( 50-C , 51-N ) :   1.1804
B( 51-N , 52-C ) :   1.0964 B( 51-N , 76-H ) :   0.8990 B( 52-C , 53-O ) :   1.1232
B( 52-C , 54-C ) :   0.1016 B( 52-C , 56-C ) :   1.5268 B( 53-O , 54-C ) :   1.1596
B( 54-C , 55-C ) :   1.4778 B( 54-C , 77-H ) :   1.0258 B( 55-C , 56-C ) :   1.1925
B( 55-C , 59-C ) :   1.1226 B( 56-C , 57-O ) :   1.1913 B( 57-O , 58-C ) :   0.9341
B( 58-C , 78-H ) :   0.9769 B( 58-C , 79-H ) :   0.9686 B( 58-C , 80-H ) :   0.9691
B( 59-C , 60-N ) :   3.0164

-----------------------------------------------------------------------------
         ABSORPTION SPECTRUM VIA TRANSITION ELECTRIC DIPOLE MOMENTS
-----------------------------------------------------------------------------
State   Energy  Wavelength   fosc         T2         TX        TY        TZ
        (cm-1)    (nm)                  (au**2)     (au)      (au)      (au)
-----------------------------------------------------------------------------
   0   11764.8    850.0   1.147291655  32.10451   4.63441   3.07866  -1.07175
   1   18605.6    537.5   0.358961033   6.35155   1.69476  -0.93936  -1.61151
   2   21394.2    467.4   0.313298077   4.82099  -0.23373  -2.00722  -0.85875
   3   23429.4    426.8   0.046737047   0.65671  -0.66088  -0.10739   0.45654
   4   23669.7    422.5   0.069854204   0.97157   0.68047   0.69597  -0.15542
   5   24263.0    412.2   0.254506477   3.45327  -0.75404  -1.65957  -0.36125
   6   25011.8    399.8   0.419258842   5.51839   0.76906  -1.59197  -1.54679
   7   25908.1    386.0   0.517641920   6.57764  -1.93116   0.69231   1.53915
   8   27164.9    368.1   0.001299625   0.01575   0.09016  -0.02683  -0.08307
   9   27165.8    368.1   0.098506333   1.19376   0.82165  -0.15953  -0.70228
  10   27953.7    357.7   0.153236120   1.80467   0.57560  -0.86516  -0.85138
  11   28679.4    348.7   0.030693087   0.35233   0.40639  -0.17933  -0.39372
  12   29052.0    344.2   0.101226247   1.14708   0.76340  -0.15509  -0.73501
  13   30039.8    332.9   0.033644895   0.36872   0.29893   0.52848  -0.00857
  14   30719.0    325.5   0.036338818   0.38944   0.47111   0.24476  -0.32800
  15   31058.0    322.0   0.002054456   0.02178  -0.13136  -0.03878   0.05494
  16   31523.2    317.2   0.075402122   0.78746  -0.60393   0.38641   0.52290
  17   31973.8    312.8   0.308297167   3.17432  -1.31048  -1.20652   0.03586
  18   32235.0    310.2   0.000206890   0.00211  -0.02976   0.03397   0.00857
  19   32442.2    308.2   0.270669239   2.74665   1.45702   0.71618  -0.33292
  20   33329.6    300.0   0.142937511   1.41186   1.02017   0.47085  -0.38654
  21   33523.4    298.3   0.037396348   0.36725   0.46125   0.36619  -0.14282
  22   34402.0    290.7   0.027415732   0.26236   0.15310  -0.29376  -0.39067
  23   35238.7    283.8   0.024988417   0.23345  -0.14770   0.20944   0.40960
  24   35354.7    282.8   0.272138479   2.53407  -1.33444  -0.70377   0.50796
  25   36444.1    274.4   0.134212311   1.21238  -0.52741   0.65154   0.71395
  26   36636.0    273.0   0.061341038   0.55121   0.08397   0.65261   0.34388
  27   37069.7    269.8   0.006392265   0.05677   0.16729  -0.08069  -0.14924
  28   37621.2    265.8   0.168682072   1.47609   0.92732  -0.11788  -0.77606
  29   38242.7    261.5   0.063866051   0.54979   0.64964   0.08716  -0.34665
  30   38421.7    260.3   0.185133026   1.58629   0.19002   1.16886   0.42889
  31   39027.6    256.2   0.042338858   0.35714  -0.47294   0.07520   0.35751
  32   39443.5    253.5   0.031744841   0.26496   0.34183  -0.38032   0.05886
  33   39592.3    252.6   0.039822940   0.33113  -0.42291   0.36848  -0.12845
  34   39716.2    251.8   0.057002771   0.47250   0.34106  -0.51873  -0.29513
  35   40311.2    248.1   0.002446481   0.01998   0.02169   0.10149  -0.09596

FINAL SINGLE POINT ENERGY     -6722.213829623440

DIPOLE MOMENT
-------------
                                X             Y             Z
Electronic contribution:    130.59593      74.04846     -24.14680
Nuclear contribution   :   -132.81439     -71.09308      27.16725
                        -----------------------------------------
Total Dipole Moment    :     -2.21845       2.95538       3.02044
                        -----------------------------------------
Magnitude (a.u.)       :      4.77272
Magnitude (Debye)      :     12.13130

Rotational constants in cm-1:     0.001053     0.000379     0.000281
Rotational constants in MHz :    31.556287    11.370740     8.414799

                             ****ORCA TERMINATED NORMALLY****
TOTAL RUN TIME: 0 days 0 hours 11 minutes 46 seconds 942 msec
