                         Program Version 4.2.0 -  RELEASE  -
|  1> # ORCA input file
|  2> # SCF done       -195.894373981400          0.001905655653
|  3> ! CAM-B3LYP def2-SVP def2/J RIJCOSX Grid4 TightSCF
|  4> %maxcore 5000
|  5> %tddft
|  6>     Mode sTDDFT
|  7>     Ethresh 5.0
|  8>     maxcore 5000
|  9> end
| 10>
| 11> %pal
| 12>   nprocs 6
| 13>   end
| 14> * xyz 0 1
| 15>    C       -9.36995         0.33592        -3.25543
| 16>    C      -10.70216         0.17315        -3.00596
| 17>    C      -11.46402        -0.92339        -3.46546
| 18>    N      -12.12812        -1.79765        -3.79825
| 19>    C      -11.50315         1.08180        -2.27828
| 20>    N      -12.22021         1.77688        -1.71299
| 21>    C       -8.52575        -0.52829        -4.06433
| 22>    C       -7.24908         0.07266        -4.21100
| 23>    C       -6.23777        -0.50971        -4.93641
| 24>    C       -6.49158        -1.74676        -5.53645
| 25>    C       -7.76822        -2.34203        -5.38061
| 26>    C       -8.79313        -1.75126        -4.65489
| 27>    S       -7.86514        -3.86943        -6.20034
| 28>    C       -6.21533        -3.69177        -6.73618
| 29>    C       -5.61941        -2.54813        -6.32178
| 30>   Br       -5.43526        -5.03198        -7.78824
| 31>    C       -7.22020         1.35366        -3.48543
| 32>    O       -6.35224         2.19684        -3.51811
| 33>    C       -8.52908         1.42709        -2.76860
| 34>    C       -8.80267         2.28751        -1.77849
| 35>    C       -7.77017         3.21029        -1.22137
| 36>    C       -8.32417         4.20525        -0.25868
| 37>    N       -9.54439         4.69396        -0.31280
| 38>    S       -9.75342         5.77225         0.87671
| 39>    N       -8.25587         5.64641         1.49541
| 40>    C       -7.57432         4.75134         0.81056
| 41>    C       -6.17433         4.33822         1.15961
| 42>    C       -5.94620         2.97697         0.57994
| 43>    C       -6.68077         2.44961        -0.51322
| 44>    N       -6.30432         1.23091        -0.82731
| 45>    S       -5.10728         0.76800         0.15944
| 46>    N       -5.04713         2.13279         1.03374
| 47>    C       -5.18090         5.31777         0.60152
| 48>    O       -4.27776         4.91448        -0.31195
| 49>    C       -3.52267         5.94752        -0.63350
| 50>    C       -3.91298         7.07596         0.06273
| 51>    N       -3.25741         8.31738        -0.11340
| 52>    O       -2.41712         8.36224        -0.98772
| 53>    O       -3.55521         9.25572         0.60105
| 54>    C       -5.02256         6.66506         0.88502
| 55>    N       -5.86115         7.31720         1.74665
| 56>    C       -5.78731         8.53895         2.30829
| 57>    C       -6.76808         8.97014         3.15672
| 58>    C       -6.81150        10.14372         3.94729
| 59>    C       -7.87473        10.19909         4.79899
| 60>    C       -8.73463         9.08096         4.70996
| 61>    S       -8.18644         7.97293         3.48807
| 62>    C       -9.83153         8.72333         5.47446
| 63>    C      -10.32803         9.25898         6.67584
| 64>    C      -11.26813         8.46684         7.27141
| 65>    C      -11.55143         7.26907         6.57457
| 66>    S      -10.67400         7.23743         5.07700
| 67>    C      -12.44422         6.28861         6.98467
| 68>    C      -12.75630         5.06684         6.41200
| 69>    C      -12.18033         4.26191         5.43118
| 70>    C      -13.08998         3.29220         4.77587
| 71>    O      -14.25066         3.07656         5.05627
| 72>    C      -12.29552         2.64506         3.71107
| 73>    C      -12.66769         1.66697         2.83886
| 74>    C      -11.69648         1.10767         1.97605
| 75>    C      -10.36231         1.60166         2.02508
| 76>    C       -9.38678         0.99723         1.20996
| 77>    C       -9.73611        -0.05043         0.40344
| 78>    C      -11.04268        -0.54584         0.33883
| 79>    C      -12.00661         0.03858         1.11413
| 80>    F       -8.79347        -0.63921        -0.36924
| 81>    C      -10.01751         2.64661         2.91755
| 82>    C      -10.96707         3.15162         3.76286
| 83>    C      -10.87928         4.10456         4.87525
| 84>    C       -9.67921         4.57982         5.38753
| 85>    C       -9.56338         5.09706         6.68911
| 86>    N       -9.43966         5.48454         7.76369
| 87>    C       -8.45530         4.50897         4.70782
| 88>    N       -7.44056         4.52761         4.16305
| 89>    H       -5.27778        -0.02738        -5.03336
| 90>    H       -9.74727        -2.24299        -4.56336
| 91>    H       -4.60655        -2.27961        -6.56040
| 92>    H       -9.76314         2.30455        -1.28478
| 93>    H       -7.28834         3.74067        -2.05821
| 94>    H       -6.07916         4.30500         2.25432
| 95>    H       -2.73288         5.81960        -1.34702
| 96>    H       -6.67141         6.75526         2.02330
| 97>    H       -4.93449         9.16101         2.07849
| 98>    H       -6.04255        10.89247         3.88011
| 99>    H       -8.06029        11.00092         5.49047
|100>    H       -9.95160        10.17651         7.09090
|101>    H      -11.73289         8.68360         8.21644
|102>    H      -13.03257         6.56210         7.85245
|103>    H      -13.70213         4.64859         6.75113
|104>    H      -13.68160         1.29678         2.82847
|105>    H       -8.36488         1.34192         1.24555
|106>    H      -11.26327        -1.37986        -0.30945
|107>    H      -13.02212        -0.32488         1.08124
|108>    H       -8.99617         2.99461         2.93064
|109> *
|110>
|111>                          ****END OF INPUT****

CARTESIAN COORDINATES (ANGSTROEM)
---------------------------------
  C     -9.369950    0.335920   -3.255430
  C    -10.702160    0.173150   -3.005960
  C    -11.464020   -0.923390   -3.465460
  N    -12.128120   -1.797650   -3.798250
  C    -11.503150    1.081800   -2.278280
  N    -12.220210    1.776880   -1.712990
  C     -8.525750   -0.528290   -4.064330
  C     -7.249080    0.072660   -4.211000
  C     -6.237770   -0.509710   -4.936410
  C     -6.491580   -1.746760   -5.536450
  C     -7.768220   -2.342030   -5.380610
  C     -8.793130   -1.751260   -4.654890
  S     -7.865140   -3.869430   -6.200340
  C     -6.215330   -3.691770   -6.736180
  C     -5.619410   -2.548130   -6.321780
  Br    -5.435260   -5.031980   -7.788240
  C     -7.220200    1.353660   -3.485430
  O     -6.352240    2.196840   -3.518110
  C     -8.529080    1.427090   -2.768600
  C     -8.802670    2.287510   -1.778490
  C     -7.770170    3.210290   -1.221370
  C     -8.324170    4.205250   -0.258680
  N     -9.544390    4.693960   -0.312800
  S     -9.753420    5.772250    0.876710
  N     -8.255870    5.646410    1.495410
  C     -7.574320    4.751340    0.810560
  C     -6.174330    4.338220    1.159610
  C     -5.946200    2.976970    0.579940
  C     -6.680770    2.449610   -0.513220
  N     -6.304320    1.230910   -0.827310
  S     -5.107280    0.768000    0.159440
  N     -5.047130    2.132790    1.033740
  C     -5.180900    5.317770    0.601520
  O     -4.277760    4.914480   -0.311950
  C     -3.522670    5.947520   -0.633500
  C     -3.912980    7.075960    0.062730
  N     -3.257410    8.317380   -0.113400
  O     -2.417120    8.362240   -0.987720
  O     -3.555210    9.255720    0.601050
  C     -5.022560    6.665060    0.885020
  N     -5.861150    7.317200    1.746650
  C     -5.787310    8.538950    2.308290
  C     -6.768080    8.970140    3.156720
  C     -6.811500   10.143720    3.947290
  C     -7.874730   10.199090    4.798990
  C     -8.734630    9.080960    4.709960
  S     -8.186440    7.972930    3.488070
  C     -9.831530    8.723330    5.474460
  C    -10.328030    9.258980    6.675840
  C    -11.268130    8.466840    7.271410
  C    -11.551430    7.269070    6.574570
  S    -10.674000    7.237430    5.077000
  C    -12.444220    6.288610    6.984670
  C    -12.756300    5.066840    6.412000
  C    -12.180330    4.261910    5.431180
  C    -13.089980    3.292200    4.775870
  O    -14.250660    3.076560    5.056270
  C    -12.295520    2.645060    3.711070
  C    -12.667690    1.666970    2.838860
  C    -11.696480    1.107670    1.976050
  C    -10.362310    1.601660    2.025080
  C     -9.386780    0.997230    1.209960
  C     -9.736110   -0.050430    0.403440
  C    -11.042680   -0.545840    0.338830
  C    -12.006610    0.038580    1.114130
  F     -8.793470   -0.639210   -0.369240
  C    -10.017510    2.646610    2.917550
  C    -10.967070    3.151620    3.762860
  C    -10.879280    4.104560    4.875250
  C     -9.679210    4.579820    5.387530
  C     -9.563380    5.097060    6.689110
  N     -9.439660    5.484540    7.763690
  C     -8.455300    4.508970    4.707820
  N     -7.440560    4.527610    4.163050
  H     -5.277780   -0.027380   -5.033360
  H     -9.747270   -2.242990   -4.563360
  H     -4.606550   -2.279610   -6.560400
  H     -9.763140    2.304550   -1.284780
  H     -7.288340    3.740670   -2.058210
  H     -6.079160    4.305000    2.254320
  H     -2.732880    5.819600   -1.347020
  H     -6.671410    6.755260    2.023300
  H     -4.934490    9.161010    2.078490
  H     -6.042550   10.892470    3.880110
  H     -8.060290   11.000920    5.490470
  H     -9.951600   10.176510    7.090900
  H    -11.732890    8.683600    8.216440
  H    -13.032570    6.562100    7.852450
  H    -13.702130    4.648590    6.751130
  H    -13.681600    1.296780    2.828470
  H     -8.364880    1.341920    1.245550
  H    -11.263270   -1.379860   -0.309450
  H    -13.022120   -0.324880    1.081240
  H     -8.996170    2.994610    2.930640

 Total Charge           Charge          ....    0
 Multiplicity           Mult            ....    1
 Number of Electrons    NEL             ....  566
 Basis Dimension        Dim             .... 1174

ORBITAL ENERGIES
----------------

  NO   OCC          E(Eh)            E(eV)
   0   2.0000    -482.891095    -13140.1347
   1   2.0000     -89.030284     -2422.6372
   2   2.0000     -89.024033     -2422.4671
   3   2.0000     -88.981647     -2421.3137
   4   2.0000     -88.962294     -2420.7871
   5   2.0000     -88.957612     -2420.6597
   6   2.0000     -62.568822     -1702.5842
   7   2.0000     -56.402778     -1534.7976
   8   2.0000     -56.400048     -1534.7233
   9   2.0000     -56.400022     -1534.7226
  10   2.0000     -24.784974      -674.4334
  11   2.0000     -19.344700      -526.3961
  12   2.0000     -19.267719      -524.3013
  13   2.0000     -19.264745      -524.2204
  14   2.0000     -19.225726      -523.1586
  15   2.0000     -19.188859      -522.1554
  16   2.0000     -14.678935      -399.4341
  17   2.0000     -14.490901      -394.3175
  18   2.0000     -14.461152      -393.5080
  19   2.0000     -14.456827      -393.3903
  20   2.0000     -14.451372      -393.2418
  21   2.0000     -14.450605      -393.2210
  22   2.0000     -14.423671      -392.4880
  23   2.0000     -14.419487      -392.3742
  24   2.0000     -14.401185      -391.8762
  25   2.0000     -14.384920      -391.4336
  26   2.0000     -10.379458      -282.4394
  27   2.0000     -10.376483      -282.3585
  28   2.0000     -10.367338      -282.1096
  29   2.0000     -10.365456      -282.0584
  30   2.0000     -10.365367      -282.0560
  31   2.0000     -10.361218      -281.9431
  32   2.0000     -10.356109      -281.8041
  33   2.0000     -10.355032      -281.7747
  34   2.0000     -10.350003      -281.6379
  35   2.0000     -10.349782      -281.6319
  36   2.0000     -10.348056      -281.5849
  37   2.0000     -10.346095      -281.5316
  38   2.0000     -10.344811      -281.4966
  39   2.0000     -10.344293      -281.4825
  40   2.0000     -10.338205      -281.3169
  41   2.0000     -10.337086      -281.2864
  42   2.0000     -10.332637      -281.1653
  43   2.0000     -10.331833      -281.1435
  44   2.0000     -10.325888      -280.9817
  45   2.0000     -10.325192      -280.9627
  46   2.0000     -10.321535      -280.8633
  47   2.0000     -10.320453      -280.8338
  48   2.0000     -10.317164      -280.7443
  49   2.0000     -10.315547      -280.7003
  50   2.0000     -10.314877      -280.6821
  51   2.0000     -10.314410      -280.6694
  52   2.0000     -10.312674      -280.6221
  53   2.0000     -10.311930      -280.6019
  54   2.0000     -10.311391      -280.5872
  55   2.0000     -10.310370      -280.5594
  56   2.0000     -10.308985      -280.5217
  57   2.0000     -10.308228      -280.5011
  58   2.0000     -10.305317      -280.4219
  59   2.0000     -10.304942      -280.4117
  60   2.0000     -10.302743      -280.3519
  61   2.0000     -10.299790      -280.2715
  62   2.0000     -10.294546      -280.1288
  63   2.0000     -10.292984      -280.0863
  64   2.0000     -10.291371      -280.0425
  65   2.0000     -10.289777      -279.9991
  66   2.0000     -10.287664      -279.9416
  67   2.0000     -10.285002      -279.8691
  68   2.0000     -10.284604      -279.8583
  69   2.0000     -10.283074      -279.8167
  70   2.0000     -10.282160      -279.7918
  71   2.0000     -10.281986      -279.7871
  72   2.0000     -10.281019      -279.7607
  73   2.0000     -10.280147      -279.7370
  74   2.0000     -10.275908      -279.6217
  75   2.0000     -10.270773      -279.4820
  76   2.0000     -10.268865      -279.4300
  77   2.0000     -10.265647      -279.3425
  78   2.0000      -8.798268      -239.4130
  79   2.0000      -8.122369      -221.0209
  80   2.0000      -8.116597      -220.8638
  81   2.0000      -8.077744      -219.8066
  82   2.0000      -8.058325      -219.2782
  83   2.0000      -8.052483      -219.1192
  84   2.0000      -6.634603      -180.5367
  85   2.0000      -6.620007      -180.1396
  86   2.0000      -6.619757      -180.1328
  87   2.0000      -6.094048      -165.8275
  88   2.0000      -6.088232      -165.6692
  89   2.0000      -6.086374      -165.6187
  90   2.0000      -6.083536      -165.5414
  91   2.0000      -6.080562      -165.4605
  92   2.0000      -6.077809      -165.3856
  93   2.0000      -6.047409      -164.5584
  94   2.0000      -6.043156      -164.4426
  95   2.0000      -6.038949      -164.3282
  96   2.0000      -6.027975      -164.0296
  97   2.0000      -6.023814      -163.9163
  98   2.0000      -6.021855      -163.8630
  99   2.0000      -6.019407      -163.7964
 100   2.0000      -6.017734      -163.7509
 101   2.0000      -6.014362      -163.6591
 102   2.0000      -2.750456       -74.8437
 103   2.0000      -2.746375       -74.7327
 104   2.0000      -2.746220       -74.7284
 105   2.0000      -2.734598       -74.4122
 106   2.0000      -2.734584       -74.4118
 107   2.0000      -1.348585       -36.6969
 108   2.0000      -1.295930       -35.2640
 109   2.0000      -1.268049       -34.5054
 110   2.0000      -1.166274       -31.7359
 111   2.0000      -1.143859       -31.1260
 112   2.0000      -1.141285       -31.0559
 113   2.0000      -1.134828       -30.8802
 114   2.0000      -1.103042       -30.0153
 115   2.0000      -1.095012       -29.7968
 116   2.0000      -1.029580       -28.0163
 117   2.0000      -1.019817       -27.7506
 118   2.0000      -1.008284       -27.4368
 119   2.0000      -1.005505       -27.3612
 120   2.0000      -1.000278       -27.2189
 121   2.0000      -0.997407       -27.1408
 122   2.0000      -0.995788       -27.0968
 123   2.0000      -0.989778       -26.9332
 124   2.0000      -0.983388       -26.7593
 125   2.0000      -0.982791       -26.7431
 126   2.0000      -0.978445       -26.6248
 127   2.0000      -0.970362       -26.4049
 128   2.0000      -0.966192       -26.2914
 129   2.0000      -0.956493       -26.0275
 130   2.0000      -0.948532       -25.8109
 131   2.0000      -0.924428       -25.1550
 132   2.0000      -0.915166       -24.9029
 133   2.0000      -0.910175       -24.7671
 134   2.0000      -0.904428       -24.6107
 135   2.0000      -0.893641       -24.3172
 136   2.0000      -0.892802       -24.2944
 137   2.0000      -0.882771       -24.0214
 138   2.0000      -0.879460       -23.9313
 139   2.0000      -0.876367       -23.8471
 140   2.0000      -0.869553       -23.6617
 141   2.0000      -0.863558       -23.4986
 142   2.0000      -0.858934       -23.3728
 143   2.0000      -0.845088       -22.9960
 144   2.0000      -0.836300       -22.7569
 145   2.0000      -0.832555       -22.6550
 146   2.0000      -0.829100       -22.5610
 147   2.0000      -0.827039       -22.5049
 148   2.0000      -0.819352       -22.2957
 149   2.0000      -0.803491       -21.8641
 150   2.0000      -0.801885       -21.8204
 151   2.0000      -0.775496       -21.1023
 152   2.0000      -0.773447       -21.0466
 153   2.0000      -0.763942       -20.7879
 154   2.0000      -0.745661       -20.2905
 155   2.0000      -0.739911       -20.1340
 156   2.0000      -0.736468       -20.0403
 157   2.0000      -0.722628       -19.6637
 158   2.0000      -0.715179       -19.4610
 159   2.0000      -0.709189       -19.2980
 160   2.0000      -0.702772       -19.1234
 161   2.0000      -0.698896       -19.0179
 162   2.0000      -0.694609       -18.9013
 163   2.0000      -0.693137       -18.8612
 164   2.0000      -0.689379       -18.7589
 165   2.0000      -0.687059       -18.6958
 166   2.0000      -0.679602       -18.4929
 167   2.0000      -0.673298       -18.3214
 168   2.0000      -0.668798       -18.1989
 169   2.0000      -0.662808       -18.0359
 170   2.0000      -0.659764       -17.9531
 171   2.0000      -0.658587       -17.9211
 172   2.0000      -0.657822       -17.9003
 173   2.0000      -0.647911       -17.6306
 174   2.0000      -0.642942       -17.4953
 175   2.0000      -0.632825       -17.2200
 176   2.0000      -0.632459       -17.2101
 177   2.0000      -0.628927       -17.1140
 178   2.0000      -0.622527       -16.9398
 179   2.0000      -0.619809       -16.8659
 180   2.0000      -0.619399       -16.8547
 181   2.0000      -0.617386       -16.7999
 182   2.0000      -0.613877       -16.7044
 183   2.0000      -0.611624       -16.6431
 184   2.0000      -0.603377       -16.4187
 185   2.0000      -0.598133       -16.2760
 186   2.0000      -0.593727       -16.1561
 187   2.0000      -0.589068       -16.0294
 188   2.0000      -0.582508       -15.8509
 189   2.0000      -0.579191       -15.7606
 190   2.0000      -0.575358       -15.6563
 191   2.0000      -0.572792       -15.5865
 192   2.0000      -0.563771       -15.3410
 193   2.0000      -0.558545       -15.1988
 194   2.0000      -0.556506       -15.1433
 195   2.0000      -0.553012       -15.0482
 196   2.0000      -0.552081       -15.0229
 197   2.0000      -0.551443       -15.0055
 198   2.0000      -0.548427       -14.9235
 199   2.0000      -0.542630       -14.7657
 200   2.0000      -0.541350       -14.7309
 201   2.0000      -0.540694       -14.7130
 202   2.0000      -0.534905       -14.5555
 203   2.0000      -0.531869       -14.4729
 204   2.0000      -0.529361       -14.4046
 205   2.0000      -0.528093       -14.3701
 206   2.0000      -0.524738       -14.2789
 207   2.0000      -0.523138       -14.2353
 208   2.0000      -0.518571       -14.1110
 209   2.0000      -0.515466       -14.0265
 210   2.0000      -0.513209       -13.9651
 211   2.0000      -0.512605       -13.9487
 212   2.0000      -0.510042       -13.8789
 213   2.0000      -0.508466       -13.8361
 214   2.0000      -0.506811       -13.7910
 215   2.0000      -0.505243       -13.7484
 216   2.0000      -0.501463       -13.6455
 217   2.0000      -0.499667       -13.5966
 218   2.0000      -0.498806       -13.5732
 219   2.0000      -0.497459       -13.5365
 220   2.0000      -0.496593       -13.5130
 221   2.0000      -0.489523       -13.3206
 222   2.0000      -0.487913       -13.2768
 223   2.0000      -0.482924       -13.1410
 224   2.0000      -0.480127       -13.0649
 225   2.0000      -0.479495       -13.0477
 226   2.0000      -0.471582       -12.8324
 227   2.0000      -0.469223       -12.7682
 228   2.0000      -0.468224       -12.7410
 229   2.0000      -0.464746       -12.6464
 230   2.0000      -0.461779       -12.5656
 231   2.0000      -0.461131       -12.5480
 232   2.0000      -0.454975       -12.3805
 233   2.0000      -0.454042       -12.3551
 234   2.0000      -0.450473       -12.2580
 235   2.0000      -0.448563       -12.2060
 236   2.0000      -0.445122       -12.1124
 237   2.0000      -0.444982       -12.1086
 238   2.0000      -0.442049       -12.0288
 239   2.0000      -0.439904       -11.9704
 240   2.0000      -0.435090       -11.8394
 241   2.0000      -0.433446       -11.7947
 242   2.0000      -0.430212       -11.7067
 243   2.0000      -0.427789       -11.6407
 244   2.0000      -0.424385       -11.5481
 245   2.0000      -0.422044       -11.4844
 246   2.0000      -0.419708       -11.4208
 247   2.0000      -0.417141       -11.3510
 248   2.0000      -0.416410       -11.3311
 249   2.0000      -0.415405       -11.3038
 250   2.0000      -0.413636       -11.2556
 251   2.0000      -0.409590       -11.1455
 252   2.0000      -0.406536       -11.0624
 253   2.0000      -0.405910       -11.0454
 254   2.0000      -0.404451       -11.0057
 255   2.0000      -0.401843       -10.9347
 256   2.0000      -0.398529       -10.8445
 257   2.0000      -0.396414       -10.7870
 258   2.0000      -0.395275       -10.7560
 259   2.0000      -0.392424       -10.6784
 260   2.0000      -0.389272       -10.5926
 261   2.0000      -0.382435       -10.4066
 262   2.0000      -0.380540       -10.3550
 263   2.0000      -0.380341       -10.3496
 264   2.0000      -0.379797       -10.3348
 265   2.0000      -0.374175       -10.1818
 266   2.0000      -0.370033       -10.0691
 267   2.0000      -0.362757        -9.8711
 268   2.0000      -0.358905        -9.7663
 269   2.0000      -0.352003        -9.5785
 270   2.0000      -0.347996        -9.4694
 271   2.0000      -0.345420        -9.3993
 272   2.0000      -0.341309        -9.2875
 273   2.0000      -0.331282        -9.0146
 274   2.0000      -0.326496        -8.8844
 275   2.0000      -0.321853        -8.7581
 276   2.0000      -0.319052        -8.6818
 277   2.0000      -0.312831        -8.5126
 278   2.0000      -0.299670        -8.1544
 279   2.0000      -0.294184        -8.0052
 280   2.0000      -0.286018        -7.7829
 281   2.0000      -0.274732        -7.4758
 282   2.0000      -0.224948        -6.1212
 283   0.0000      -0.092195        -2.5088
 284   0.0000      -0.088512        -2.4085
 285   0.0000      -0.064577        -1.7572
 286   0.0000      -0.058326        -1.5871
 287   0.0000      -0.047280        -1.2866

MULLIKEN ATOMIC CHARGES
-----------------------
   0 C :    0.331820
   1 C :   -0.366608
   2 C :   -0.189390
   3 N :    0.159410
   4 C :   -0.200673
   5 N :    0.172711
   6 C :    0.021004
   7 C :   -0.003197
   8 C :   -0.073026
   9 C :    0.117820
  10 C :   -0.086067
  11 C :   -0.024775
  12 S :    0.190919
  13 C :   -0.124059
  14 C :    0.039507
  15 Br:    0.029418
  16 C :    0.160744
  17 O :   -0.154970
  18 C :    0.007571
  19 C :   -0.132858
  20 C :    0.318790
  21 C :   -0.150588
  22 N :   -0.259678
  23 S :    0.503487
  24 N :   -0.323159
  25 C :   -0.025018
  26 C :    0.253771
  27 C :   -0.111450
  28 C :   -0.136734
  29 N :   -0.271696
  30 S :    0.481746
  31 N :   -0.252712
  32 C :   -0.033050
  33 O :   -0.133112
  34 C :    0.095600
  35 C :    0.073204
  36 N :    0.282543
  37 O :   -0.231255
  38 O :   -0.246080
  39 C :    0.049101
  40 N :   -0.021215
  41 C :    0.077001
  42 C :   -0.080803
  43 C :    0.073278
  44 C :    0.012747
  45 C :    0.005838
  46 S :    0.075057
  47 C :   -0.080179
  48 C :    0.051942
  49 C :    0.042311
  50 C :   -0.033974
  51 S :    0.111813
  52 C :    0.003176
  53 C :    0.016444
  54 C :   -0.148337
  55 C :    0.125757
  56 O :   -0.158266
  57 C :    0.011747
  58 C :   -0.081485
  59 C :    0.100897
  60 C :    0.135924
  61 C :   -0.123502
  62 C :    0.284929
  63 C :   -0.023017
  64 C :    0.002772
  65 F :   -0.201857
  66 C :   -0.134884
  67 C :    0.061137
  68 C :    0.299445
  69 C :   -0.403390
  70 C :   -0.213632
  71 N :    0.151129
  72 C :   -0.136048
  73 N :    0.100097
  74 H :   -0.011489
  75 H :   -0.005480
  76 H :   -0.002798
  77 H :    0.053708
  78 H :    0.074552
  79 H :    0.064015
  80 H :    0.035340
  81 H :    0.178832
  82 H :    0.042169
  83 H :    0.006080
  84 H :   -0.006710
  85 H :   -0.011606
  86 H :   -0.011889
  87 H :   -0.008031
  88 H :    0.022012
  89 H :   -0.016173
  90 H :   -0.023557
  91 H :    0.000408
  92 H :   -0.009922
  93 H :   -0.031326
Sum of atomic charges:   -0.0000000

LOEWDIN ATOMIC CHARGES
----------------------
   0 C :    0.082029
   1 C :   -0.133048
   2 C :   -0.018864
   3 N :   -0.049419
   4 C :   -0.023191
   5 N :   -0.039688
   6 C :   -0.017164
   7 C :   -0.046657
   8 C :    0.023186
   9 C :   -0.030426
  10 C :   -0.142311
  11 C :   -0.007201
  12 S :    0.436011
  13 C :   -0.269859
  14 C :   -0.070536
  15 Br:    0.141455
  16 C :    0.092974
  17 O :   -0.143037
  18 C :   -0.068379
  19 C :    0.086454
  20 C :   -0.033778
  21 C :   -0.049169
  22 N :   -0.253376
  23 S :    0.622228
  24 N :   -0.269273
  25 C :   -0.045534
  26 C :   -0.035312
  27 C :   -0.055421
  28 C :   -0.044664
  29 N :   -0.255977
  30 S :    0.606647
  31 N :   -0.256014
  32 C :    0.004277
  33 O :    0.068434
  34 C :    0.085933
  35 C :   -0.097631
  36 N :    0.293907
  37 O :   -0.193058
  38 O :   -0.206090
  39 C :   -0.010836
  40 N :    0.063186
  41 C :    0.066277
  42 C :   -0.217202
  43 C :    0.013654
  44 C :   -0.064611
  45 C :   -0.120312
  46 S :    0.407615
  47 C :   -0.220860
  48 C :   -0.010234
  49 C :   -0.050272
  50 C :   -0.107308
  51 S :    0.471520
  52 C :   -0.079150
  53 C :    0.035555
  54 C :   -0.125745
  55 C :    0.079672
  56 O :   -0.157633
  57 C :   -0.054802
  58 C :    0.032909
  59 C :   -0.018017
  60 C :    0.002408
  61 C :   -0.059118
  62 C :    0.083241
  63 C :   -0.048864
  64 C :    0.018300
  65 F :   -0.072115
  66 C :   -0.021176
  67 C :   -0.006433
  68 C :    0.037015
  69 C :   -0.192552
  70 C :   -0.037703
  71 N :   -0.076332
  72 C :    0.001870
  73 N :   -0.107312
  74 H :    0.040879
  75 H :    0.041470
  76 H :    0.039183
  77 H :    0.043087
  78 H :    0.072943
  79 H :    0.065377
  80 H :    0.042103
  81 H :    0.074737
  82 H :    0.036809
  83 H :    0.040745
  84 H :    0.034635
  85 H :    0.033983
  86 H :    0.034259
  87 H :    0.038732
  88 H :    0.044564
  89 H :    0.038612
  90 H :    0.030749
  91 H :    0.038934
  92 H :    0.036982
  93 H :    0.028125

  Mayer bond orders larger than 0.100000
B(  0-C ,  1-C ) :   1.6678 B(  0-C ,  6-C ) :   1.0185 B(  0-C , 18-C ) :   1.0274
B(  1-C ,  2-C ) :   1.1322 B(  1-C ,  4-C ) :   1.1483 B(  2-C ,  3-N ) :   2.9762
B(  4-C ,  5-N ) :   2.9536 B(  6-C ,  7-C ) :   1.2741 B(  6-C , 11-C ) :   1.3967
B(  7-C ,  8-C ) :   1.4164 B(  7-C , 16-C ) :   0.9451 B(  8-C ,  9-C ) :   1.2529
B(  8-C , 74-H ) :   1.0167 B(  9-C , 10-C ) :   1.2969 B(  9-C , 14-C ) :   1.1626
B( 10-C , 11-C ) :   1.3400 B( 10-C , 12-S ) :   1.0871 B( 11-C , 75-H ) :   0.9811
B( 12-S , 13-C ) :   1.0875 B( 13-C , 14-C ) :   1.6167 B( 13-C , 15-Br) :   1.0225
B( 14-C , 76-H ) :   1.0006 B( 16-C , 17-O ) :   2.2128 B( 16-C , 18-C ) :   0.9107
B( 18-C , 19-C ) :   1.7445 B( 19-C , 20-C ) :   1.0260 B( 19-C , 77-H ) :   0.9478
B( 20-C , 21-C ) :   0.9567 B( 20-C , 28-C ) :   0.9759 B( 20-C , 78-H ) :   0.7951
B( 21-C , 22-N ) :   1.6833 B( 21-C , 25-C ) :   1.2271 B( 22-N , 23-S ) :   1.2208
B( 22-N , 24-N ) :   0.1187 B( 23-S , 24-N ) :   1.1941 B( 24-N , 25-C ) :   1.5889
B( 25-C , 26-C ) :   0.9867 B( 26-C , 27-C ) :   0.9802 B( 26-C , 32-C ) :   1.0099
B( 26-C , 79-H ) :   0.7980 B( 27-C , 28-C ) :   1.2278 B( 27-C , 31-N ) :   1.6945
B( 28-C , 29-N ) :   1.6479 B( 29-N , 30-S ) :   1.2093 B( 29-N , 31-N ) :   0.1229
B( 30-S , 31-N ) :   1.2188 B( 32-C , 33-O ) :   1.1537 B( 32-C , 39-C ) :   1.5057
B( 33-O , 34-C ) :   1.2177 B( 34-C , 35-C ) :   1.4418 B( 34-C , 80-H ) :   1.0138
B( 35-C , 36-N ) :   0.9355 B( 35-C , 39-C ) :   1.2366 B( 36-N , 37-O ) :   1.5606
B( 36-N , 38-O ) :   1.4955 B( 37-O , 38-O ) :   0.2608 B( 39-C , 40-N ) :   1.1902
B( 40-N , 41-C ) :   1.2601 B( 40-N , 81-H ) :   0.8447 B( 41-C , 42-C ) :   1.4915
B( 41-C , 82-H ) :   0.9500 B( 42-C , 43-C ) :   1.1969 B( 42-C , 46-S ) :   1.0149
B( 43-C , 44-C ) :   1.5523 B( 43-C , 83-H ) :   0.9934 B( 44-C , 45-C ) :   1.2241
B( 44-C , 84-H ) :   0.9960 B( 45-C , 46-S ) :   1.1178 B( 45-C , 47-C ) :   1.4026
B( 47-C , 48-C ) :   1.2504 B( 47-C , 51-S ) :   1.0372 B( 48-C , 49-C ) :   1.5157
B( 48-C , 85-H ) :   0.9917 B( 49-C , 50-C ) :   1.2193 B( 49-C , 86-H ) :   0.9964
B( 50-C , 51-S ) :   1.1378 B( 50-C , 52-C ) :   1.3635 B( 52-C , 53-C ) :   1.4311
B( 52-C , 87-H ) :   0.9550 B( 53-C , 54-C ) :   1.3628 B( 53-C , 88-H ) :   0.9249
B( 54-C , 55-C ) :   0.9775 B( 54-C , 68-C ) :   1.1996 B( 55-C , 56-O ) :   2.2398
B( 55-C , 57-C ) :   0.9148 B( 57-C , 58-C ) :   1.4883 B( 57-C , 67-C ) :   1.2191
B( 58-C , 59-C ) :   1.1698 B( 58-C , 89-H ) :   1.0155 B( 59-C , 60-C ) :   1.2721
B( 59-C , 64-C ) :   1.2421 B( 60-C , 61-C ) :   1.1996 B( 60-C , 66-C ) :   1.1827
B( 61-C , 62-C ) :   1.4253 B( 61-C , 90-H ) :   1.0037 B( 62-C , 63-C ) :   1.2673
B( 62-C , 65-F ) :   1.0501 B( 63-C , 64-C ) :   1.4472 B( 63-C , 91-H ) :   0.9888
B( 64-C , 92-H ) :   0.9980 B( 66-C , 67-C ) :   1.4732 B( 66-C , 93-H ) :   0.9899
B( 67-C , 68-C ) :   0.9934 B( 68-C , 69-C ) :   1.4645 B( 69-C , 70-C ) :   1.1663
B( 69-C , 72-C ) :   1.1746 B( 70-C , 71-N ) :   3.0067 B( 72-C , 73-N ) :   2.9013

-----------------------------------------------------------------------------
         ABSORPTION SPECTRUM VIA TRANSITION ELECTRIC DIPOLE MOMENTS
-----------------------------------------------------------------------------
State   Energy  Wavelength   fosc         T2         TX        TY        TZ
        (cm-1)    (nm)                  (au**2)     (au)      (au)      (au)
-----------------------------------------------------------------------------
   0   12555.6    796.5   0.450349039  11.80834   2.22681   2.22605  -1.37636
   1   19489.5    513.1   0.006988413   0.11805   0.01361  -0.18853  -0.28691
   2   20592.8    485.6   0.063106870   1.00887  -0.68467   0.44056   0.58822
   3   21864.6    457.4   0.019576676   0.29476   0.50002  -0.12360  -0.17165
   4   22433.8    445.8   0.034035295   0.49946   0.34873   0.61467   0.00550
   5   24098.8    415.0   0.263243279   3.59615   1.70672  -0.23788  -0.79163
   6   25935.8    385.6   0.003669167   0.04657   0.01067  -0.16056   0.14381
   7   26036.6    384.1   0.080614393   1.01930  -0.22990   0.51908   0.83487
   8   26344.1    379.6   0.070033906   0.87519   0.29425  -0.61275  -0.64276
   9   27077.1    369.3   0.732789391   8.90949   1.48522  -1.78833  -1.87229
  10   28528.8    350.5   0.017989993   0.20760  -0.37649   0.09861   0.23691
  11   28955.8    345.4   0.516536800   5.87275   1.39833  -1.43730  -1.36073
  12   29631.8    337.5   0.010357479   0.11507  -0.19775   0.01459  -0.27524
  13   29713.3    336.5   0.017313681   0.19183  -0.22423  -0.01240   0.37603
  14   30334.5    329.7   0.001899718   0.02062   0.02557  -0.12465  -0.06652
  15   30791.6    324.8   0.044486854   0.47564   0.55115  -0.27619  -0.30919
  16   31145.8    321.1   0.040902187   0.43234  -0.40893   0.50092   0.11912
  17   31233.3    320.2   0.059676228   0.62901   0.56560  -0.49012  -0.26247
  18   31425.4    318.2   0.195390040   2.04690  -0.17365  -1.20934  -0.74448
  19   31497.6    317.5   0.005104082   0.05335   0.03126   0.17659   0.14555
  20   31516.9    317.3   0.025250879   0.26376   0.24656  -0.30423  -0.33229
  21   32030.4    312.2   0.087862087   0.90306  -0.51282  -0.56941  -0.56200
  22   32127.1    311.3   0.061998044   0.63531   0.05675  -0.57954  -0.54426
  23   32761.2    305.2   0.028887921   0.29029  -0.04887   0.41903   0.33513
  24   33041.7    302.6   0.005709537   0.05689   0.04455  -0.04854  -0.22923
  25   33212.5    301.1   0.063611602   0.63054  -0.19046  -0.57420  -0.51435
  26   33422.2    299.2   0.665092196   6.55122  -0.35911   1.66258   1.91261
  27   34091.9    293.3   0.106842055   1.03173   0.80950   0.47318  -0.39058
  28   34305.6    291.5   0.065620643   0.62973  -0.36589   0.53071   0.46282
  29   34524.4    289.6   0.121155404   1.15529  -0.31857   0.91344   0.46844
  30   34576.9    289.2   0.394039931   3.75172   1.80745  -0.09328  -0.69002
  31   35081.0    285.1   0.120681101   1.13251   0.84161   0.59750   0.25921
  32   35342.8    282.9   0.005104509   0.04755   0.20687   0.06741   0.01448
  33   35845.8    279.0   0.196140583   1.80138  -0.79794  -0.84588  -0.67019
  34   36293.7    275.5   0.013531592   0.12274  -0.12212   0.20795   0.25414
  35   36570.2    273.4   0.002507031   0.02257   0.03217  -0.14391  -0.02872
  36   36668.2    272.7   0.010890107   0.09777  -0.19858  -0.11354  -0.21318
  37   37070.0    269.8   0.179057844   1.59018   1.08829   0.61326  -0.17239
  38   37207.0    268.8   0.046824346   0.41431  -0.62384  -0.00579  -0.15841
  39   37683.1    265.4   0.014923744   0.13038   0.24074   0.24333   0.11493
  40   38067.7    262.7   0.009136414   0.07901  -0.23996  -0.13889  -0.04629
  41   38372.3    260.6   0.035066926   0.30085   0.44120   0.26565  -0.18875
  42   38384.5    260.5   0.008499762   0.07290   0.20824   0.08647  -0.14852
  43   38405.9    260.4   0.003065793   0.02628  -0.12690   0.03457   0.09477
  44   38595.4    259.1   0.007505174   0.06402   0.19023   0.13834   0.09323
  45   38667.6    258.6   0.010740512   0.09144  -0.25596   0.03984   0.15602
  46   39103.2    255.7   0.001175088   0.00989   0.01487  -0.08494  -0.04956
  47   39315.5    254.4   0.058168686   0.48708  -0.00972  -0.57254  -0.39898
  48   39446.3    253.5   0.000557124   0.00465   0.00619   0.03664  -0.05717
  49   39718.7    251.8   0.073647666   0.61044   0.58440  -0.21853  -0.47027
  50   39976.5    250.1   0.016259321   0.13390  -0.22452  -0.09470   0.27298
  51   40158.6    249.0   0.059973905   0.49165   0.38563   0.58543  -0.01455
  52   40231.5    248.6   0.012415776   0.10160   0.21875   0.21854   0.07738

FINAL SINGLE POINT ENERGY     -7577.382443715694

DIPOLE MOMENT
-------------
                                X             Y             Z
Electronic contribution:     37.58615     -99.86190    -103.30694
Nuclear contribution   :    -34.75966     100.71173     101.20381
                        -----------------------------------------
Total Dipole Moment    :      2.82649       0.84984      -2.10313
                        -----------------------------------------
Magnitude (a.u.)       :      3.62414
Magnitude (Debye)      :      9.21184

Rotational constants in cm-1:     0.001448     0.000444     0.000364
Rotational constants in MHz :    43.418458    13.325081    10.911895

                             ****ORCA TERMINATED NORMALLY****
TOTAL RUN TIME: 0 days 0 hours 13 minutes 13 seconds 693 msec
