                         Program Version 4.2.0 -  RELEASE  -
|  1> # ORCA input file
|  2> # SCF done       -180.639931786446          0.000738153956
|  3> ! CAM-B3LYP def2-SVP def2/J RIJCOSX Grid4 TightSCF
|  4> %maxcore 5000
|  5> %tddft
|  6>     Mode sTDDFT
|  7>     Ethresh 5.0
|  8>     maxcore 5000
|  9> end
| 10>
| 11> %pal
| 12>   nprocs 6
| 13>   end
| 14> * xyz 0 1
| 15>    C        8.16131       -14.25629        -8.37799
| 16>    C        7.04191       -13.54039        -8.21465
| 17>    C        5.79594       -13.68666        -8.91206
| 18>    C        4.85036       -12.78875        -8.56398
| 19>    C        5.25769       -11.86740        -7.55681
| 20>    S        6.90476       -12.20752        -7.05882
| 21>    C        4.53020       -10.82462        -7.04353
| 22>    C        3.25519       -10.36139        -7.46167
| 23>    C        2.81875        -9.25717        -6.80858
| 24>    C        3.70723        -8.78611        -5.80082
| 25>    S        5.13676        -9.81857        -5.73958
| 26>    C        3.50248        -7.72051        -4.98235
| 27>    N        4.37097        -7.34395        -3.99882
| 28>    C        4.16236        -6.42322        -3.02314
| 29>    S        5.56678        -5.62847        -2.36216
| 30>    C        4.53413        -4.58850        -1.42897
| 31>    N        5.13868        -3.65082        -0.59370
| 32>    O        4.41383        -2.91136         0.05099
| 33>    O        6.36053        -3.63836        -0.57368
| 34>    C        3.20307        -4.84675        -1.61711
| 35>    C        2.95789        -5.92015        -2.49524
| 36>    C        1.63118        -6.43575        -2.70042
| 37>    C        1.35098        -7.72368        -3.01976
| 38>    C        0.08122        -8.22312        -3.37294
| 39>    C       -0.07644        -9.45938        -3.94123
| 40>    C       -1.24824       -10.02194        -4.50902
| 41>    C       -1.04822       -11.20386        -5.15272
| 42>    C        0.29018       -11.66171        -5.11046
| 43>    S        1.28196       -10.55141        -4.19300
| 44>    C        0.84008       -12.78227        -5.69224
| 45>    C        0.22355       -13.74457        -6.52483
| 46>    C        1.06582       -14.71940        -6.95419
| 47>    C        2.40455       -14.61041        -6.47578
| 48>    S        2.53217       -13.17804        -5.46485
| 49>    C        3.40520       -15.48596        -6.78592
| 50>    C        4.76446       -15.53070        -6.34809
| 51>    C        5.29398       -14.70665        -5.34203
| 52>    C        6.61749       -14.78266        -4.94717
| 53>    C        7.45080       -15.69672        -5.56698
| 54>    C        6.93341       -16.54109        -6.57449
| 55>    C        5.62034       -16.47546        -6.95777
| 56>    C        8.02096       -17.41338        -7.09202
| 57>    O        7.95172       -18.24285        -7.96813
| 58>    C        9.21527       -17.02070        -6.29773
| 59>    C        8.85948       -15.99185        -5.39652
| 60>    C        9.82164       -15.43536        -4.57108
| 61>    C       11.11091       -15.93767        -4.61289
| 62>    C       11.46376       -16.98866        -5.47040
| 63>    C       10.49717       -17.50515        -6.35609
| 64>    C       12.79143       -17.53796        -5.52482
| 65>    C       13.68209       -17.68812        -4.50866
| 66>    C       15.03534       -18.20585        -4.65677
| 67>    C       15.75587       -18.26548        -5.81997
| 68>    C       17.07495       -18.75847        -5.90651
| 69>    N       18.14406       -19.15641        -6.03378
| 70>    C       15.30404       -17.80894        -7.07693
| 71>    N       15.01675       -17.43696        -8.12439
| 72>    C       15.52646       -18.56221        -3.33347
| 73>    C       14.54849       -18.20105        -2.37546
| 74>    C       13.37823       -17.60854        -3.05334
| 75>    O       12.37125       -17.21016        -2.51170
| 76>    C       14.72262       -18.39903        -1.02698
| 77>    C       15.92061       -18.98233        -0.60291
| 78>    C       16.89006       -19.34747        -1.56819
| 79>    C       16.71371       -19.14722        -2.93122
| 80>    S       18.29209       -20.05834        -0.82780
| 81>    C       17.56903       -19.85490         0.74596
| 82>    C       16.34061       -19.28537         0.72106
| 83>   Br       18.50394       -20.41354         2.27252
| 84>    H        8.20303       -15.05525        -9.09705
| 85>    H        9.04969       -14.05886        -7.80588
| 86>    H        5.67350       -14.45736        -9.65192
| 87>    H        3.86225       -12.75271        -8.98761
| 88>    H        2.70983       -10.85445        -8.24623
| 89>    H        1.88355        -8.76091        -6.99791
| 90>    H        2.60589        -7.13108        -5.08504
| 91>    H        5.29656        -7.75617        -4.04527
| 92>    H        2.43330        -4.30241        -1.10017
| 93>    H        0.82282        -5.73359        -2.54745
| 94>    H        2.16212        -8.43772        -3.07546
| 95>    H       -0.78569        -7.58392        -3.27844
| 96>    H       -2.19651        -9.51793        -4.44357
| 97>    H       -1.81966       -11.75766        -5.65737
| 98>    H       -0.81755       -13.68316        -6.78710
| 99>    H        0.77462       -15.53191        -7.59645
|100>    H        3.12285       -16.27200        -7.47658
|101>    H        4.65460       -13.99328        -4.84866
|102>    H        6.98792       -14.12887        -4.17273
|103>    H        5.24655       -17.13255        -7.72943
|104>    H        9.57707       -14.62271        -3.90469
|105>    H       11.86847       -15.48907        -3.99210
|106>    H       10.75366       -18.29131        -7.05105
|107>    H       13.07578       -17.92334        -6.49757
|108>    H       13.95881       -18.11025        -0.32209
|109>    H       17.47892       -19.44723        -3.62737
|110>    H       15.75313       -19.08655         1.59871
|111> *
|112>
|113>                          ****END OF INPUT****

CARTESIAN COORDINATES (ANGSTROEM)
---------------------------------
  C      8.161310  -14.256290   -8.377990
  C      7.041910  -13.540390   -8.214650
  C      5.795940  -13.686660   -8.912060
  C      4.850360  -12.788750   -8.563980
  C      5.257690  -11.867400   -7.556810
  S      6.904760  -12.207520   -7.058820
  C      4.530200  -10.824620   -7.043530
  C      3.255190  -10.361390   -7.461670
  C      2.818750   -9.257170   -6.808580
  C      3.707230   -8.786110   -5.800820
  S      5.136760   -9.818570   -5.739580
  C      3.502480   -7.720510   -4.982350
  N      4.370970   -7.343950   -3.998820
  C      4.162360   -6.423220   -3.023140
  S      5.566780   -5.628470   -2.362160
  C      4.534130   -4.588500   -1.428970
  N      5.138680   -3.650820   -0.593700
  O      4.413830   -2.911360    0.050990
  O      6.360530   -3.638360   -0.573680
  C      3.203070   -4.846750   -1.617110
  C      2.957890   -5.920150   -2.495240
  C      1.631180   -6.435750   -2.700420
  C      1.350980   -7.723680   -3.019760
  C      0.081220   -8.223120   -3.372940
  C     -0.076440   -9.459380   -3.941230
  C     -1.248240  -10.021940   -4.509020
  C     -1.048220  -11.203860   -5.152720
  C      0.290180  -11.661710   -5.110460
  S      1.281960  -10.551410   -4.193000
  C      0.840080  -12.782270   -5.692240
  C      0.223550  -13.744570   -6.524830
  C      1.065820  -14.719400   -6.954190
  C      2.404550  -14.610410   -6.475780
  S      2.532170  -13.178040   -5.464850
  C      3.405200  -15.485960   -6.785920
  C      4.764460  -15.530700   -6.348090
  C      5.293980  -14.706650   -5.342030
  C      6.617490  -14.782660   -4.947170
  C      7.450800  -15.696720   -5.566980
  C      6.933410  -16.541090   -6.574490
  C      5.620340  -16.475460   -6.957770
  C      8.020960  -17.413380   -7.092020
  O      7.951720  -18.242850   -7.968130
  C      9.215270  -17.020700   -6.297730
  C      8.859480  -15.991850   -5.396520
  C      9.821640  -15.435360   -4.571080
  C     11.110910  -15.937670   -4.612890
  C     11.463760  -16.988660   -5.470400
  C     10.497170  -17.505150   -6.356090
  C     12.791430  -17.537960   -5.524820
  C     13.682090  -17.688120   -4.508660
  C     15.035340  -18.205850   -4.656770
  C     15.755870  -18.265480   -5.819970
  C     17.074950  -18.758470   -5.906510
  N     18.144060  -19.156410   -6.033780
  C     15.304040  -17.808940   -7.076930
  N     15.016750  -17.436960   -8.124390
  C     15.526460  -18.562210   -3.333470
  C     14.548490  -18.201050   -2.375460
  C     13.378230  -17.608540   -3.053340
  O     12.371250  -17.210160   -2.511700
  C     14.722620  -18.399030   -1.026980
  C     15.920610  -18.982330   -0.602910
  C     16.890060  -19.347470   -1.568190
  C     16.713710  -19.147220   -2.931220
  S     18.292090  -20.058340   -0.827800
  C     17.569030  -19.854900    0.745960
  C     16.340610  -19.285370    0.721060
  Br    18.503940  -20.413540    2.272520
  H      8.203030  -15.055250   -9.097050
  H      9.049690  -14.058860   -7.805880
  H      5.673500  -14.457360   -9.651920
  H      3.862250  -12.752710   -8.987610
  H      2.709830  -10.854450   -8.246230
  H      1.883550   -8.760910   -6.997910
  H      2.605890   -7.131080   -5.085040
  H      5.296560   -7.756170   -4.045270
  H      2.433300   -4.302410   -1.100170
  H      0.822820   -5.733590   -2.547450
  H      2.162120   -8.437720   -3.075460
  H     -0.785690   -7.583920   -3.278440
  H     -2.196510   -9.517930   -4.443570
  H     -1.819660  -11.757660   -5.657370
  H     -0.817550  -13.683160   -6.787100
  H      0.774620  -15.531910   -7.596450
  H      3.122850  -16.272000   -7.476580
  H      4.654600  -13.993280   -4.848660
  H      6.987920  -14.128870   -4.172730
  H      5.246550  -17.132550   -7.729430
  H      9.577070  -14.622710   -3.904690
  H     11.868470  -15.489070   -3.992100
  H     10.753660  -18.291310   -7.051050
  H     13.075780  -17.923340   -6.497570
  H     13.958810  -18.110250   -0.322090
  H     17.478920  -19.447230   -3.627370
  H     15.753130  -19.086550    1.598710

 Total Charge           Charge          ....    0
 Multiplicity           Mult            ....    1
 Number of Electrons    NEL             ....  542
 Basis Dimension        Dim             .... 1143

ORBITAL ENERGIES
----------------

  NO   OCC          E(Eh)            E(eV)
   0   2.0000    -482.887195    -13140.0286
   1   2.0000     -88.977364     -2421.1972
   2   2.0000     -88.976875     -2421.1839
   3   2.0000     -88.952395     -2420.5177
   4   2.0000     -88.950037     -2420.4536
   5   2.0000     -88.948104     -2420.4010
   6   2.0000     -88.936179     -2420.0765
   7   2.0000     -62.564899     -1702.4775
   8   2.0000     -56.398857     -1534.6909
   9   2.0000     -56.396127     -1534.6166
  10   2.0000     -56.396100     -1534.6159
  11   2.0000     -19.228804      -523.2424
  12   2.0000     -19.228108      -523.2234
  13   2.0000     -19.219545      -522.9904
  14   2.0000     -19.214018      -522.8400
  15   2.0000     -14.640282      -398.3823
  16   2.0000     -14.482885      -394.0993
  17   2.0000     -14.416766      -392.3001
  18   2.0000     -14.415766      -392.2729
  19   2.0000     -10.371834      -282.2320
  20   2.0000     -10.365883      -282.0700
  21   2.0000     -10.361042      -281.9383
  22   2.0000     -10.360067      -281.9118
  23   2.0000     -10.344405      -281.4856
  24   2.0000     -10.342798      -281.4418
  25   2.0000     -10.334958      -281.2285
  26   2.0000     -10.328033      -281.0401
  27   2.0000     -10.326610      -281.0013
  28   2.0000     -10.319427      -280.8059
  29   2.0000     -10.319159      -280.7986
  30   2.0000     -10.318401      -280.7780
  31   2.0000     -10.317508      -280.7537
  32   2.0000     -10.315717      -280.7049
  33   2.0000     -10.314637      -280.6755
  34   2.0000     -10.313399      -280.6418
  35   2.0000     -10.310401      -280.5603
  36   2.0000     -10.310068      -280.5512
  37   2.0000     -10.309974      -280.5486
  38   2.0000     -10.308916      -280.5199
  39   2.0000     -10.307793      -280.4893
  40   2.0000     -10.305619      -280.4302
  41   2.0000     -10.303793      -280.3805
  42   2.0000     -10.303262      -280.3660
  43   2.0000     -10.302148      -280.3357
  44   2.0000     -10.301261      -280.3116
  45   2.0000     -10.298606      -280.2393
  46   2.0000     -10.297706      -280.2148
  47   2.0000     -10.295785      -280.1626
  48   2.0000     -10.295717      -280.1607
  49   2.0000     -10.295237      -280.1476
  50   2.0000     -10.294866      -280.1375
  51   2.0000     -10.294802      -280.1358
  52   2.0000     -10.294425      -280.1256
  53   2.0000     -10.293233      -280.0931
  54   2.0000     -10.292934      -280.0850
  55   2.0000     -10.291638      -280.0497
  56   2.0000     -10.290850      -280.0283
  57   2.0000     -10.288159      -279.9550
  58   2.0000     -10.287932      -279.9489
  59   2.0000     -10.287594      -279.9397
  60   2.0000     -10.285617      -279.8859
  61   2.0000     -10.285002      -279.8691
  62   2.0000     -10.284970      -279.8683
  63   2.0000     -10.284493      -279.8553
  64   2.0000     -10.284434      -279.8537
  65   2.0000     -10.283261      -279.8217
  66   2.0000     -10.282920      -279.8125
  67   2.0000     -10.282185      -279.7925
  68   2.0000     -10.280454      -279.7454
  69   2.0000     -10.280436      -279.7449
  70   2.0000     -10.278579      -279.6944
  71   2.0000     -10.274775      -279.5908
  72   2.0000     -10.265023      -279.3255
  73   2.0000      -8.794320      -239.3056
  74   2.0000      -8.073409      -219.6886
  75   2.0000      -8.072753      -219.6708
  76   2.0000      -8.047639      -218.9874
  77   2.0000      -8.045595      -218.9318
  78   2.0000      -8.044458      -218.9008
  79   2.0000      -8.032147      -218.5658
  80   2.0000      -6.630650      -180.4292
  81   2.0000      -6.616055      -180.0320
  82   2.0000      -6.615820      -180.0256
  83   2.0000      -6.043094      -164.4410
  84   2.0000      -6.042485      -164.4244
  85   2.0000      -6.038827      -164.3248
  86   2.0000      -6.038081      -164.3045
  87   2.0000      -6.034607      -164.2100
  88   2.0000      -6.034036      -164.1945
  89   2.0000      -6.017436      -163.7428
  90   2.0000      -6.015373      -163.6866
  91   2.0000      -6.014323      -163.6581
  92   2.0000      -6.013371      -163.6322
  93   2.0000      -6.011394      -163.5783
  94   2.0000      -6.010394      -163.5511
  95   2.0000      -6.008562      -163.5013
  96   2.0000      -6.006458      -163.4440
  97   2.0000      -6.005078      -163.4065
  98   2.0000      -6.002007      -163.3229
  99   2.0000      -5.998191      -163.2191
 100   2.0000      -5.992674      -163.0689
 101   2.0000      -2.746501       -74.7361
 102   2.0000      -2.742432       -74.6254
 103   2.0000      -2.742266       -74.6208
 104   2.0000      -2.730663       -74.3051
 105   2.0000      -2.730642       -74.3046
 106   2.0000      -1.308174       -35.5972
 107   2.0000      -1.135484       -30.8981
 108   2.0000      -1.127162       -30.6716
 109   2.0000      -1.125725       -30.6325
 110   2.0000      -1.086756       -29.5721
 111   2.0000      -1.024929       -27.8897
 112   2.0000      -1.014781       -27.6136
 113   2.0000      -1.002101       -27.2686
 114   2.0000      -0.999770       -27.2051
 115   2.0000      -0.995071       -27.0772
 116   2.0000      -0.993839       -27.0437
 117   2.0000      -0.990945       -26.9650
 118   2.0000      -0.988306       -26.8932
 119   2.0000      -0.979877       -26.6638
 120   2.0000      -0.966244       -26.2928
 121   2.0000      -0.959702       -26.1148
 122   2.0000      -0.944228       -25.6937
 123   2.0000      -0.924021       -25.1439
 124   2.0000      -0.919920       -25.0323
 125   2.0000      -0.910274       -24.7698
 126   2.0000      -0.899365       -24.4730
 127   2.0000      -0.894702       -24.3461
 128   2.0000      -0.888083       -24.1660
 129   2.0000      -0.886594       -24.1254
 130   2.0000      -0.875469       -23.8227
 131   2.0000      -0.868186       -23.6245
 132   2.0000      -0.867668       -23.6105
 133   2.0000      -0.858314       -23.3559
 134   2.0000      -0.847986       -23.0749
 135   2.0000      -0.845349       -23.0031
 136   2.0000      -0.843050       -22.9406
 137   2.0000      -0.842345       -22.9214
 138   2.0000      -0.832767       -22.6607
 139   2.0000      -0.831026       -22.6134
 140   2.0000      -0.826617       -22.4934
 141   2.0000      -0.818680       -22.2774
 142   2.0000      -0.812693       -22.1145
 143   2.0000      -0.790744       -21.5172
 144   2.0000      -0.784604       -21.3502
 145   2.0000      -0.770854       -20.9760
 146   2.0000      -0.762119       -20.7383
 147   2.0000      -0.760383       -20.6911
 148   2.0000      -0.757365       -20.6089
 149   2.0000      -0.741121       -20.1669
 150   2.0000      -0.728475       -19.8228
 151   2.0000      -0.723338       -19.6830
 152   2.0000      -0.707547       -19.2533
 153   2.0000      -0.696813       -18.9613
 154   2.0000      -0.695399       -18.9228
 155   2.0000      -0.689445       -18.7608
 156   2.0000      -0.686258       -18.6740
 157   2.0000      -0.682136       -18.5619
 158   2.0000      -0.675109       -18.3706
 159   2.0000      -0.669630       -18.2216
 160   2.0000      -0.665592       -18.1117
 161   2.0000      -0.661033       -17.9876
 162   2.0000      -0.656076       -17.8527
 163   2.0000      -0.650857       -17.7107
 164   2.0000      -0.636836       -17.3292
 165   2.0000      -0.633989       -17.2517
 166   2.0000      -0.630096       -17.1458
 167   2.0000      -0.625753       -17.0276
 168   2.0000      -0.622835       -16.9482
 169   2.0000      -0.621246       -16.9050
 170   2.0000      -0.620356       -16.8807
 171   2.0000      -0.615362       -16.7448
 172   2.0000      -0.612696       -16.6723
 173   2.0000      -0.604154       -16.4399
 174   2.0000      -0.601745       -16.3743
 175   2.0000      -0.600222       -16.3329
 176   2.0000      -0.596592       -16.2341
 177   2.0000      -0.594581       -16.1794
 178   2.0000      -0.587186       -15.9781
 179   2.0000      -0.582492       -15.8504
 180   2.0000      -0.576751       -15.6942
 181   2.0000      -0.572035       -15.5659
 182   2.0000      -0.567888       -15.4530
 183   2.0000      -0.561051       -15.2670
 184   2.0000      -0.557109       -15.1597
 185   2.0000      -0.550918       -14.9912
 186   2.0000      -0.546470       -14.8702
 187   2.0000      -0.544130       -14.8065
 188   2.0000      -0.542031       -14.7494
 189   2.0000      -0.539139       -14.6707
 190   2.0000      -0.535352       -14.5677
 191   2.0000      -0.531577       -14.4649
 192   2.0000      -0.529967       -14.4211
 193   2.0000      -0.526225       -14.3193
 194   2.0000      -0.525288       -14.2938
 195   2.0000      -0.523252       -14.2384
 196   2.0000      -0.522376       -14.2146
 197   2.0000      -0.518975       -14.1220
 198   2.0000      -0.514882       -14.0107
 199   2.0000      -0.512998       -13.9594
 200   2.0000      -0.511792       -13.9266
 201   2.0000      -0.509485       -13.8638
 202   2.0000      -0.508860       -13.8468
 203   2.0000      -0.506121       -13.7722
 204   2.0000      -0.505038       -13.7428
 205   2.0000      -0.503808       -13.7093
 206   2.0000      -0.497095       -13.5266
 207   2.0000      -0.495498       -13.4832
 208   2.0000      -0.494546       -13.4573
 209   2.0000      -0.491663       -13.3788
 210   2.0000      -0.490360       -13.3434
 211   2.0000      -0.487914       -13.2768
 212   2.0000      -0.484265       -13.1775
 213   2.0000      -0.481146       -13.0927
 214   2.0000      -0.479374       -13.0444
 215   2.0000      -0.477504       -12.9935
 216   2.0000      -0.471232       -12.8229
 217   2.0000      -0.467239       -12.7142
 218   2.0000      -0.465383       -12.6637
 219   2.0000      -0.462938       -12.5972
 220   2.0000      -0.460106       -12.5201
 221   2.0000      -0.459578       -12.5057
 222   2.0000      -0.456850       -12.4315
 223   2.0000      -0.455385       -12.3916
 224   2.0000      -0.453629       -12.3439
 225   2.0000      -0.449463       -12.2305
 226   2.0000      -0.448208       -12.1963
 227   2.0000      -0.444425       -12.0934
 228   2.0000      -0.441665       -12.0183
 229   2.0000      -0.440991       -12.0000
 230   2.0000      -0.439289       -11.9537
 231   2.0000      -0.435966       -11.8632
 232   2.0000      -0.433975       -11.8091
 233   2.0000      -0.431679       -11.7466
 234   2.0000      -0.428157       -11.6507
 235   2.0000      -0.424611       -11.5542
 236   2.0000      -0.423554       -11.5255
 237   2.0000      -0.422487       -11.4964
 238   2.0000      -0.421068       -11.4578
 239   2.0000      -0.417759       -11.3678
 240   2.0000      -0.413962       -11.2645
 241   2.0000      -0.409407       -11.1405
 242   2.0000      -0.401713       -10.9312
 243   2.0000      -0.400776       -10.9057
 244   2.0000      -0.396183       -10.7807
 245   2.0000      -0.389738       -10.6053
 246   2.0000      -0.381984       -10.3943
 247   2.0000      -0.377239       -10.2652
 248   2.0000      -0.376861       -10.2549
 249   2.0000      -0.376492       -10.2449
 250   2.0000      -0.370202       -10.0737
 251   2.0000      -0.365716        -9.9516
 252   2.0000      -0.357194        -9.7197
 253   2.0000      -0.351431        -9.5629
 254   2.0000      -0.349463        -9.5094
 255   2.0000      -0.348593        -9.4857
 256   2.0000      -0.342625        -9.3233
 257   2.0000      -0.338260        -9.2045
 258   2.0000      -0.332603        -9.0506
 259   2.0000      -0.331794        -9.0286
 260   2.0000      -0.330620        -8.9966
 261   2.0000      -0.327737        -8.9182
 262   2.0000      -0.321566        -8.7502
 263   2.0000      -0.317623        -8.6429
 264   2.0000      -0.312820        -8.5123
 265   2.0000      -0.299786        -8.1576
 266   2.0000      -0.294925        -8.0253
 267   2.0000      -0.284719        -7.7476
 268   2.0000      -0.269748        -7.3402
 269   2.0000      -0.221761        -6.0344
 270   2.0000      -0.213993        -5.8231
 271   0.0000      -0.095037        -2.5861
 272   0.0000      -0.081289        -2.2120
 273   0.0000      -0.066326        -1.8048
 274   0.0000      -0.060076        -1.6347
 275   0.0000      -0.049020        -1.3339

MULLIKEN ATOMIC CHARGES
-----------------------
   0 C :   -0.016844
   1 C :   -0.084179
   2 C :    0.068886
   3 C :    0.038636
   4 C :   -0.091288
   5 S :    0.063582
   6 C :   -0.030454
   7 C :    0.020716
   8 C :    0.063026
   9 C :   -0.038345
  10 S :    0.035115
  11 C :    0.000537
  12 N :   -0.027239
  13 C :   -0.125203
  14 S :    0.163222
  15 C :   -0.012038
  16 N :    0.281083
  17 O :   -0.257953
  18 O :   -0.272991
  19 C :    0.004032
  20 C :    0.099295
  21 C :   -0.045594
  22 C :   -0.016298
  23 C :   -0.014403
  24 C :   -0.028471
  25 C :    0.039414
  26 C :    0.028513
  27 C :   -0.047481
  28 S :    0.066282
  29 C :   -0.040484
  30 C :    0.031285
  31 C :    0.030047
  32 C :   -0.009556
  33 S :    0.067858
  34 C :   -0.045736
  35 C :    0.138426
  36 C :   -0.016933
  37 C :   -0.018332
  38 C :    0.102060
  39 C :   -0.003129
  40 C :   -0.112566
  41 C :    0.158586
  42 O :   -0.122366
  43 C :   -0.031620
  44 C :    0.117395
  45 C :   -0.066784
  46 C :    0.085701
  47 C :    0.068251
  48 C :   -0.075917
  49 C :   -0.028095
  50 C :   -0.073647
  51 C :    0.289085
  52 C :   -0.341758
  53 C :   -0.184373
  54 N :    0.153498
  55 C :   -0.205167
  56 N :    0.166444
  57 C :    0.017518
  58 C :   -0.017496
  59 C :    0.141204
  60 O :   -0.143775
  61 C :   -0.067880
  62 C :    0.116275
  63 C :   -0.090314
  64 C :   -0.018451
  65 S :    0.188847
  66 C :   -0.122574
  67 C :    0.039463
  68 Br:    0.025930
  69 H :    0.028835
  70 H :    0.022743
  71 H :   -0.013971
  72 H :   -0.016635
  73 H :   -0.014886
  74 H :   -0.013613
  75 H :    0.036283
  76 H :    0.142889
  77 H :    0.007689
  78 H :   -0.009117
  79 H :    0.037035
  80 H :   -0.014286
  81 H :   -0.011695
  82 H :   -0.013426
  83 H :   -0.013531
  84 H :   -0.011866
  85 H :   -0.021316
  86 H :   -0.009959
  87 H :   -0.031905
  88 H :   -0.022471
  89 H :   -0.023703
  90 H :   -0.006743
  91 H :   -0.007997
  92 H :    0.034882
  93 H :   -0.009829
  94 H :   -0.005274
  95 H :   -0.002611
Sum of atomic charges:   -0.0000000

LOEWDIN ATOMIC CHARGES
----------------------
   0 C :   -0.074936
   1 C :   -0.138637
   2 C :   -0.029768
   3 C :   -0.026228
   4 C :   -0.186514
   5 S :    0.352161
   6 C :   -0.175846
   7 C :   -0.042625
   8 C :   -0.030526
   9 C :   -0.184281
  10 S :    0.331828
  11 C :   -0.009943
  12 N :    0.035748
  13 C :   -0.104684
  14 S :    0.442186
  15 C :   -0.215080
  16 N :    0.274361
  17 O :   -0.224265
  18 O :   -0.237743
  19 C :    0.005198
  20 C :   -0.108448
  21 C :   -0.031751
  22 C :   -0.041191
  23 C :   -0.053830
  24 C :   -0.147072
  25 C :   -0.032664
  26 C :   -0.033815
  27 C :   -0.176479
  28 S :    0.390510
  29 C :   -0.182932
  30 C :   -0.035922
  31 C :   -0.031893
  32 C :   -0.143079
  33 S :    0.398811
  34 C :   -0.054042
  35 C :   -0.022177
  36 C :   -0.009278
  37 C :   -0.006940
  38 C :   -0.013654
  39 C :   -0.054828
  40 C :    0.018296
  41 C :    0.088549
  42 O :   -0.128683
  43 C :   -0.067700
  44 C :    0.021650
  45 C :   -0.024702
  46 C :    0.047262
  47 C :   -0.048402
  48 C :    0.038164
  49 C :    0.082758
  50 C :   -0.093887
  51 C :    0.075638
  52 C :   -0.137503
  53 C :   -0.017892
  54 N :   -0.050998
  55 C :   -0.026108
  56 N :   -0.046944
  57 C :   -0.021591
  58 C :   -0.051001
  59 C :    0.083100
  60 O :   -0.134494
  61 C :    0.022809
  62 C :   -0.031758
  63 C :   -0.142844
  64 C :   -0.009083
  65 S :    0.433929
  66 C :   -0.270422
  67 C :   -0.070306
  68 Br:    0.138741
  69 H :    0.030638
  70 H :    0.025545
  71 H :    0.032304
  72 H :    0.030798
  73 H :    0.031502
  74 H :    0.032462
  75 H :    0.040383
  76 H :    0.085224
  77 H :    0.045079
  78 H :    0.029941
  79 H :    0.022751
  80 H :    0.032617
  81 H :    0.034105
  82 H :    0.032051
  83 H :    0.032333
  84 H :    0.033520
  85 H :    0.033523
  86 H :    0.012597
  87 H :    0.029233
  88 H :    0.032140
  89 H :    0.032564
  90 H :    0.034391
  91 H :    0.039051
  92 H :    0.047056
  93 H :    0.041245
  94 H :    0.041390
  95 H :    0.039246

  Mayer bond orders larger than 0.100000
B(  0-C ,  1-C ) :   1.8664 B(  0-C , 69-H ) :   0.9445 B(  0-C , 70-H ) :   0.9357
B(  1-C ,  2-C ) :   1.0776 B(  1-C ,  5-S ) :   1.0096 B(  2-C ,  3-C ) :   1.6544
B(  2-C , 71-H ) :   0.9930 B(  3-C ,  4-C ) :   1.1513 B(  3-C , 72-H ) :   0.9918
B(  4-C ,  5-S ) :   1.0399 B(  4-C ,  6-C ) :   1.5760 B(  6-C ,  7-C ) :   1.1568
B(  6-C , 10-S ) :   1.0301 B(  7-C ,  8-C ) :   1.6322 B(  7-C , 73-H ) :   0.9948
B(  8-C ,  9-C ) :   1.1286 B(  8-C , 74-H ) :   0.9977 B(  9-C , 10-S ) :   1.0067
B(  9-C , 11-C ) :   1.6385 B( 11-C , 12-N ) :   1.1301 B( 11-C , 75-H ) :   0.9527
B( 12-N , 13-C ) :   1.2012 B( 12-N , 76-H ) :   0.9007 B( 13-C , 14-S ) :   1.1338
B( 13-C , 20-C ) :   1.3554 B( 14-S , 15-C ) :   1.0726 B( 15-C , 16-N ) :   0.9819
B( 15-C , 19-C ) :   1.4817 B( 16-N , 17-O ) :   1.5276 B( 16-N , 18-O ) :   1.5025
B( 17-O , 18-O ) :   0.2539 B( 19-C , 20-C ) :   1.2266 B( 19-C , 77-H ) :   1.0070
B( 20-C , 21-C ) :   1.0739 B( 21-C , 22-C ) :   1.6672 B( 21-C , 78-H ) :   0.9757
B( 22-C , 23-C ) :   1.1530 B( 22-C , 79-H ) :   0.9502 B( 23-C , 24-C ) :   1.5748
B( 23-C , 80-H ) :   0.9886 B( 24-C , 25-C ) :   1.1336 B( 24-C , 28-S ) :   1.0327
B( 25-C , 26-C ) :   1.5997 B( 25-C , 81-H ) :   0.9979 B( 26-C , 27-C ) :   1.1818
B( 26-C , 82-H ) :   0.9933 B( 27-C , 28-S ) :   1.0510 B( 27-C , 29-C ) :   1.5160
B( 29-C , 30-C ) :   1.1733 B( 29-C , 33-S ) :   1.0388 B( 30-C , 31-C ) :   1.6050
B( 30-C , 83-H ) :   0.9926 B( 31-C , 32-C ) :   1.1233 B( 31-C , 84-H ) :   1.0003
B( 32-C , 33-S ) :   1.0352 B( 32-C , 34-C ) :   1.5894 B( 34-C , 35-C ) :   1.1109
B( 34-C , 85-H ) :   0.9727 B( 35-C , 36-C ) :   1.3386 B( 35-C , 40-C ) :   1.2155
B( 36-C , 37-C ) :   1.3725 B( 36-C , 86-H ) :   0.9690 B( 37-C , 38-C ) :   1.3946
B( 37-C , 87-H ) :   0.9954 B( 38-C , 39-C ) :   1.3071 B( 38-C , 44-C ) :   0.9770
B( 39-C , 40-C ) :   1.4029 B( 39-C , 41-C ) :   0.9021 B( 40-C , 88-H ) :   1.0205
B( 41-C , 42-O ) :   2.3210 B( 41-C , 43-C ) :   0.9019 B( 43-C , 44-C ) :   1.3124
B( 43-C , 48-C ) :   1.3966 B( 44-C , 45-C ) :   1.3716 B( 45-C , 46-C ) :   1.3753
B( 45-C , 89-H ) :   1.0009 B( 46-C , 47-C ) :   1.3558 B( 46-C , 90-H ) :   0.9754
B( 47-C , 48-C ) :   1.2365 B( 47-C , 49-C ) :   1.0904 B( 48-C , 91-H ) :   1.0157
B( 49-C , 50-C ) :   1.6335 B( 49-C , 92-H ) :   0.9524 B( 50-C , 51-C ) :   1.0460
B( 50-C , 59-C ) :   0.9318 B( 51-C , 52-C ) :   1.6525 B( 51-C , 57-C ) :   1.0112
B( 52-C , 53-C ) :   1.1387 B( 52-C , 55-C ) :   1.1387 B( 53-C , 54-N ) :   2.9742
B( 55-C , 56-N ) :   2.9977 B( 57-C , 58-C ) :   1.2707 B( 57-C , 64-C ) :   1.4046
B( 58-C , 59-C ) :   0.9465 B( 58-C , 61-C ) :   1.4216 B( 59-C , 60-O ) :   2.2252
B( 61-C , 62-C ) :   1.2482 B( 61-C , 93-H ) :   1.0165 B( 62-C , 63-C ) :   1.3036
B( 62-C , 67-C ) :   1.1622 B( 63-C , 64-C ) :   1.3338 B( 63-C , 65-S ) :   1.0865
B( 64-C , 94-H ) :   0.9804 B( 65-S , 66-C ) :   1.0867 B( 66-C , 67-C ) :   1.6184
B( 66-C , 68-Br) :   1.0197 B( 67-C , 95-H ) :   1.0003

-----------------------------------------------------------------------------
         ABSORPTION SPECTRUM VIA TRANSITION ELECTRIC DIPOLE MOMENTS
-----------------------------------------------------------------------------
State   Energy  Wavelength   fosc         T2         TX        TY        TZ
        (cm-1)    (nm)                  (au**2)     (au)      (au)      (au)
-----------------------------------------------------------------------------
   0   11327.4    882.8   0.039604770   1.15105  -0.18215   1.02697  -0.25138
   1   14358.2    696.5   0.295826548   6.78288   1.51994  -2.09702  -0.27414
   2   16378.2    610.6   0.762641237  15.32955   3.05220  -2.32211  -0.78829
   3   17200.0    581.4   0.057777036   1.10586   0.76833  -0.71209  -0.09195
   4   19523.3    512.2   0.634164559  10.69364  -1.51817   2.60463   1.26678
   5   20132.8    496.7   0.399827658   6.53800  -0.29179  -2.17067  -1.31949
   6   21325.7    468.9   0.784132015  12.10490  -0.56695   2.81810   1.96005
   7   23028.2    434.2   0.040994896   0.58606  -0.45761   0.60325   0.11288
   8   23953.1    417.5   0.248363782   3.41351  -1.74608   0.47446  -0.37364
   9   23988.3    416.9   0.374547421   5.14023  -2.20343  -0.28276  -0.45294
  10   24789.6    403.4   0.139618644   1.85417  -0.20291   1.18697   0.63568
  11   25544.9    391.5   0.139969487   1.80387  -1.09222   0.71223  -0.32194
  12   25684.9    389.3   0.054511235   0.69869   0.71870  -0.12108  -0.40928
  13   26210.9    381.5   0.066228191   0.83183  -0.83940  -0.32069  -0.15623
  14   26400.5    378.8   0.206009134   2.56891  -0.78706   1.28068   0.55616
  15   27839.4    359.2   0.034553707   0.40861   0.57327  -0.20151   0.19840
  16   28180.1    354.9   0.355536500   4.15353  -0.85893   0.28086  -1.82672
  17   28604.0    349.6   0.134244826   1.54506  -1.15662  -0.45079   0.06383
  18   29008.9    344.7   0.097018545   1.10103   1.01143   0.27127  -0.06681
  19   29391.7    340.2   0.058581687   0.65616  -0.30143   0.03570  -0.75102
  20   29589.0    338.0   0.009962965   0.11085  -0.12054   0.00530  -0.31031
  21   30510.7    327.8   0.005775203   0.06231   0.16383  -0.07100  -0.17445
  22   30630.0    326.5   0.025230202   0.27117  -0.17190   0.34810   0.34706
  23   31002.4    322.6   0.256186976   2.72043  -1.40502  -0.64090  -0.57931
  24   31314.6    319.3   0.038574062   0.40553   0.61686   0.01381   0.15755
  25   31477.9    317.7   0.049132731   0.51386  -0.51116  -0.48324  -0.13804
  26   32066.4    311.9   0.097632223   1.00235   0.61899  -0.21698   0.75638
  27   32453.7    308.1   0.231652407   2.34989  -1.14310   0.39990  -0.93984
  28   32802.4    304.9   0.010256270   0.10293   0.17653   0.23487   0.12888
  29   33142.2    301.7   0.184904694   1.83672  -1.00209  -0.32374  -0.85307
  30   33653.8    297.1   0.109209086   1.06832  -0.14475  -0.27164   0.98670
  31   33732.2    296.5   0.429375401   4.19052   0.07319   0.37095  -2.01185
  32   33779.7    296.0   0.079618453   0.77595  -0.34787  -0.00575  -0.80926
  33   33901.0    295.0   0.018949043   0.18401   0.28276   0.25522   0.19728
  34   34097.7    293.3   0.051569520   0.49790  -0.29474   0.12574  -0.62866
  35   34605.6    289.0   0.192866701   1.83479  -1.22724   0.13685  -0.55673
  36   34739.1    287.9   0.079380141   0.75226  -0.17028  -0.78054  -0.33768
  37   34831.4    287.1   0.046475866   0.43927  -0.19246   0.57745   0.26227
  38   35374.4    282.7   0.004962229   0.04618   0.00517   0.13985   0.16309
  39   35652.8    280.5   0.015630796   0.14433  -0.37921   0.02036  -0.01092
  40   35952.6    278.1   0.016820029   0.15402   0.33235  -0.20741  -0.02330
  41   36135.4    276.7   0.012356381   0.11257  -0.21579   0.19227   0.17041
  42   36604.2    273.2   0.070264967   0.63195   0.73984  -0.28934  -0.02942
  43   36713.8    272.4   0.120213585   1.07795  -0.79091  -0.25435  -0.62268
  44   37054.6    269.9   0.098220060   0.87264   0.75684   0.41677   0.35516
  45   37144.6    269.2   0.060520228   0.53639  -0.62594  -0.31774  -0.20886
  46   37325.5    267.9   0.089369333   0.78824   0.72514  -0.49769  -0.12131
  47   37643.9    265.6   0.017804547   0.15571  -0.34857   0.16759  -0.07822
  48   37835.3    264.3   0.062822088   0.54663  -0.73283  -0.06694   0.07146
  49   37990.4    263.2   0.015602066   0.13520   0.29436  -0.19058  -0.11062
  50   38282.3    261.2   0.005689330   0.04893   0.14315  -0.15940  -0.05502
  51   38439.5    260.1   0.018648956   0.15972   0.32659  -0.23013   0.00988
  52   38626.2    258.9   0.007707738   0.06569  -0.10842   0.16566   0.16278
  53   38688.2    258.5   0.012003623   0.10214  -0.28998  -0.12579   0.04726
  54   38872.1    257.3   0.033255038   0.28164  -0.43621  -0.01886  -0.30167
  55   38888.7    257.1   0.022457126   0.19011  -0.24664  -0.18224  -0.30995
  56   39253.6    254.8   0.222797636   1.86856  -1.19553   0.62475   0.22123
  57   39298.5    254.5   0.014493043   0.12141  -0.06790   0.12795  -0.31691
  58   39537.4    252.9   0.017238666   0.14354  -0.34095  -0.06519  -0.15180
  59   39895.4    250.7   0.050185859   0.41413   0.24382   0.42552   0.41667
  60   39966.6    250.2   0.026175209   0.21561  -0.30976   0.33840  -0.07175
  61   40130.2    249.2   0.020779675   0.17047  -0.32172   0.05099   0.25370
  62   40303.2    248.1   0.052760212   0.43097  -0.22584   0.39973   0.46923

FINAL SINGLE POINT ENERGY     -7552.783296670965

DIPOLE MOMENT
-------------
                                X             Y             Z
Electronic contribution:    158.74713     -81.37517      88.65101
Nuclear contribution   :   -162.58377      80.56439     -88.44328
                        -----------------------------------------
Total Dipole Moment    :     -3.83664      -0.81077       0.20773
                        -----------------------------------------
Magnitude (a.u.)       :      3.92687
Magnitude (Debye)      :      9.98130

Rotational constants in cm-1:     0.001101     0.000262     0.000231
Rotational constants in MHz :    32.997821     7.856396     6.928235

                             ****ORCA TERMINATED NORMALLY****
TOTAL RUN TIME: 0 days 0 hours 11 minutes 9 seconds 197 msec
