                         Program Version 4.2.0 -  RELEASE  -
|  1> # ORCA input file
|  2> # SCF done       -209.721737920768          0.000537893478
|  3> ! CAM-B3LYP def2-SVP def2/J RIJCOSX Grid4 TightSCF
|  4> %maxcore 5000
|  5> %tddft
|  6>     Mode sTDDFT
|  7>     Ethresh 5.0
|  8>     maxcore 5000
|  9> end
| 10>
| 11> %pal
| 12>   nprocs 6
| 13>   end
| 14> * xyz 0 1
| 15>    C       -4.52174        -2.07021        -0.88467
| 16>    C       -5.10408        -2.82875         0.09681
| 17>    C       -6.47643        -3.15063         0.13310
| 18>    N       -7.58037        -3.45512         0.20569
| 19>    C       -4.41441        -3.29073         1.23707
| 20>    N       -3.90223        -3.65140         2.19917
| 21>    C       -5.24503        -1.31795        -1.90665
| 22>    C       -4.41958        -0.27776        -2.37297
| 23>    C       -4.86263         0.62876        -3.31439
| 24>    C       -6.15395         0.48857        -3.80896
| 25>    C       -6.97566        -0.55182        -3.35811
| 26>    C       -6.52961        -1.45845        -2.40246
| 27>   Cl       -8.56268        -0.71931        -3.98886
| 28>   Cl       -6.74168         1.59790        -4.97913
| 29>    C       -3.09831        -0.35918        -1.71166
| 30>    O       -2.16062         0.39342        -1.82339
| 31>    C       -3.14784        -1.61453        -0.91276
| 32>    C       -1.99729        -2.14994        -0.41992
| 33>    C       -1.74281        -3.47547         0.00113
| 34>    C       -0.74162        -3.87576         0.87186
| 35>    C       -0.74777        -5.24915         1.08725
| 36>    C       -1.72764        -5.91825         0.32213
| 37>    S       -2.65804        -4.85077        -0.62217
| 38>    C       -1.65849        -7.30005         0.60913
| 39>    C       -0.66035        -7.50668         1.57905
| 40>    C       -0.04428        -6.22567         1.89710
| 41>    C        0.98028        -6.00137         2.76896
| 42>    C        1.57971        -7.04714         3.50214
| 43>    N        2.06704        -7.90070         4.09266
| 44>    C        1.51853        -4.71464         2.98378
| 45>    N        1.96697        -3.67378         3.15547
| 46>    C       -0.54309        -8.83789         1.96382
| 47>    C       -1.42644        -9.65848         1.27964
| 48>    S       -2.42427        -8.75628         0.14599
| 49>    C       -1.58723       -11.06550         1.43400
| 50>    C       -2.28156       -11.84308         0.53581
| 51>    C       -2.47535       -13.21555         0.65974
| 52>    C       -1.98087       -13.94673         1.82842
| 53>    C       -1.25522       -13.38883         2.82259
| 54>    S       -0.82604       -11.73136         2.87413
| 55>    C       -2.39755       -15.29149         1.63434
| 56>    C       -3.07627       -15.41452         0.41826
| 57>    C       -3.51878       -16.74095         0.20803
| 58>    C       -3.16569       -17.56002         1.23332
| 59>    S       -2.28729       -16.77097         2.49585
| 60>    C       -3.11384       -14.12090        -0.21982
| 61>    C       -3.59408       -13.78011        -1.50036
| 62>    C       -4.03346       -14.66016        -2.44368
| 63>    C       -4.40792       -14.30638        -3.75802
| 64>    C       -4.46492       -13.05073        -4.35561
| 65>    C       -4.81650       -13.12434        -5.69646
| 66>    C       -5.03813       -14.44388        -6.14349
| 67>    S       -4.81888       -15.58757        -4.89227
| 68>    C       -5.35727       -14.42000        -7.51617
| 69>    C       -5.34383       -13.06627        -7.94628
| 70>    C       -5.00480       -12.21621        -6.81842
| 71>    C       -4.86674       -10.85883        -6.80439
| 72>    C       -5.06354       -10.06733        -7.95582
| 73>    N       -5.22210        -9.41533        -8.88524
| 74>    C       -4.50366       -10.15923        -5.63516
| 75>    N       -4.19857        -9.59490        -4.68402
| 76>    C       -5.62726       -12.94436        -9.29085
| 77>    C       -5.84908       -14.18223        -9.91178
| 78>    S       -5.70303       -15.52183        -8.76777
| 79>    C       -6.14012       -14.28150       -11.27714
| 80>    C       -6.34906       -15.38728       -12.06746
| 81>    C       -6.63872       -15.37628       -13.48849
| 82>    C       -6.79700       -14.28554       -14.30318
| 83>    C       -7.07604       -14.36476       -15.68459
| 84>    N       -7.29946       -14.35482       -16.81031
| 85>    C       -6.71271       -12.93496       -13.90300
| 86>    N       -6.66377       -11.81301       -13.66261
| 87>    C       -6.74233       -16.76992       -13.92247
| 88>    C       -6.53095       -17.60743       -12.81339
| 89>    C       -6.28772       -16.77953       -11.61765
| 90>    O       -6.07743       -17.18944       -10.48885
| 91>    C       -6.56500       -18.98259       -12.91754
| 92>    C       -6.81911       -19.54113       -14.16414
| 93>    C       -7.03448       -18.71707       -15.27404
| 94>    C       -6.99764       -17.33059       -15.16271
| 95>   Cl       -7.35098       -19.41911       -16.80862
| 96>   Cl       -6.86894       -21.24839       -14.33881
| 97>    H       -4.22209         1.42691        -3.65475
| 98>    H       -7.18450        -2.25094        -2.07817
| 99>    H       -1.14126        -1.48149        -0.40799
|100>    H       -0.07936        -3.17648         1.34949
|101>    H        0.15170        -9.20913         2.69543
|102>    H       -2.69520       -11.33197        -0.32382
|103>    H       -0.88191       -13.95798         3.65918
|104>    H       -4.08099       -17.09233        -0.63708
|105>    H       -3.37221       -18.60769         1.33292
|106>    H       -3.55326       -12.73129        -1.75887
|107>    H       -4.06089       -15.71415        -2.21676
|108>    H       -4.25442       -12.13855        -3.82936
|109>    H       -5.67451       -12.01721        -9.83467
|110>    H       -6.19398       -13.31654       -11.76640
|111>    H       -6.39823       -19.60519       -12.05282
|112>    H       -7.16780       -16.73097       -16.04155
|113> *
|114>
|115>                          ****END OF INPUT****

CARTESIAN COORDINATES (ANGSTROEM)
---------------------------------
  C     -4.521740   -2.070210   -0.884670
  C     -5.104080   -2.828750    0.096810
  C     -6.476430   -3.150630    0.133100
  N     -7.580370   -3.455120    0.205690
  C     -4.414410   -3.290730    1.237070
  N     -3.902230   -3.651400    2.199170
  C     -5.245030   -1.317950   -1.906650
  C     -4.419580   -0.277760   -2.372970
  C     -4.862630    0.628760   -3.314390
  C     -6.153950    0.488570   -3.808960
  C     -6.975660   -0.551820   -3.358110
  C     -6.529610   -1.458450   -2.402460
  Cl    -8.562680   -0.719310   -3.988860
  Cl    -6.741680    1.597900   -4.979130
  C     -3.098310   -0.359180   -1.711660
  O     -2.160620    0.393420   -1.823390
  C     -3.147840   -1.614530   -0.912760
  C     -1.997290   -2.149940   -0.419920
  C     -1.742810   -3.475470    0.001130
  C     -0.741620   -3.875760    0.871860
  C     -0.747770   -5.249150    1.087250
  C     -1.727640   -5.918250    0.322130
  S     -2.658040   -4.850770   -0.622170
  C     -1.658490   -7.300050    0.609130
  C     -0.660350   -7.506680    1.579050
  C     -0.044280   -6.225670    1.897100
  C      0.980280   -6.001370    2.768960
  C      1.579710   -7.047140    3.502140
  N      2.067040   -7.900700    4.092660
  C      1.518530   -4.714640    2.983780
  N      1.966970   -3.673780    3.155470
  C     -0.543090   -8.837890    1.963820
  C     -1.426440   -9.658480    1.279640
  S     -2.424270   -8.756280    0.145990
  C     -1.587230  -11.065500    1.434000
  C     -2.281560  -11.843080    0.535810
  C     -2.475350  -13.215550    0.659740
  C     -1.980870  -13.946730    1.828420
  C     -1.255220  -13.388830    2.822590
  S     -0.826040  -11.731360    2.874130
  C     -2.397550  -15.291490    1.634340
  C     -3.076270  -15.414520    0.418260
  C     -3.518780  -16.740950    0.208030
  C     -3.165690  -17.560020    1.233320
  S     -2.287290  -16.770970    2.495850
  C     -3.113840  -14.120900   -0.219820
  C     -3.594080  -13.780110   -1.500360
  C     -4.033460  -14.660160   -2.443680
  C     -4.407920  -14.306380   -3.758020
  C     -4.464920  -13.050730   -4.355610
  C     -4.816500  -13.124340   -5.696460
  C     -5.038130  -14.443880   -6.143490
  S     -4.818880  -15.587570   -4.892270
  C     -5.357270  -14.420000   -7.516170
  C     -5.343830  -13.066270   -7.946280
  C     -5.004800  -12.216210   -6.818420
  C     -4.866740  -10.858830   -6.804390
  C     -5.063540  -10.067330   -7.955820
  N     -5.222100   -9.415330   -8.885240
  C     -4.503660  -10.159230   -5.635160
  N     -4.198570   -9.594900   -4.684020
  C     -5.627260  -12.944360   -9.290850
  C     -5.849080  -14.182230   -9.911780
  S     -5.703030  -15.521830   -8.767770
  C     -6.140120  -14.281500  -11.277140
  C     -6.349060  -15.387280  -12.067460
  C     -6.638720  -15.376280  -13.488490
  C     -6.797000  -14.285540  -14.303180
  C     -7.076040  -14.364760  -15.684590
  N     -7.299460  -14.354820  -16.810310
  C     -6.712710  -12.934960  -13.903000
  N     -6.663770  -11.813010  -13.662610
  C     -6.742330  -16.769920  -13.922470
  C     -6.530950  -17.607430  -12.813390
  C     -6.287720  -16.779530  -11.617650
  O     -6.077430  -17.189440  -10.488850
  C     -6.565000  -18.982590  -12.917540
  C     -6.819110  -19.541130  -14.164140
  C     -7.034480  -18.717070  -15.274040
  C     -6.997640  -17.330590  -15.162710
  Cl    -7.350980  -19.419110  -16.808620
  Cl    -6.868940  -21.248390  -14.338810
  H     -4.222090    1.426910   -3.654750
  H     -7.184500   -2.250940   -2.078170
  H     -1.141260   -1.481490   -0.407990
  H     -0.079360   -3.176480    1.349490
  H      0.151700   -9.209130    2.695430
  H     -2.695200  -11.331970   -0.323820
  H     -0.881910  -13.957980    3.659180
  H     -4.080990  -17.092330   -0.637080
  H     -3.372210  -18.607690    1.332920
  H     -3.553260  -12.731290   -1.758870
  H     -4.060890  -15.714150   -2.216760
  H     -4.254420  -12.138550   -3.829360
  H     -5.674510  -12.017210   -9.834670
  H     -6.193980  -13.316540  -11.766400
  H     -6.398230  -19.605190  -12.052820
  H     -7.167800  -16.730970  -16.041550

 Total Charge           Charge          ....    0
 Multiplicity           Mult            ....    1
 Number of Electrons    NEL             ....  624
 Basis Dimension        Dim             .... 1268

ORBITAL ENERGIES
----------------

  NO   OCC          E(Eh)            E(eV)
   0   2.0000    -101.604030     -2764.7862
   1   2.0000    -101.603293     -2764.7662
   2   2.0000    -101.602614     -2764.7477
   3   2.0000    -101.600570     -2764.6921
   4   2.0000     -89.004762     -2421.9427
   5   2.0000     -89.003144     -2421.8987
   6   2.0000     -88.993501     -2421.6363
   7   2.0000     -88.993088     -2421.6250
   8   2.0000     -88.991298     -2421.5763
   9   2.0000     -88.971007     -2421.0242
  10   2.0000     -19.230229      -523.2811
  11   2.0000     -19.226391      -523.1767
  12   2.0000     -14.440132      -392.9360
  13   2.0000     -14.438866      -392.9015
  14   2.0000     -14.438370      -392.8880
  15   2.0000     -14.434197      -392.7745
  16   2.0000     -14.425142      -392.5281
  17   2.0000     -14.424986      -392.5238
  18   2.0000     -14.420946      -392.4139
  19   2.0000     -14.417402      -392.3175
  20   2.0000     -10.378571      -282.4153
  21   2.0000     -10.378260      -282.4068
  22   2.0000     -10.375939      -282.3437
  23   2.0000     -10.369963      -282.1810
  24   2.0000     -10.362542      -281.9791
  25   2.0000     -10.361702      -281.9562
  26   2.0000     -10.360920      -281.9350
  27   2.0000     -10.358779      -281.8767
  28   2.0000     -10.358266      -281.8628
  29   2.0000     -10.357843      -281.8512
  30   2.0000     -10.355652      -281.7916
  31   2.0000     -10.354387      -281.7572
  32   2.0000     -10.352256      -281.6992
  33   2.0000     -10.347478      -281.5692
  34   2.0000     -10.347139      -281.5600
  35   2.0000     -10.346908      -281.5537
  36   2.0000     -10.345090      -281.5042
  37   2.0000     -10.344358      -281.4843
  38   2.0000     -10.344247      -281.4813
  39   2.0000     -10.340128      -281.3692
  40   2.0000     -10.339499      -281.3521
  41   2.0000     -10.339425      -281.3500
  42   2.0000     -10.338529      -281.3257
  43   2.0000     -10.335294      -281.2377
  44   2.0000     -10.334384      -281.2129
  45   2.0000     -10.334018      -281.2029
  46   2.0000     -10.333734      -281.1952
  47   2.0000     -10.331634      -281.1380
  48   2.0000     -10.330023      -281.0942
  49   2.0000     -10.328048      -281.0405
  50   2.0000     -10.327030      -281.0128
  51   2.0000     -10.326946      -281.0105
  52   2.0000     -10.323253      -280.9100
  53   2.0000     -10.322888      -280.9001
  54   2.0000     -10.320468      -280.8342
  55   2.0000     -10.320200      -280.8269
  56   2.0000     -10.320006      -280.8216
  57   2.0000     -10.317976      -280.7664
  58   2.0000     -10.317372      -280.7500
  59   2.0000     -10.317308      -280.7482
  60   2.0000     -10.315381      -280.6958
  61   2.0000     -10.315184      -280.6904
  62   2.0000     -10.315140      -280.6892
  63   2.0000     -10.315048      -280.6867
  64   2.0000     -10.314932      -280.6836
  65   2.0000     -10.314329      -280.6672
  66   2.0000     -10.312402      -280.6147
  67   2.0000     -10.310657      -280.5673
  68   2.0000     -10.310125      -280.5528
  69   2.0000     -10.308839      -280.5178
  70   2.0000     -10.308415      -280.5062
  71   2.0000     -10.307793      -280.4893
  72   2.0000     -10.305699      -280.4323
  73   2.0000     -10.304380      -280.3964
  74   2.0000     -10.304202      -280.3916
  75   2.0000     -10.302780      -280.3529
  76   2.0000     -10.301635      -280.3217
  77   2.0000     -10.301357      -280.3142
  78   2.0000     -10.296596      -280.1846
  79   2.0000     -10.294284      -280.1217
  80   2.0000     -10.290925      -280.0303
  81   2.0000     -10.289664      -279.9960
  82   2.0000      -9.559022      -260.1142
  83   2.0000      -9.558368      -260.0964
  84   2.0000      -9.557643      -260.0767
  85   2.0000      -9.555568      -260.0202
  86   2.0000      -8.098932      -220.3831
  87   2.0000      -8.097203      -220.3361
  88   2.0000      -8.088742      -220.1059
  89   2.0000      -8.087876      -220.0823
  90   2.0000      -8.083757      -219.9702
  91   2.0000      -8.066550      -219.5020
  92   2.0000      -7.329435      -199.4441
  93   2.0000      -7.328788      -199.4265
  94   2.0000      -7.328020      -199.4056
  95   2.0000      -7.325970      -199.3498
  96   2.0000      -7.319282      -199.1678
  97   2.0000      -7.318612      -199.1496
  98   2.0000      -7.318528      -199.1473
  99   2.0000      -7.317910      -199.1304
 100   2.0000      -7.317862      -199.1291
 101   2.0000      -7.317185      -199.1107
 102   2.0000      -7.315821      -199.0736
 103   2.0000      -7.315091      -199.0538
 104   2.0000      -6.068268      -165.1260
 105   2.0000      -6.066469      -165.0770
 106   2.0000      -6.064050      -165.0112
 107   2.0000      -6.062251      -164.9622
 108   2.0000      -6.061205      -164.9338
 109   2.0000      -6.059621      -164.8907
 110   2.0000      -6.058357      -164.8563
 111   2.0000      -6.057047      -164.8206
 112   2.0000      -6.053731      -164.7304
 113   2.0000      -6.053236      -164.7169
 114   2.0000      -6.052966      -164.7096
 115   2.0000      -6.050562      -164.6442
 116   2.0000      -6.050281      -164.6365
 117   2.0000      -6.048454      -164.5868
 118   2.0000      -6.046195      -164.5253
 119   2.0000      -6.035952      -164.2466
 120   2.0000      -6.031688      -164.1306
 121   2.0000      -6.028618      -164.0470
 122   2.0000      -1.145852       -31.1802
 123   2.0000      -1.142157       -31.0797
 124   2.0000      -1.058453       -28.8020
 125   2.0000      -1.049794       -28.5664
 126   2.0000      -1.037747       -28.2385
 127   2.0000      -1.033632       -28.1265
 128   2.0000      -1.032019       -28.0827
 129   2.0000      -1.027849       -27.9692
 130   2.0000      -1.025791       -27.9132
 131   2.0000      -1.023115       -27.8404
 132   2.0000      -1.018914       -27.7261
 133   2.0000      -1.016973       -27.6732
 134   2.0000      -1.013635       -27.5824
 135   2.0000      -1.012879       -27.5618
 136   2.0000      -1.003017       -27.2935
 137   2.0000      -1.002307       -27.2742
 138   2.0000      -0.998917       -27.1819
 139   2.0000      -0.997893       -27.1541
 140   2.0000      -0.993889       -27.0451
 141   2.0000      -0.987992       -26.8846
 142   2.0000      -0.969288       -26.3757
 143   2.0000      -0.966245       -26.2929
 144   2.0000      -0.966128       -26.2897
 145   2.0000      -0.963783       -26.2259
 146   2.0000      -0.945839       -25.7376
 147   2.0000      -0.942254       -25.6400
 148   2.0000      -0.937989       -25.5240
 149   2.0000      -0.930496       -25.3201
 150   2.0000      -0.925174       -25.1753
 151   2.0000      -0.913936       -24.8695
 152   2.0000      -0.906978       -24.6801
 153   2.0000      -0.900941       -24.5158
 154   2.0000      -0.893104       -24.3026
 155   2.0000      -0.885735       -24.1021
 156   2.0000      -0.879769       -23.9397
 157   2.0000      -0.872081       -23.7305
 158   2.0000      -0.870350       -23.6834
 159   2.0000      -0.866691       -23.5839
 160   2.0000      -0.865173       -23.5426
 161   2.0000      -0.863523       -23.4977
 162   2.0000      -0.860030       -23.4026
 163   2.0000      -0.850969       -23.1560
 164   2.0000      -0.834955       -22.7203
 165   2.0000      -0.820588       -22.3293
 166   2.0000      -0.809158       -22.0183
 167   2.0000      -0.801441       -21.8083
 168   2.0000      -0.790889       -21.5212
 169   2.0000      -0.784960       -21.3598
 170   2.0000      -0.781154       -21.2563
 171   2.0000      -0.774285       -21.0694
 172   2.0000      -0.771425       -20.9915
 173   2.0000      -0.765078       -20.8188
 174   2.0000      -0.747605       -20.3434
 175   2.0000      -0.743868       -20.2417
 176   2.0000      -0.723946       -19.6996
 177   2.0000      -0.720753       -19.6127
 178   2.0000      -0.713879       -19.4256
 179   2.0000      -0.711158       -19.3516
 180   2.0000      -0.702561       -19.1177
 181   2.0000      -0.699667       -19.0389
 182   2.0000      -0.697302       -18.9746
 183   2.0000      -0.694865       -18.9083
 184   2.0000      -0.690835       -18.7986
 185   2.0000      -0.688892       -18.7457
 186   2.0000      -0.680397       -18.5145
 187   2.0000      -0.673616       -18.3300
 188   2.0000      -0.669505       -18.2181
 189   2.0000      -0.663048       -18.0425
 190   2.0000      -0.655239       -17.8300
 191   2.0000      -0.645110       -17.5543
 192   2.0000      -0.643331       -17.5059
 193   2.0000      -0.637713       -17.3530
 194   2.0000      -0.632425       -17.2092
 195   2.0000      -0.631042       -17.1715
 196   2.0000      -0.628312       -17.0972
 197   2.0000      -0.626967       -17.0606
 198   2.0000      -0.622832       -16.9481
 199   2.0000      -0.621457       -16.9107
 200   2.0000      -0.619027       -16.8446
 201   2.0000      -0.605054       -16.4643
 202   2.0000      -0.598839       -16.2952
 203   2.0000      -0.596777       -16.2391
 204   2.0000      -0.590878       -16.0786
 205   2.0000      -0.588042       -16.0014
 206   2.0000      -0.578904       -15.7528
 207   2.0000      -0.575337       -15.6557
 208   2.0000      -0.572207       -15.5705
 209   2.0000      -0.567545       -15.4437
 210   2.0000      -0.561816       -15.2878
 211   2.0000      -0.560346       -15.2478
 212   2.0000      -0.557098       -15.1594
 213   2.0000      -0.554683       -15.0937
 214   2.0000      -0.554479       -15.0882
 215   2.0000      -0.551750       -15.0139
 216   2.0000      -0.549200       -14.9445
 217   2.0000      -0.548486       -14.9251
 218   2.0000      -0.545005       -14.8303
 219   2.0000      -0.543370       -14.7858
 220   2.0000      -0.539500       -14.6805
 221   2.0000      -0.534731       -14.5508
 222   2.0000      -0.533599       -14.5200
 223   2.0000      -0.529696       -14.4138
 224   2.0000      -0.528555       -14.3827
 225   2.0000      -0.526833       -14.3359
 226   2.0000      -0.522659       -14.2223
 227   2.0000      -0.519204       -14.1283
 228   2.0000      -0.515549       -14.0288
 229   2.0000      -0.514574       -14.0023
 230   2.0000      -0.513253       -13.9663
 231   2.0000      -0.513093       -13.9620
 232   2.0000      -0.510369       -13.8878
 233   2.0000      -0.509079       -13.8527
 234   2.0000      -0.507087       -13.7986
 235   2.0000      -0.505705       -13.7609
 236   2.0000      -0.502913       -13.6850
 237   2.0000      -0.502269       -13.6674
 238   2.0000      -0.499294       -13.5865
 239   2.0000      -0.496386       -13.5073
 240   2.0000      -0.494632       -13.4596
 241   2.0000      -0.490040       -13.3347
 242   2.0000      -0.489253       -13.3132
 243   2.0000      -0.485777       -13.2187
 244   2.0000      -0.482856       -13.1392
 245   2.0000      -0.481752       -13.1091
 246   2.0000      -0.475790       -12.9469
 247   2.0000      -0.473238       -12.8775
 248   2.0000      -0.472665       -12.8619
 249   2.0000      -0.470066       -12.7912
 250   2.0000      -0.469410       -12.7733
 251   2.0000      -0.468169       -12.7395
 252   2.0000      -0.466045       -12.6817
 253   2.0000      -0.464107       -12.6290
 254   2.0000      -0.462335       -12.5808
 255   2.0000      -0.458797       -12.4845
 256   2.0000      -0.457346       -12.4450
 257   2.0000      -0.454070       -12.3559
 258   2.0000      -0.452346       -12.3090
 259   2.0000      -0.451448       -12.2845
 260   2.0000      -0.450388       -12.2557
 261   2.0000      -0.449443       -12.2300
 262   2.0000      -0.449196       -12.2232
 263   2.0000      -0.446607       -12.1528
 264   2.0000      -0.446483       -12.1494
 265   2.0000      -0.446180       -12.1412
 266   2.0000      -0.445860       -12.1325
 267   2.0000      -0.444007       -12.0821
 268   2.0000      -0.443217       -12.0606
 269   2.0000      -0.441784       -12.0216
 270   2.0000      -0.441510       -12.0141
 271   2.0000      -0.439889       -11.9700
 272   2.0000      -0.438163       -11.9230
 273   2.0000      -0.437407       -11.9024
 274   2.0000      -0.434206       -11.8154
 275   2.0000      -0.433090       -11.7850
 276   2.0000      -0.432577       -11.7710
 277   2.0000      -0.431289       -11.7360
 278   2.0000      -0.431019       -11.7286
 279   2.0000      -0.430625       -11.7179
 280   2.0000      -0.428318       -11.6551
 281   2.0000      -0.425751       -11.5853
 282   2.0000      -0.422770       -11.5042
 283   2.0000      -0.417807       -11.3691
 284   2.0000      -0.413247       -11.2450
 285   2.0000      -0.412165       -11.2156
 286   2.0000      -0.409238       -11.1359
 287   2.0000      -0.409134       -11.1331
 288   2.0000      -0.407547       -11.0899
 289   2.0000      -0.405496       -11.0341
 290   2.0000      -0.396607       -10.7922
 291   2.0000      -0.385666       -10.4945
 292   2.0000      -0.383488       -10.4352
 293   2.0000      -0.380479       -10.3534
 294   2.0000      -0.374786       -10.1984
 295   2.0000      -0.361122        -9.8266
 296   2.0000      -0.355214        -9.6659
 297   2.0000      -0.353035        -9.6066
 298   2.0000      -0.351049        -9.5525
 299   2.0000      -0.348892        -9.4938
 300   2.0000      -0.346582        -9.4310
 301   2.0000      -0.343167        -9.3380
 302   2.0000      -0.338290        -9.2053
 303   2.0000      -0.331839        -9.0298
 304   2.0000      -0.330605        -8.9962
 305   2.0000      -0.323382        -8.7997
 306   2.0000      -0.317080        -8.6282
 307   2.0000      -0.313877        -8.5410
 308   2.0000      -0.300452        -8.1757
 309   2.0000      -0.287511        -7.8236
 310   2.0000      -0.270646        -7.3647
 311   2.0000      -0.234987        -6.3943
 312   0.0000      -0.123860        -3.3704
 313   0.0000      -0.114237        -3.1086
 314   0.0000      -0.096258        -2.6193
 315   0.0000      -0.092208        -2.5091
 316   0.0000      -0.078196        -2.1278

MULLIKEN ATOMIC CHARGES
-----------------------
   0 C :    0.250413
   1 C :   -0.321457
   2 C :   -0.179679
   3 N :    0.164811
   4 C :   -0.207188
   5 N :    0.178469
   6 C :    0.017041
   7 C :    0.001864
   8 C :   -0.028326
   9 C :    0.059272
  10 C :    0.052155
  11 C :   -0.013736
  12 Cl:   -0.032269
  13 Cl:   -0.038792
  14 C :    0.141328
  15 O :   -0.132380
  16 C :   -0.137595
  17 C :    0.045854
  18 C :   -0.110424
  19 C :    0.017774
  20 C :    0.025115
  21 C :   -0.079760
  22 S :    0.216220
  23 C :   -0.100800
  24 C :    0.022605
  25 C :    0.300215
  26 C :   -0.286435
  27 C :   -0.188670
  28 N :    0.177089
  29 C :   -0.189202
  30 N :    0.181731
  31 C :   -0.051590
  32 C :   -0.064319
  33 S :    0.202347
  34 C :   -0.032719
  35 C :   -0.076573
  36 C :    0.057721
  37 C :    0.060037
  38 C :   -0.114629
  39 S :    0.147297
  40 C :   -0.110235
  41 C :    0.052155
  42 C :   -0.007377
  43 C :   -0.064718
  44 S :    0.140200
  45 C :    0.089571
  46 C :   -0.010297
  47 C :    0.034766
  48 C :   -0.057640
  49 C :   -0.050497
  50 C :    0.021404
  51 C :   -0.116964
  52 S :    0.192829
  53 C :   -0.062888
  54 C :    0.041054
  55 C :    0.309127
  56 C :   -0.299292
  57 C :   -0.197107
  58 N :    0.185174
  59 C :   -0.175214
  60 N :    0.154751
  61 C :   -0.058364
  62 C :   -0.055788
  63 S :    0.237275
  64 C :   -0.027646
  65 C :   -0.099227
  66 C :    0.323335
  67 C :   -0.347821
  68 C :   -0.190318
  69 N :    0.158770
  70 C :   -0.190631
  71 N :    0.152468
  72 C :    0.028533
  73 C :   -0.014979
  74 C :    0.164958
  75 O :   -0.186105
  76 C :   -0.030180
  77 C :    0.059952
  78 C :    0.045523
  79 C :   -0.011129
  80 Cl:   -0.034141
  81 Cl:   -0.043938
  82 H :    0.002999
  83 H :    0.004673
  84 H :    0.039004
  85 H :    0.019621
  86 H :    0.023887
  87 H :   -0.004860
  88 H :    0.043045
  89 H :   -0.008724
  90 H :    0.030122
  91 H :   -0.030709
  92 H :   -0.044322
  93 H :    0.002804
  94 H :    0.028526
  95 H :    0.014277
  96 H :   -0.003032
  97 H :    0.000521
Sum of atomic charges:   -0.0000000

LOEWDIN ATOMIC CHARGES
----------------------
   0 C :    0.059832
   1 C :   -0.138386
   2 C :   -0.022860
   3 N :   -0.041796
   4 C :   -0.034168
   5 N :   -0.045274
   6 C :   -0.011848
   7 C :   -0.045486
   8 C :    0.002894
   9 C :   -0.133921
  10 C :   -0.128765
  11 C :   -0.013872
  12 Cl:    0.165728
  13 Cl:    0.162424
  14 C :    0.083846
  15 O :   -0.133260
  16 C :   -0.101817
  17 C :    0.053279
  18 C :   -0.180680
  19 C :    0.016878
  20 C :   -0.071203
  21 C :   -0.149616
  22 S :    0.510399
  23 C :   -0.185433
  24 C :   -0.051628
  25 C :    0.080082
  26 C :   -0.093610
  27 C :   -0.015800
  28 N :   -0.028319
  29 C :   -0.017393
  30 N :   -0.023710
  31 C :   -0.039329
  32 C :   -0.172269
  33 S :    0.492857
  34 C :   -0.179396
  35 C :   -0.026430
  36 C :   -0.012319
  37 C :   -0.049394
  38 C :   -0.135271
  39 S :    0.473766
  40 C :   -0.198232
  41 C :   -0.037361
  42 C :   -0.067074
  43 C :   -0.161549
  44 S :    0.433637
  45 C :   -0.049102
  46 C :    0.006214
  47 C :   -0.068178
  48 C :   -0.137069
  49 C :   -0.041738
  50 C :   -0.045701
  51 C :   -0.206405
  52 S :    0.476582
  53 C :   -0.154944
  54 C :   -0.084663
  55 C :    0.081320
  56 C :   -0.104356
  57 C :   -0.021111
  58 N :   -0.024241
  59 C :   -0.011103
  60 N :   -0.044338
  61 C :    0.017276
  62 C :   -0.188294
  63 S :    0.539553
  64 C :    0.056333
  65 C :   -0.121357
  66 C :    0.075011
  67 C :   -0.138351
  68 C :   -0.020298
  69 N :   -0.048024
  70 C :   -0.022688
  71 N :   -0.045670
  72 C :   -0.011865
  73 C :   -0.044180
  74 C :    0.084838
  75 O :   -0.173248
  76 C :   -0.000165
  77 C :   -0.135626
  78 C :   -0.130593
  79 C :   -0.011930
  80 Cl:    0.162796
  81 Cl:    0.158137
  82 H :    0.047285
  83 H :    0.044912
  84 H :    0.056200
  85 H :    0.047911
  86 H :    0.036495
  87 H :    0.029427
  88 H :    0.039937
  89 H :    0.028919
  90 H :    0.025749
  91 H :    0.028777
  92 H :    0.025428
  93 H :    0.036500
  94 H :    0.048337
  95 H :    0.053449
  96 H :    0.044983
  97 H :    0.044716

  Mayer bond orders larger than 0.100000
B(  0-C ,  1-C ) :   1.6580 B(  0-C ,  6-C ) :   1.0079 B(  0-C , 16-C ) :   1.0400
B(  1-C ,  2-C ) :   1.1306 B(  1-C ,  4-C ) :   1.1584 B(  2-C ,  3-N ) :   2.9953
B(  4-C ,  5-N ) :   3.0180 B(  6-C ,  7-C ) :   1.3302 B(  6-C , 11-C ) :   1.3436
B(  7-C ,  8-C ) :   1.3495 B(  7-C , 14-C ) :   0.9200 B(  8-C ,  9-C ) :   1.3439
B(  8-C , 82-H ) :   1.0168 B(  9-C , 10-C ) :   1.4057 B(  9-C , 13-Cl) :   1.0520
B( 10-C , 11-C ) :   1.3592 B( 10-C , 12-Cl) :   1.0721 B( 11-C , 83-H ) :   0.9909
B( 14-C , 15-O ) :   2.2797 B( 14-C , 16-C ) :   0.9414 B( 16-C , 17-C ) :   1.6408
B( 17-C , 18-C ) :   1.1337 B( 17-C , 84-H ) :   0.9483 B( 18-C , 19-C ) :   1.4003
B( 18-C , 22-S ) :   1.0858 B( 19-C , 20-C ) :   1.3089 B( 19-C , 85-H ) :   0.9993
B( 20-C , 21-C ) :   1.3953 B( 20-C , 25-C ) :   0.9966 B( 21-C , 22-S ) :   1.1566
B( 21-C , 23-C ) :   1.2156 B( 23-C , 24-C ) :   1.4330 B( 23-C , 33-S ) :   1.1159
B( 24-C , 25-C ) :   0.9967 B( 24-C , 31-C ) :   1.3191 B( 25-C , 26-C ) :   1.7180
B( 26-C , 27-C ) :   1.1337 B( 26-C , 29-C ) :   1.1340 B( 27-C , 28-N ) :   2.9882
B( 29-C , 30-N ) :   2.9937 B( 31-C , 32-C ) :   1.4388 B( 31-C , 86-H ) :   0.9799
B( 32-C , 33-S ) :   1.1206 B( 32-C , 34-C ) :   1.1535 B( 34-C , 35-C ) :   1.5190
B( 34-C , 39-S ) :   1.0654 B( 35-C , 36-C ) :   1.2609 B( 35-C , 87-H ) :   0.9606
B( 36-C , 37-C ) :   1.0550 B( 36-C , 45-C ) :   1.3530 B( 37-C , 38-C ) :   1.6041
B( 37-C , 40-C ) :   1.1787 B( 38-C , 39-S ) :   1.1430 B( 38-C , 88-H ) :   0.9407
B( 40-C , 41-C ) :   1.4522 B( 40-C , 44-S ) :   1.0839 B( 41-C , 42-C ) :   1.2118
B( 41-C , 45-C ) :   1.0740 B( 42-C , 43-C ) :   1.5889 B( 42-C , 89-H ) :   0.9977
B( 43-C , 44-S ) :   1.1598 B( 43-C , 90-H ) :   0.9644 B( 45-C , 46-C ) :   1.2053
B( 46-C , 47-C ) :   1.6091 B( 46-C , 91-H ) :   0.9593 B( 47-C , 48-C ) :   1.1457
B( 47-C , 92-H ) :   0.9625 B( 48-C , 49-C ) :   1.4125 B( 48-C , 52-S ) :   1.1241
B( 49-C , 50-C ) :   1.3259 B( 49-C , 93-H ) :   0.9885 B( 50-C , 51-C ) :   1.4063
B( 50-C , 55-C ) :   0.9986 B( 51-C , 52-S ) :   1.0951 B( 51-C , 53-C ) :   1.2341
B( 53-C , 54-C ) :   1.3305 B( 53-C , 63-S ) :   1.1319 B( 54-C , 55-C ) :   0.9914
B( 54-C , 61-C ) :   1.3431 B( 55-C , 56-C ) :   1.7091 B( 56-C , 57-C ) :   1.1336
B( 56-C , 59-C ) :   1.1373 B( 57-C , 58-N ) :   2.9973 B( 59-C , 60-N ) :   2.9765
B( 61-C , 62-C ) :   1.3117 B( 61-C , 94-H ) :   1.0093 B( 62-C , 63-S ) :   1.0525
B( 62-C , 64-C ) :   1.2975 B( 64-C , 65-C ) :   1.4581 B( 64-C , 95-H ) :   0.9401
B( 65-C , 66-C ) :   1.0898 B( 65-C , 74-C ) :   0.9926 B( 66-C , 67-C ) :   1.6279
B( 66-C , 72-C ) :   0.9852 B( 67-C , 68-C ) :   1.1431 B( 67-C , 70-C ) :   1.1442
B( 68-C , 69-N ) :   2.9703 B( 70-C , 71-N ) :   2.9588 B( 72-C , 73-C ) :   1.3305
B( 72-C , 79-C ) :   1.3482 B( 73-C , 74-C ) :   0.9608 B( 73-C , 76-C ) :   1.3458
B( 74-C , 75-O ) :   2.1185 B( 76-C , 77-C ) :   1.3375 B( 76-C , 96-H ) :   1.0174
B( 77-C , 78-C ) :   1.4117 B( 77-C , 81-Cl) :   1.0452 B( 78-C , 79-C ) :   1.3535
B( 78-C , 80-Cl) :   1.0776 B( 79-C , 97-H ) :   0.9855

-----------------------------------------------------------------------------
         ABSORPTION SPECTRUM VIA TRANSITION ELECTRIC DIPOLE MOMENTS
-----------------------------------------------------------------------------
State   Energy  Wavelength   fosc         T2         TX        TY        TZ
        (cm-1)    (nm)                  (au**2)     (au)      (au)      (au)
-----------------------------------------------------------------------------
   0   10025.8    997.4   0.511756444  16.80432   0.91092   2.62841   3.01098
   1   11218.4    891.4   0.160673806   4.71508   0.54663  -1.43582   1.53450
   2   16394.1    610.0   0.413741226   8.30838   0.90945   1.02675   2.53517
   3   16931.0    590.6   0.676351690  13.15120  -0.56416  -2.39120  -2.66741
   4   18723.2    534.1   0.716931646  12.60586   1.72942  -1.61498   2.64704
   5   19768.9    505.8   0.180732622   3.00974   0.25457   0.12664   1.71140
   6   20913.3    478.2   0.061880255   0.97410   0.49367   0.60807  -0.60054
   7   22940.2    435.9   0.120609305   1.73085   0.69197   0.56159   0.96780
   8   23244.9    430.2   0.261473130   3.70318  -0.82799   1.47239  -0.92178
   9   23753.9    421.0   0.087282898   1.20968  -0.76459  -0.61340   0.49882
  10   24136.8    414.3   0.028328173   0.38638   0.42548  -0.23532  -0.38727
  11   24684.3    405.1   0.011795978   0.15732   0.09458  -0.17117  -0.34508
  12   25514.8    391.9   0.143217971   1.84791   0.17988   0.89580   1.00653
  13   25998.4    384.6   0.149617089   1.89457   0.64059  -0.81014   0.90988
  14   26488.3    377.5   0.087603491   1.08879  -0.20352  -0.07751  -1.02047
  15   27307.5    366.2   0.163830082   1.97509  -0.60442   0.45075  -1.18600
  16   28260.5    353.9   0.221928348   2.58528   0.19848  -1.33203   0.87840
  17   28718.3    348.2   0.063370653   0.72645   0.29840   0.78849   0.12529
  18   29075.1    343.9   0.015043693   0.17034   0.13553   0.02952   0.38871
  19   29619.2    337.6   0.144066853   1.60128  -0.94024  -0.80100  -0.27499
  20   29765.1    336.0   0.320171952   3.54121   1.18206  -0.19448   1.45125
  21   29864.9    334.8   0.024724973   0.27255  -0.06575  -0.44783  -0.26016
  22   29942.1    334.0   0.022044920   0.24238  -0.24126   0.38178  -0.19600
  23   30219.7    330.9   0.024878360   0.27102  -0.22872  -0.45864   0.09145
  24   30695.5    325.8   0.503686559   5.40207   0.05143  -2.26601   0.51441
  25   30886.2    323.8   0.251327424   2.67887   0.29710  -1.58271   0.29261
  26   31330.5    319.2   0.055454141   0.58270   0.75793  -0.08841   0.02049
  27   31421.8    318.3   0.163239014   1.71028  -0.59587  -1.08396  -0.42456
  28   31836.1    314.1   0.267813835   2.76942  -0.88493   0.07694  -1.40727
  29   31962.5    312.9   0.128491194   1.32345   0.79928  -0.60680   0.56249
  30   32517.9    307.5   0.087484815   0.88570   0.05143   0.77890  -0.52571
  31   32693.7    305.9   0.214438758   2.15931  -0.14892  -0.83185  -1.20215
  32   32812.6    304.8   0.062928866   0.63137   0.18094   0.66621   0.39344
  33   32880.2    304.1   0.023801148   0.23831  -0.06231  -0.48409  -0.00892
  34   32970.3    303.3   0.148224953   1.48004  -0.40903  -0.14034  -1.13712
  35   33187.5    301.3   0.028598695   0.28369   0.24041   0.44823  -0.15806
  36   33578.9    297.8   0.274641114   2.69262  -0.26841  -1.40390   0.80600
  37   33735.2    296.4   0.175030217   1.70807  -0.49230  -1.18476  -0.24911
  38   33929.6    294.7   0.054155987   0.52547   0.26545   0.51376   0.43710
  39   34047.5    293.7   0.172503443   1.66797  -0.70272   0.18386  -1.06787
  40   34437.4    290.4   0.147953568   1.41440  -0.72080   0.47597  -0.81749
  41   34819.0    287.2   0.065708860   0.62127  -0.29240  -0.55772  -0.47405
  42   34877.7    286.7   0.347055469   3.27587   0.10717  -1.78505   0.27927
  43   35050.5    285.3   0.378718586   3.55711  -0.70369  -1.64884  -0.58588
  44   35327.7    283.1   0.206989760   1.92890  -0.14619   1.31552  -0.42063
  45   35443.8    282.1   0.102769723   0.95456  -0.08594  -0.88538   0.40407
  46   35669.2    280.4   0.166497307   1.53670  -0.19025  -1.21096  -0.18461
  47   35766.5    279.6   0.399903628   3.68091   0.03198   1.62410  -1.02087
  48   35947.1    278.2   0.011686319   0.10703   0.12566   0.30067   0.02892
  49   36057.0    277.3   0.209636757   1.91405   0.30937   0.80840  -1.07927
  50   36490.8    274.0   0.047301050   0.42674   0.33843   0.08967   0.55151
  51   36837.3    271.5   0.012120452   0.10832  -0.28231  -0.10270  -0.13444
  52   36928.8    270.8   0.056236755   0.50134   0.03125   0.68110  -0.19097
  53   37163.3    269.1   0.062732887   0.55572   0.03857   0.52087  -0.53191
  54   37368.4    267.6   0.061380799   0.54076  -0.19191  -0.46954  -0.53241
  55   37498.6    266.7   0.009410536   0.08262   0.00081   0.24490   0.15046
  56   37767.3    264.8   0.010724516   0.09348  -0.11303   0.10660  -0.26333
  57   37985.8    263.3   0.024316574   0.21074   0.04923   0.38454  -0.24587
  58   38249.2    261.4   0.024969142   0.21491   0.43152  -0.16506   0.03812
  59   38763.5    258.0   0.023500440   0.19959  -0.31125  -0.24181  -0.21032
  60   38820.1    257.6   0.012851538   0.10899  -0.17816   0.01976  -0.27723
  61   39041.6    256.1   0.047136395   0.39747   0.12879   0.60596  -0.11701
  62   39127.6    255.6   0.041492766   0.34911  -0.17260  -0.56016  -0.07446
  63   39414.8    253.7   0.038112313   0.31833   0.44193   0.34844  -0.04024
  64   39583.5    252.6   0.074504822   0.61965   0.24205   0.74534  -0.07437
  65   39620.2    252.4   0.140586966   1.16817  -0.66093  -0.53552  -0.66675
  66   39669.0    252.1   0.137812133   1.14370  -0.24212  -0.48931   0.91959
  67   39802.6    251.2   0.013968273   0.11553   0.27660   0.17836   0.08493
  68   40241.0    248.5   0.051419917   0.42067  -0.52289  -0.37088   0.09847

FINAL SINGLE POINT ENERGY     -7185.369686949544

DIPOLE MOMENT
-------------
                                X             Y             Z
Electronic contribution:    -22.49045      10.96714     -41.52873
Nuclear contribution   :     23.23300     -14.45719      43.73319
                        -----------------------------------------
Total Dipole Moment    :      0.74256      -3.49005       2.20446
                        -----------------------------------------
Magnitude (a.u.)       :      4.19422
Magnitude (Debye)      :     10.66086

Rotational constants in cm-1:     0.000591     0.000212     0.000163
Rotational constants in MHz :    17.723628     6.345772     4.878639

                             ****ORCA TERMINATED NORMALLY****
TOTAL RUN TIME: 0 days 0 hours 15 minutes 0 seconds 41 msec
