                         Program Version 4.2.0 -  RELEASE  -
|  1> # ORCA input file
|  2> # SCF done       -177.140802529631          0.000439183091
|  3> ! CAM-B3LYP def2-SVP def2/J RIJCOSX Grid4 TightSCF
|  4> %maxcore 5000
|  5> %tddft
|  6>     Mode sTDDFT
|  7>     Ethresh 5.0
|  8>     maxcore 5000
|  9> end
| 10>
| 11> %pal
| 12>   nprocs 6
| 13>   end
| 14> * xyz 0 1
| 15>    C        4.53486        -1.66845         0.48354
| 16>    C        4.67695        -1.01975         1.67265
| 17>    C        4.05653         0.24369         1.64306
| 18>    C        3.45371         0.51390         0.40884
| 19>    S        3.64730        -0.76815        -0.70062
| 20>    C        2.85405         1.80493         0.46857
| 21>    C        3.08437         2.34234         1.74219
| 22>    C        3.84635         1.37680         2.52531
| 23>    C        4.26336         1.51545         3.81649
| 24>    C        3.98605         2.67398         4.57247
| 25>    N        3.75999         3.61500         5.18735
| 26>    C        4.99546         0.51027         4.48299
| 27>    N        5.58988        -0.30390         5.02913
| 28>    C        2.53358         3.61440         1.90338
| 29>    C        1.88483         4.04365         0.76120
| 30>    S        1.95883         2.85684        -0.53309
| 31>    C        1.20664         5.27475         0.56404
| 32>    C        0.52093         5.69083        -0.56259
| 33>    C       -0.03267         6.96051        -0.39404
| 34>    C        0.23871         7.51229         0.86748
| 35>    S        1.17182         6.47126         1.84879
| 36>    C       -0.36897         8.79230         0.94713
| 37>    C       -1.03128         9.04556        -0.27206
| 38>    C       -0.83851         7.90710        -1.15358
| 39>    C       -1.30863         7.75041        -2.42427
| 40>    C       -2.08676         8.73565        -3.06857
| 41>    N       -2.72083         9.52801        -3.60184
| 42>    C       -1.04712         6.58872        -3.18110
| 43>    N       -0.83517         5.64473        -3.79647
| 44>    C       -1.67148        10.28390        -0.28543
| 45>    C       -1.48774        10.95651         0.90610
| 46>    S       -0.52217        10.06917         2.06336
| 47>    C       -1.96881        12.24734         1.27825
| 48>    N       -2.75878        12.92885         0.42976
| 49>    C       -3.17995        14.09527         0.84136
| 50>    C       -2.87322        14.55572         2.14125
| 51>    N       -2.05709        13.82436         2.90377
| 52>    N       -1.58316        12.71694         2.46992
| 53>    C       -3.40799        15.79082         2.67901
| 54>    C       -2.74125        16.55452         3.62770
| 55>    F       -1.52333        16.19948         4.04720
| 56>    C       -3.28286        17.73445         4.16311
| 57>    F       -2.55867        18.38883         5.08263
| 58>    C       -4.54623        18.21421         3.84284
| 59>    C       -5.22052        17.48026         2.84308
| 60>    C       -4.65833        16.30051         2.26904
| 61>    N       -5.52891        15.85734         1.34900
| 62>    N       -6.50261        16.72311         1.38317
| 63>    N       -6.38653        17.70744         2.22653
| 64>    C       -7.65053        16.58628         0.54224
| 65>    C       -5.07905        19.40241         4.45269
| 66>    C       -6.37434        19.57320         4.81265
| 67>    C       -6.98158        20.80270         5.30195
| 68>    C       -6.44730        22.05829         5.21900
| 69>    C       -7.09226        23.22503         5.68554
| 70>    N       -7.56298        24.20598         6.04904
| 71>    C       -5.20382        22.37079         4.62539
| 72>    N       -4.22203        22.70705         4.13617
| 73>    C       -8.30745        20.46801         5.80884
| 74>    C       -8.54717        19.09942         5.59404
| 75>    C       -7.36494        18.46988         4.96883
| 76>    O       -7.21580        17.29208         4.74195
| 77>    C       -9.73229        18.50115         5.97261
| 78>    C      -10.70656        19.28735         6.57401
| 79>    C      -10.47513        20.65118         6.79467
| 80>    C       -9.27844        21.24893         6.41646
| 81>   Cl      -11.68311        21.60869         7.54911
| 82>   Cl      -12.19680        18.58272         7.05071
| 83>    H        4.90191        -2.63958         0.21807
| 84>    H        5.19823        -1.42960         2.51824
| 85>    H        2.59146         4.20771         2.79824
| 86>    H        0.43580         5.08801        -1.44888
| 87>    H       -2.24126        10.69692        -1.09756
| 88>    H       -3.76315        14.68714         0.15090
| 89>    H       -7.46135        15.77985        -0.16217
| 90>    H       -7.83218        17.52237         0.01518
| 91>    H       -8.52516        16.35103         1.15019
| 92>    H       -4.35722        20.18470         4.65393
| 93>    H       -9.89451        17.44839         5.80333
| 94>    H       -9.13191        22.29903         6.60944
| 95> *
| 96>
| 97>                          ****END OF INPUT****

CARTESIAN COORDINATES (ANGSTROEM)
---------------------------------
  C      4.534860   -1.668450    0.483540
  C      4.676950   -1.019750    1.672650
  C      4.056530    0.243690    1.643060
  C      3.453710    0.513900    0.408840
  S      3.647300   -0.768150   -0.700620
  C      2.854050    1.804930    0.468570
  C      3.084370    2.342340    1.742190
  C      3.846350    1.376800    2.525310
  C      4.263360    1.515450    3.816490
  C      3.986050    2.673980    4.572470
  N      3.759990    3.615000    5.187350
  C      4.995460    0.510270    4.482990
  N      5.589880   -0.303900    5.029130
  C      2.533580    3.614400    1.903380
  C      1.884830    4.043650    0.761200
  S      1.958830    2.856840   -0.533090
  C      1.206640    5.274750    0.564040
  C      0.520930    5.690830   -0.562590
  C     -0.032670    6.960510   -0.394040
  C      0.238710    7.512290    0.867480
  S      1.171820    6.471260    1.848790
  C     -0.368970    8.792300    0.947130
  C     -1.031280    9.045560   -0.272060
  C     -0.838510    7.907100   -1.153580
  C     -1.308630    7.750410   -2.424270
  C     -2.086760    8.735650   -3.068570
  N     -2.720830    9.528010   -3.601840
  C     -1.047120    6.588720   -3.181100
  N     -0.835170    5.644730   -3.796470
  C     -1.671480   10.283900   -0.285430
  C     -1.487740   10.956510    0.906100
  S     -0.522170   10.069170    2.063360
  C     -1.968810   12.247340    1.278250
  N     -2.758780   12.928850    0.429760
  C     -3.179950   14.095270    0.841360
  C     -2.873220   14.555720    2.141250
  N     -2.057090   13.824360    2.903770
  N     -1.583160   12.716940    2.469920
  C     -3.407990   15.790820    2.679010
  C     -2.741250   16.554520    3.627700
  F     -1.523330   16.199480    4.047200
  C     -3.282860   17.734450    4.163110
  F     -2.558670   18.388830    5.082630
  C     -4.546230   18.214210    3.842840
  C     -5.220520   17.480260    2.843080
  C     -4.658330   16.300510    2.269040
  N     -5.528910   15.857340    1.349000
  N     -6.502610   16.723110    1.383170
  N     -6.386530   17.707440    2.226530
  C     -7.650530   16.586280    0.542240
  C     -5.079050   19.402410    4.452690
  C     -6.374340   19.573200    4.812650
  C     -6.981580   20.802700    5.301950
  C     -6.447300   22.058290    5.219000
  C     -7.092260   23.225030    5.685540
  N     -7.562980   24.205980    6.049040
  C     -5.203820   22.370790    4.625390
  N     -4.222030   22.707050    4.136170
  C     -8.307450   20.468010    5.808840
  C     -8.547170   19.099420    5.594040
  C     -7.364940   18.469880    4.968830
  O     -7.215800   17.292080    4.741950
  C     -9.732290   18.501150    5.972610
  C    -10.706560   19.287350    6.574010
  C    -10.475130   20.651180    6.794670
  C     -9.278440   21.248930    6.416460
  Cl   -11.683110   21.608690    7.549110
  Cl   -12.196800   18.582720    7.050710
  H      4.901910   -2.639580    0.218070
  H      5.198230   -1.429600    2.518240
  H      2.591460    4.207710    2.798240
  H      0.435800    5.088010   -1.448880
  H     -2.241260   10.696920   -1.097560
  H     -3.763150   14.687140    0.150900
  H     -7.461350   15.779850   -0.162170
  H     -7.832180   17.522370    0.015180
  H     -8.525160   16.351030    1.150190
  H     -4.357220   20.184700    4.653930
  H     -9.894510   17.448390    5.803330
  H     -9.131910   22.299030    6.609440

 Total Charge           Charge          ....    0
 Multiplicity           Mult            ....    1
 Number of Electrons    NEL             ....  502
 Basis Dimension        Dim             .... 1036

ORBITAL ENERGIES
----------------

  NO   OCC          E(Eh)            E(eV)
   0   2.0000    -101.608389     -2764.9048
   1   2.0000    -101.606386     -2764.8503
   2   2.0000     -88.994664     -2421.6679
   3   2.0000     -88.994367     -2421.6598
   4   2.0000     -88.990644     -2421.5585
   5   2.0000     -88.989619     -2421.5306
   6   2.0000     -24.810475      -675.1273
   7   2.0000     -24.797587      -674.7766
   8   2.0000     -19.230494      -523.2883
   9   2.0000     -14.560273      -396.2052
  10   2.0000     -14.464691      -393.6042
  11   2.0000     -14.461410      -393.5150
  12   2.0000     -14.457334      -393.4041
  13   2.0000     -14.455025      -393.3412
  14   2.0000     -14.440443      -392.9444
  15   2.0000     -14.432730      -392.7346
  16   2.0000     -14.431596      -392.7037
  17   2.0000     -14.430988      -392.6872
  18   2.0000     -14.430434      -392.6721
  19   2.0000     -14.427873      -392.6024
  20   2.0000     -14.427640      -392.5960
  21   2.0000     -10.393837      -282.8307
  22   2.0000     -10.389156      -282.7033
  23   2.0000     -10.382079      -282.5107
  24   2.0000     -10.366287      -282.0810
  25   2.0000     -10.366226      -282.0793
  26   2.0000     -10.365236      -282.0524
  27   2.0000     -10.365157      -282.0503
  28   2.0000     -10.364697      -282.0377
  29   2.0000     -10.359714      -281.9022
  30   2.0000     -10.355371      -281.7840
  31   2.0000     -10.354091      -281.7491
  32   2.0000     -10.352719      -281.7118
  33   2.0000     -10.342806      -281.4420
  34   2.0000     -10.339227      -281.3447
  35   2.0000     -10.336016      -281.2573
  36   2.0000     -10.335215      -281.2355
  37   2.0000     -10.335094      -281.2322
  38   2.0000     -10.334263      -281.2096
  39   2.0000     -10.333616      -281.1920
  40   2.0000     -10.333243      -281.1818
  41   2.0000     -10.333078      -281.1773
  42   2.0000     -10.332152      -281.1521
  43   2.0000     -10.332071      -281.1499
  44   2.0000     -10.331329      -281.1298
  45   2.0000     -10.331089      -281.1232
  46   2.0000     -10.330703      -281.1127
  47   2.0000     -10.329410      -281.0775
  48   2.0000     -10.329191      -281.0716
  49   2.0000     -10.327306      -281.0203
  50   2.0000     -10.325957      -280.9836
  51   2.0000     -10.325487      -280.9708
  52   2.0000     -10.324853      -280.9535
  53   2.0000     -10.321941      -280.8743
  54   2.0000     -10.318154      -280.7712
  55   2.0000     -10.317879      -280.7638
  56   2.0000     -10.317309      -280.7483
  57   2.0000     -10.316262      -280.7198
  58   2.0000     -10.313382      -280.6414
  59   2.0000     -10.311072      -280.5785
  60   2.0000     -10.308568      -280.5104
  61   2.0000     -10.305623      -280.4303
  62   2.0000     -10.305530      -280.4277
  63   2.0000     -10.305438      -280.4252
  64   2.0000     -10.304843      -280.4090
  65   2.0000     -10.303183      -280.3639
  66   2.0000     -10.301136      -280.3082
  67   2.0000     -10.299068      -280.2519
  68   2.0000      -9.563410      -260.2336
  69   2.0000      -9.561446      -260.1802
  70   2.0000      -8.088955      -220.1117
  71   2.0000      -8.088659      -220.1036
  72   2.0000      -8.084530      -219.9912
  73   2.0000      -8.084434      -219.9886
  74   2.0000      -7.333783      -199.5624
  75   2.0000      -7.331854      -199.5099
  76   2.0000      -7.323694      -199.2879
  77   2.0000      -7.322928      -199.2670
  78   2.0000      -7.321681      -199.2331
  79   2.0000      -7.320955      -199.2133
  80   2.0000      -6.058250      -164.8534
  81   2.0000      -6.057944      -164.8450
  82   2.0000      -6.054074      -164.7397
  83   2.0000      -6.053789      -164.7320
  84   2.0000      -6.053769      -164.7314
  85   2.0000      -6.053637      -164.7278
  86   2.0000      -6.051293      -164.6640
  87   2.0000      -6.051007      -164.6563
  88   2.0000      -6.049328      -164.6106
  89   2.0000      -6.049312      -164.6101
  90   2.0000      -6.047198      -164.5526
  91   2.0000      -6.047115      -164.5504
  92   2.0000      -1.330357       -36.2009
  93   2.0000      -1.310063       -35.6486
  94   2.0000      -1.238225       -33.6938
  95   2.0000      -1.158489       -31.5241
  96   2.0000      -1.146451       -31.1965
  97   2.0000      -1.048631       -28.5347
  98   2.0000      -1.044770       -28.4296
  99   2.0000      -1.040486       -28.3131
 100   2.0000      -1.040442       -28.3119
 101   2.0000      -1.026670       -27.9371
 102   2.0000      -1.024151       -27.8686
 103   2.0000      -1.022590       -27.8261
 104   2.0000      -1.012540       -27.5526
 105   2.0000      -1.009912       -27.4811
 106   2.0000      -1.009379       -27.4666
 107   2.0000      -1.008757       -27.4497
 108   2.0000      -1.005881       -27.3714
 109   2.0000      -1.005582       -27.3633
 110   2.0000      -1.000665       -27.2295
 111   2.0000      -0.992281       -27.0013
 112   2.0000      -0.969908       -26.3925
 113   2.0000      -0.967452       -26.3257
 114   2.0000      -0.956922       -26.0392
 115   2.0000      -0.952412       -25.9164
 116   2.0000      -0.948847       -25.8194
 117   2.0000      -0.939579       -25.5672
 118   2.0000      -0.921758       -25.0823
 119   2.0000      -0.915290       -24.9063
 120   2.0000      -0.903427       -24.5835
 121   2.0000      -0.892865       -24.2961
 122   2.0000      -0.873173       -23.7602
 123   2.0000      -0.870679       -23.6924
 124   2.0000      -0.869999       -23.6739
 125   2.0000      -0.860118       -23.4050
 126   2.0000      -0.858573       -23.3630
 127   2.0000      -0.851574       -23.1725
 128   2.0000      -0.834225       -22.7004
 129   2.0000      -0.831830       -22.6352
 130   2.0000      -0.811656       -22.0863
 131   2.0000      -0.794635       -21.6231
 132   2.0000      -0.787343       -21.4247
 133   2.0000      -0.779899       -21.2221
 134   2.0000      -0.776381       -21.1264
 135   2.0000      -0.774064       -21.0633
 136   2.0000      -0.766308       -20.8523
 137   2.0000      -0.751893       -20.4601
 138   2.0000      -0.748772       -20.3751
 139   2.0000      -0.728492       -19.8233
 140   2.0000      -0.723506       -19.6876
 141   2.0000      -0.705084       -19.1863
 142   2.0000      -0.704983       -19.1836
 143   2.0000      -0.703838       -19.1524
 144   2.0000      -0.697389       -18.9769
 145   2.0000      -0.688617       -18.7382
 146   2.0000      -0.681676       -18.5494
 147   2.0000      -0.681005       -18.5311
 148   2.0000      -0.677630       -18.4393
 149   2.0000      -0.670485       -18.2448
 150   2.0000      -0.663085       -18.0435
 151   2.0000      -0.655175       -17.8282
 152   2.0000      -0.644487       -17.5374
 153   2.0000      -0.637681       -17.3522
 154   2.0000      -0.634637       -17.2694
 155   2.0000      -0.630512       -17.1571
 156   2.0000      -0.628173       -17.0935
 157   2.0000      -0.623807       -16.9747
 158   2.0000      -0.622726       -16.9452
 159   2.0000      -0.621309       -16.9067
 160   2.0000      -0.618719       -16.8362
 161   2.0000      -0.612780       -16.6746
 162   2.0000      -0.604498       -16.4492
 163   2.0000      -0.598042       -16.2735
 164   2.0000      -0.595498       -16.2043
 165   2.0000      -0.592517       -16.1232
 166   2.0000      -0.587520       -15.9872
 167   2.0000      -0.578402       -15.7391
 168   2.0000      -0.571266       -15.5449
 169   2.0000      -0.565201       -15.3799
 170   2.0000      -0.560219       -15.2443
 171   2.0000      -0.560092       -15.2409
 172   2.0000      -0.554545       -15.0899
 173   2.0000      -0.554048       -15.0764
 174   2.0000      -0.551285       -15.0012
 175   2.0000      -0.549744       -14.9593
 176   2.0000      -0.548752       -14.9323
 177   2.0000      -0.545184       -14.8352
 178   2.0000      -0.539536       -14.6815
 179   2.0000      -0.537441       -14.6245
 180   2.0000      -0.527478       -14.3534
 181   2.0000      -0.525149       -14.2900
 182   2.0000      -0.522073       -14.2063
 183   2.0000      -0.518676       -14.1139
 184   2.0000      -0.516605       -14.0575
 185   2.0000      -0.516102       -14.0438
 186   2.0000      -0.514661       -14.0046
 187   2.0000      -0.510723       -13.8975
 188   2.0000      -0.505324       -13.7506
 189   2.0000      -0.504355       -13.7242
 190   2.0000      -0.503697       -13.7063
 191   2.0000      -0.500687       -13.6244
 192   2.0000      -0.499716       -13.5980
 193   2.0000      -0.494936       -13.4679
 194   2.0000      -0.494398       -13.4533
 195   2.0000      -0.493723       -13.4349
 196   2.0000      -0.488175       -13.2839
 197   2.0000      -0.483500       -13.1567
 198   2.0000      -0.479440       -13.0462
 199   2.0000      -0.476829       -12.9752
 200   2.0000      -0.473395       -12.8817
 201   2.0000      -0.471724       -12.8363
 202   2.0000      -0.463381       -12.6092
 203   2.0000      -0.462380       -12.5820
 204   2.0000      -0.459479       -12.5031
 205   2.0000      -0.459255       -12.4970
 206   2.0000      -0.458431       -12.4746
 207   2.0000      -0.457664       -12.4537
 208   2.0000      -0.454709       -12.3733
 209   2.0000      -0.451684       -12.2909
 210   2.0000      -0.449714       -12.2373
 211   2.0000      -0.448177       -12.1955
 212   2.0000      -0.444683       -12.1004
 213   2.0000      -0.442929       -12.0527
 214   2.0000      -0.442486       -12.0407
 215   2.0000      -0.441836       -12.0230
 216   2.0000      -0.441227       -12.0064
 217   2.0000      -0.439844       -11.9688
 218   2.0000      -0.438745       -11.9389
 219   2.0000      -0.438490       -11.9319
 220   2.0000      -0.437692       -11.9102
 221   2.0000      -0.437018       -11.8919
 222   2.0000      -0.432690       -11.7741
 223   2.0000      -0.429830       -11.6963
 224   2.0000      -0.427820       -11.6416
 225   2.0000      -0.426166       -11.5966
 226   2.0000      -0.423599       -11.5267
 227   2.0000      -0.422347       -11.4927
 228   2.0000      -0.416604       -11.3364
 229   2.0000      -0.410215       -11.1625
 230   2.0000      -0.409154       -11.1337
 231   2.0000      -0.404172       -10.9981
 232   2.0000      -0.401023       -10.9124
 233   2.0000      -0.395660       -10.7665
 234   2.0000      -0.389974       -10.6117
 235   2.0000      -0.388994       -10.5851
 236   2.0000      -0.381121       -10.3708
 237   2.0000      -0.362144        -9.8544
 238   2.0000      -0.353673        -9.6239
 239   2.0000      -0.352015        -9.5788
 240   2.0000      -0.349422        -9.5083
 241   2.0000      -0.348002        -9.4696
 242   2.0000      -0.343741        -9.3537
 243   2.0000      -0.330167        -8.9843
 244   2.0000      -0.323779        -8.8105
 245   2.0000      -0.322861        -8.7855
 246   2.0000      -0.319899        -8.7049
 247   2.0000      -0.311033        -8.4636
 248   2.0000      -0.303778        -8.2662
 249   2.0000      -0.290814        -7.9135
 250   2.0000      -0.251858        -6.8534
 251   0.0000      -0.110344        -3.0026
 252   0.0000      -0.104702        -2.8491
 253   0.0000      -0.102533        -2.7901
 254   0.0000      -0.079636        -2.1670
 255   0.0000      -0.057448        -1.5632

MULLIKEN ATOMIC CHARGES
-----------------------
   0 C :   -0.080672
   1 C :    0.037432
   2 C :   -0.029768
   3 C :   -0.118366
   4 S :    0.186274
   5 C :   -0.098839
   6 C :    0.014760
   7 C :    0.296892
   8 C :   -0.297345
   9 C :   -0.186379
  10 N :    0.169573
  11 C :   -0.189510
  12 N :    0.175680
  13 C :   -0.065473
  14 C :   -0.053757
  15 S :    0.194859
  16 C :   -0.045957
  17 C :   -0.070876
  18 C :    0.022022
  19 C :   -0.104855
  20 S :    0.199898
  21 C :   -0.088792
  22 C :    0.006991
  23 C :    0.299364
  24 C :   -0.297889
  25 C :   -0.191346
  26 N :    0.179586
  27 C :   -0.188216
  28 N :    0.169479
  29 C :   -0.043693
  30 C :   -0.044644
  31 S :    0.251927
  32 C :   -0.063557
  33 N :   -0.016367
  34 C :    0.058651
  35 C :   -0.100841
  36 N :   -0.021525
  37 N :   -0.072493
  38 C :    0.041375
  39 C :    0.161270
  40 F :   -0.145662
  41 C :    0.173833
  42 F :   -0.160121
  43 C :   -0.021799
  44 C :    0.012627
  45 C :    0.006334
  46 N :   -0.064041
  47 N :   -0.071854
  48 N :   -0.047852
  49 C :    0.145889
  50 C :   -0.052264
  51 C :   -0.061485
  52 C :    0.289275
  53 C :   -0.324461
  54 C :   -0.189480
  55 N :    0.167641
  56 C :   -0.203379
  57 N :    0.176297
  58 C :    0.034127
  59 C :   -0.016900
  60 C :    0.154426
  61 O :   -0.131025
  62 C :   -0.029576
  63 C :    0.060478
  64 C :    0.051730
  65 C :   -0.014381
  66 Cl:   -0.030368
  67 Cl:   -0.038187
  68 H :    0.036575
  69 H :    0.012662
  70 H :    0.012033
  71 H :    0.011050
  72 H :    0.020867
  73 H :    0.020858
  74 H :    0.056427
  75 H :    0.056544
  76 H :    0.060226
  77 H :    0.046835
  78 H :   -0.000844
  79 H :    0.002070
Sum of atomic charges:   -0.0000000

LOEWDIN ATOMIC CHARGES
----------------------
   0 C :   -0.176778
   1 C :   -0.033718
   2 C :   -0.076222
   3 C :   -0.185014
   4 S :    0.481307
   5 C :   -0.178209
   6 C :   -0.069557
   7 C :    0.083165
   8 C :   -0.102894
   9 C :   -0.016031
  10 N :   -0.034717
  11 C :   -0.017144
  12 N :   -0.031588
  13 C :   -0.036900
  14 C :   -0.183526
  15 S :    0.485980
  16 C :   -0.173573
  17 C :   -0.042360
  18 C :   -0.061240
  19 C :   -0.186153
  20 S :    0.489258
  21 C :   -0.168655
  22 C :   -0.079073
  23 C :    0.081721
  24 C :   -0.102369
  25 C :   -0.018243
  26 N :   -0.029325
  27 C :   -0.015783
  28 N :   -0.035408
  29 C :    0.004620
  30 C :   -0.197044
  31 S :    0.525167
  32 C :   -0.005995
  33 N :   -0.056113
  34 C :    0.059697
  35 C :   -0.043996
  36 N :   -0.000456
  37 N :   -0.074755
  38 C :   -0.046291
  39 C :    0.073688
  40 F :   -0.030418
  41 C :    0.087324
  42 F :   -0.040514
  43 C :   -0.061487
  44 C :   -0.035453
  45 C :   -0.047267
  46 N :   -0.092411
  47 N :    0.164262
  48 N :   -0.080451
  49 C :    0.035178
  50 C :    0.080611
  51 C :   -0.070233
  52 C :    0.072142
  53 C :   -0.121699
  54 C :   -0.019733
  55 N :   -0.037552
  56 C :   -0.023946
  57 N :   -0.035062
  58 C :   -0.014361
  59 C :   -0.041843
  60 C :    0.084353
  61 O :   -0.124735
  62 C :    0.000648
  63 C :   -0.132769
  64 C :   -0.129235
  65 C :   -0.011307
  66 Cl:    0.166067
  67 Cl:    0.162751
  68 H :    0.028047
  69 H :    0.042838
  70 H :    0.035496
  71 H :    0.035446
  72 H :    0.046935
  73 H :    0.030478
  74 H :    0.043893
  75 H :    0.043335
  76 H :    0.044377
  77 H :    0.050202
  78 H :    0.045638
  79 H :    0.044978

  Mayer bond orders larger than 0.100000
B(  0-C ,  1-C ) :   1.5478 B(  0-C ,  4-S ) :   1.1519 B(  0-C , 68-H ) :   0.9640
B(  1-C ,  2-C ) :   1.2792 B(  1-C , 69-H ) :   0.9956 B(  2-C ,  3-C ) :   1.4578
B(  2-C ,  7-C ) :   1.0146 B(  3-C ,  4-S ) :   1.1376 B(  3-C ,  5-C ) :   1.1798
B(  5-C ,  6-C ) :   1.4633 B(  5-C , 15-S ) :   1.1253 B(  6-C ,  7-C ) :   0.9907
B(  6-C , 13-C ) :   1.2981 B(  7-C ,  8-C ) :   1.7141 B(  8-C ,  9-C ) :   1.1310
B(  8-C , 11-C ) :   1.1299 B(  9-C , 10-N ) :   2.9903 B( 11-C , 12-N ) :   3.0033
B( 13-C , 14-C ) :   1.4646 B( 13-C , 70-H ) :   0.9867 B( 14-C , 15-S ) :   1.1094
B( 14-C , 16-C ) :   1.1623 B( 16-C , 17-C ) :   1.4595 B( 16-C , 20-S ) :   1.1178
B( 17-C , 18-C ) :   1.3005 B( 17-C , 71-H ) :   0.9870 B( 18-C , 19-C ) :   1.4552
B( 18-C , 23-C ) :   0.9898 B( 19-C , 20-S ) :   1.1156 B( 19-C , 21-C ) :   1.1887
B( 21-C , 22-C ) :   1.4221 B( 21-C , 31-S ) :   1.1425 B( 22-C , 23-C ) :   0.9964
B( 22-C , 29-C ) :   1.2727 B( 23-C , 24-C ) :   1.7172 B( 24-C , 25-C ) :   1.1326
B( 24-C , 27-C ) :   1.1318 B( 25-C , 26-N ) :   3.0010 B( 27-C , 28-N ) :   2.9905
B( 29-C , 30-C ) :   1.4647 B( 29-C , 72-H ) :   1.0056 B( 30-C , 31-S ) :   1.0993
B( 30-C , 32-C ) :   1.0683 B( 32-C , 33-N ) :   1.5310 B( 32-C , 37-N ) :   1.5705
B( 33-N , 34-C ) :   1.6037 B( 34-C , 35-C ) :   1.2710 B( 34-C , 73-H ) :   0.9671
B( 35-C , 36-N ) :   1.5770 B( 35-C , 38-C ) :   0.9842 B( 36-N , 37-N ) :   1.3695
B( 38-C , 39-C ) :   1.3888 B( 38-C , 43-C ) :   0.1275 B( 38-C , 45-C ) :   1.2205
B( 39-C , 40-F ) :   1.2057 B( 39-C , 41-C ) :   1.1506 B( 41-C , 42-F ) :   1.1791
B( 41-C , 43-C ) :   1.3837 B( 43-C , 44-C ) :   1.1849 B( 43-C , 50-C ) :   1.0643
B( 44-C , 45-C ) :   1.2307 B( 44-C , 48-N ) :   1.4696 B( 45-C , 46-N ) :   1.4611
B( 46-N , 47-N ) :   1.2434 B( 46-N , 48-N ) :   0.1615 B( 47-N , 48-N ) :   1.2302
B( 47-N , 49-C ) :   0.9500 B( 49-C , 74-H ) :   0.9668 B( 49-C , 75-H ) :   0.9686
B( 49-C , 76-H ) :   0.9692 B( 50-C , 51-C ) :   1.6953 B( 50-C , 77-H ) :   0.9414
B( 51-C , 52-C ) :   1.0460 B( 51-C , 60-C ) :   0.9279 B( 52-C , 53-C ) :   1.6736
B( 52-C , 58-C ) :   1.0010 B( 53-C , 54-C ) :   1.1349 B( 53-C , 56-C ) :   1.1396
B( 54-C , 55-N ) :   2.9791 B( 56-C , 57-N ) :   2.9939 B( 58-C , 59-C ) :   1.3307
B( 58-C , 65-C ) :   1.3345 B( 59-C , 60-C ) :   0.9481 B( 59-C , 62-C ) :   1.3442
B( 60-C , 61-O ) :   2.2365 B( 62-C , 63-C ) :   1.3443 B( 62-C , 78-H ) :   1.0170
B( 63-C , 64-C ) :   1.3996 B( 63-C , 67-Cl) :   1.0517 B( 64-C , 65-C ) :   1.3648
B( 64-C , 66-Cl) :   1.0799 B( 65-C , 79-H ) :   0.9875

-----------------------------------------------------------------------------
         ABSORPTION SPECTRUM VIA TRANSITION ELECTRIC DIPOLE MOMENTS
-----------------------------------------------------------------------------
State   Energy  Wavelength   fosc         T2         TX        TY        TZ
        (cm-1)    (nm)                  (au**2)     (au)      (au)      (au)
-----------------------------------------------------------------------------
   0   13080.2    764.5   0.237926729   5.98830   1.11733  -2.17542  -0.08612
   1   14016.2    713.5   0.042819678   1.00575   0.45800  -0.89161   0.03174
   2   21148.1    472.9   1.449710158  22.56761   2.20433  -4.00381  -1.29538
   3   22699.4    440.5   0.005074563   0.07360  -0.17075  -0.09365   0.18887
   4   24543.1    407.4   0.023363268   0.31339  -0.04676  -0.04747   0.55583
   5   25668.5    389.6   0.063493710   0.81434   0.12376  -0.54547   0.70816
   6   25981.3    384.9   0.025479875   0.32286   0.43992  -0.35337  -0.06679
   7   26245.4    381.0   0.285452441   3.58060   0.84282  -1.67088  -0.28003
   8   27261.6    366.8   0.110004867   1.32842   0.22838  -1.12972  -0.00107
   9   27660.6    361.5   0.651904806   7.75888   1.67827  -2.21836  -0.14546
  10   28647.8    349.1   0.021868785   0.25131  -0.40061   0.26753  -0.13875
  11   28835.5    346.8   0.139403987   1.59156   0.41728  -0.93073   0.74241
  12   29593.7    337.9   0.222946254   2.48015  -0.61702  -1.16549   0.86086
  13   30869.7    323.9   0.101523474   1.08270  -0.94410   0.05303  -0.43424
  14   31039.2    322.2   0.029493306   0.31282   0.28403  -0.47859  -0.05564
  15   31387.5    318.6   0.431509581   4.52595   0.76515   0.45869   1.93135
  16   31804.5    314.4   0.017736365   0.18359   0.35326  -0.04397   0.23847
  17   31925.2    313.2   0.548480903   5.65592   0.78509   0.58742   2.16668
  18   32379.8    308.8   0.409115652   4.15956  -0.01294   0.67603   1.92415
  19   32446.8    308.2   0.064940602   0.65890  -0.72925   0.11497  -0.33746
  20   32784.3    305.0   0.020056180   0.20140  -0.21874  -0.38169  -0.08867
  21   33165.4    301.5   0.051105379   0.50729   0.26207  -0.60403  -0.27157
  22   33249.9    300.8   0.210518552   2.08438  -0.70693   1.19265  -0.40276
  23   33536.7    298.2   0.163187369   1.60192  -0.63592   1.02632  -0.37973
  24   33827.0    295.6   0.025668411   0.24981   0.30195  -0.36473   0.16002
  25   34433.0    290.4   0.238064144   2.27612   0.72490   1.29086  -0.29038
  26   34685.1    288.3   0.132717269   1.25968   1.03129  -0.44262  -0.01411
  27   34834.6    287.1   0.054961779   0.51943  -0.33007   0.01767   0.64045
  28   35068.9    285.2   0.422085864   3.96236  -1.05965  -1.67671   0.16780
  29   35418.2    282.3   0.000817883   0.00760  -0.02691  -0.04835   0.06738
  30   36198.5    276.3   0.019592879   0.17819  -0.08383   0.37162  -0.18183
  31   36509.5    273.9   0.209625809   1.89023   0.00344   1.20438   0.66309
  32   37193.6    268.9   0.013166970   0.11654   0.10722   0.28900   0.14673
  33   37380.0    267.5   0.010794090   0.09507   0.17100   0.01805   0.25593
  34   37449.3    267.0   0.011472055   0.10085  -0.18763   0.17733  -0.18493
  35   37654.5    265.6   0.023126298   0.20219   0.42337  -0.12362   0.08759
  36   38154.7    262.1   0.022240204   0.19190   0.36730  -0.13599  -0.19620
  37   38416.2    260.3   0.012277030   0.10521  -0.32291   0.00473   0.03023
  38   38766.3    258.0   0.000521501   0.00443  -0.03221  -0.00512  -0.05801
  39   39140.9    255.5   0.016271858   0.13686  -0.32935   0.13670   0.09851
  40   39216.0    255.0   0.038753048   0.32533  -0.39625   0.34152   0.22732
  41   39368.8    254.0   0.012016514   0.10049  -0.26676   0.14832   0.08559
  42   39480.2    253.3   0.039837315   0.33219   0.00794  -0.26612  -0.51118
  43   39859.0    250.9   0.177302693   1.46442  -0.89427   0.48512   0.65525

FINAL SINGLE POINT ENERGY     -5238.951596278409

DIPOLE MOMENT
-------------
                                X             Y             Z
Electronic contribution:    -16.53268      30.46806      23.81281
Nuclear contribution   :     14.99722     -32.35501     -25.20543
                        -----------------------------------------
Total Dipole Moment    :     -1.53546      -1.88695      -1.39262
                        -----------------------------------------
Magnitude (a.u.)       :      2.80314
Magnitude (Debye)      :      7.12501

Rotational constants in cm-1:     0.002184     0.000199     0.000195
Rotational constants in MHz :    65.460583     5.971467     5.856025

                             ****ORCA TERMINATED NORMALLY****
TOTAL RUN TIME: 0 days 0 hours 7 minutes 3 seconds 114 msec
