                         Program Version 4.2.0 -  RELEASE  -
|  1> # ORCA input file
|  2> # SCF done       -204.071139899649          0.000605203662
|  3> ! CAM-B3LYP def2-SVP def2/J RIJCOSX Grid4 TightSCF
|  4> %maxcore 5000
|  5> %tddft
|  6>     Mode sTDDFT
|  7>     Ethresh 5.0
|  8>     maxcore 5000
|  9> end
| 10>
| 11> %pal
| 12>   nprocs 6
| 13>   end
| 14> * xyz 0 1
| 15>    C        3.50121         1.94723         1.46096
| 16>    O        4.66529         1.58774         1.42643
| 17>    C        2.98444         3.30714         1.45734
| 18>    C        1.59588         3.31370         1.49907
| 19>    C        1.06185         4.61632         1.49736
| 20>    C        2.05559         5.54985         1.45523
| 21>    S        3.64467         4.88257         1.41578
| 22>    C        1.11984         1.94338         1.53005
| 23>    C       -0.20109         1.58332         1.55521
| 24>    C       -1.22925         2.55044         1.56358
| 25>    N       -2.07991         3.32009         1.57298
| 26>    C       -0.70445         0.26706         1.56881
| 27>    N       -1.18546        -0.77557         1.57706
| 28>    C        2.29936         1.09031         1.51836
| 29>    C        2.29158        -0.27709         1.57246
| 30>    C        3.35178        -1.19842         1.57270
| 31>    C        3.13246        -2.57788         1.65599
| 32>    C        4.30857        -3.30382         1.63905
| 33>    C        5.44800        -2.47187         1.53631
| 34>    S        5.07054        -0.81442         1.47008
| 35>    C        6.59478        -3.30468         1.52509
| 36>    C        6.19123        -4.64554         1.61978
| 37>    C        4.74052        -4.69248         1.69618
| 38>    C        3.95661        -5.80340         1.80377
| 39>    C        2.54947        -5.73100         1.87729
| 40>    N        1.40577        -5.68287         1.93814
| 41>    C        4.50558        -7.10178         1.85447
| 42>    N        4.95224        -8.15735         1.89385
| 43>    C        7.26552        -5.53877         1.61485
| 44>    C        8.48274        -4.89569         1.51562
| 45>    S        8.29082        -3.15067         1.42736
| 46>    C        9.80262        -5.47503         1.47917
| 47>    C       10.92132        -4.65656         1.26086
| 48>    C       12.17438        -5.21290         1.22469
| 49>    C       12.34850        -6.59644         1.40714
| 50>    C       11.24959        -7.41519         1.62639
| 51>    C        9.98985        -6.85304         1.66053
| 52>    C       13.76039        -6.89635         1.31776
| 53>    C       14.45767        -5.69872         1.07838
| 54>    C       13.50256        -4.53108         1.00081
| 55>    C       13.79201        -3.49187         2.10022
| 56>    C       13.75414        -4.08701         3.50263
| 57>    C       13.55736        -3.85036        -0.37990
| 58>    C       13.27430        -4.81301        -1.52691
| 59>    C       15.82314        -5.70289         0.94611
| 60>    C       16.53423        -6.91128         1.04914
| 61>    C       15.82201        -8.09553         1.29143
| 62>    C       14.44933        -8.09706         1.42562
| 63>    C       17.96594        -6.86850         0.89503
| 64>    C       18.81783        -7.91521         0.94862
| 65>    C       20.22724        -7.81268         0.78025
| 66>    C       21.00627        -6.69254         0.53582
| 67>    C       22.35871        -7.00589         0.42776
| 68>    C       22.62161        -8.37742         0.59033
| 69>    S       21.19629        -9.27394         0.87593
| 70>    C       24.01421        -8.58793         0.45632
| 71>    C       24.63806        -7.34609         0.21618
| 72>    C       23.61783        -6.31356         0.18793
| 73>    C       23.79401        -4.97678        -0.01754
| 74>    C       22.71136        -4.07255        -0.02129
| 75>    N       21.83006        -3.33874        -0.02032
| 76>    C       25.06742        -4.40796        -0.23200
| 77>    N       26.10062        -3.93901        -0.39573
| 78>    C       26.01857        -7.45365         0.08710
| 79>    C       26.45808        -8.76454         0.18303
| 80>    S       25.12356        -9.87611         0.50063
| 81>    C       27.80758        -9.18623         0.15304
| 82>    C       28.32838       -10.42417        -0.05417
| 83>    C       29.71886       -10.71688         0.42213
| 84>    O       30.54164        -9.91141         0.78895
| 85>    C       29.79329       -12.17395         0.38266
| 86>    C       28.64305       -12.72425        -0.17273
| 87>    C       27.76154       -11.64955        -0.58719
| 88>    C       26.77357       -11.77357        -1.52861
| 89>    C       26.37251       -13.03119        -2.02317
| 90>    N       26.02200       -14.04968        -2.41864
| 91>    C       26.14471       -10.68175        -2.15855
| 92>    N       25.64787        -9.81638        -2.72632
| 93>    C       28.68835       -14.12906        -0.23791
| 94>    C       29.85973       -14.60131         0.27728
| 95>    S       30.93067       -13.36849         0.83070
| 96>    H        0.01606         4.85922         1.52591
| 97>    H        1.94226         6.61628         1.44468
| 98>    H        1.32018        -0.75451         1.62962
| 99>    H        2.14415        -2.99716         1.72525
|100>    H        7.15844        -6.60575         1.67310
|101>    H       10.78417        -3.59396         1.11869
|102>    H       11.37313        -8.47785         1.76954
|103>    H        9.13623        -7.48798         1.83592
|104>    H       13.05355        -2.69095         2.02630
|105>    H       14.77634        -3.05620         1.91796
|106>    H       12.77462        -4.50949         3.71584
|107>    H       13.96399        -3.31641         4.24056
|108>    H       14.49716        -4.87465         3.60714
|109>    H       14.54764        -3.41025        -0.51251
|110>    H       12.82652        -3.03932        -0.39836
|111>    H       14.00217        -5.62131        -1.54014
|112>    H       13.32787        -4.28693        -2.47704
|113>    H       12.28165        -5.24737        -1.42996
|114>    H       16.36326        -4.78543         0.76076
|115>    H       16.35507        -9.02956         1.37483
|116>    H       13.92015        -9.01972         1.61081
|117>    H       18.37394        -5.88274         0.71484
|118>    H       18.44823        -8.91508         1.12627
|119>    H       20.60253        -5.70207         0.44063
|120>    H       26.68889        -6.63369        -0.09797
|121>    H       28.53433        -8.42086         0.41070
|122>    H       27.90882       -14.75586        -0.62965
|123>    H       30.16469       -15.62626         0.35972
|124> *
|125>
|126>                          ****END OF INPUT****

CARTESIAN COORDINATES (ANGSTROEM)
---------------------------------
  C      3.501210    1.947230    1.460960
  O      4.665290    1.587740    1.426430
  C      2.984440    3.307140    1.457340
  C      1.595880    3.313700    1.499070
  C      1.061850    4.616320    1.497360
  C      2.055590    5.549850    1.455230
  S      3.644670    4.882570    1.415780
  C      1.119840    1.943380    1.530050
  C     -0.201090    1.583320    1.555210
  C     -1.229250    2.550440    1.563580
  N     -2.079910    3.320090    1.572980
  C     -0.704450    0.267060    1.568810
  N     -1.185460   -0.775570    1.577060
  C      2.299360    1.090310    1.518360
  C      2.291580   -0.277090    1.572460
  C      3.351780   -1.198420    1.572700
  C      3.132460   -2.577880    1.655990
  C      4.308570   -3.303820    1.639050
  C      5.448000   -2.471870    1.536310
  S      5.070540   -0.814420    1.470080
  C      6.594780   -3.304680    1.525090
  C      6.191230   -4.645540    1.619780
  C      4.740520   -4.692480    1.696180
  C      3.956610   -5.803400    1.803770
  C      2.549470   -5.731000    1.877290
  N      1.405770   -5.682870    1.938140
  C      4.505580   -7.101780    1.854470
  N      4.952240   -8.157350    1.893850
  C      7.265520   -5.538770    1.614850
  C      8.482740   -4.895690    1.515620
  S      8.290820   -3.150670    1.427360
  C      9.802620   -5.475030    1.479170
  C     10.921320   -4.656560    1.260860
  C     12.174380   -5.212900    1.224690
  C     12.348500   -6.596440    1.407140
  C     11.249590   -7.415190    1.626390
  C      9.989850   -6.853040    1.660530
  C     13.760390   -6.896350    1.317760
  C     14.457670   -5.698720    1.078380
  C     13.502560   -4.531080    1.000810
  C     13.792010   -3.491870    2.100220
  C     13.754140   -4.087010    3.502630
  C     13.557360   -3.850360   -0.379900
  C     13.274300   -4.813010   -1.526910
  C     15.823140   -5.702890    0.946110
  C     16.534230   -6.911280    1.049140
  C     15.822010   -8.095530    1.291430
  C     14.449330   -8.097060    1.425620
  C     17.965940   -6.868500    0.895030
  C     18.817830   -7.915210    0.948620
  C     20.227240   -7.812680    0.780250
  C     21.006270   -6.692540    0.535820
  C     22.358710   -7.005890    0.427760
  C     22.621610   -8.377420    0.590330
  S     21.196290   -9.273940    0.875930
  C     24.014210   -8.587930    0.456320
  C     24.638060   -7.346090    0.216180
  C     23.617830   -6.313560    0.187930
  C     23.794010   -4.976780   -0.017540
  C     22.711360   -4.072550   -0.021290
  N     21.830060   -3.338740   -0.020320
  C     25.067420   -4.407960   -0.232000
  N     26.100620   -3.939010   -0.395730
  C     26.018570   -7.453650    0.087100
  C     26.458080   -8.764540    0.183030
  S     25.123560   -9.876110    0.500630
  C     27.807580   -9.186230    0.153040
  C     28.328380  -10.424170   -0.054170
  C     29.718860  -10.716880    0.422130
  O     30.541640   -9.911410    0.788950
  C     29.793290  -12.173950    0.382660
  C     28.643050  -12.724250   -0.172730
  C     27.761540  -11.649550   -0.587190
  C     26.773570  -11.773570   -1.528610
  C     26.372510  -13.031190   -2.023170
  N     26.022000  -14.049680   -2.418640
  C     26.144710  -10.681750   -2.158550
  N     25.647870   -9.816380   -2.726320
  C     28.688350  -14.129060   -0.237910
  C     29.859730  -14.601310    0.277280
  S     30.930670  -13.368490    0.830700
  H      0.016060    4.859220    1.525910
  H      1.942260    6.616280    1.444680
  H      1.320180   -0.754510    1.629620
  H      2.144150   -2.997160    1.725250
  H      7.158440   -6.605750    1.673100
  H     10.784170   -3.593960    1.118690
  H     11.373130   -8.477850    1.769540
  H      9.136230   -7.487980    1.835920
  H     13.053550   -2.690950    2.026300
  H     14.776340   -3.056200    1.917960
  H     12.774620   -4.509490    3.715840
  H     13.963990   -3.316410    4.240560
  H     14.497160   -4.874650    3.607140
  H     14.547640   -3.410250   -0.512510
  H     12.826520   -3.039320   -0.398360
  H     14.002170   -5.621310   -1.540140
  H     13.327870   -4.286930   -2.477040
  H     12.281650   -5.247370   -1.429960
  H     16.363260   -4.785430    0.760760
  H     16.355070   -9.029560    1.374830
  H     13.920150   -9.019720    1.610810
  H     18.373940   -5.882740    0.714840
  H     18.448230   -8.915080    1.126270
  H     20.602530   -5.702070    0.440630
  H     26.688890   -6.633690   -0.097970
  H     28.534330   -8.420860    0.410700
  H     27.908820  -14.755860   -0.629650
  H     30.164690  -15.626260    0.359720

 Total Charge           Charge          ....    0
 Multiplicity           Mult            ....    1
 Number of Electrons    NEL             ....  586
 Basis Dimension        Dim             .... 1298

ORBITAL ENERGIES
----------------

  NO   OCC          E(Eh)            E(eV)
   0   2.0000     -88.996468     -2421.7170
   1   2.0000     -88.993472     -2421.6355
   2   2.0000     -88.991829     -2421.5908
   3   2.0000     -88.991521     -2421.5824
   4   2.0000     -88.990985     -2421.5678
   5   2.0000     -88.989571     -2421.5293
   6   2.0000     -19.229319      -523.2564
   7   2.0000     -19.220004      -523.0029
   8   2.0000     -14.434593      -392.7852
   9   2.0000     -14.433347      -392.7514
  10   2.0000     -14.432365      -392.7246
  11   2.0000     -14.430419      -392.6717
  12   2.0000     -14.421970      -392.4417
  13   2.0000     -14.420741      -392.4083
  14   2.0000     -14.419809      -392.3829
  15   2.0000     -14.417885      -392.3306
  16   2.0000     -10.384981      -282.5897
  17   2.0000     -10.378817      -282.4220
  18   2.0000     -10.368638      -282.1450
  19   2.0000     -10.366080      -282.0754
  20   2.0000     -10.356424      -281.8126
  21   2.0000     -10.354376      -281.7569
  22   2.0000     -10.351352      -281.6746
  23   2.0000     -10.350110      -281.6408
  24   2.0000     -10.349091      -281.6131
  25   2.0000     -10.348507      -281.5972
  26   2.0000     -10.345706      -281.5210
  27   2.0000     -10.335096      -281.2323
  28   2.0000     -10.334756      -281.2230
  29   2.0000     -10.333380      -281.1856
  30   2.0000     -10.332883      -281.1720
  31   2.0000     -10.332860      -281.1714
  32   2.0000     -10.331660      -281.1388
  33   2.0000     -10.330552      -281.1086
  34   2.0000     -10.330310      -281.1020
  35   2.0000     -10.329086      -281.0687
  36   2.0000     -10.328031      -281.0400
  37   2.0000     -10.327966      -281.0382
  38   2.0000     -10.325920      -280.9826
  39   2.0000     -10.325695      -280.9764
  40   2.0000     -10.325530      -280.9719
  41   2.0000     -10.325008      -280.9578
  42   2.0000     -10.323871      -280.9268
  43   2.0000     -10.322969      -280.9023
  44   2.0000     -10.321840      -280.8716
  45   2.0000     -10.320464      -280.8341
  46   2.0000     -10.319325      -280.8031
  47   2.0000     -10.318848      -280.7901
  48   2.0000     -10.315762      -280.7061
  49   2.0000     -10.314514      -280.6722
  50   2.0000     -10.313956      -280.6570
  51   2.0000     -10.313123      -280.6343
  52   2.0000     -10.311558      -280.5918
  53   2.0000     -10.309242      -280.5287
  54   2.0000     -10.307217      -280.4736
  55   2.0000     -10.304520      -280.4003
  56   2.0000     -10.303758      -280.3795
  57   2.0000     -10.303657      -280.3768
  58   2.0000     -10.302700      -280.3507
  59   2.0000     -10.302655      -280.3495
  60   2.0000     -10.302063      -280.3334
  61   2.0000     -10.301829      -280.3270
  62   2.0000     -10.301512      -280.3184
  63   2.0000     -10.297576      -280.2113
  64   2.0000     -10.294392      -280.1247
  65   2.0000     -10.291919      -280.0574
  66   2.0000     -10.288606      -279.9672
  67   2.0000     -10.287208      -279.9292
  68   2.0000     -10.286614      -279.9130
  69   2.0000     -10.285798      -279.8908
  70   2.0000     -10.284634      -279.8591
  71   2.0000     -10.284287      -279.8497
  72   2.0000     -10.283473      -279.8275
  73   2.0000     -10.283231      -279.8209
  74   2.0000     -10.282621      -279.8043
  75   2.0000     -10.282121      -279.7907
  76   2.0000     -10.279664      -279.7239
  77   2.0000     -10.272616      -279.5321
  78   2.0000     -10.272186      -279.5204
  79   2.0000     -10.254855      -279.0488
  80   2.0000     -10.254243      -279.0321
  81   2.0000      -8.090544      -220.1549
  82   2.0000      -8.088162      -220.0901
  83   2.0000      -8.086937      -220.0567
  84   2.0000      -8.086186      -220.0363
  85   2.0000      -8.085894      -220.0284
  86   2.0000      -8.082104      -219.9252
  87   2.0000      -6.059830      -164.8964
  88   2.0000      -6.057351      -164.8289
  89   2.0000      -6.056090      -164.7946
  90   2.0000      -6.055576      -164.7806
  91   2.0000      -6.055353      -164.7745
  92   2.0000      -6.055050      -164.7663
  93   2.0000      -6.053197      -164.7159
  94   2.0000      -6.052970      -164.7097
  95   2.0000      -6.051663      -164.6741
  96   2.0000      -6.051525      -164.6704
  97   2.0000      -6.050917      -164.6538
  98   2.0000      -6.050895      -164.6532
  99   2.0000      -6.050631      -164.6460
 100   2.0000      -6.049640      -164.6191
 101   2.0000      -6.048869      -164.5981
 102   2.0000      -6.048446      -164.5866
 103   2.0000      -6.046765      -164.5408
 104   2.0000      -6.044624      -164.4826
 105   2.0000      -1.146209       -31.1899
 106   2.0000      -1.137108       -30.9423
 107   2.0000      -1.050172       -28.5766
 108   2.0000      -1.046878       -28.4870
 109   2.0000      -1.031982       -28.0817
 110   2.0000      -1.031414       -28.0662
 111   2.0000      -1.025852       -27.9149
 112   2.0000      -1.023320       -27.8459
 113   2.0000      -1.013070       -27.5670
 114   2.0000      -1.012939       -27.5635
 115   2.0000      -1.011551       -27.5257
 116   2.0000      -1.009049       -27.4576
 117   2.0000      -1.004354       -27.3299
 118   2.0000      -1.003855       -27.3163
 119   2.0000      -0.998351       -27.1665
 120   2.0000      -0.997810       -27.1518
 121   2.0000      -0.997366       -27.1397
 122   2.0000      -0.971301       -26.4304
 123   2.0000      -0.970642       -26.4125
 124   2.0000      -0.963941       -26.2302
 125   2.0000      -0.961967       -26.1765
 126   2.0000      -0.954580       -25.9754
 127   2.0000      -0.934341       -25.4247
 128   2.0000      -0.924860       -25.1667
 129   2.0000      -0.918766       -25.0009
 130   2.0000      -0.908888       -24.7321
 131   2.0000      -0.906474       -24.6664
 132   2.0000      -0.900868       -24.5139
 133   2.0000      -0.887327       -24.1454
 134   2.0000      -0.883183       -24.0326
 135   2.0000      -0.879369       -23.9288
 136   2.0000      -0.869127       -23.6501
 137   2.0000      -0.862739       -23.4763
 138   2.0000      -0.860012       -23.4021
 139   2.0000      -0.859146       -23.3786
 140   2.0000      -0.857827       -23.3427
 141   2.0000      -0.855841       -23.2886
 142   2.0000      -0.846498       -23.0344
 143   2.0000      -0.845930       -23.0189
 144   2.0000      -0.843052       -22.9406
 145   2.0000      -0.832599       -22.6562
 146   2.0000      -0.807581       -21.9754
 147   2.0000      -0.797019       -21.6880
 148   2.0000      -0.784345       -21.3431
 149   2.0000      -0.780670       -21.2431
 150   2.0000      -0.775909       -21.1136
 151   2.0000      -0.771736       -21.0000
 152   2.0000      -0.770991       -20.9797
 153   2.0000      -0.767513       -20.8851
 154   2.0000      -0.753996       -20.5173
 155   2.0000      -0.738803       -20.1039
 156   2.0000      -0.732052       -19.9202
 157   2.0000      -0.719862       -19.5884
 158   2.0000      -0.707883       -19.2625
 159   2.0000      -0.706562       -19.2265
 160   2.0000      -0.699435       -19.0326
 161   2.0000      -0.696830       -18.9617
 162   2.0000      -0.694210       -18.8904
 163   2.0000      -0.690257       -18.7828
 164   2.0000      -0.687001       -18.6943
 165   2.0000      -0.682985       -18.5850
 166   2.0000      -0.681530       -18.5454
 167   2.0000      -0.678061       -18.4510
 168   2.0000      -0.671593       -18.2750
 169   2.0000      -0.671504       -18.2725
 170   2.0000      -0.669419       -18.2158
 171   2.0000      -0.658229       -17.9113
 172   2.0000      -0.648353       -17.6426
 173   2.0000      -0.641412       -17.4537
 174   2.0000      -0.637863       -17.3571
 175   2.0000      -0.634970       -17.2784
 176   2.0000      -0.625276       -17.0146
 177   2.0000      -0.623216       -16.9586
 178   2.0000      -0.621957       -16.9243
 179   2.0000      -0.619685       -16.8625
 180   2.0000      -0.616659       -16.7802
 181   2.0000      -0.614540       -16.7225
 182   2.0000      -0.605245       -16.4695
 183   2.0000      -0.603240       -16.4150
 184   2.0000      -0.601940       -16.3796
 185   2.0000      -0.592992       -16.1361
 186   2.0000      -0.586132       -15.9495
 187   2.0000      -0.574306       -15.6277
 188   2.0000      -0.569527       -15.4976
 189   2.0000      -0.563607       -15.3365
 190   2.0000      -0.559501       -15.2248
 191   2.0000      -0.553482       -15.0610
 192   2.0000      -0.553015       -15.0483
 193   2.0000      -0.552490       -15.0340
 194   2.0000      -0.552162       -15.0251
 195   2.0000      -0.548653       -14.9296
 196   2.0000      -0.547487       -14.8979
 197   2.0000      -0.545386       -14.8407
 198   2.0000      -0.543242       -14.7824
 199   2.0000      -0.540156       -14.6984
 200   2.0000      -0.536864       -14.6088
 201   2.0000      -0.530896       -14.4464
 202   2.0000      -0.530185       -14.4271
 203   2.0000      -0.526644       -14.3307
 204   2.0000      -0.524553       -14.2738
 205   2.0000      -0.523660       -14.2495
 206   2.0000      -0.521852       -14.2003
 207   2.0000      -0.513926       -13.9846
 208   2.0000      -0.513316       -13.9680
 209   2.0000      -0.512040       -13.9333
 210   2.0000      -0.507303       -13.8044
 211   2.0000      -0.506761       -13.7897
 212   2.0000      -0.505736       -13.7618
 213   2.0000      -0.504987       -13.7414
 214   2.0000      -0.503378       -13.6976
 215   2.0000      -0.500917       -13.6307
 216   2.0000      -0.498246       -13.5580
 217   2.0000      -0.496067       -13.4987
 218   2.0000      -0.495693       -13.4885
 219   2.0000      -0.495433       -13.4814
 220   2.0000      -0.489383       -13.3168
 221   2.0000      -0.488477       -13.2921
 222   2.0000      -0.485851       -13.2207
 223   2.0000      -0.483985       -13.1699
 224   2.0000      -0.482634       -13.1331
 225   2.0000      -0.479155       -13.0385
 226   2.0000      -0.479021       -13.0348
 227   2.0000      -0.476146       -12.9566
 228   2.0000      -0.474703       -12.9173
 229   2.0000      -0.473540       -12.8857
 230   2.0000      -0.472182       -12.8487
 231   2.0000      -0.466610       -12.6971
 232   2.0000      -0.465038       -12.6543
 233   2.0000      -0.462645       -12.5892
 234   2.0000      -0.461463       -12.5570
 235   2.0000      -0.461198       -12.5498
 236   2.0000      -0.460271       -12.5246
 237   2.0000      -0.457406       -12.4467
 238   2.0000      -0.454911       -12.3787
 239   2.0000      -0.454468       -12.3667
 240   2.0000      -0.453668       -12.3449
 241   2.0000      -0.452983       -12.3263
 242   2.0000      -0.451606       -12.2888
 243   2.0000      -0.450960       -12.2712
 244   2.0000      -0.447368       -12.1735
 245   2.0000      -0.445338       -12.1183
 246   2.0000      -0.444947       -12.1076
 247   2.0000      -0.444681       -12.1004
 248   2.0000      -0.444098       -12.0845
 249   2.0000      -0.442119       -12.0307
 250   2.0000      -0.441558       -12.0154
 251   2.0000      -0.441454       -12.0126
 252   2.0000      -0.439747       -11.9661
 253   2.0000      -0.439573       -11.9614
 254   2.0000      -0.434092       -11.8122
 255   2.0000      -0.433488       -11.7958
 256   2.0000      -0.433312       -11.7910
 257   2.0000      -0.432901       -11.7798
 258   2.0000      -0.431194       -11.7334
 259   2.0000      -0.430485       -11.7141
 260   2.0000      -0.429618       -11.6905
 261   2.0000      -0.428900       -11.6710
 262   2.0000      -0.426894       -11.6164
 263   2.0000      -0.421544       -11.4708
 264   2.0000      -0.418058       -11.3759
 265   2.0000      -0.416456       -11.3324
 266   2.0000      -0.415979       -11.3194
 267   2.0000      -0.413384       -11.2488
 268   2.0000      -0.409935       -11.1549
 269   2.0000      -0.405192       -11.0258
 270   2.0000      -0.400733       -10.9045
 271   2.0000      -0.398972       -10.8566
 272   2.0000      -0.393846       -10.7171
 273   2.0000      -0.393140       -10.6979
 274   2.0000      -0.386017       -10.5040
 275   2.0000      -0.369908       -10.0657
 276   2.0000      -0.352634        -9.5957
 277   2.0000      -0.352243        -9.5850
 278   2.0000      -0.350019        -9.5245
 279   2.0000      -0.348676        -9.4879
 280   2.0000      -0.347776        -9.4635
 281   2.0000      -0.344451        -9.3730
 282   2.0000      -0.339931        -9.2500
 283   2.0000      -0.334987        -9.1155
 284   2.0000      -0.328853        -8.9485
 285   2.0000      -0.326995        -8.8980
 286   2.0000      -0.324440        -8.8285
 287   2.0000      -0.319779        -8.7016
 288   2.0000      -0.317027        -8.6267
 289   2.0000      -0.313162        -8.5216
 290   2.0000      -0.293458        -7.9854
 291   2.0000      -0.265078        -7.2131
 292   2.0000      -0.247683        -6.7398
 293   0.0000      -0.113184        -3.0799
 294   0.0000      -0.109240        -2.9726
 295   0.0000      -0.085882        -2.3370
 296   0.0000      -0.084506        -2.2995
 297   0.0000      -0.074286        -2.0214

MULLIKEN ATOMIC CHARGES
-----------------------
   0 C :    0.150465
   1 O :   -0.186204
   2 C :   -0.166467
   3 C :   -0.001361
   4 C :    0.027836
   5 C :   -0.060119
   6 S :    0.210059
   7 C :    0.311747
   8 C :   -0.334892
   9 C :   -0.193385
  10 N :    0.161667
  11 C :   -0.186971
  12 N :    0.158061
  13 C :   -0.112501
  14 C :   -0.030201
  15 C :   -0.057906
  16 C :   -0.056738
  17 C :    0.041560
  18 C :   -0.068074
  19 S :    0.236552
  20 C :   -0.098753
  21 C :    0.017203
  22 C :    0.305486
  23 C :   -0.295851
  24 C :   -0.195756
  25 N :    0.182329
  26 C :   -0.184736
  27 N :    0.168050
  28 C :   -0.046417
  29 C :   -0.060822
  30 S :    0.168837
  31 C :    0.153325
  32 C :   -0.128097
  33 C :    0.009597
  34 C :    0.111621
  35 C :   -0.044173
  36 C :   -0.033938
  37 C :    0.111779
  38 C :    0.014776
  39 C :   -0.140644
  40 C :    0.068014
  41 C :    0.024880
  42 C :    0.068141
  43 C :    0.023459
  44 C :   -0.108217
  45 C :    0.126887
  46 C :   -0.011673
  47 C :   -0.040297
  48 C :   -0.006972
  49 C :    0.063956
  50 C :   -0.071041
  51 C :   -0.033608
  52 C :    0.008620
  53 C :   -0.109334
  54 S :    0.194833
  55 C :   -0.079514
  56 C :    0.019695
  57 C :    0.303192
  58 C :   -0.292010
  59 C :   -0.185093
  60 N :    0.168136
  61 C :   -0.189567
  62 N :    0.176920
  63 C :    0.006156
  64 C :   -0.095474
  65 S :    0.201091
  66 C :    0.046909
  67 C :   -0.157131
  68 C :    0.125154
  69 O :   -0.139365
  70 C :   -0.158550
  71 C :   -0.016062
  72 C :    0.256229
  73 C :   -0.318063
  74 C :   -0.176966
  75 N :    0.155162
  76 C :   -0.209350
  77 N :    0.179060
  78 C :    0.032413
  79 C :   -0.061996
  80 S :    0.212295
  81 H :    0.018878
  82 H :    0.045300
  83 H :    0.015459
  84 H :    0.025850
  85 H :    0.007560
  86 H :   -0.023104
  87 H :   -0.028744
  88 H :   -0.019336
  89 H :   -0.000995
  90 H :    0.001007
  91 H :    0.020118
  92 H :    0.012877
  93 H :    0.022374
  94 H :    0.001485
  95 H :   -0.000765
  96 H :    0.023151
  97 H :    0.012675
  98 H :    0.020492
  99 H :   -0.034299
 100 H :   -0.030156
 101 H :   -0.033266
 102 H :   -0.013407
 103 H :   -0.019771
 104 H :    0.005127
 105 H :    0.017802
 106 H :    0.033283
 107 H :    0.017836
 108 H :    0.044705
Sum of atomic charges:   -0.0000000

LOEWDIN ATOMIC CHARGES
----------------------
   0 C :    0.069209
   1 O :   -0.173757
   2 C :   -0.210954
   3 C :   -0.037815
   4 C :   -0.043283
   5 C :   -0.149385
   6 S :    0.502309
   7 C :    0.076505
   8 C :   -0.135553
   9 C :   -0.017065
  10 N :   -0.050510
  11 C :   -0.024361
  12 N :   -0.041919
  13 C :   -0.111273
  14 C :    0.050532
  15 C :   -0.188882
  16 C :    0.011477
  17 C :   -0.081633
  18 C :   -0.163656
  19 S :    0.542824
  20 C :   -0.192585
  21 C :   -0.055191
  22 C :    0.079857
  23 C :   -0.102184
  24 C :   -0.020231
  25 N :   -0.025367
  26 C :   -0.015166
  27 N :   -0.035147
  28 C :   -0.035956
  29 C :   -0.139032
  30 S :    0.482574
  31 C :   -0.040018
  32 C :   -0.030219
  33 C :    0.008984
  34 C :   -0.014063
  35 C :   -0.011585
  36 C :   -0.009834
  37 C :   -0.014469
  38 C :    0.004331
  39 C :   -0.035889
  40 C :   -0.010984
  41 C :   -0.057527
  42 C :   -0.010959
  43 C :   -0.057413
  44 C :   -0.016206
  45 C :   -0.025900
  46 C :   -0.010678
  47 C :   -0.014070
  48 C :    0.003746
  49 C :   -0.051419
  50 C :   -0.147256
  51 C :   -0.033274
  52 C :   -0.051278
  53 C :   -0.198805
  54 S :    0.481475
  55 C :   -0.147230
  56 C :   -0.078413
  57 C :    0.082154
  58 C :   -0.099808
  59 C :   -0.014453
  60 N :   -0.035119
  61 C :   -0.017466
  62 N :   -0.028332
  63 C :    0.013420
  64 C :   -0.183306
  65 S :    0.506944
  66 C :    0.046354
  67 C :   -0.101031
  68 C :    0.066899
  69 O :   -0.140239
  70 C :   -0.210748
  71 C :   -0.037737
  72 C :    0.061835
  73 C :   -0.143941
  74 C :   -0.019404
  75 N :   -0.050442
  76 C :   -0.039360
  77 N :   -0.044827
  78 C :   -0.046329
  79 C :   -0.148709
  80 S :    0.503911
  81 H :    0.044096
  82 H :    0.031832
  83 H :    0.053899
  84 H :    0.047398
  85 H :    0.039151
  86 H :    0.015841
  87 H :    0.030398
  88 H :    0.031319
  89 H :    0.020275
  90 H :    0.021505
  91 H :    0.024855
  92 H :    0.025718
  93 H :    0.025718
  94 H :    0.021599
  95 H :    0.020294
  96 H :    0.025915
  97 H :    0.025804
  98 H :    0.025030
  99 H :    0.026219
 100 H :    0.025604
 101 H :    0.028527
 102 H :    0.031380
 103 H :    0.026111
 104 H :    0.038592
 105 H :    0.046892
 106 H :    0.055199
 107 H :    0.043585
 108 H :    0.031546

  Mayer bond orders larger than 0.100000
B(  0-C ,  1-O ) :   2.0991 B(  0-C ,  2-C ) :   1.0829 B(  0-C , 13-C ) :   0.9728
B(  2-C ,  3-C ) :   1.4638 B(  2-C ,  6-S ) :   1.1233 B(  3-C ,  4-C ) :   1.2739
B(  3-C ,  7-C ) :   0.9985 B(  4-C ,  5-C ) :   1.5363 B(  4-C , 81-H ) :   0.9962
B(  5-C ,  6-S ) :   1.1875 B(  5-C , 82-H ) :   0.9627 B(  7-C ,  8-C ) :   1.6507
B(  7-C , 13-C ) :   1.0725 B(  8-C ,  9-C ) :   1.1463 B(  8-C , 11-C ) :   1.1349
B(  9-C , 10-N ) :   2.9900 B( 11-C , 12-N ) :   2.9660 B( 13-C , 14-C ) :   1.5355
B( 14-C , 15-C ) :   1.2541 B( 14-C , 83-H ) :   0.9418 B( 15-C , 16-C ) :   1.3387
B( 15-C , 19-S ) :   1.0678 B( 16-C , 17-C ) :   1.3247 B( 16-C , 84-H ) :   1.0097
B( 17-C , 18-C ) :   1.3619 B( 17-C , 22-C ) :   0.9869 B( 18-C , 19-S ) :   1.1286
B( 18-C , 20-C ) :   1.1927 B( 20-C , 21-C ) :   1.4423 B( 20-C , 30-S ) :   1.1107
B( 21-C , 22-C ) :   1.0041 B( 21-C , 28-C ) :   1.2764 B( 22-C , 23-C ) :   1.7096
B( 23-C , 24-C ) :   1.1353 B( 23-C , 26-C ) :   1.1338 B( 24-C , 25-N ) :   2.9949
B( 26-C , 27-N ) :   2.9855 B( 28-C , 29-C ) :   1.4853 B( 28-C , 85-H ) :   0.9897
B( 29-C , 30-S ) :   1.1189 B( 29-C , 31-C ) :   1.0628 B( 31-C , 32-C ) :   1.2799
B( 31-C , 36-C ) :   1.3524 B( 32-C , 33-C ) :   1.4257 B( 32-C , 86-H ) :   0.9876
B( 33-C , 34-C ) :   1.3659 B( 33-C , 39-C ) :   0.9128 B( 34-C , 35-C ) :   1.3304
B( 34-C , 37-C ) :   0.9996 B( 35-C , 36-C ) :   1.3961 B( 35-C , 87-H ) :   0.9911
B( 36-C , 88-H ) :   0.9884 B( 37-C , 38-C ) :   1.3672 B( 37-C , 47-C ) :   1.3261
B( 38-C , 39-C ) :   0.9139 B( 38-C , 44-C ) :   1.3807 B( 39-C , 40-C ) :   1.0366
B( 39-C , 42-C ) :   1.0378 B( 40-C , 41-C ) :   1.1013 B( 40-C , 89-H ) :   0.9391
B( 40-C , 90-H ) :   0.9395 B( 41-C , 91-H ) :   0.9642 B( 41-C , 92-H ) :   0.9639
B( 41-C , 93-H ) :   0.9644 B( 42-C , 43-C ) :   1.0997 B( 42-C , 94-H ) :   0.9395
B( 42-C , 95-H ) :   0.9391 B( 43-C , 96-H ) :   0.9647 B( 43-C , 97-H ) :   0.9642
B( 43-C , 98-H ) :   0.9646 B( 44-C , 45-C ) :   1.2773 B( 44-C , 99-H ) :   1.0152
B( 45-C , 46-C ) :   1.3375 B( 45-C , 48-C ) :   1.0838 B( 46-C , 47-C ) :   1.4072
B( 46-C ,100-H ) :   0.9848 B( 47-C ,101-H ) :   0.9899 B( 48-C , 49-C ) :   1.6899
B( 48-C ,102-H ) :   0.9854 B( 49-C , 50-C ) :   1.1103 B( 49-C ,103-H ) :   0.9545
B( 50-C , 51-C ) :   1.4485 B( 50-C , 54-S ) :   1.1253 B( 51-C , 52-C ) :   1.3125
B( 51-C ,104-H ) :   0.9908 B( 52-C , 53-C ) :   1.4294 B( 52-C , 57-C ) :   0.9987
B( 53-C , 54-S ) :   1.1050 B( 53-C , 55-C ) :   1.2168 B( 55-C , 56-C ) :   1.3957
B( 55-C , 65-S ) :   1.1620 B( 56-C , 57-C ) :   0.9975 B( 56-C , 63-C ) :   1.3043
B( 57-C , 58-C ) :   1.7124 B( 58-C , 59-C ) :   1.1360 B( 58-C , 61-C ) :   1.1313
B( 59-C , 60-N ) :   2.9854 B( 61-C , 62-N ) :   2.9946 B( 63-C , 64-C ) :   1.4063
B( 63-C ,105-H ) :   1.0004 B( 64-C , 65-S ) :   1.0772 B( 64-C , 66-C ) :   1.1396
B( 66-C , 67-C ) :   1.6693 B( 66-C ,106-H ) :   0.9432 B( 67-C , 68-C ) :   0.9426
B( 67-C , 72-C ) :   1.0258 B( 68-C , 69-O ) :   2.2436 B( 68-C , 70-C ) :   1.0259
B( 70-C , 71-C ) :   1.4572 B( 70-C , 80-S ) :   1.1312 B( 71-C , 72-C ) :   1.0233
B( 71-C , 78-C ) :   1.2744 B( 72-C , 73-C ) :   1.6612 B( 73-C , 74-C ) :   1.1335
B( 73-C , 76-C ) :   1.1481 B( 74-C , 75-N ) :   3.0003 B( 76-C , 77-N ) :   3.0265
B( 78-C , 79-C ) :   1.5386 B( 78-C ,107-H ) :   0.9954 B( 79-C , 80-S ) :   1.1907
B( 79-C ,108-H ) :   0.9629

-----------------------------------------------------------------------------
         ABSORPTION SPECTRUM VIA TRANSITION ELECTRIC DIPOLE MOMENTS
-----------------------------------------------------------------------------
State   Energy  Wavelength   fosc         T2         TX        TY        TZ
        (cm-1)    (nm)                  (au**2)     (au)      (au)      (au)
-----------------------------------------------------------------------------
   0   12595.0    794.0   0.352461799   9.21274   2.84771  -0.99589  -0.33386
   1   14018.0    713.4   0.236772558   5.56060   1.89425  -1.40434  -0.01533
   2   20085.2    497.9   1.202280299  19.70626  -3.77755   2.22511   0.69660
   3   21595.7    463.1   0.917995160  13.99421   3.30662  -1.74279   0.15216
   4   22449.8    445.4   0.026245402   0.38487  -0.42418  -0.43425  -0.12794
   5   22720.7    440.1   0.009958476   0.14429  -0.29603  -0.23609   0.03036
   6   24118.3    414.6   0.718077237   9.80166   2.07932  -2.34041  -0.02419
   7   24890.0    401.8   0.469451649   6.20928  -2.47542   0.17869   0.22286
   8   26869.2    372.2   0.022500048   0.27568   0.03581  -0.47818   0.21387
   9   27864.4    358.9   0.172260566   2.03522  -1.38511  -0.33399  -0.07172
  10   28504.9    350.8   0.527554653   6.09289   2.18898   1.13549   0.10924
  11   29223.2    342.2   0.131806743   1.48486   0.71833   0.82527  -0.53646
  12   29648.1    337.3   0.016928761   0.18798  -0.34402   0.20831   0.16197
  13   30186.4    331.3   0.145971031   1.59195  -1.21577   0.30368   0.14712
  14   30492.8    327.9   0.061775165   0.66695  -0.32724   0.74749  -0.03354
  15   30702.0    325.7   0.002135227   0.02290   0.03728   0.13815   0.04919
  16   31135.8    321.2   0.141562326   1.49680   0.24229  -1.19846  -0.04228
  17   31203.9    320.5   0.470085533   4.95957   1.04251  -1.92028   0.43040
  18   31351.5    319.0   0.340002926   3.57026  -1.06752  -1.54943   0.17303
  19   31934.5    313.1   0.004965194   0.05119  -0.14042   0.10027   0.14634
  20   32042.8    312.1   0.019171491   0.19697  -0.19604   0.39560  -0.04520
  21   32215.8    310.4   0.178341504   1.82247  -0.21306  -1.33174  -0.05940
  22   32601.3    306.7   0.030538080   0.30838  -0.54730   0.08783  -0.03359
  23   32719.8    305.6   0.008241047   0.08292  -0.18371   0.21744   0.04344
  24   32905.1    303.9   0.278679989   2.78816  -0.43183  -1.60434   0.16665
  25   33285.3    300.4   0.248682732   2.45962  -1.06748   1.13920   0.14946
  26   33530.4    298.2   0.065228496   0.64043   0.73405  -0.31653  -0.03752
  27   33834.3    295.6   0.084134778   0.81864  -0.48977  -0.71598  -0.25719
  28   34131.2    293.0   0.162683843   1.56917   0.14714   1.24397  -0.00670
  29   34375.0    290.9   0.000503940   0.00483   0.02454  -0.06499  -0.00087
  30   34679.4    288.4   0.141078243   1.33926  -0.71124   0.67855  -0.61070
  31   34928.9    286.3   0.258899499   2.44018  -1.46335   0.51989  -0.16886
  32   35097.2    284.9   0.032912881   0.30872   0.23608  -0.47523   0.16475
  33   35740.8    279.8   0.130782988   1.20466   0.85905  -0.53438   0.42559
  34   35787.3    279.4   0.077828849   0.71596  -0.55762   0.49849  -0.39564
  35   36458.1    274.3   0.644023304   5.81545  -1.48380  -1.89444   0.15766
  36   36500.3    274.0   0.009560783   0.08623   0.08570  -0.06744   0.27265
  37   36764.1    272.0   0.049479828   0.44308   0.63761   0.16646  -0.09394
  38   36967.1    270.5   0.172416015   1.53546  -1.18132  -0.37120  -0.04639
  39   37045.2    269.9   0.187950095   1.67027  -1.28002   0.16178   0.07518
  40   37134.2    269.3   0.229380235   2.03356   1.36411   0.32941   0.25350
  41   37510.2    266.6   0.182454866   1.60133  -0.96769  -0.06392  -0.81291
  42   37691.0    265.3   0.130415391   1.13911   0.78308   0.37663   0.61972
  43   37859.5    264.1   0.021739839   0.18904  -0.35899  -0.23686  -0.06378
  44   37917.2    263.7   0.014405826   0.12508   0.28523   0.17465   0.11496
  45   38290.4    261.2   0.023066389   0.19832   0.32689   0.25107   0.16861
  46   38454.9    260.0   0.038470178   0.32934   0.44266   0.01287   0.36500
  47   38814.3    257.6   0.015301985   0.12979  -0.32917   0.04601  -0.13899
  48   39048.3    256.1   0.003641812   0.03070  -0.04468  -0.14312   0.09069
  49   39348.0    254.1   0.035652905   0.29830  -0.26062  -0.47418   0.07431
  50   39413.6    253.7   0.037946616   0.31696  -0.50746  -0.04127  -0.24028
  51   39616.4    252.4   0.005596407   0.04651   0.20220   0.06115   0.04338
  52   39848.4    251.0   0.005661550   0.04677  -0.02498   0.21451  -0.01165
  53   39909.7    250.6   0.019013764   0.15684  -0.37718   0.09000   0.08050

FINAL SINGLE POINT ENERGY     -5466.511798716032

DIPOLE MOMENT
-------------
                                X             Y             Z
Electronic contribution:     10.38543      -2.15115      -2.35128
Nuclear contribution   :     -7.98589       2.00636       3.86069
                        -----------------------------------------
Total Dipole Moment    :      2.39954      -0.14479       1.50942
                        -----------------------------------------
Magnitude (a.u.)       :      2.83851
Magnitude (Debye)      :      7.21491

Rotational constants in cm-1:     0.002038     0.000118     0.000113
Rotational constants in MHz :    61.111839     3.537260     3.375814

                             ****ORCA TERMINATED NORMALLY****
TOTAL RUN TIME: 0 days 0 hours 11 minutes 18 seconds 467 msec
