                         Program Version 4.2.0 -  RELEASE  -
|  1> # ORCA input file
|  2> # SCF done       -185.343603886543          0.000951628336
|  3> ! CAM-B3LYP def2-SVP def2/J RIJCOSX Grid4 TightSCF
|  4> %maxcore 5000
|  5> %tddft
|  6>     Mode sTDDFT
|  7>     Ethresh 5.0
|  8>     maxcore 5000
|  9> end
| 10>
| 11> %pal
| 12>   nprocs 6
| 13>   end
| 14> * xyz 0 1
| 15>    C        5.04141         3.58272         0.51504
| 16>    C        4.74092         4.90520         0.60714
| 17>    S        5.97027         5.76371         1.46327
| 18>    C        6.91413         4.31041         1.69527
| 19>   Cl        8.39469         4.34429         2.51750
| 20>    C        6.28482         3.23827         1.13656
| 21>    C        6.54836         1.80188         0.98281
| 22>    O        7.53511         1.20052         1.34423
| 23>    C        5.32274         1.26608         0.31976
| 24>    C        4.47104         2.38521        -0.06345
| 25>    C        3.39206         2.34936        -0.90536
| 26>    C        2.65288         3.51496        -1.19577
| 27>    N        2.04313         4.45880        -1.42644
| 28>    C        2.96498         1.20772        -1.61515
| 29>    N        2.61377         0.32465        -2.25883
| 30>    C        4.88398        -0.02614         0.25795
| 31>    C        5.53928        -1.26384         0.49249
| 32>    C        6.88600        -1.46620         0.46349
| 33>    C        7.47620        -2.75236         0.57466
| 34>    C        6.74748        -3.89722         0.49655
| 35>    C        5.24742        -3.80495         0.32579
| 36>    C        4.64766        -2.46174         0.78634
| 37>    N        3.31473        -2.25034         0.26697
| 38>    C        2.98322        -2.81546        -0.80845
| 39>    C        3.90838        -3.68589        -1.56212
| 40>    N        4.97497        -4.12386        -1.05875
| 41>    F        3.61507        -3.96720        -2.82486
| 42>    F        1.76159        -2.63987        -1.28304
| 43>    C        7.28032        -5.22655         0.50935
| 44>    N        8.53645        -5.60832         0.09891
| 45>    C        9.49534        -4.83983        -0.66420
| 46>    C       10.71231        -4.45673         0.17451
| 47>    C        8.75561        -6.98713         0.29733
| 48>    O        9.79721        -7.55024         0.01866
| 49>    C        7.52337        -7.46504         0.87269
| 50>    C        6.63156        -6.36871         0.97503
| 51>    C        5.41796        -6.86617         1.58454
| 52>    O        4.37806        -6.31188         1.89310
| 53>    N        5.65190        -8.23546         1.79750
| 54>    C        4.60404        -9.06976         2.33523
| 55>    C        3.87597        -9.83856         1.23570
| 56>    C        6.90411        -8.60737         1.36995
| 57>    C        7.54578        -9.87624         1.40136
| 58>    C        7.11694       -11.08830         1.80626
| 59>    C        8.00273       -12.23378         1.71593
| 60>    N        7.51473       -13.41994         2.09134
| 61>    C        8.32666       -14.45656         1.99375
| 62>    C        9.62689       -14.34860         1.52187
| 63>    C       10.05204       -13.06601         1.14983
| 64>    N        9.23113       -12.02652         1.26324
| 65>    C       11.37729       -12.79844         0.62832
| 66>    C       11.71608       -11.56555         0.20326
| 67>    C       12.99573       -11.21221        -0.30642
| 68>    C       13.30123       -10.06511        -0.96277
| 69>    C       14.73328        -9.63972        -1.08403
| 70>    O       15.70517       -10.32662        -0.88457
| 71>    C       14.65735        -8.21589        -1.43070
| 72>    C       15.52415        -7.17533        -1.58512
| 73>    S       14.65848        -5.71358        -1.99314
| 74>    C       13.13649        -6.52972        -1.96214
| 75>    C       13.28939        -7.84253        -1.64891
| 76>    C       12.44561        -9.01334        -1.49150
| 77>    C       11.16574        -9.11282        -1.95967
| 78>    C       10.52608        -8.00269        -2.55130
| 79>    N       10.01338        -7.10879        -3.05583
| 80>    C       10.39514       -10.29173        -2.02908
| 81>    N        9.74121       -11.22322        -2.17583
| 82>   Cl       17.21091        -7.18593        -1.42586
| 83>    H        3.88425         5.43523         0.24077
| 84>    H        3.83189        -0.15055         0.02113
| 85>    H        7.54858        -0.62615         0.33298
| 86>    H        8.54399        -2.78562         0.71646
| 87>    H        4.77313        -4.60137         0.91735
| 88>    H        4.52927        -2.49350         1.87930
| 89>    H        8.99562        -3.96259        -1.07607
| 90>    H        9.81579        -5.47639        -1.49584
| 91>    H       10.42352        -3.89153         1.05834
| 92>    H       11.39498        -3.85337        -0.41789
| 93>    H       11.22953        -5.35620         0.49907
| 94>    H        3.90283        -8.38978         2.82847
| 95>    H        5.02573        -9.74289         3.08466
| 96>    H        3.39921        -9.14043         0.55200
| 97>    H        3.11010       -10.47190         1.67450
| 98>    H        4.56543       -10.45959         0.66882
| 99>    H        8.55866        -9.83403         1.01866
|100>    H        6.13498       -11.30419         2.19212
|101>    H        7.91380       -15.40823         2.30418
|102>    H       10.27538       -15.20547         1.44149
|103>    H       12.06320       -13.63115         0.55820
|104>    H       10.96936       -10.78777         0.28342
|105>    H       13.82810       -11.87448        -0.09235
|106>    H       12.24068        -5.98049        -2.16861
|107> *
|108>
|109>                          ****END OF INPUT****

CARTESIAN COORDINATES (ANGSTROEM)
---------------------------------
  C      5.041410    3.582720    0.515040
  C      4.740920    4.905200    0.607140
  S      5.970270    5.763710    1.463270
  C      6.914130    4.310410    1.695270
  Cl     8.394690    4.344290    2.517500
  C      6.284820    3.238270    1.136560
  C      6.548360    1.801880    0.982810
  O      7.535110    1.200520    1.344230
  C      5.322740    1.266080    0.319760
  C      4.471040    2.385210   -0.063450
  C      3.392060    2.349360   -0.905360
  C      2.652880    3.514960   -1.195770
  N      2.043130    4.458800   -1.426440
  C      2.964980    1.207720   -1.615150
  N      2.613770    0.324650   -2.258830
  C      4.883980   -0.026140    0.257950
  C      5.539280   -1.263840    0.492490
  C      6.886000   -1.466200    0.463490
  C      7.476200   -2.752360    0.574660
  C      6.747480   -3.897220    0.496550
  C      5.247420   -3.804950    0.325790
  C      4.647660   -2.461740    0.786340
  N      3.314730   -2.250340    0.266970
  C      2.983220   -2.815460   -0.808450
  C      3.908380   -3.685890   -1.562120
  N      4.974970   -4.123860   -1.058750
  F      3.615070   -3.967200   -2.824860
  F      1.761590   -2.639870   -1.283040
  C      7.280320   -5.226550    0.509350
  N      8.536450   -5.608320    0.098910
  C      9.495340   -4.839830   -0.664200
  C     10.712310   -4.456730    0.174510
  C      8.755610   -6.987130    0.297330
  O      9.797210   -7.550240    0.018660
  C      7.523370   -7.465040    0.872690
  C      6.631560   -6.368710    0.975030
  C      5.417960   -6.866170    1.584540
  O      4.378060   -6.311880    1.893100
  N      5.651900   -8.235460    1.797500
  C      4.604040   -9.069760    2.335230
  C      3.875970   -9.838560    1.235700
  C      6.904110   -8.607370    1.369950
  C      7.545780   -9.876240    1.401360
  C      7.116940  -11.088300    1.806260
  C      8.002730  -12.233780    1.715930
  N      7.514730  -13.419940    2.091340
  C      8.326660  -14.456560    1.993750
  C      9.626890  -14.348600    1.521870
  C     10.052040  -13.066010    1.149830
  N      9.231130  -12.026520    1.263240
  C     11.377290  -12.798440    0.628320
  C     11.716080  -11.565550    0.203260
  C     12.995730  -11.212210   -0.306420
  C     13.301230  -10.065110   -0.962770
  C     14.733280   -9.639720   -1.084030
  O     15.705170  -10.326620   -0.884570
  C     14.657350   -8.215890   -1.430700
  C     15.524150   -7.175330   -1.585120
  S     14.658480   -5.713580   -1.993140
  C     13.136490   -6.529720   -1.962140
  C     13.289390   -7.842530   -1.648910
  C     12.445610   -9.013340   -1.491500
  C     11.165740   -9.112820   -1.959670
  C     10.526080   -8.002690   -2.551300
  N     10.013380   -7.108790   -3.055830
  C     10.395140  -10.291730   -2.029080
  N      9.741210  -11.223220   -2.175830
  Cl    17.210910   -7.185930   -1.425860
  H      3.884250    5.435230    0.240770
  H      3.831890   -0.150550    0.021130
  H      7.548580   -0.626150    0.332980
  H      8.543990   -2.785620    0.716460
  H      4.773130   -4.601370    0.917350
  H      4.529270   -2.493500    1.879300
  H      8.995620   -3.962590   -1.076070
  H      9.815790   -5.476390   -1.495840
  H     10.423520   -3.891530    1.058340
  H     11.394980   -3.853370   -0.417890
  H     11.229530   -5.356200    0.499070
  H      3.902830   -8.389780    2.828470
  H      5.025730   -9.742890    3.084660
  H      3.399210   -9.140430    0.552000
  H      3.110100  -10.471900    1.674500
  H      4.565430  -10.459590    0.668820
  H      8.558660   -9.834030    1.018660
  H      6.134980  -11.304190    2.192120
  H      7.913800  -15.408230    2.304180
  H     10.275380  -15.205470    1.441490
  H     12.063200  -13.631150    0.558200
  H     10.969360  -10.787770    0.283420
  H     13.828100  -11.874480   -0.092350
  H     12.240680   -5.980490   -2.168610

 Total Charge           Charge          ....    0
 Multiplicity           Mult            ....    1
 Number of Electrons    NEL             ....  498
 Basis Dimension        Dim             .... 1088

ORBITAL ENERGIES
----------------

  NO   OCC          E(Eh)            E(eV)
   0   2.0000    -101.617457     -2765.1516
   1   2.0000    -101.617109     -2765.1421
   2   2.0000     -88.992210     -2421.6011
   3   2.0000     -88.992141     -2421.5993
   4   2.0000     -24.798813      -674.8100
   5   2.0000     -24.797026      -674.7614
   6   2.0000     -19.223352      -523.0940
   7   2.0000     -19.219618      -522.9924
   8   2.0000     -19.203956      -522.5662
   9   2.0000     -19.201975      -522.5123
  10   2.0000     -14.464056      -393.5870
  11   2.0000     -14.463296      -393.5663
  12   2.0000     -14.428470      -392.6186
  13   2.0000     -14.427829      -392.6012
  14   2.0000     -14.418782      -392.3550
  15   2.0000     -14.418436      -392.3456
  16   2.0000     -14.417037      -392.3075
  17   2.0000     -14.416793      -392.3009
  18   2.0000     -14.415630      -392.2692
  19   2.0000     -14.415608      -392.2686
  20   2.0000     -10.416987      -283.4606
  21   2.0000     -10.411494      -283.3111
  22   2.0000     -10.387011      -282.6449
  23   2.0000     -10.384012      -282.5633
  24   2.0000     -10.380380      -282.4645
  25   2.0000     -10.375710      -282.3374
  26   2.0000     -10.375527      -282.3325
  27   2.0000     -10.375477      -282.3311
  28   2.0000     -10.352488      -281.7055
  29   2.0000     -10.352070      -281.6941
  30   2.0000     -10.349254      -281.6175
  31   2.0000     -10.347434      -281.5680
  32   2.0000     -10.344633      -281.4918
  33   2.0000     -10.344138      -281.4783
  34   2.0000     -10.344054      -281.4760
  35   2.0000     -10.340169      -281.3703
  36   2.0000     -10.330865      -281.1171
  37   2.0000     -10.329472      -281.0792
  38   2.0000     -10.328368      -281.0492
  39   2.0000     -10.327088      -281.0143
  40   2.0000     -10.321670      -280.8669
  41   2.0000     -10.320596      -280.8377
  42   2.0000     -10.318972      -280.7935
  43   2.0000     -10.318342      -280.7764
  44   2.0000     -10.317427      -280.7515
  45   2.0000     -10.316923      -280.7378
  46   2.0000     -10.316520      -280.7268
  47   2.0000     -10.316163      -280.7171
  48   2.0000     -10.312720      -280.6234
  49   2.0000     -10.311254      -280.5835
  50   2.0000     -10.310866      -280.5729
  51   2.0000     -10.308212      -280.5007
  52   2.0000     -10.306145      -280.4444
  53   2.0000     -10.305713      -280.4327
  54   2.0000     -10.304544      -280.4009
  55   2.0000     -10.302750      -280.3521
  56   2.0000     -10.301051      -280.3059
  57   2.0000     -10.300881      -280.3012
  58   2.0000     -10.299516      -280.2641
  59   2.0000     -10.299358      -280.2598
  60   2.0000     -10.297536      -280.2102
  61   2.0000     -10.296596      -280.1846
  62   2.0000     -10.295896      -280.1656
  63   2.0000     -10.294321      -280.1227
  64   2.0000     -10.273524      -279.5568
  65   2.0000     -10.270558      -279.4761
  66   2.0000     -10.267521      -279.3934
  67   2.0000     -10.265519      -279.3390
  68   2.0000      -9.572226      -260.4735
  69   2.0000      -9.571813      -260.4623
  70   2.0000      -8.087986      -220.0853
  71   2.0000      -8.087951      -220.0843
  72   2.0000      -7.342864      -199.8095
  73   2.0000      -7.342451      -199.7982
  74   2.0000      -7.332264      -199.5211
  75   2.0000      -7.331859      -199.5100
  76   2.0000      -7.331731      -199.5066
  77   2.0000      -7.331334      -199.4957
  78   2.0000      -6.057374      -164.8295
  79   2.0000      -6.057314      -164.8279
  80   2.0000      -6.052789      -164.7048
  81   2.0000      -6.052764      -164.7041
  82   2.0000      -6.050186      -164.6339
  83   2.0000      -6.050162      -164.6333
  84   2.0000      -1.328838       -36.1595
  85   2.0000      -1.314219       -35.7617
  86   2.0000      -1.144596       -31.1461
  87   2.0000      -1.140010       -31.0213
  88   2.0000      -1.137435       -30.9512
  89   2.0000      -1.136413       -30.9234
  90   2.0000      -1.093776       -29.7632
  91   2.0000      -1.081218       -29.4214
  92   2.0000      -1.073244       -29.2045
  93   2.0000      -1.064070       -28.9548
  94   2.0000      -1.037239       -28.2247
  95   2.0000      -1.036743       -28.2112
  96   2.0000      -1.014519       -27.6065
  97   2.0000      -1.014420       -27.6038
  98   2.0000      -1.012164       -27.5424
  99   2.0000      -0.995639       -27.0927
 100   2.0000      -0.994877       -27.0720
 101   2.0000      -0.992745       -27.0140
 102   2.0000      -0.987117       -26.8608
 103   2.0000      -0.986485       -26.8436
 104   2.0000      -0.965847       -26.2820
 105   2.0000      -0.954142       -25.9635
 106   2.0000      -0.952224       -25.9113
 107   2.0000      -0.937127       -25.5005
 108   2.0000      -0.933272       -25.3956
 109   2.0000      -0.914860       -24.8946
 110   2.0000      -0.911712       -24.8090
 111   2.0000      -0.901532       -24.5319
 112   2.0000      -0.900875       -24.5141
 113   2.0000      -0.887021       -24.1371
 114   2.0000      -0.875815       -23.8321
 115   2.0000      -0.863536       -23.4980
 116   2.0000      -0.858975       -23.3739
 117   2.0000      -0.852482       -23.1972
 118   2.0000      -0.831277       -22.6202
 119   2.0000      -0.831238       -22.6191
 120   2.0000      -0.826657       -22.4945
 121   2.0000      -0.820670       -22.3316
 122   2.0000      -0.803756       -21.8713
 123   2.0000      -0.794525       -21.6201
 124   2.0000      -0.774072       -21.0636
 125   2.0000      -0.771159       -20.9843
 126   2.0000      -0.766129       -20.8474
 127   2.0000      -0.762640       -20.7525
 128   2.0000      -0.759100       -20.6562
 129   2.0000      -0.752642       -20.4804
 130   2.0000      -0.748888       -20.3783
 131   2.0000      -0.734321       -19.9819
 132   2.0000      -0.718030       -19.5386
 133   2.0000      -0.714928       -19.4542
 134   2.0000      -0.693299       -18.8656
 135   2.0000      -0.691160       -18.8074
 136   2.0000      -0.690858       -18.7992
 137   2.0000      -0.685420       -18.6512
 138   2.0000      -0.681019       -18.5315
 139   2.0000      -0.675909       -18.3924
 140   2.0000      -0.674718       -18.3600
 141   2.0000      -0.674559       -18.3557
 142   2.0000      -0.664454       -18.0807
 143   2.0000      -0.658007       -17.9053
 144   2.0000      -0.650398       -17.6982
 145   2.0000      -0.643125       -17.5003
 146   2.0000      -0.639157       -17.3923
 147   2.0000      -0.625054       -17.0086
 148   2.0000      -0.622706       -16.9447
 149   2.0000      -0.621230       -16.9045
 150   2.0000      -0.616317       -16.7708
 151   2.0000      -0.610427       -16.6106
 152   2.0000      -0.607101       -16.5201
 153   2.0000      -0.604714       -16.4551
 154   2.0000      -0.598035       -16.2733
 155   2.0000      -0.593978       -16.1630
 156   2.0000      -0.586212       -15.9516
 157   2.0000      -0.581155       -15.8140
 158   2.0000      -0.578063       -15.7299
 159   2.0000      -0.574436       -15.6312
 160   2.0000      -0.570142       -15.5144
 161   2.0000      -0.562496       -15.3063
 162   2.0000      -0.560103       -15.2412
 163   2.0000      -0.558178       -15.1888
 164   2.0000      -0.557295       -15.1648
 165   2.0000      -0.553215       -15.0537
 166   2.0000      -0.550045       -14.9675
 167   2.0000      -0.546349       -14.8669
 168   2.0000      -0.543025       -14.7765
 169   2.0000      -0.541434       -14.7332
 170   2.0000      -0.540276       -14.7017
 171   2.0000      -0.538107       -14.6426
 172   2.0000      -0.535881       -14.5821
 173   2.0000      -0.533343       -14.5130
 174   2.0000      -0.531198       -14.4546
 175   2.0000      -0.527972       -14.3668
 176   2.0000      -0.526782       -14.3345
 177   2.0000      -0.524091       -14.2612
 178   2.0000      -0.523195       -14.2369
 179   2.0000      -0.522560       -14.2196
 180   2.0000      -0.520591       -14.1660
 181   2.0000      -0.516305       -14.0494
 182   2.0000      -0.512100       -13.9349
 183   2.0000      -0.509134       -13.8542
 184   2.0000      -0.506188       -13.7741
 185   2.0000      -0.502832       -13.6827
 186   2.0000      -0.500058       -13.6073
 187   2.0000      -0.498776       -13.5724
 188   2.0000      -0.496157       -13.5011
 189   2.0000      -0.494005       -13.4426
 190   2.0000      -0.490376       -13.3438
 191   2.0000      -0.489915       -13.3313
 192   2.0000      -0.486964       -13.2510
 193   2.0000      -0.485859       -13.2209
 194   2.0000      -0.476916       -12.9775
 195   2.0000      -0.472341       -12.8531
 196   2.0000      -0.471027       -12.8173
 197   2.0000      -0.466556       -12.6956
 198   2.0000      -0.465338       -12.6625
 199   2.0000      -0.463208       -12.6045
 200   2.0000      -0.459171       -12.4947
 201   2.0000      -0.457078       -12.4377
 202   2.0000      -0.456481       -12.4215
 203   2.0000      -0.454989       -12.3809
 204   2.0000      -0.452855       -12.3228
 205   2.0000      -0.451725       -12.2921
 206   2.0000      -0.450620       -12.2620
 207   2.0000      -0.448637       -12.2080
 208   2.0000      -0.447285       -12.1712
 209   2.0000      -0.443982       -12.0814
 210   2.0000      -0.442939       -12.0530
 211   2.0000      -0.441579       -12.0160
 212   2.0000      -0.439816       -11.9680
 213   2.0000      -0.439174       -11.9505
 214   2.0000      -0.432548       -11.7702
 215   2.0000      -0.429986       -11.7005
 216   2.0000      -0.428530       -11.6609
 217   2.0000      -0.426650       -11.6097
 218   2.0000      -0.425967       -11.5912
 219   2.0000      -0.422561       -11.4985
 220   2.0000      -0.418593       -11.3905
 221   2.0000      -0.413041       -11.2394
 222   2.0000      -0.412607       -11.2276
 223   2.0000      -0.411034       -11.1848
 224   2.0000      -0.407906       -11.0997
 225   2.0000      -0.403285       -10.9739
 226   2.0000      -0.402993       -10.9660
 227   2.0000      -0.401754       -10.9323
 228   2.0000      -0.396323       -10.7845
 229   2.0000      -0.393650       -10.7118
 230   2.0000      -0.388535       -10.5726
 231   2.0000      -0.377272       -10.2661
 232   2.0000      -0.370877       -10.0921
 233   2.0000      -0.363336        -9.8869
 234   2.0000      -0.353219        -9.6116
 235   2.0000      -0.344979        -9.3874
 236   2.0000      -0.343787        -9.3549
 237   2.0000      -0.342102        -9.3091
 238   2.0000      -0.338653        -9.2152
 239   2.0000      -0.337079        -9.1724
 240   2.0000      -0.335087        -9.1182
 241   2.0000      -0.333857        -9.0847
 242   2.0000      -0.332312        -9.0427
 243   2.0000      -0.323955        -8.8153
 244   2.0000      -0.316507        -8.6126
 245   2.0000      -0.315888        -8.5957
 246   2.0000      -0.298498        -8.1225
 247   2.0000      -0.294232        -8.0065
 248   2.0000      -0.251802        -6.8519
 249   0.0000      -0.112638        -3.0650
 250   0.0000      -0.098202        -2.6722
 251   0.0000      -0.077000        -2.0953
 252   0.0000      -0.052135        -1.4187
 253   0.0000      -0.050653        -1.3783

MULLIKEN ATOMIC CHARGES
-----------------------
   0 C :    0.037183
   1 C :   -0.129478
   2 S :    0.182877
   3 C :   -0.170342
   4 Cl:   -0.004413
   5 C :    0.077941
   6 C :    0.156215
   7 O :   -0.146415
   8 C :   -0.081885
   9 C :    0.264247
  10 C :   -0.310529
  11 C :   -0.190019
  12 N :    0.149712
  13 C :   -0.199162
  14 N :    0.157737
  15 C :   -0.012084
  16 C :   -0.049124
  17 C :    0.038008
  18 C :   -0.046080
  19 C :   -0.012902
  20 C :    0.043814
  21 C :    0.123426
  22 N :   -0.121231
  23 C :    0.153507
  24 C :    0.114145
  25 N :   -0.074086
  26 F :   -0.138359
  27 F :   -0.128767
  28 C :    0.164306
  29 N :   -0.263334
  30 C :    0.110746
  31 C :   -0.008477
  32 C :    0.172425
  33 O :   -0.219777
  34 C :   -0.034877
  35 C :   -0.052303
  36 C :    0.177669
  37 O :   -0.214847
  38 N :   -0.257350
  39 C :    0.099789
  40 C :   -0.001460
  41 C :    0.141361
  42 C :   -0.000037
  43 C :    0.031984
  44 C :   -0.068965
  45 N :   -0.061927
  46 C :    0.083186
  47 C :   -0.034329
  48 C :    0.058520
  49 N :   -0.060346
  50 C :    0.007031
  51 C :    0.044501
  52 C :    0.031811
  53 C :   -0.118489
  54 C :    0.138081
  55 O :   -0.126889
  56 C :    0.080642
  57 C :   -0.170973
  58 S :    0.178229
  59 C :   -0.124273
  60 C :    0.030748
  61 C :    0.281174
  62 C :   -0.284478
  63 C :   -0.140166
  64 N :    0.126932
  65 C :   -0.220701
  66 N :    0.181047
  67 Cl:   -0.001686
  68 H :    0.053936
  69 H :    0.056115
  70 H :    0.014237
  71 H :   -0.017945
  72 H :    0.065842
  73 H :    0.044919
  74 H :    0.032058
  75 H :    0.029846
  76 H :    0.018977
  77 H :    0.016580
  78 H :    0.035217
  79 H :    0.045603
  80 H :    0.027606
  81 H :    0.029913
  82 H :    0.026032
  83 H :    0.028217
  84 H :    0.026361
  85 H :   -0.010823
  86 H :    0.011399
  87 H :   -0.000250
  88 H :   -0.006962
  89 H :    0.057204
  90 H :    0.019009
  91 H :    0.038471
Sum of atomic charges:   -0.0000000

LOEWDIN ATOMIC CHARGES
----------------------
   0 C :   -0.058879
   1 C :   -0.148887
   2 S :    0.472215
   3 C :   -0.273376
   4 Cl:    0.188855
   5 C :   -0.115558
   6 C :    0.082182
   7 O :   -0.136609
   8 C :   -0.084839
   9 C :    0.073611
  10 C :   -0.135421
  11 C :   -0.015657
  12 N :   -0.052365
  13 C :   -0.025297
  14 N :   -0.047373
  15 C :    0.068648
  16 C :   -0.040369
  17 C :    0.036778
  18 C :   -0.015308
  19 C :   -0.002358
  20 C :    0.011320
  21 C :    0.023204
  22 N :   -0.080651
  23 C :    0.064023
  24 C :    0.046927
  25 N :   -0.069009
  26 F :   -0.027601
  27 F :   -0.015582
  28 C :    0.088341
  29 N :    0.007261
  30 C :    0.036212
  31 C :   -0.065220
  32 C :    0.093400
  33 O :   -0.201666
  34 C :   -0.109748
  35 C :   -0.117280
  36 C :    0.089314
  37 O :   -0.194914
  38 N :    0.004626
  39 C :    0.036544
  40 C :   -0.061344
  41 C :    0.081132
  42 C :   -0.003707
  43 C :   -0.009321
  44 C :    0.029333
  45 N :   -0.087146
  46 C :    0.054811
  47 C :   -0.054589
  48 C :    0.037374
  49 N :   -0.068594
  50 C :    0.001249
  51 C :    0.009825
  52 C :    0.060877
  53 C :   -0.068938
  54 C :    0.080344
  55 O :   -0.131534
  56 C :   -0.118778
  57 C :   -0.272766
  58 S :    0.469243
  59 C :   -0.151702
  60 C :   -0.050950
  61 C :    0.067734
  62 C :   -0.110377
  63 C :    0.004672
  64 N :   -0.061587
  65 C :   -0.021977
  66 N :   -0.041739
  67 Cl:    0.190477
  68 H :    0.038117
  69 H :    0.045857
  70 H :    0.037345
  71 H :    0.035788
  72 H :    0.044236
  73 H :    0.050295
  74 H :    0.028706
  75 H :    0.029605
  76 H :    0.020036
  77 H :    0.026223
  78 H :    0.030065
  79 H :    0.037885
  80 H :    0.024093
  81 H :    0.033207
  82 H :    0.032371
  83 H :    0.025118
  84 H :    0.047815
  85 H :    0.033045
  86 H :    0.028722
  87 H :    0.035787
  88 H :    0.032968
  89 H :    0.041962
  90 H :    0.045644
  91 H :    0.033599

  Mayer bond orders larger than 0.100000
B(  0-C ,  1-C ) :   1.5497 B(  0-C ,  5-C ) :   1.2215 B(  0-C ,  9-C ) :   0.9968
B(  1-C ,  2-S ) :   1.1581 B(  1-C , 68-H ) :   0.9560 B(  2-S ,  3-C ) :   1.1496
B(  3-C ,  4-Cl) :   1.1230 B(  3-C ,  5-C ) :   1.4805 B(  5-C ,  6-C ) :   0.9589
B(  6-C ,  7-O ) :   2.1923 B(  6-C ,  8-C ) :   0.9386 B(  8-C ,  9-C ) :   1.0688
B(  8-C , 15-C ) :   1.5820 B(  9-C , 10-C ) :   1.6620 B( 10-C , 11-C ) :   1.1424
B( 10-C , 13-C ) :   1.1284 B( 11-C , 12-N ) :   2.9943 B( 13-C , 14-N ) :   2.9974
B( 15-C , 16-C ) :   1.1999 B( 15-C , 69-H ) :   0.9278 B( 16-C , 17-C ) :   1.6512
B( 16-C , 21-C ) :   0.9278 B( 17-C , 18-C ) :   1.1095 B( 17-C , 70-H ) :   0.9570
B( 18-C , 19-C ) :   1.6299 B( 18-C , 71-H ) :   0.9902 B( 19-C , 20-C ) :   0.9984
B( 19-C , 28-C ) :   1.0997 B( 20-C , 21-C ) :   0.9882 B( 20-C , 25-N ) :   1.0395
B( 20-C , 72-H ) :   0.8450 B( 21-C , 22-N ) :   1.0408 B( 21-C , 73-H ) :   0.8816
B( 22-N , 23-C ) :   1.8949 B( 23-C , 24-C ) :   0.9296 B( 23-C , 27-F ) :   1.1785
B( 24-C , 25-N ) :   1.9462 B( 24-C , 26-F ) :   1.1720 B( 28-C , 29-N ) :   1.2043
B( 28-C , 35-C ) :   1.3598 B( 29-N , 30-C ) :   0.9256 B( 29-N , 32-C ) :   1.0449
B( 30-C , 31-C ) :   1.1076 B( 30-C , 74-H ) :   0.9450 B( 30-C , 75-H ) :   0.9269
B( 31-C , 76-H ) :   0.9592 B( 31-C , 77-H ) :   0.9671 B( 31-C , 78-H ) :   0.9594
B( 32-C , 33-O ) :   2.0281 B( 32-C , 34-C ) :   0.9973 B( 34-C , 35-C ) :   1.2277
B( 34-C , 41-C ) :   1.3555 B( 35-C , 36-C ) :   0.9728 B( 36-C , 37-O ) :   1.9959
B( 36-C , 38-N ) :   1.0736 B( 37-O , 72-H ) :   0.1390 B( 38-N , 39-C ) :   0.9363
B( 38-N , 41-C ) :   1.1707 B( 39-C , 40-C ) :   1.1184 B( 39-C , 79-H ) :   0.9268
B( 39-C , 80-H ) :   0.9505 B( 40-C , 81-H ) :   0.9619 B( 40-C , 82-H ) :   0.9682
B( 40-C , 83-H ) :   0.9684 B( 41-C , 42-C ) :   1.1349 B( 42-C , 43-C ) :   1.6313
B( 42-C , 84-H ) :   0.9429 B( 43-C , 44-C ) :   1.0159 B( 43-C , 85-H ) :   0.9772
B( 44-C , 45-N ) :   1.5344 B( 44-C , 49-N ) :   1.5452 B( 45-N , 46-C ) :   1.5466
B( 46-C , 47-C ) :   1.3725 B( 46-C , 86-H ) :   0.9791 B( 47-C , 48-C ) :   1.3289
B( 47-C , 87-H ) :   0.9770 B( 48-C , 49-N ) :   1.5191 B( 48-C , 50-C ) :   1.0473
B( 50-C , 51-C ) :   1.7275 B( 50-C , 88-H ) :   0.9851 B( 51-C , 52-C ) :   1.0748
B( 51-C , 89-H ) :   0.9452 B( 52-C , 53-C ) :   1.6836 B( 52-C , 90-H ) :   0.9572
B( 53-C , 54-C ) :   0.9296 B( 53-C , 61-C ) :   1.0217 B( 54-C , 55-O ) :   2.2833
B( 54-C , 56-C ) :   0.9258 B( 56-C , 57-C ) :   1.4821 B( 56-C , 60-C ) :   1.2229
B( 57-C , 58-S ) :   1.1536 B( 57-C , 67-Cl) :   1.1266 B( 58-S , 59-C ) :   1.1512
B( 59-C , 60-C ) :   1.5592 B( 59-C , 91-H ) :   0.9554 B( 60-C , 61-C ) :   1.0038
B( 61-C , 62-C ) :   1.6957 B( 62-C , 63-C ) :   1.1450 B( 62-C , 65-C ) :   1.1515
B( 63-C , 64-N ) :   2.9013 B( 65-C , 66-N ) :   3.0148

-----------------------------------------------------------------------------
         ABSORPTION SPECTRUM VIA TRANSITION ELECTRIC DIPOLE MOMENTS
-----------------------------------------------------------------------------
State   Energy  Wavelength   fosc         T2         TX        TY        TZ
        (cm-1)    (nm)                  (au**2)     (au)      (au)      (au)
-----------------------------------------------------------------------------
   0   15117.6    661.5   0.843480709  18.36831  -0.32092   4.21656  -0.69712
   1   18426.0    542.7   0.012427919   0.22205  -0.41365   0.13233   0.18283
   2   22997.5    434.8   0.052015308   0.74460  -0.79973   0.31196  -0.08787
   3   23309.4    429.0   0.311187667   4.39508   0.99995  -1.82048   0.28467
   4   25686.4    389.3   0.006219845   0.07972   0.02466  -0.19010   0.20730
   5   26229.4    381.3   0.301113898   3.77936  -0.59830  -1.34361   1.27127
   6   27164.0    368.1   0.026771965   0.32446  -0.43959   0.33427   0.13958
   7   27425.0    364.6   0.039196620   0.47052  -0.33575   0.59807  -0.01027
   8   27879.1    358.7   0.103135453   1.21788   0.43156  -1.01518  -0.03255
   9   28227.6    354.3   0.009709491   0.11324   0.18918  -0.26634  -0.08073
  10   28698.8    348.4   0.150992423   1.73208  -0.72494  -0.99338   0.46875
  11   29083.6    343.8   0.014102629   0.15963  -0.02325  -0.39863  -0.01385
  12   29273.7    341.6   0.025807390   0.29023   0.47229   0.25600   0.04047
  13   29296.2    341.3   0.126802161   1.42492   0.49821   0.83147  -0.69668
  14   29514.3    338.8   0.053578582   0.59763  -0.40542   0.37357  -0.54196
  15   29628.0    337.5   0.025943552   0.28827   0.17676   0.48952  -0.13190
  16   30210.3    331.0   0.164068851   1.78792  -0.18048   1.22912   0.49457
  17   30782.3    324.9   0.001310092   0.01401  -0.03577  -0.03789   0.10628
  18   31256.3    319.9   0.003860217   0.04066  -0.12612  -0.01623  -0.15648
  19   31794.4    314.5   0.038238173   0.39593  -0.31151  -0.40441  -0.36790
  20   31974.9    312.7   0.080898355   0.83292  -0.01135  -0.87354  -0.26405
  21   32215.8    310.4   0.056470098   0.57707   0.21983  -0.65922   0.30686
  22   32522.1    307.5   0.016837734   0.17044   0.39395   0.12102  -0.02450
  23   32677.7    306.0   0.036193614   0.36463  -0.19792  -0.56675   0.06522
  24   32968.8    303.3   0.014321869   0.14301   0.03327   0.06411   0.37121
  25   33763.5    296.2   0.049850465   0.48607   0.06420   0.69047  -0.07214
  26   33888.2    295.1   0.014496848   0.14083   0.09415   0.34152   0.12383
  27   34316.1    291.4   0.112797390   1.08212  -0.87284   0.53544   0.18326
  28   34367.8    291.0   0.062949775   0.60300  -0.11754  -0.76740   0.01664
  29   35132.9    284.6   0.060550803   0.56739  -0.73787  -0.07019   0.13422
  30   35302.0    283.3   0.255600474   2.38362  -1.52567  -0.05952  -0.22893
  31   35600.9    280.9   0.071529503   0.66145  -0.61822  -0.52822  -0.01524
  32   36127.2    276.8   0.002545884   0.02320   0.10469   0.10059   0.04606
  33   36453.7    274.3   0.283380245   2.55920  -1.51130  -0.48713   0.19458
  34   36577.0    273.4   0.029057245   0.26153   0.26026   0.42904   0.09861
  35   36769.5    272.0   0.315642032   2.82607  -1.08364  -1.14844   0.57695
  36   36981.2    270.4   0.371502749   3.30717  -1.23498  -1.24991  -0.46874
  37   37088.4    269.6   0.096576489   0.85725  -0.53500  -0.01629  -0.75549
  38   37338.1    267.8   0.100153023   0.88305  -0.81047  -0.46378   0.10533
  39   37810.4    264.5   0.362646745   3.15754  -0.46956  -1.57392  -0.67810
  40   38101.0    262.5   0.009679001   0.08363   0.11851   0.24211  -0.10475
  41   38831.6    257.5   0.260871157   2.21165  -1.32781  -0.60583  -0.28554
  42   38892.2    257.1   0.343701747   2.90934   1.13275  -1.27358   0.06489
  43   39173.3    255.3   0.011829247   0.09941   0.29455  -0.11248   0.00076
  44   39480.9    253.3   0.008658449   0.07220  -0.07997  -0.12343  -0.22488
  45   39836.0    251.0   0.035367956   0.29229  -0.50133  -0.19850  -0.03939
  46   40063.3    249.6   0.002590393   0.02129  -0.13886  -0.04417  -0.00722
  47   40205.2    248.7   0.026095738   0.21368   0.41411   0.14813   0.14230
  48   40297.1    248.2   0.021236044   0.17349   0.31530   0.15658  -0.22263

FINAL SINGLE POINT ENERGY     -4604.188378402199

DIPOLE MOMENT
-------------
                                X             Y             Z
Electronic contribution:     12.82720      62.23875     -15.97319
Nuclear contribution   :    -10.44954     -63.25812      18.49031
                        -----------------------------------------
Total Dipole Moment    :      2.37767      -1.01937       2.51712
                        -----------------------------------------
Magnitude (a.u.)       :      3.60947
Magnitude (Debye)      :      9.17455

Rotational constants in cm-1:     0.001391     0.000446     0.000366
Rotational constants in MHz :    41.711440    13.370173    10.981545

                             ****ORCA TERMINATED NORMALLY****
TOTAL RUN TIME: 0 days 0 hours 8 minutes 56 seconds 558 msec
