                         Program Version 4.2.0 -  RELEASE  -
|  1> # ORCA input file
|  2> # SCF done       -183.086151577412          0.000315824301
|  3> ! CAM-B3LYP def2-SVP def2/J RIJCOSX Grid4 TightSCF
|  4> %maxcore 5000
|  5> %tddft
|  6>     Mode sTDDFT
|  7>     Ethresh 5.0
|  8>     maxcore 5000
|  9> end
| 10>
| 11> %pal
| 12>   nprocs 6
| 13>   end
| 14> * xyz 0 1
| 15>    C        0.54948         1.09988        -1.27895
| 16>    C       -0.73534         0.95466        -0.83801
| 17>    C       -1.17881        -0.14174        -0.06847
| 18>    N       -1.58555        -1.01403         0.55613
| 19>    C       -1.79216         1.81992        -1.19239
| 20>    N       -2.69713         2.45160        -1.50783
| 21>    C        1.60465         0.10108        -1.17155
| 22>    C        2.60340         0.38246        -2.15135
| 23>    C        3.69674        -0.42095        -2.31083
| 24>    C        3.84729        -1.55340        -1.47996
| 25>    C        2.86150        -1.82944        -0.48768
| 26>    C        1.73778        -0.98405        -0.34700
| 27>    C        3.02774        -2.95945         0.33893
| 28>    C        4.11246        -3.78029         0.19243
| 29>    C        5.08167        -3.50868        -0.78526
| 30>    C        4.95192        -2.41960        -1.60352
| 31>    C        2.24861         1.61348        -2.87596
| 32>    O        2.81565         2.13058        -3.80860
| 33>    C        1.04343         2.14319        -2.16365
| 34>    C        0.68036         3.43622        -2.30699
| 35>    C       -0.19429         4.15229        -1.43789
| 36>    S       -1.17374         5.50299        -1.97583
| 37>    C       -1.75645         5.56768        -0.31528
| 38>    N       -1.18445         4.67606         0.44518
| 39>    N       -0.34263         3.90192        -0.16680
| 40>    C       -2.78270         6.46308         0.09059
| 41>    C       -3.19290         6.52278         1.38079
| 42>    C       -4.24611         7.27369         1.96522
| 43>    N       -5.24778         8.01138         1.36921
| 44>    C       -5.54238         8.16986        -0.03544
| 45>    C       -6.10186         6.89041        -0.65175
| 46>    C       -6.13460         8.54764         2.32235
| 47>    O       -7.10186         9.22574         2.03107
| 48>    C       -5.60946         8.11787         3.59623
| 49>    C       -4.45213         7.34667         3.34062
| 50>    C       -3.91090         6.90744         4.61031
| 51>    O       -2.94082         6.24571         4.90196
| 52>    N       -4.81015         7.43625         5.56289
| 53>    C       -4.59120         7.25543         6.97714
| 54>    C       -4.03235         8.51648         7.63156
| 55>    C       -5.82530         8.14969         4.97427
| 56>    C       -6.90183         8.72975         5.68965
| 57>    C       -7.90436         9.40970         5.07849
| 58>    C       -9.03029         9.94102         5.75696
| 59>    S       -9.26366         9.78705         7.47260
| 60>    C      -10.78096        10.61404         7.39680
| 61>    C      -11.56710        10.71001         8.60130
| 62>    O      -12.65903        11.22257         8.70888
| 63>    C      -11.08435        10.99714         6.08943
| 64>    C      -10.10053        10.59591         5.17666
| 65>    C      -12.30779        11.66422         5.68412
| 66>    C      -12.82616        12.74098         6.29815
| 67>    C      -14.13922        13.34151         6.09013
| 68>    C      -14.95583        13.15913         5.00985
| 69>    C      -16.22044        13.76909         4.86226
| 70>    N      -17.25309        14.23687         4.68465
| 71>    C      -14.62761        12.37397         3.88356
| 72>    N      -14.41305        11.76001         2.93778
| 73>    C      -14.40996        14.18340         7.24584
| 74>    C      -13.23821        14.25505         8.05512
| 75>    C      -12.16760        13.46154         7.43642
| 76>    O      -10.99155        13.45072         7.71660
| 77>    C      -13.20837        14.97459         9.21507
| 78>    C      -14.37156        15.65808         9.63245
| 79>    C      -15.54828        15.58840         8.83066
| 80>    C      -15.54885        14.84237         7.63143
| 81>    C      -16.70403        16.27376         9.25938
| 82>    C      -16.70038        16.99228        10.42337
| 83>    C      -15.54180        17.05959        11.21245
| 84>    C      -14.40285        16.40751        10.82532
| 85>    H        4.43838        -0.19518        -3.06262
| 86>    H        1.01130        -1.20749         0.41857
| 87>    H        2.27732        -3.16574         1.08773
| 88>    H        4.22989        -4.64435         0.82903
| 89>    H        5.93159        -4.16680        -0.88634
| 90>    H        5.69490        -2.20582        -2.35783
| 91>    H        1.13906         3.99413        -3.11505
| 92>    H       -3.21092         7.06478        -0.69407
| 93>    H       -2.65245         5.91641         2.09746
| 94>    H       -4.65234         8.51700        -0.56562
| 95>    H       -6.29995         8.95830        -0.08628
| 96>    H       -5.40045         6.06474        -0.55928
| 97>    H       -6.31522         7.05336        -1.70451
| 98>    H       -7.02608         6.61437        -0.15007
| 99>    H       -3.86496         6.44255         7.06571
|100>    H       -5.52440         6.94831         7.45810
|101>    H       -3.08684         8.78705         7.16817
|102>    H       -3.86140         8.33644         8.68917
|103>    H       -4.72147         9.35133         7.52526
|104>    H       -6.93282         8.59587         6.76261
|105>    H       -7.88145         9.55608         4.00564
|106>    H      -11.07296        10.23883         9.47268
|107>    H      -10.15491        10.79018         4.12004
|108>    H      -12.81301        11.21539         4.83815
|109>    H      -12.30969        15.01321         9.81241
|110>    H      -16.45610        14.80138         7.04921
|111>    H      -17.59297        16.21917         8.64824
|112>    H      -17.59044        17.51279        10.74372
|113>    H      -15.55724        17.63061        12.12876
|114>    H      -13.50835        16.45584        11.42889
|115> *
|116>
|117>                          ****END OF INPUT****

CARTESIAN COORDINATES (ANGSTROEM)
---------------------------------
  C      0.549480    1.099880   -1.278950
  C     -0.735340    0.954660   -0.838010
  C     -1.178810   -0.141740   -0.068470
  N     -1.585550   -1.014030    0.556130
  C     -1.792160    1.819920   -1.192390
  N     -2.697130    2.451600   -1.507830
  C      1.604650    0.101080   -1.171550
  C      2.603400    0.382460   -2.151350
  C      3.696740   -0.420950   -2.310830
  C      3.847290   -1.553400   -1.479960
  C      2.861500   -1.829440   -0.487680
  C      1.737780   -0.984050   -0.347000
  C      3.027740   -2.959450    0.338930
  C      4.112460   -3.780290    0.192430
  C      5.081670   -3.508680   -0.785260
  C      4.951920   -2.419600   -1.603520
  C      2.248610    1.613480   -2.875960
  O      2.815650    2.130580   -3.808600
  C      1.043430    2.143190   -2.163650
  C      0.680360    3.436220   -2.306990
  C     -0.194290    4.152290   -1.437890
  S     -1.173740    5.502990   -1.975830
  C     -1.756450    5.567680   -0.315280
  N     -1.184450    4.676060    0.445180
  N     -0.342630    3.901920   -0.166800
  C     -2.782700    6.463080    0.090590
  C     -3.192900    6.522780    1.380790
  C     -4.246110    7.273690    1.965220
  N     -5.247780    8.011380    1.369210
  C     -5.542380    8.169860   -0.035440
  C     -6.101860    6.890410   -0.651750
  C     -6.134600    8.547640    2.322350
  O     -7.101860    9.225740    2.031070
  C     -5.609460    8.117870    3.596230
  C     -4.452130    7.346670    3.340620
  C     -3.910900    6.907440    4.610310
  O     -2.940820    6.245710    4.901960
  N     -4.810150    7.436250    5.562890
  C     -4.591200    7.255430    6.977140
  C     -4.032350    8.516480    7.631560
  C     -5.825300    8.149690    4.974270
  C     -6.901830    8.729750    5.689650
  C     -7.904360    9.409700    5.078490
  C     -9.030290    9.941020    5.756960
  S     -9.263660    9.787050    7.472600
  C    -10.780960   10.614040    7.396800
  C    -11.567100   10.710010    8.601300
  O    -12.659030   11.222570    8.708880
  C    -11.084350   10.997140    6.089430
  C    -10.100530   10.595910    5.176660
  C    -12.307790   11.664220    5.684120
  C    -12.826160   12.740980    6.298150
  C    -14.139220   13.341510    6.090130
  C    -14.955830   13.159130    5.009850
  C    -16.220440   13.769090    4.862260
  N    -17.253090   14.236870    4.684650
  C    -14.627610   12.373970    3.883560
  N    -14.413050   11.760010    2.937780
  C    -14.409960   14.183400    7.245840
  C    -13.238210   14.255050    8.055120
  C    -12.167600   13.461540    7.436420
  O    -10.991550   13.450720    7.716600
  C    -13.208370   14.974590    9.215070
  C    -14.371560   15.658080    9.632450
  C    -15.548280   15.588400    8.830660
  C    -15.548850   14.842370    7.631430
  C    -16.704030   16.273760    9.259380
  C    -16.700380   16.992280   10.423370
  C    -15.541800   17.059590   11.212450
  C    -14.402850   16.407510   10.825320
  H      4.438380   -0.195180   -3.062620
  H      1.011300   -1.207490    0.418570
  H      2.277320   -3.165740    1.087730
  H      4.229890   -4.644350    0.829030
  H      5.931590   -4.166800   -0.886340
  H      5.694900   -2.205820   -2.357830
  H      1.139060    3.994130   -3.115050
  H     -3.210920    7.064780   -0.694070
  H     -2.652450    5.916410    2.097460
  H     -4.652340    8.517000   -0.565620
  H     -6.299950    8.958300   -0.086280
  H     -5.400450    6.064740   -0.559280
  H     -6.315220    7.053360   -1.704510
  H     -7.026080    6.614370   -0.150070
  H     -3.864960    6.442550    7.065710
  H     -5.524400    6.948310    7.458100
  H     -3.086840    8.787050    7.168170
  H     -3.861400    8.336440    8.689170
  H     -4.721470    9.351330    7.525260
  H     -6.932820    8.595870    6.762610
  H     -7.881450    9.556080    4.005640
  H    -11.072960   10.238830    9.472680
  H    -10.154910   10.790180    4.120040
  H    -12.813010   11.215390    4.838150
  H    -12.309690   15.013210    9.812410
  H    -16.456100   14.801380    7.049210
  H    -17.592970   16.219170    8.648240
  H    -17.590440   17.512790   10.743720
  H    -15.557240   17.630610   12.128760
  H    -13.508350   16.455840   11.428890

 Total Charge           Charge          ....    0
 Multiplicity           Mult            ....    1
 Number of Electrons    NEL             ....  488
 Basis Dimension        Dim             .... 1138

ORBITAL ENERGIES
----------------

  NO   OCC          E(Eh)            E(eV)
   0   2.0000     -88.981533     -2421.3106
   1   2.0000     -88.979394     -2421.2524
   2   2.0000     -19.221566      -523.0454
   3   2.0000     -19.219616      -522.9923
   4   2.0000     -19.214091      -522.8420
   5   2.0000     -19.196367      -522.3597
   6   2.0000     -19.193154      -522.2723
   7   2.0000     -14.458381      -393.4325
   8   2.0000     -14.455620      -393.3574
   9   2.0000     -14.447868      -393.1465
  10   2.0000     -14.440333      -392.9414
  11   2.0000     -14.417589      -392.3225
  12   2.0000     -14.416345      -392.2887
  13   2.0000     -14.414463      -392.2375
  14   2.0000     -14.413431      -392.2094
  15   2.0000     -10.379558      -282.4421
  16   2.0000     -10.376002      -282.3454
  17   2.0000     -10.371290      -282.2171
  18   2.0000     -10.370319      -282.1907
  19   2.0000     -10.367246      -282.1071
  20   2.0000     -10.349938      -281.6361
  21   2.0000     -10.349062      -281.6123
  22   2.0000     -10.348378      -281.5937
  23   2.0000     -10.344917      -281.4995
  24   2.0000     -10.343802      -281.4692
  25   2.0000     -10.342125      -281.4235
  26   2.0000     -10.339925      -281.3637
  27   2.0000     -10.338671      -281.3295
  28   2.0000     -10.328301      -281.0473
  29   2.0000     -10.323863      -280.9266
  30   2.0000     -10.319799      -280.8160
  31   2.0000     -10.318687      -280.7857
  32   2.0000     -10.317983      -280.7666
  33   2.0000     -10.316253      -280.7195
  34   2.0000     -10.315985      -280.7122
  35   2.0000     -10.315492      -280.6988
  36   2.0000     -10.313067      -280.6328
  37   2.0000     -10.312255      -280.6107
  38   2.0000     -10.308373      -280.5051
  39   2.0000     -10.308024      -280.4956
  40   2.0000     -10.307544      -280.4825
  41   2.0000     -10.304333      -280.3952
  42   2.0000     -10.303196      -280.3642
  43   2.0000     -10.303150      -280.3630
  44   2.0000     -10.302335      -280.3408
  45   2.0000     -10.301834      -280.3272
  46   2.0000     -10.299930      -280.2753
  47   2.0000     -10.298937      -280.2483
  48   2.0000     -10.298729      -280.2427
  49   2.0000     -10.298580      -280.2386
  50   2.0000     -10.298216      -280.2287
  51   2.0000     -10.297684      -280.2142
  52   2.0000     -10.297440      -280.2076
  53   2.0000     -10.296742      -280.1886
  54   2.0000     -10.296570      -280.1839
  55   2.0000     -10.295690      -280.1600
  56   2.0000     -10.291239      -280.0389
  57   2.0000     -10.287992      -279.9505
  58   2.0000     -10.286971      -279.9227
  59   2.0000     -10.286552      -279.9113
  60   2.0000     -10.286503      -279.9100
  61   2.0000     -10.286295      -279.9043
  62   2.0000     -10.285826      -279.8915
  63   2.0000     -10.285658      -279.8870
  64   2.0000     -10.285524      -279.8833
  65   2.0000     -10.285178      -279.8739
  66   2.0000     -10.269139      -279.4375
  67   2.0000     -10.268467      -279.4192
  68   2.0000     -10.264797      -279.3193
  69   2.0000     -10.261232      -279.2223
  70   2.0000      -8.077119      -219.7896
  71   2.0000      -8.075750      -219.7523
  72   2.0000      -6.046022      -164.5206
  73   2.0000      -6.044390      -164.4762
  74   2.0000      -6.042178      -164.4160
  75   2.0000      -6.041038      -164.3850
  76   2.0000      -6.039705      -164.3487
  77   2.0000      -6.038135      -164.3060
  78   2.0000      -1.150296       -31.3012
  79   2.0000      -1.138062       -30.9683
  80   2.0000      -1.137787       -30.9608
  81   2.0000      -1.134778       -30.8789
  82   2.0000      -1.130278       -30.7564
  83   2.0000      -1.127062       -30.6689
  84   2.0000      -1.068260       -29.0688
  85   2.0000      -1.057411       -28.7736
  86   2.0000      -1.019194       -27.7337
  87   2.0000      -1.017978       -27.7006
  88   2.0000      -1.009784       -27.4776
  89   2.0000      -0.998571       -27.1725
  90   2.0000      -0.998501       -27.1706
  91   2.0000      -0.995158       -27.0796
  92   2.0000      -0.992465       -27.0063
  93   2.0000      -0.973993       -26.5037
  94   2.0000      -0.971411       -26.4334
  95   2.0000      -0.952589       -25.9213
  96   2.0000      -0.934793       -25.4370
  97   2.0000      -0.933788       -25.4097
  98   2.0000      -0.928449       -25.2644
  99   2.0000      -0.921708       -25.0809
 100   2.0000      -0.920401       -25.0454
 101   2.0000      -0.905265       -24.6335
 102   2.0000      -0.896010       -24.3817
 103   2.0000      -0.888586       -24.1797
 104   2.0000      -0.882286       -24.0082
 105   2.0000      -0.881612       -23.9899
 106   2.0000      -0.879106       -23.9217
 107   2.0000      -0.874449       -23.7950
 108   2.0000      -0.863728       -23.5032
 109   2.0000      -0.857348       -23.3296
 110   2.0000      -0.839462       -22.8429
 111   2.0000      -0.828929       -22.5563
 112   2.0000      -0.828138       -22.5348
 113   2.0000      -0.823319       -22.4037
 114   2.0000      -0.812211       -22.1014
 115   2.0000      -0.799463       -21.7545
 116   2.0000      -0.793012       -21.5790
 117   2.0000      -0.783733       -21.3265
 118   2.0000      -0.763258       -20.7693
 119   2.0000      -0.762094       -20.7376
 120   2.0000      -0.761665       -20.7259
 121   2.0000      -0.745142       -20.2763
 122   2.0000      -0.731081       -19.8937
 123   2.0000      -0.725193       -19.7335
 124   2.0000      -0.715154       -19.4603
 125   2.0000      -0.710419       -19.3315
 126   2.0000      -0.707094       -19.2410
 127   2.0000      -0.703659       -19.1475
 128   2.0000      -0.702079       -19.1045
 129   2.0000      -0.699076       -19.0228
 130   2.0000      -0.695463       -18.9245
 131   2.0000      -0.689438       -18.7606
 132   2.0000      -0.684225       -18.6187
 133   2.0000      -0.676083       -18.3972
 134   2.0000      -0.675260       -18.3748
 135   2.0000      -0.656890       -17.8749
 136   2.0000      -0.652332       -17.7509
 137   2.0000      -0.648511       -17.6469
 138   2.0000      -0.637048       -17.3349
 139   2.0000      -0.632974       -17.2241
 140   2.0000      -0.632248       -17.2044
 141   2.0000      -0.616155       -16.7664
 142   2.0000      -0.609095       -16.5743
 143   2.0000      -0.607978       -16.5439
 144   2.0000      -0.606272       -16.4975
 145   2.0000      -0.605094       -16.4655
 146   2.0000      -0.600722       -16.3465
 147   2.0000      -0.596114       -16.2211
 148   2.0000      -0.594349       -16.1731
 149   2.0000      -0.584565       -15.9068
 150   2.0000      -0.576287       -15.6816
 151   2.0000      -0.571504       -15.5514
 152   2.0000      -0.568585       -15.4720
 153   2.0000      -0.564991       -15.3742
 154   2.0000      -0.560459       -15.2509
 155   2.0000      -0.556617       -15.1463
 156   2.0000      -0.551774       -15.0145
 157   2.0000      -0.549922       -14.9642
 158   2.0000      -0.546488       -14.8707
 159   2.0000      -0.546388       -14.8680
 160   2.0000      -0.542918       -14.7735
 161   2.0000      -0.538827       -14.6622
 162   2.0000      -0.537716       -14.6320
 163   2.0000      -0.535591       -14.5742
 164   2.0000      -0.534180       -14.5358
 165   2.0000      -0.533159       -14.5080
 166   2.0000      -0.530333       -14.4311
 167   2.0000      -0.525314       -14.2945
 168   2.0000      -0.524122       -14.2621
 169   2.0000      -0.521019       -14.1777
 170   2.0000      -0.520677       -14.1683
 171   2.0000      -0.517007       -14.0685
 172   2.0000      -0.516009       -14.0413
 173   2.0000      -0.514932       -14.0120
 174   2.0000      -0.514374       -13.9968
 175   2.0000      -0.512174       -13.9370
 176   2.0000      -0.511453       -13.9173
 177   2.0000      -0.510833       -13.9005
 178   2.0000      -0.506137       -13.7727
 179   2.0000      -0.503887       -13.7115
 180   2.0000      -0.497218       -13.5300
 181   2.0000      -0.496830       -13.5194
 182   2.0000      -0.493911       -13.4400
 183   2.0000      -0.493327       -13.4241
 184   2.0000      -0.489861       -13.3298
 185   2.0000      -0.488914       -13.3040
 186   2.0000      -0.485475       -13.2105
 187   2.0000      -0.485143       -13.2014
 188   2.0000      -0.474765       -12.9190
 189   2.0000      -0.472124       -12.8472
 190   2.0000      -0.471413       -12.8278
 191   2.0000      -0.470029       -12.7901
 192   2.0000      -0.466242       -12.6871
 193   2.0000      -0.465167       -12.6578
 194   2.0000      -0.462655       -12.5895
 195   2.0000      -0.457664       -12.4537
 196   2.0000      -0.456688       -12.4271
 197   2.0000      -0.452866       -12.3231
 198   2.0000      -0.451205       -12.2779
 199   2.0000      -0.449931       -12.2432
 200   2.0000      -0.445578       -12.1248
 201   2.0000      -0.445148       -12.1131
 202   2.0000      -0.444140       -12.0857
 203   2.0000      -0.441183       -12.0052
 204   2.0000      -0.440142       -11.9769
 205   2.0000      -0.439997       -11.9729
 206   2.0000      -0.436527       -11.8785
 207   2.0000      -0.434246       -11.8164
 208   2.0000      -0.433587       -11.7985
 209   2.0000      -0.430991       -11.7279
 210   2.0000      -0.430206       -11.7065
 211   2.0000      -0.428669       -11.6647
 212   2.0000      -0.427066       -11.6211
 213   2.0000      -0.425716       -11.5843
 214   2.0000      -0.424942       -11.5633
 215   2.0000      -0.420365       -11.4387
 216   2.0000      -0.419852       -11.4247
 217   2.0000      -0.415471       -11.3056
 218   2.0000      -0.410655       -11.1745
 219   2.0000      -0.405203       -11.0261
 220   2.0000      -0.403935       -10.9916
 221   2.0000      -0.395382       -10.7589
 222   2.0000      -0.391540       -10.6544
 223   2.0000      -0.384851       -10.4723
 224   2.0000      -0.380269       -10.3476
 225   2.0000      -0.375760       -10.2250
 226   2.0000      -0.371787       -10.1168
 227   2.0000      -0.360090        -9.7985
 228   2.0000      -0.352072        -9.5804
 229   2.0000      -0.350768        -9.5449
 230   2.0000      -0.346370        -9.4252
 231   2.0000      -0.338751        -9.2179
 232   2.0000      -0.335813        -9.1379
 233   2.0000      -0.335408        -9.1269
 234   2.0000      -0.329985        -8.9793
 235   2.0000      -0.323553        -8.8043
 236   2.0000      -0.320103        -8.7104
 237   2.0000      -0.317320        -8.6347
 238   2.0000      -0.315834        -8.5943
 239   2.0000      -0.307096        -8.3565
 240   2.0000      -0.299614        -8.1529
 241   2.0000      -0.293113        -7.9760
 242   2.0000      -0.292135        -7.9494
 243   2.0000      -0.242063        -6.5869
 244   0.0000      -0.106721        -2.9040
 245   0.0000      -0.094244        -2.5645
 246   0.0000      -0.085822        -2.3353
 247   0.0000      -0.060839        -1.6555
 248   0.0000      -0.054826        -1.4919

MULLIKEN ATOMIC CHARGES
-----------------------
   0 C :    0.290438
   1 C :   -0.295993
   2 C :   -0.183812
   3 N :    0.154160
   4 C :   -0.181327
   5 N :    0.157597
   6 C :    0.035356
   7 C :    0.008917
   8 C :   -0.079198
   9 C :    0.094558
  10 C :    0.094378
  11 C :   -0.075402
  12 C :   -0.017233
  13 C :    0.035893
  14 C :    0.035798
  15 C :   -0.014674
  16 C :    0.134388
  17 O :   -0.135826
  18 C :   -0.102364
  19 C :    0.085974
  20 C :   -0.126750
  21 S :    0.135282
  22 C :   -0.094162
  23 N :   -0.040809
  24 N :   -0.037562
  25 C :    0.066343
  26 C :   -0.020551
  27 C :    0.112380
  28 N :   -0.265323
  29 C :    0.092983
  30 C :   -0.004218
  31 C :    0.165229
  32 O :   -0.217931
  33 C :   -0.071729
  34 C :   -0.028013
  35 C :    0.155345
  36 O :   -0.173577
  37 N :   -0.267630
  38 C :    0.093863
  39 C :    0.002241
  40 C :    0.150627
  41 C :   -0.037504
  42 C :    0.050171
  43 C :   -0.050165
  44 S :    0.144228
  45 C :   -0.154885
  46 C :    0.204521
  47 O :   -0.200326
  48 C :    0.129855
  49 C :   -0.011852
  50 C :   -0.061690
  51 C :   -0.018938
  52 C :    0.302964
  53 C :   -0.343338
  54 C :   -0.182656
  55 N :    0.154330
  56 C :   -0.190597
  57 N :    0.159605
  58 C :    0.056925
  59 C :    0.021791
  60 C :    0.131602
  61 O :   -0.144397
  62 C :   -0.076165
  63 C :    0.097736
  64 C :    0.099076
  65 C :   -0.089671
  66 C :   -0.019845
  67 C :    0.037699
  68 C :    0.037209
  69 C :   -0.016672
  70 H :   -0.010342
  71 H :   -0.000885
  72 H :   -0.008633
  73 H :   -0.003530
  74 H :   -0.004184
  75 H :   -0.016003
  76 H :    0.030155
  77 H :   -0.018682
  78 H :    0.041536
  79 H :    0.024690
  80 H :    0.046938
  81 H :    0.035439
  82 H :    0.023809
  83 H :    0.027167
  84 H :    0.049346
  85 H :    0.024281
  86 H :    0.030939
  87 H :    0.026372
  88 H :    0.016321
  89 H :   -0.015383
  90 H :    0.025877
  91 H :   -0.014856
  92 H :    0.012979
  93 H :    0.037359
  94 H :   -0.014768
  95 H :   -0.006838
  96 H :   -0.008667
  97 H :   -0.004930
  98 H :   -0.004799
  99 H :   -0.017383
Sum of atomic charges:   -0.0000000

LOEWDIN ATOMIC CHARGES
----------------------
   0 C :    0.072364
   1 C :   -0.112973
   2 C :   -0.015794
   3 N :   -0.046241
   4 C :   -0.014760
   5 N :   -0.054798
   6 C :   -0.020105
   7 C :   -0.059054
   8 C :    0.034583
   9 C :   -0.008957
  10 C :   -0.003601
  11 C :    0.018676
  12 C :   -0.005550
  13 C :   -0.011423
  14 C :   -0.012601
  15 C :   -0.008842
  16 C :    0.084667
  17 O :   -0.135405
  18 C :   -0.051270
  19 C :    0.029587
  20 C :   -0.164669
  21 S :    0.414878
  22 C :   -0.130106
  23 N :   -0.067174
  24 N :   -0.053790
  25 C :   -0.052238
  26 C :    0.017581
  27 C :    0.058537
  28 N :   -0.001817
  29 C :    0.034325
  30 C :   -0.062497
  31 C :    0.080310
  32 O :   -0.205783
  33 C :   -0.128045
  34 C :   -0.096857
  35 C :    0.083541
  36 O :   -0.176551
  37 N :   -0.004704
  38 C :    0.035759
  39 C :   -0.060990
  40 C :    0.088042
  41 C :   -0.052089
  42 C :    0.024258
  43 C :   -0.155349
  44 S :    0.472921
  45 C :   -0.211387
  46 C :    0.092563
  47 O :   -0.141319
  48 C :   -0.024371
  49 C :   -0.019347
  50 C :    0.058665
  51 C :   -0.051727
  52 C :    0.080583
  53 C :   -0.131093
  54 C :   -0.017220
  55 N :   -0.048406
  56 C :   -0.019577
  57 N :   -0.047455
  58 C :   -0.021397
  59 C :   -0.047003
  60 C :    0.087330
  61 O :   -0.138358
  62 C :    0.035106
  63 C :   -0.005680
  64 C :   -0.004783
  65 C :    0.020991
  66 C :   -0.005034
  67 C :   -0.013011
  68 C :   -0.011521
  69 C :   -0.009434
  70 H :    0.039774
  71 H :    0.040251
  72 H :    0.035133
  73 H :    0.033613
  74 H :    0.033027
  75 H :    0.032181
  76 H :    0.049717
  77 H :    0.029333
  78 H :    0.056393
  79 H :    0.019310
  80 H :    0.038248
  81 H :    0.026041
  82 H :    0.031502
  83 H :    0.032460
  84 H :    0.039700
  85 H :    0.022939
  86 H :    0.033030
  87 H :    0.031858
  88 H :    0.021899
  89 H :    0.023370
  90 H :    0.046235
  91 H :   -0.002585
  92 H :    0.044304
  93 H :    0.048530
  94 H :    0.038703
  95 H :    0.039091
  96 H :    0.034852
  97 H :    0.033235
  98 H :    0.032914
  99 H :    0.031834

  Mayer bond orders larger than 0.100000
B(  0-C ,  1-C ) :   1.6957 B(  0-C ,  6-C ) :   1.0049 B(  0-C , 18-C ) :   1.0057
B(  1-C ,  2-C ) :   1.1364 B(  1-C ,  4-C ) :   1.1531 B(  2-C ,  3-N ) :   2.9870
B(  4-C ,  5-N ) :   3.0036 B(  6-C ,  7-C ) :   1.2119 B(  6-C , 11-C ) :   1.4567
B(  7-C ,  8-C ) :   1.4674 B(  7-C , 16-C ) :   0.9232 B(  8-C ,  9-C ) :   1.1920
B(  8-C , 70-H ) :   1.0159 B(  9-C , 10-C ) :   1.2537 B(  9-C , 15-C ) :   1.2426
B( 10-C , 11-C ) :   1.2080 B( 10-C , 12-C ) :   1.2401 B( 11-C , 71-H ) :   0.9926
B( 12-C , 13-C ) :   1.4918 B( 12-C , 72-H ) :   0.9976 B( 13-C , 14-C ) :   1.2587
B( 13-C , 73-H ) :   0.9888 B( 14-C , 15-C ) :   1.4911 B( 14-C , 74-H ) :   0.9888
B( 15-C , 75-H ) :   0.9977 B( 16-C , 17-O ) :   2.2829 B( 16-C , 18-C ) :   0.9233
B( 18-C , 19-C ) :   1.7556 B( 19-C , 20-C ) :   1.0498 B( 19-C , 76-H ) :   0.9374
B( 20-C , 21-S ) :   1.0976 B( 20-C , 24-N ) :   1.6230 B( 21-S , 22-C ) :   1.1090
B( 21-S , 24-N ) :   0.1018 B( 22-C , 23-N ) :   1.6583 B( 22-C , 25-C ) :   1.1101
B( 23-N , 24-N ) :   1.2519 B( 25-C , 26-C ) :   1.6330 B( 25-C , 77-H ) :   0.9492
B( 26-C , 27-C ) :   1.1541 B( 26-C , 78-H ) :   0.9518 B( 27-C , 28-N ) :   1.1554
B( 27-C , 34-C ) :   1.3680 B( 28-N , 29-C ) :   0.9423 B( 28-N , 31-C ) :   1.0702
B( 29-C , 30-C ) :   1.1162 B( 29-C , 79-H ) :   0.9505 B( 29-C , 80-H ) :   0.9234
B( 30-C , 81-H ) :   0.9679 B( 30-C , 82-H ) :   0.9674 B( 30-C , 83-H ) :   0.9616
B( 31-C , 32-O ) :   2.0084 B( 31-C , 33-C ) :   0.9963 B( 32-O , 90-H ) :   0.1177
B( 33-C , 34-C ) :   1.2491 B( 33-C , 40-C ) :   1.3255 B( 34-C , 35-C ) :   0.9637
B( 35-C , 36-O ) :   2.1538 B( 35-C , 37-N ) :   1.0217 B( 37-N , 38-C ) :   0.9439
B( 37-N , 40-C ) :   1.1736 B( 38-C , 39-C ) :   1.1209 B( 38-C , 84-H ) :   0.9280
B( 38-C , 85-H ) :   0.9496 B( 39-C , 86-H ) :   0.9636 B( 39-C , 87-H ) :   0.9676
B( 39-C , 88-H ) :   0.9685 B( 40-C , 41-C ) :   1.1702 B( 41-C , 42-C ) :   1.5841
B( 41-C , 89-H ) :   0.9603 B( 42-C , 43-C ) :   1.1498 B( 42-C , 90-H ) :   0.9529
B( 43-C , 44-S ) :   1.1392 B( 43-C , 49-C ) :   1.4281 B( 44-S , 45-C ) :   1.1201
B( 45-C , 46-C ) :   1.0293 B( 45-C , 48-C ) :   1.4547 B( 46-C , 47-O ) :   2.0881
B( 46-C , 91-H ) :   0.9522 B( 48-C , 49-C ) :   1.2801 B( 48-C , 50-C ) :   1.0110
B( 49-C , 92-H ) :   1.0144 B( 50-C , 51-C ) :   1.7838 B( 50-C , 93-H ) :   0.9383
B( 51-C , 52-C ) :   1.0329 B( 51-C , 60-C ) :   0.8928 B( 52-C , 53-C ) :   1.6616
B( 52-C , 58-C ) :   1.0080 B( 53-C , 54-C ) :   1.1376 B( 53-C , 56-C ) :   1.1422
B( 54-C , 55-N ) :   2.9748 B( 56-C , 57-N ) :   2.9870 B( 58-C , 59-C ) :   1.2141
B( 58-C , 65-C ) :   1.4373 B( 59-C , 60-C ) :   0.9351 B( 59-C , 62-C ) :   1.4698
B( 60-C , 61-O ) :   2.2519 B( 62-C , 63-C ) :   1.1888 B( 62-C , 94-H ) :   1.0146
B( 63-C , 64-C ) :   1.2510 B( 63-C , 69-C ) :   1.2424 B( 64-C , 65-C ) :   1.2176
B( 64-C , 66-C ) :   1.2360 B( 65-C , 95-H ) :   0.9903 B( 66-C , 67-C ) :   1.4943
B( 66-C , 96-H ) :   0.9970 B( 67-C , 68-C ) :   1.2566 B( 67-C , 97-H ) :   0.9882
B( 68-C , 69-C ) :   1.4920 B( 68-C , 98-H ) :   0.9884 B( 69-C , 99-H ) :   0.9972

-----------------------------------------------------------------------------
         ABSORPTION SPECTRUM VIA TRANSITION ELECTRIC DIPOLE MOMENTS
-----------------------------------------------------------------------------
State   Energy  Wavelength   fosc         T2         TX        TY        TZ
        (cm-1)    (nm)                  (au**2)     (au)      (au)      (au)
-----------------------------------------------------------------------------
   0   14762.1    677.4   1.057628135  23.58634  -2.89688   2.14901   3.25210
   1   19485.7    513.2   0.043210440   0.73004  -0.01427   0.80118  -0.29655
   2   21127.0    473.3   0.042618451   0.66410   0.60492  -0.05364  -0.54342
   3   24265.0    412.1   0.019223929   0.26082  -0.21162  -0.46473   0.00789
   4   24432.2    409.3   0.042265154   0.56950   0.12481  -0.25542   0.69906
   5   25546.9    391.4   0.010162714   0.13096  -0.13956  -0.09649   0.31965
   6   26009.9    384.5   0.027615915   0.34954  -0.11473  -0.08468  -0.57377
   7   26402.4    378.8   0.021767263   0.27142  -0.40222   0.28906  -0.16150
   8   26835.9    372.6   0.025539822   0.31331   0.20383  -0.28927   0.43369
   9   27159.0    368.2   0.001265495   0.01534  -0.01285   0.06970   0.10157
  10   27738.5    360.5   0.423038620   5.02080  -1.22069   1.77023   0.63008
  11   28211.8    354.5   0.505792312   5.90225  -1.97990   1.24665   0.65430
  12   28357.0    352.6   0.057661806   0.66943   0.65402  -0.42414  -0.24857
  13   28509.3    350.8   0.121600528   1.40419   1.17882  -0.12066   0.00117
  14   28802.0    347.2   0.047600993   0.54409   0.46523  -0.19136   0.53947
  15   29252.1    341.9   0.051104287   0.57514  -0.61101   0.39957   0.20531
  16   29696.6    336.7   0.121849316   1.35080  -0.74468   0.87689   0.16527
  17   30176.2    331.4   0.123117812   1.34317  -0.97646   0.59193  -0.19827
  18   30521.2    327.6   0.084826135   0.91496  -0.54733   0.01339   0.78435
  19   30789.6    324.8   0.011073717   0.11840  -0.14789  -0.05953  -0.30494
  20   31591.6    316.5   0.380702671   3.96726   0.87891  -1.38238  -1.13305
  21   31699.8    315.5   0.027606158   0.28670   0.18138  -0.30986  -0.39723
  22   32250.0    310.1   0.263287134   2.68766  -1.50040   0.58257  -0.31157
  23   32835.3    304.6   0.022214245   0.22272   0.05712   0.25604  -0.39231
  24   33127.6    301.9   0.064097216   0.63698  -0.47541   0.57545   0.28252
  25   33628.4    297.4   0.761809077   7.45789   2.18339  -1.63723  -0.10086
  26   34038.4    293.8   0.416093936   4.02437  -1.21996   1.44716   0.66470
  27   34173.3    292.6   0.093495402   0.90070   0.28983  -0.16022   0.88940
  28   34491.0    289.9   0.101166688   0.96562  -0.04624  -0.61448  -0.76544
  29   35191.9    284.2   0.191238775   1.78900  -0.66128   0.67478   0.94677
  30   35444.1    282.1   0.196024854   1.82072  -0.92567  -0.32107  -0.92778
  31   35476.3    281.9   0.036419937   0.33797   0.30724  -0.32503   0.37139
  32   36280.0    275.6   0.013565971   0.12310   0.06345  -0.11868   0.32402
  33   36526.1    273.8   0.225096059   2.02880  -0.06934   0.70241   1.23718
  34   36810.7    271.7   0.090155461   0.80629   0.65770  -0.56463   0.23435
  35   36866.9    271.2   0.154158615   1.37660   0.88335  -0.71487  -0.29198
  36   37430.1    267.2   0.058387626   0.51354  -0.58100   0.40525   0.10840
  37   37589.5    266.0   0.029989945   0.26265  -0.30158   0.05888  -0.41017
  38   37652.8    265.6   0.037415128   0.32713  -0.45153   0.32659  -0.12880
  39   37976.0    263.3   0.014490887   0.12562   0.12670  -0.29130  -0.15719
  40   38092.8    262.5   0.035863491   0.30995   0.28747   0.10447   0.46518
  41   38131.2    262.3   0.013678790   0.11810  -0.25715   0.03783   0.22481
  42   38810.5    257.7   0.018611525   0.15787  -0.25854  -0.16773   0.25080
  43   38943.9    256.8   0.098127461   0.82952   0.44866   0.55401  -0.56683
  44   39455.7    253.4   0.124861151   1.04182   0.04562  -0.81142   0.61752
  45   39514.5    253.1   0.013801220   0.11498  -0.03800  -0.25230   0.22335
  46   39977.4    250.1   0.012138564   0.09996   0.12263   0.24639  -0.15562
  47   40013.4    249.9   0.013931682   0.11462   0.19973   0.08437   0.26002
  48   40299.6    248.1   0.041523891   0.33921   0.20603  -0.02164   0.54433

FINAL SINGLE POINT ENERGY     -3720.413765164456

DIPOLE MOMENT
-------------
                                X             Y             Z
Electronic contribution:     -5.19627      -2.26983     -17.46823
Nuclear contribution   :      7.31567       2.71115      19.44669
                        -----------------------------------------
Total Dipole Moment    :      2.11940       0.44133       1.97846
                        -----------------------------------------
Magnitude (a.u.)       :      2.93273
Magnitude (Debye)      :      7.45442

Rotational constants in cm-1:     0.003252     0.000203     0.000197
Rotational constants in MHz :    97.480265     6.073370     5.911775

                             ****ORCA TERMINATED NORMALLY****
TOTAL RUN TIME: 0 days 0 hours 8 minutes 27 seconds 636 msec
