                         Program Version 4.2.0 -  RELEASE  -
|  1> # ORCA input file
|  2> # SCF done       -173.711144945166          0.000507738974
|  3> ! CAM-B3LYP def2-SVP def2/J RIJCOSX Grid4 TightSCF
|  4> %maxcore 5000
|  5> %tddft
|  6>     Mode sTDDFT
|  7>     Ethresh 5.0
|  8>     maxcore 5000
|  9> end
| 10>
| 11> %pal
| 12>   nprocs 6
| 13>   end
| 14> * xyz 0 1
| 15>    C       -0.02869         1.57782         4.68178
| 16>    C        0.77882         0.47055         4.68059
| 17>    C        1.05412        -0.30783         5.82538
| 18>    N        1.31950        -0.98597         6.71284
| 19>    C        1.46049        -0.05743         3.56401
| 20>    N        2.04988        -0.55086         2.71017
| 21>    C       -0.70766         2.12238         5.85313
| 22>    C       -1.41286         3.29788         5.46581
| 23>    C       -2.14553         4.03013         6.35490
| 24>    C       -2.21183         3.60953         7.70190
| 25>    C       -1.51302         2.43292         8.09858
| 26>    C       -0.75990         1.69745         7.15444
| 27>    C       -1.58873         2.01967         9.44415
| 28>    C       -2.31889         2.73318        10.35549
| 29>    C       -3.00587         3.89185         9.96388
| 30>    C       -2.95337         4.32098         8.66525
| 31>    C       -1.20939         3.53210         4.02991
| 32>    O       -1.66123         4.45299         3.37347
| 33>    C       -0.35869         2.42928         3.54992
| 34>    C        0.02245         2.22254         2.25395
| 35>    C       -0.25969         2.96561         1.08962
| 36>    S       -1.17726         4.44784         0.96924
| 37>    C       -0.95878         4.49689        -0.74300
| 38>    C       -0.20503         3.40569        -1.19610
| 39>    C        0.18731         2.55734        -0.16250
| 40>    C        0.11808         3.19535        -2.54924
| 41>    N        0.38266         3.01591        -3.65037
| 42>    C       -1.50812         5.51449        -1.57236
| 43>    C       -2.18535         6.58568        -1.11746
| 44>    C       -2.75778         7.57523        -2.00621
| 45>    N       -2.66214         7.37058        -3.32305
| 46>    C       -3.21098         8.27717        -4.10850
| 47>    C       -3.87128         9.39105        -3.61659
| 48>    C       -3.92142         9.52879        -2.22227
| 49>    N       -3.35309         8.61735        -1.43553
| 50>    C       -4.56108        10.64421        -1.54760
| 51>    C       -5.56235        11.34591        -2.08899
| 52>    N       -6.19215        12.42710        -1.49927
| 53>    C       -7.43825        12.88940        -1.87488
| 54>    C       -8.27197        12.23759        -2.90931
| 55>    C       -7.73001        13.98981        -1.12133
| 56>    C       -6.61817        14.26345        -0.24837
| 57>    C       -5.61687        13.25017        -0.46959
| 58>    O       -4.53434        13.05792         0.02660
| 59>    C       -6.89161        15.38676         0.47737
| 60>    C       -6.04670        16.09812         1.44926
| 61>    N       -8.16998        15.80781         0.13998
| 62>    C       -8.73574        14.99426        -0.90030
| 63>    O       -9.80032        15.21439        -1.42469
| 64>    C       -8.76814        16.95847         0.62172
| 65>    N      -10.02612        16.96179         1.15957
| 66>    C      -10.87198        15.82420         1.44625
| 67>    C      -12.09824        15.78566         0.54152
| 68>    C      -10.40913        18.26660         1.55375
| 69>    O      -11.46536        18.50863         2.10008
| 70>    C       -9.28282        19.09326         1.19808
| 71>    C       -8.27051        18.24162         0.64776
| 72>    C       -7.14677        19.06840         0.28325
| 73>    O       -6.05072        18.80075        -0.17287
| 74>    N       -7.56096        20.37209         0.60049
| 75>    C       -6.67511        21.49540         0.41409
| 76>    C       -6.02161        21.92912         1.72398
| 77>    C       -8.82455        20.39668         1.14828
| 78>    C       -9.48787        21.60801         1.54380
| 79>    C      -10.69062        21.62034         2.12051
| 80>    H       -2.66915         4.91827         6.03365
| 81>    H       -0.24443         0.81143         7.48871
| 82>    H       -1.05778         1.12714         9.74102
| 83>    H       -2.37093         2.40821        11.38377
| 84>    H       -3.57703         4.44267        10.69612
| 85>    H       -3.48031         5.21236         8.35770
| 86>    H        0.62748         1.34635         2.05319
| 87>    H        0.77475         1.66761        -0.31044
| 88>    H       -1.36732         5.40398        -2.64051
| 89>    H       -2.34049         6.75688        -0.06174
| 90>    H       -3.11442         8.09842        -5.17246
| 91>    H       -4.29574        10.12765        -4.27797
| 92>    H       -4.20017        10.85608        -0.55414
| 93>    H       -5.96559        11.08204        -3.05832
| 94>    H       -8.42662        11.18402        -2.67667
| 95>    H       -7.79731        12.30457        -3.88897
| 96>    H       -9.23317        12.74235        -2.95464
| 97>    H       -5.63539        16.99062         0.96857
| 98>    H       -5.22405        15.45647         1.75184
| 99>    H       -6.61965        16.41961         2.31777
|100>    H      -11.19340        15.91975         2.48922
|101>    H      -10.28039        14.91242         1.33716
|102>    H      -12.67728        16.69563         0.67133
|103>    H      -12.71746        14.93278         0.80519
|104>    H      -11.79336        15.69642        -0.49716
|105>    H       -7.22340        22.32476        -0.04130
|106>    H       -5.90488        21.15784        -0.28516
|107>    H       -6.77097        22.22411         2.45520
|108>    H       -5.35780        22.76991         1.54309
|109>    H       -5.43903        21.10924         2.13685
|110>    H       -8.96596        22.53494         1.35046
|111>    H      -11.22819        20.70953         2.32406
|112>    H      -11.16351        22.54539         2.40178
|113> *
|114>
|115>                          ****END OF INPUT****

CARTESIAN COORDINATES (ANGSTROEM)
---------------------------------
  C     -0.028690    1.577820    4.681780
  C      0.778820    0.470550    4.680590
  C      1.054120   -0.307830    5.825380
  N      1.319500   -0.985970    6.712840
  C      1.460490   -0.057430    3.564010
  N      2.049880   -0.550860    2.710170
  C     -0.707660    2.122380    5.853130
  C     -1.412860    3.297880    5.465810
  C     -2.145530    4.030130    6.354900
  C     -2.211830    3.609530    7.701900
  C     -1.513020    2.432920    8.098580
  C     -0.759900    1.697450    7.154440
  C     -1.588730    2.019670    9.444150
  C     -2.318890    2.733180   10.355490
  C     -3.005870    3.891850    9.963880
  C     -2.953370    4.320980    8.665250
  C     -1.209390    3.532100    4.029910
  O     -1.661230    4.452990    3.373470
  C     -0.358690    2.429280    3.549920
  C      0.022450    2.222540    2.253950
  C     -0.259690    2.965610    1.089620
  S     -1.177260    4.447840    0.969240
  C     -0.958780    4.496890   -0.743000
  C     -0.205030    3.405690   -1.196100
  C      0.187310    2.557340   -0.162500
  C      0.118080    3.195350   -2.549240
  N      0.382660    3.015910   -3.650370
  C     -1.508120    5.514490   -1.572360
  C     -2.185350    6.585680   -1.117460
  C     -2.757780    7.575230   -2.006210
  N     -2.662140    7.370580   -3.323050
  C     -3.210980    8.277170   -4.108500
  C     -3.871280    9.391050   -3.616590
  C     -3.921420    9.528790   -2.222270
  N     -3.353090    8.617350   -1.435530
  C     -4.561080   10.644210   -1.547600
  C     -5.562350   11.345910   -2.088990
  N     -6.192150   12.427100   -1.499270
  C     -7.438250   12.889400   -1.874880
  C     -8.271970   12.237590   -2.909310
  C     -7.730010   13.989810   -1.121330
  C     -6.618170   14.263450   -0.248370
  C     -5.616870   13.250170   -0.469590
  O     -4.534340   13.057920    0.026600
  C     -6.891610   15.386760    0.477370
  C     -6.046700   16.098120    1.449260
  N     -8.169980   15.807810    0.139980
  C     -8.735740   14.994260   -0.900300
  O     -9.800320   15.214390   -1.424690
  C     -8.768140   16.958470    0.621720
  N    -10.026120   16.961790    1.159570
  C    -10.871980   15.824200    1.446250
  C    -12.098240   15.785660    0.541520
  C    -10.409130   18.266600    1.553750
  O    -11.465360   18.508630    2.100080
  C     -9.282820   19.093260    1.198080
  C     -8.270510   18.241620    0.647760
  C     -7.146770   19.068400    0.283250
  O     -6.050720   18.800750   -0.172870
  N     -7.560960   20.372090    0.600490
  C     -6.675110   21.495400    0.414090
  C     -6.021610   21.929120    1.723980
  C     -8.824550   20.396680    1.148280
  C     -9.487870   21.608010    1.543800
  C    -10.690620   21.620340    2.120510
  H     -2.669150    4.918270    6.033650
  H     -0.244430    0.811430    7.488710
  H     -1.057780    1.127140    9.741020
  H     -2.370930    2.408210   11.383770
  H     -3.577030    4.442670   10.696120
  H     -3.480310    5.212360    8.357700
  H      0.627480    1.346350    2.053190
  H      0.774750    1.667610   -0.310440
  H     -1.367320    5.403980   -2.640510
  H     -2.340490    6.756880   -0.061740
  H     -3.114420    8.098420   -5.172460
  H     -4.295740   10.127650   -4.277970
  H     -4.200170   10.856080   -0.554140
  H     -5.965590   11.082040   -3.058320
  H     -8.426620   11.184020   -2.676670
  H     -7.797310   12.304570   -3.888970
  H     -9.233170   12.742350   -2.954640
  H     -5.635390   16.990620    0.968570
  H     -5.224050   15.456470    1.751840
  H     -6.619650   16.419610    2.317770
  H    -11.193400   15.919750    2.489220
  H    -10.280390   14.912420    1.337160
  H    -12.677280   16.695630    0.671330
  H    -12.717460   14.932780    0.805190
  H    -11.793360   15.696420   -0.497160
  H     -7.223400   22.324760   -0.041300
  H     -5.904880   21.157840   -0.285160
  H     -6.770970   22.224110    2.455200
  H     -5.357800   22.769910    1.543090
  H     -5.439030   21.109240    2.136850
  H     -8.965960   22.534940    1.350460
  H    -11.228190   20.709530    2.324060
  H    -11.163510   22.545390    2.401780

 Total Charge           Charge          ....    0
 Multiplicity           Mult            ....    1
 Number of Electrons    NEL             ....  452
 Basis Dimension        Dim             .... 1079

ORBITAL ENERGIES
----------------

  NO   OCC          E(Eh)            E(eV)
   0   2.0000     -88.974558     -2421.1208
   1   2.0000     -19.224326      -523.1205
   2   2.0000     -19.212870      -522.8088
   3   2.0000     -19.205430      -522.6063
   4   2.0000     -19.195360      -522.3323
   5   2.0000     -19.194630      -522.3124
   6   2.0000     -14.484032      -394.1305
   7   2.0000     -14.480452      -394.0331
   8   2.0000     -14.460633      -393.4938
   9   2.0000     -14.458594      -393.4383
  10   2.0000     -14.418975      -392.3603
  11   2.0000     -14.415273      -392.2595
  12   2.0000     -14.408697      -392.0806
  13   2.0000     -14.408022      -392.0622
  14   2.0000     -14.404133      -391.9564
  15   2.0000     -10.399133      -282.9748
  16   2.0000     -10.391485      -282.7667
  17   2.0000     -10.380282      -282.4618
  18   2.0000     -10.380062      -282.4558
  19   2.0000     -10.377673      -282.3908
  20   2.0000     -10.372590      -282.2525
  21   2.0000     -10.354805      -281.7686
  22   2.0000     -10.354201      -281.7521
  23   2.0000     -10.343655      -281.4652
  24   2.0000     -10.343543      -281.4621
  25   2.0000     -10.343403      -281.4583
  26   2.0000     -10.343031      -281.4482
  27   2.0000     -10.331252      -281.1277
  28   2.0000     -10.330995      -281.1207
  29   2.0000     -10.328204      -281.0447
  30   2.0000     -10.326829      -281.0073
  31   2.0000     -10.324168      -280.9349
  32   2.0000     -10.322012      -280.8762
  33   2.0000     -10.321617      -280.8655
  34   2.0000     -10.318286      -280.7748
  35   2.0000     -10.316213      -280.7184
  36   2.0000     -10.312756      -280.6244
  37   2.0000     -10.308262      -280.5021
  38   2.0000     -10.307221      -280.4737
  39   2.0000     -10.304728      -280.4059
  40   2.0000     -10.304377      -280.3963
  41   2.0000     -10.302514      -280.3457
  42   2.0000     -10.299621      -280.2669
  43   2.0000     -10.299352      -280.2596
  44   2.0000     -10.299152      -280.2542
  45   2.0000     -10.298431      -280.2345
  46   2.0000     -10.298228      -280.2290
  47   2.0000     -10.292051      -280.0609
  48   2.0000     -10.291263      -280.0395
  49   2.0000     -10.290912      -280.0300
  50   2.0000     -10.288461      -279.9633
  51   2.0000     -10.287939      -279.9491
  52   2.0000     -10.287500      -279.9371
  53   2.0000     -10.286994      -279.9233
  54   2.0000     -10.286603      -279.9127
  55   2.0000     -10.285568      -279.8845
  56   2.0000     -10.283847      -279.8377
  57   2.0000     -10.276354      -279.6338
  58   2.0000     -10.276193      -279.6294
  59   2.0000     -10.274902      -279.5943
  60   2.0000     -10.270627      -279.4780
  61   2.0000     -10.268351      -279.4160
  62   2.0000     -10.267403      -279.3902
  63   2.0000     -10.263447      -279.2826
  64   2.0000     -10.243217      -278.7321
  65   2.0000      -8.067879      -219.5381
  66   2.0000      -6.037143      -164.2790
  67   2.0000      -6.032694      -164.1580
  68   2.0000      -6.030286      -164.0924
  69   2.0000      -1.157616       -31.5003
  70   2.0000      -1.145711       -31.1764
  71   2.0000      -1.139745       -31.0140
  72   2.0000      -1.137476       -30.9523
  73   2.0000      -1.131226       -30.7822
  74   2.0000      -1.092895       -29.7392
  75   2.0000      -1.083392       -29.4806
  76   2.0000      -1.081083       -29.4178
  77   2.0000      -1.065614       -28.9968
  78   2.0000      -1.051821       -28.6215
  79   2.0000      -1.020592       -27.7717
  80   2.0000      -1.012371       -27.5480
  81   2.0000      -1.001131       -27.2422
  82   2.0000      -0.995184       -27.0803
  83   2.0000      -0.983510       -26.7627
  84   2.0000      -0.981607       -26.7109
  85   2.0000      -0.973328       -26.4856
  86   2.0000      -0.945503       -25.7284
  87   2.0000      -0.931704       -25.3530
  88   2.0000      -0.930140       -25.3104
  89   2.0000      -0.921507       -25.0755
  90   2.0000      -0.909739       -24.7553
  91   2.0000      -0.898382       -24.4462
  92   2.0000      -0.893494       -24.3132
  93   2.0000      -0.887214       -24.1423
  94   2.0000      -0.882814       -24.0226
  95   2.0000      -0.877221       -23.8704
  96   2.0000      -0.872431       -23.7401
  97   2.0000      -0.865222       -23.5439
  98   2.0000      -0.861882       -23.4530
  99   2.0000      -0.854633       -23.2558
 100   2.0000      -0.830320       -22.5942
 101   2.0000      -0.830037       -22.5864
 102   2.0000      -0.820051       -22.3147
 103   2.0000      -0.816888       -22.2286
 104   2.0000      -0.793410       -21.5898
 105   2.0000      -0.791563       -21.5395
 106   2.0000      -0.772978       -21.0338
 107   2.0000      -0.765407       -20.8278
 108   2.0000      -0.764447       -20.8017
 109   2.0000      -0.760189       -20.6858
 110   2.0000      -0.753581       -20.5060
 111   2.0000      -0.737080       -20.0570
 112   2.0000      -0.725516       -19.7423
 113   2.0000      -0.723622       -19.6908
 114   2.0000      -0.713600       -19.4180
 115   2.0000      -0.708989       -19.2926
 116   2.0000      -0.708508       -19.2795
 117   2.0000      -0.704295       -19.1648
 118   2.0000      -0.698481       -19.0066
 119   2.0000      -0.687023       -18.6949
 120   2.0000      -0.682866       -18.5817
 121   2.0000      -0.676077       -18.3970
 122   2.0000      -0.662259       -18.0210
 123   2.0000      -0.661171       -17.9914
 124   2.0000      -0.653880       -17.7930
 125   2.0000      -0.648268       -17.6403
 126   2.0000      -0.643513       -17.5109
 127   2.0000      -0.631274       -17.1778
 128   2.0000      -0.626331       -17.0433
 129   2.0000      -0.614789       -16.7293
 130   2.0000      -0.612461       -16.6659
 131   2.0000      -0.608529       -16.5589
 132   2.0000      -0.602025       -16.3819
 133   2.0000      -0.597129       -16.2487
 134   2.0000      -0.593652       -16.1541
 135   2.0000      -0.589175       -16.0323
 136   2.0000      -0.588624       -16.0173
 137   2.0000      -0.578286       -15.7360
 138   2.0000      -0.574950       -15.6452
 139   2.0000      -0.574113       -15.6224
 140   2.0000      -0.568425       -15.4676
 141   2.0000      -0.563945       -15.3457
 142   2.0000      -0.561788       -15.2870
 143   2.0000      -0.556474       -15.1424
 144   2.0000      -0.548936       -14.9373
 145   2.0000      -0.545866       -14.8538
 146   2.0000      -0.542870       -14.7722
 147   2.0000      -0.541664       -14.7394
 148   2.0000      -0.541244       -14.7280
 149   2.0000      -0.539842       -14.6899
 150   2.0000      -0.537671       -14.6308
 151   2.0000      -0.530379       -14.4324
 152   2.0000      -0.529480       -14.4079
 153   2.0000      -0.526351       -14.3227
 154   2.0000      -0.525599       -14.3023
 155   2.0000      -0.523507       -14.2453
 156   2.0000      -0.521766       -14.1980
 157   2.0000      -0.521558       -14.1923
 158   2.0000      -0.519723       -14.1424
 159   2.0000      -0.518456       -14.1079
 160   2.0000      -0.516235       -14.0475
 161   2.0000      -0.513987       -13.9863
 162   2.0000      -0.511902       -13.9296
 163   2.0000      -0.510774       -13.8989
 164   2.0000      -0.509718       -13.8701
 165   2.0000      -0.506093       -13.7715
 166   2.0000      -0.505319       -13.7504
 167   2.0000      -0.501035       -13.6338
 168   2.0000      -0.499686       -13.5972
 169   2.0000      -0.499265       -13.5857
 170   2.0000      -0.497471       -13.5369
 171   2.0000      -0.495176       -13.4744
 172   2.0000      -0.489482       -13.3195
 173   2.0000      -0.488907       -13.3038
 174   2.0000      -0.483996       -13.1702
 175   2.0000      -0.474961       -12.9243
 176   2.0000      -0.469944       -12.7878
 177   2.0000      -0.469677       -12.7805
 178   2.0000      -0.468100       -12.7376
 179   2.0000      -0.462642       -12.5891
 180   2.0000      -0.459427       -12.5016
 181   2.0000      -0.459000       -12.4900
 182   2.0000      -0.450587       -12.2611
 183   2.0000      -0.450571       -12.2607
 184   2.0000      -0.449779       -12.2391
 185   2.0000      -0.446346       -12.1457
 186   2.0000      -0.442971       -12.0539
 187   2.0000      -0.441711       -12.0196
 188   2.0000      -0.440763       -11.9938
 189   2.0000      -0.439368       -11.9558
 190   2.0000      -0.438567       -11.9340
 191   2.0000      -0.436896       -11.8886
 192   2.0000      -0.436475       -11.8771
 193   2.0000      -0.433890       -11.8067
 194   2.0000      -0.429069       -11.6756
 195   2.0000      -0.428394       -11.6572
 196   2.0000      -0.426118       -11.5952
 197   2.0000      -0.423858       -11.5338
 198   2.0000      -0.423054       -11.5119
 199   2.0000      -0.416342       -11.3292
 200   2.0000      -0.415261       -11.2998
 201   2.0000      -0.411672       -11.2022
 202   2.0000      -0.408030       -11.1031
 203   2.0000      -0.404198       -10.9988
 204   2.0000      -0.404144       -10.9973
 205   2.0000      -0.397480       -10.8160
 206   2.0000      -0.382213       -10.4006
 207   2.0000      -0.379679       -10.3316
 208   2.0000      -0.374290       -10.1850
 209   2.0000      -0.365911        -9.9570
 210   2.0000      -0.365806        -9.9541
 211   2.0000      -0.353322        -9.6144
 212   2.0000      -0.350987        -9.5508
 213   2.0000      -0.343940        -9.3591
 214   2.0000      -0.338988        -9.2243
 215   2.0000      -0.337321        -9.1790
 216   2.0000      -0.335924        -9.1410
 217   2.0000      -0.332048        -9.0355
 218   2.0000      -0.324100        -8.8192
 219   2.0000      -0.319161        -8.6848
 220   2.0000      -0.318159        -8.6575
 221   2.0000      -0.308174        -8.3858
 222   2.0000      -0.296576        -8.0702
 223   2.0000      -0.275111        -7.4861
 224   2.0000      -0.270925        -7.3723
 225   2.0000      -0.253363        -6.8944
 226   0.0000      -0.100488        -2.7344
 227   0.0000      -0.064798        -1.7632
 228   0.0000      -0.062761        -1.7078
 229   0.0000      -0.054571        -1.4850
 230   0.0000      -0.049894        -1.3577

MULLIKEN ATOMIC CHARGES
-----------------------
   0 C :    0.334543
   1 C :   -0.353086
   2 C :   -0.181248
   3 N :    0.146767
   4 C :   -0.189951
   5 N :    0.149728
   6 C :    0.044948
   7 C :   -0.003509
   8 C :   -0.079036
   9 C :    0.097634
  10 C :    0.096482
  11 C :   -0.082324
  12 C :   -0.018775
  13 C :    0.036555
  14 C :    0.036915
  15 C :   -0.016353
  16 C :    0.168732
  17 O :   -0.176844
  18 C :   -0.090096
  19 C :   -0.017005
  20 C :   -0.049796
  21 S :    0.203417
  22 C :   -0.008883
  23 C :   -0.036056
  24 C :    0.008874
  25 C :   -0.182314
  26 N :    0.137226
  27 C :    0.007691
  28 C :    0.047704
  29 C :   -0.076448
  30 N :   -0.072034
  31 C :    0.076840
  32 C :   -0.051780
  33 C :    0.029503
  34 N :   -0.051063
  35 C :    0.046255
  36 C :    0.070894
  37 N :   -0.207995
  38 C :   -0.090352
  39 C :    0.118885
  40 C :   -0.021871
  41 C :   -0.036834
  42 C :    0.172373
  43 O :   -0.163946
  44 C :   -0.056061
  45 C :    0.123223
  46 N :   -0.242650
  47 C :    0.173860
  48 O :   -0.165768
  49 C :    0.117147
  50 N :   -0.255264
  51 C :    0.132380
  52 C :   -0.011197
  53 C :    0.179075
  54 O :   -0.199692
  55 C :   -0.076135
  56 C :   -0.026691
  57 C :    0.136186
  58 O :   -0.207727
  59 N :   -0.261072
  60 C :    0.096861
  61 C :    0.003426
  62 C :    0.112268
  63 C :   -0.035247
  64 C :    0.016807
  65 H :   -0.012511
  66 H :   -0.008923
  67 H :   -0.008051
  68 H :   -0.004029
  69 H :   -0.003964
  70 H :   -0.017669
  71 H :    0.011136
  72 H :    0.018397
  73 H :    0.031634
  74 H :    0.005056
  75 H :    0.010260
  76 H :   -0.007037
  77 H :    0.032005
  78 H :    0.000789
  79 H :    0.045367
  80 H :    0.048352
  81 H :    0.046332
  82 H :    0.076494
  83 H :    0.038662
  84 H :    0.031501
  85 H :    0.023660
  86 H :    0.018574
  87 H :    0.032520
  88 H :    0.008339
  89 H :    0.041330
  90 H :    0.026609
  91 H :    0.045081
  92 H :    0.016385
  93 H :    0.025497
  94 H :    0.028070
  95 H :   -0.017166
  96 H :    0.057414
  97 H :    0.031789
Sum of atomic charges:   -0.0000000

LOEWDIN ATOMIC CHARGES
----------------------
   0 C :    0.077487
   1 C :   -0.139672
   2 C :   -0.016687
   3 N :   -0.053032
   4 C :   -0.021852
   5 N :   -0.050968
   6 C :   -0.025554
   7 C :   -0.055970
   8 C :    0.033530
   9 C :   -0.008457
  10 C :   -0.005912
  11 C :    0.020754
  12 C :   -0.004690
  13 C :   -0.012581
  14 C :   -0.011582
  15 C :   -0.009258
  16 C :    0.085554
  17 O :   -0.164531
  18 C :   -0.102166
  19 C :    0.059842
  20 C :   -0.182997
  21 S :    0.532207
  22 C :   -0.129217
  23 C :   -0.110047
  24 C :    0.013239
  25 C :   -0.033604
  26 N :   -0.049628
  27 C :   -0.014792
  28 C :   -0.005448
  29 C :    0.024108
  30 N :   -0.088096
  31 C :    0.050935
  32 C :   -0.068713
  33 C :    0.039029
  34 N :   -0.086460
  35 C :   -0.042335
  36 C :    0.033728
  37 N :    0.010632
  38 C :    0.085402
  39 C :   -0.048680
  40 C :   -0.130766
  41 C :   -0.133792
  42 C :    0.099085
  43 O :   -0.161970
  44 C :    0.109533
  45 C :   -0.055174
  46 N :   -0.003952
  47 C :    0.098448
  48 O :   -0.166526
  49 C :    0.106346
  50 N :    0.006403
  51 C :    0.041451
  52 C :   -0.065147
  53 C :    0.085392
  54 O :   -0.191112
  55 C :   -0.126690
  56 C :   -0.139340
  57 C :    0.081990
  58 O :   -0.203066
  59 N :   -0.000156
  60 C :    0.036319
  61 C :   -0.061157
  62 C :    0.085061
  63 C :   -0.054924
  64 C :    0.028810
  65 H :    0.039337
  66 H :    0.039264
  67 H :    0.035182
  68 H :    0.033594
  69 H :    0.033156
  70 H :    0.031934
  71 H :    0.052047
  72 H :    0.046869
  73 H :    0.045703
  74 H :    0.032751
  75 H :    0.027826
  76 H :    0.029790
  77 H :    0.044287
  78 H :    0.025801
  79 H :    0.047102
  80 H :    0.047224
  81 H :    0.053700
  82 H :    0.057989
  83 H :    0.049420
  84 H :    0.041609
  85 H :    0.030625
  86 H :    0.024388
  87 H :    0.028015
  88 H :    0.025389
  89 H :    0.026385
  90 H :    0.023873
  91 H :    0.038277
  92 H :    0.022607
  93 H :    0.031457
  94 H :    0.031587
  95 H :    0.030173
  96 H :    0.033406
  97 H :    0.030646

  Mayer bond orders larger than 0.100000
B(  0-C ,  1-C ) :   1.6272 B(  0-C ,  6-C ) :   0.9869 B(  0-C , 18-C ) :   1.0687
B(  1-C ,  2-C ) :   1.1491 B(  1-C ,  4-C ) :   1.1418 B(  2-C ,  3-N ) :   2.9597
B(  4-C ,  5-N ) :   2.9586 B(  6-C ,  7-C ) :   1.2137 B(  6-C , 11-C ) :   1.4514
B(  7-C ,  8-C ) :   1.4667 B(  7-C , 16-C ) :   0.9614 B(  8-C ,  9-C ) :   1.1785
B(  8-C , 65-H ) :   1.0171 B(  9-C , 10-C ) :   1.2554 B(  9-C , 15-C ) :   1.2432
B( 10-C , 11-C ) :   1.2039 B( 10-C , 12-C ) :   1.2412 B( 11-C , 66-H ) :   0.9897
B( 12-C , 13-C ) :   1.4870 B( 12-C , 67-H ) :   0.9979 B( 13-C , 14-C ) :   1.2597
B( 13-C , 68-H ) :   0.9890 B( 14-C , 15-C ) :   1.4886 B( 14-C , 69-H ) :   0.9892
B( 15-C , 70-H ) :   0.9979 B( 16-C , 17-O ) :   2.1404 B( 16-C , 18-C ) :   0.9647
B( 18-C , 19-C ) :   1.5320 B( 19-C , 20-C ) :   1.2327 B( 19-C , 71-H ) :   0.9369
B( 20-C , 21-S ) :   1.0943 B( 20-C , 24-C ) :   1.3780 B( 21-S , 22-C ) :   1.1340
B( 22-C , 23-C ) :   1.3947 B( 22-C , 27-C ) :   1.1440 B( 23-C , 24-C ) :   1.3190
B( 23-C , 25-C ) :   1.0892 B( 24-C , 72-H ) :   1.0131 B( 25-C , 26-N ) :   3.0291
B( 27-C , 28-C ) :   1.6759 B( 27-C , 73-H ) :   0.9629 B( 28-C , 29-C ) :   1.0336
B( 28-C , 74-H ) :   0.9756 B( 29-C , 30-N ) :   1.5339 B( 29-C , 34-N ) :   1.5396
B( 30-N , 31-C ) :   1.5476 B( 31-C , 32-C ) :   1.3788 B( 31-C , 75-H ) :   0.9810
B( 32-C , 33-C ) :   1.3507 B( 32-C , 76-H ) :   0.9677 B( 33-C , 34-N ) :   1.4986
B( 33-C , 35-C ) :   1.0380 B( 35-C , 36-C ) :   1.7554 B( 35-C , 77-H ) :   0.9632
B( 36-C , 37-N ) :   1.0476 B( 36-C , 78-H ) :   0.9619 B( 37-N , 38-C ) :   1.1442
B( 37-N , 42-C ) :   0.9603 B( 38-C , 39-C ) :   1.1260 B( 38-C , 40-C ) :   1.4982
B( 39-C , 79-H ) :   0.9330 B( 39-C , 80-H ) :   0.9273 B( 39-C , 81-H ) :   0.9308
B( 40-C , 41-C ) :   1.1707 B( 40-C , 47-C ) :   0.9787 B( 41-C , 42-C ) :   0.9773
B( 41-C , 44-C ) :   1.5035 B( 42-C , 43-O ) :   2.1728 B( 44-C , 45-C ) :   1.1471
B( 44-C , 46-N ) :   1.1124 B( 45-C , 82-H ) :   0.8969 B( 45-C , 83-H ) :   0.9246
B( 45-C , 84-H ) :   0.9213 B( 46-N , 47-C ) :   0.9470 B( 46-N , 49-C ) :   1.0300
B( 47-C , 48-O ) :   2.1484 B( 49-C , 50-N ) :   1.2203 B( 49-C , 56-C ) :   1.4227
B( 50-N , 51-C ) :   0.9285 B( 50-N , 53-C ) :   1.0300 B( 51-C , 52-C ) :   1.1127
B( 51-C , 85-H ) :   0.9392 B( 51-C , 86-H ) :   0.9481 B( 52-C , 87-H ) :   0.9645
B( 52-C , 88-H ) :   0.9639 B( 52-C , 89-H ) :   0.9573 B( 53-C , 54-O ) :   2.0455
B( 53-C , 55-C ) :   0.9985 B( 55-C , 56-C ) :   1.1975 B( 55-C , 62-C ) :   1.4074
B( 56-C , 57-C ) :   0.9539 B( 57-C , 58-O ) :   2.0748 B( 57-C , 59-N ) :   1.0593
B( 59-N , 60-C ) :   0.9451 B( 59-N , 62-C ) :   1.1553 B( 60-C , 61-C ) :   1.1202
B( 60-C , 90-H ) :   0.9505 B( 60-C , 91-H ) :   0.9284 B( 61-C , 92-H ) :   0.9686
B( 61-C , 93-H ) :   0.9679 B( 61-C , 94-H ) :   0.9639 B( 62-C , 63-C ) :   1.1233
B( 63-C , 64-C ) :   1.8934 B( 63-C , 95-H ) :   0.9531 B( 64-C , 96-H ) :   0.9283
B( 64-C , 97-H ) :   0.9447

-----------------------------------------------------------------------------
         ABSORPTION SPECTRUM VIA TRANSITION ELECTRIC DIPOLE MOMENTS
-----------------------------------------------------------------------------
State   Energy  Wavelength   fosc         T2         TX        TY        TZ
        (cm-1)    (nm)                  (au**2)     (au)      (au)      (au)
-----------------------------------------------------------------------------
   0   21929.8    456.0   1.308216977  19.63905  -1.07800   2.69857  -3.34585
   1   23830.0    419.6   0.385979316   5.33230  -0.34924  -2.25591  -0.34812
   2   25315.6    395.0   0.032398833   0.42132  -0.57289   0.26571   0.15008
   3   26333.2    379.7   0.013804323   0.17258  -0.11562   0.18490   0.35359
   4   26521.0    377.1   0.090229878   1.12005  -0.16256  -0.18665   1.02897
   5   27883.5    358.6   0.001068034   0.01261  -0.03684  -0.08392  -0.06489
   6   28088.3    356.0   0.022759798   0.26676  -0.04203   0.51353  -0.03572
   7   28277.2    353.6   0.050591277   0.58900  -0.71639  -0.11752   0.24896
   8   28501.4    350.9   0.025220027   0.29131   0.06308   0.12269  -0.52180
   9   29276.7    341.6   0.364604380   4.09992   1.24363  -1.51893  -0.49616
  10   29902.7    334.4   0.154702388   1.70318  -0.66903   0.57268   0.96313
  11   30152.3    331.6   0.000700464   0.00765  -0.02775  -0.08262   0.00718
  12   30264.4    330.4   0.000664163   0.00722  -0.06336  -0.00405   0.05651
  13   32185.7    310.7   0.020543139   0.21013  -0.15958   0.39906   0.15942
  14   32560.2    307.1   0.260108691   2.62993   0.91681  -1.33658  -0.05433
  15   32944.0    303.5   0.165982656   1.65868   0.14490   0.38983  -1.21890
  16   33255.5    300.7   0.046768319   0.46298  -0.03609  -0.23947  -0.63587
  17   33500.8    298.5   0.210770426   2.07124  -0.78403   0.94966   0.74478
  18   33651.6    297.2   0.197504495   1.93218   0.71553  -0.95488  -0.71302
  19   34441.0    290.4   0.267379518   2.55581  -0.88810   1.00358   0.87173
  20   34802.6    287.3   0.002984776   0.02823   0.06246   0.14453  -0.05868
  21   35382.1    282.6   0.069712800   0.64864   0.50818  -0.51124  -0.35920
  22   35830.6    279.1   0.577611751   5.30711  -1.32400   1.45765   1.19558
  23   35976.4    278.0   0.014641348   0.13398  -0.23400   0.27969  -0.03158
  24   36068.4    277.3   0.010279885   0.09383  -0.13804   0.27327   0.00983
  25   36202.3    276.2   0.159037888   1.44624  -0.71660   0.91763   0.30112
  26   36975.8    270.4   0.173682936   1.54638  -0.71587   0.89338   0.48557
  27   37561.4    266.2   0.157931818   1.38421   0.64492  -0.90607  -0.38383
  28   37767.7    264.8   0.014838284   0.12934   0.29652  -0.15838  -0.12779
  29   37889.7    263.9   0.002544473   0.02211   0.04861  -0.13807  -0.02614
  30   37951.5    263.5   0.003286598   0.02851  -0.15299  -0.06722   0.02421
  31   38659.6    258.7   0.110970702   0.94499  -0.33625   0.78932  -0.45705
  32   38836.1    257.5   0.055406868   0.46968   0.42861  -0.52746   0.08811
  33   39104.5    255.7   0.026440701   0.22260   0.09189  -0.06460   0.45824
  34   39557.2    252.8   0.005886704   0.04899  -0.07143   0.17919   0.10854
  35   40131.1    249.2   0.170159605   1.39589  -0.07097  -0.51270   1.06207
  36   40156.7    249.0   0.123595508   1.01326   0.81790  -0.58399  -0.05712

FINAL SINGLE POINT ENERGY     -3188.631907162913

DIPOLE MOMENT
-------------
                                X             Y             Z
Electronic contribution:     47.62157     -83.40831      -1.42370
Nuclear contribution   :    -50.35881      86.90799       2.84278
                        -----------------------------------------
Total Dipole Moment    :     -2.73724       3.49969       1.41908
                        -----------------------------------------
Magnitude (a.u.)       :      4.66413
Magnitude (Debye)      :     11.85528

Rotational constants in cm-1:     0.001603     0.000290     0.000258
Rotational constants in MHz :    48.066696     8.706129     7.739475

                             ****ORCA TERMINATED NORMALLY****
TOTAL RUN TIME: 0 days 0 hours 7 minutes 42 seconds 605 msec
