                         Program Version 4.2.0 -  RELEASE  -
|  1> # ORCA input file
|  2> # SCF done       -179.973391100398          0.000684287851
|  3> ! CAM-B3LYP def2-SVP def2/J RIJCOSX Grid4 TightSCF
|  4> %maxcore 5000
|  5> %tddft
|  6>     Mode sTDDFT
|  7>     Ethresh 5.0
|  8>     maxcore 5000
|  9> end
| 10>
| 11> %pal
| 12>   nprocs 6
| 13>   end
| 14> * xyz 0 1
| 15>    C       -0.60673        -1.22500         0.10787
| 16>    N       -0.23906        -0.43474         1.14753
| 17>    C        0.67873        -0.79465         2.19956
| 18>    C        2.12717        -0.74877         1.72080
| 19>    C       -0.82763         0.85265         1.05250
| 20>    O       -0.63127         1.74046         1.85314
| 21>    C       -1.62257         0.77359        -0.15191
| 22>    C       -1.45170        -0.52712        -0.71276
| 23>    C       -2.25055        -0.58636        -1.92021
| 24>    O       -2.42813        -1.45967        -2.73709
| 25>    N       -2.85059         0.69383        -2.00812
| 26>    C       -3.79139         0.96151        -3.06999
| 27>    C       -5.23389         0.93445        -2.57068
| 28>    C       -2.49205         1.49865        -0.95186
| 29>    C       -2.88471         2.83093        -0.63055
| 30>    C       -3.62311         3.70177        -1.35055
| 31>    C       -3.93024         5.02897        -0.88999
| 32>    C       -3.99516         6.13465        -1.76408
| 33>    C       -3.80154         6.01861        -3.22130
| 34>    O       -3.57460         5.03652        -3.86593
| 35>    S       -3.96002         7.63988        -3.96837
| 36>    C       -4.21420         8.44951        -2.38808
| 37>    O       -4.32761         9.63760        -2.29408
| 38>    C       -4.23186         7.43508        -1.31908
| 39>    C       -4.43245         7.75636         0.04267
| 40>    C       -4.44700         6.63804         0.89777
| 41>    C       -4.22190         5.34146         0.45081
| 42>    C       -4.54274         4.42591         1.57780
| 43>    O       -4.60313         3.23740         1.61716
| 44>    O       -4.87374         5.21305         2.65196
| 45>    C       -4.83895         6.54657         2.32877
| 46>    O       -5.11150         7.39689         3.11637
| 47>    C       -4.68927         9.10442         0.45758
| 48>    C       -4.25346         9.67364         1.59956
| 49>    C       -4.46750        11.03491         1.96724
| 50>    S       -3.55091        11.66212         3.30954
| 51>    C       -4.21270        13.24457         3.08429
| 52>    C       -5.11292        13.27407         2.03306
| 53>    C       -5.26494        12.02142         1.40620
| 54>    S       -6.47315        11.73607         0.15176
| 55>    C       -5.79046        12.71114        -1.24201
| 56>    C       -6.15528        14.18542        -1.20024
| 57>    C       -5.39526        14.97392        -0.14572
| 58>    S       -5.98917        14.72862         1.57355
| 59>    C       -3.77980        14.30284         3.92194
| 60>    S       -4.46641        15.91180         3.91831
| 61>    C       -3.27374        16.27239         5.16121
| 62>    N       -2.51762        15.24760         5.44121
| 63>    N       -2.79130        14.17364         4.76651
| 64>    C       -3.12852        17.57662         5.70866
| 65>    C       -2.51114        17.91653         6.86351
| 66>    C       -2.10250        19.34564         7.07700
| 67>    O       -2.48226        20.30010         6.44523
| 68>    C       -1.11876        19.27712         8.16113
| 69>    C       -0.28024        20.13769         8.80652
| 70>    S        0.63203        19.29610        10.03566
| 71>    C       -0.13629        17.79378         9.67097
| 72>    C       -1.03394        17.93408         8.66004
| 73>    C       -1.99386        17.10504         7.95567
| 74>    C       -2.45634        15.89757         8.39477
| 75>    C       -3.58647        15.23769         7.86961
| 76>    N       -4.54964        14.71361         7.53199
| 77>    C       -1.88741        15.26025         9.51773
| 78>    N       -1.42533        14.73750        10.42790
| 79>   Cl       -0.07748        21.79703         8.53656
| 80>    H       -0.24874        -2.23514         0.02710
| 81>    H        0.42943        -1.79468         2.56565
| 82>    H        0.52849        -0.06964         3.00373
| 83>    H        2.28339        -1.44541         0.90009
| 84>    H        2.79337        -1.01490         2.53633
| 85>    H        2.37673         0.25286         1.37992
| 86>    H       -3.64462         0.15805        -3.79870
| 87>    H       -3.54866         1.91043        -3.55422
| 88>    H       -5.47782        -0.05913        -2.20322
| 89>    H       -5.90935         1.17797        -3.38588
| 90>    H       -5.38559         1.64526        -1.76169
| 91>    H       -2.47546         3.14857         0.31981
| 92>    H       -3.95105         3.47073        -2.35031
| 93>    H       -5.22417         9.71313        -0.25758
| 94>    H       -3.62421         9.11803         2.28026
| 95>    H       -4.71310        12.55185        -1.25686
| 96>    H       -6.22591        12.23823        -2.12128
| 97>    H       -7.22838        14.29073        -1.02864
| 98>    H       -5.92513        14.61977        -2.17738
| 99>    H       -4.32969        14.74597        -0.15947
|100>    H       -5.53378        16.04296        -0.30456
|101>    H       -3.49048        18.39592         5.09767
|102>    H        0.13511        16.91492        10.22123
|103> *
|104>
|105>                          ****END OF INPUT****

CARTESIAN COORDINATES (ANGSTROEM)
---------------------------------
  C     -0.606730   -1.225000    0.107870
  N     -0.239060   -0.434740    1.147530
  C      0.678730   -0.794650    2.199560
  C      2.127170   -0.748770    1.720800
  C     -0.827630    0.852650    1.052500
  O     -0.631270    1.740460    1.853140
  C     -1.622570    0.773590   -0.151910
  C     -1.451700   -0.527120   -0.712760
  C     -2.250550   -0.586360   -1.920210
  O     -2.428130   -1.459670   -2.737090
  N     -2.850590    0.693830   -2.008120
  C     -3.791390    0.961510   -3.069990
  C     -5.233890    0.934450   -2.570680
  C     -2.492050    1.498650   -0.951860
  C     -2.884710    2.830930   -0.630550
  C     -3.623110    3.701770   -1.350550
  C     -3.930240    5.028970   -0.889990
  C     -3.995160    6.134650   -1.764080
  C     -3.801540    6.018610   -3.221300
  O     -3.574600    5.036520   -3.865930
  S     -3.960020    7.639880   -3.968370
  C     -4.214200    8.449510   -2.388080
  O     -4.327610    9.637600   -2.294080
  C     -4.231860    7.435080   -1.319080
  C     -4.432450    7.756360    0.042670
  C     -4.447000    6.638040    0.897770
  C     -4.221900    5.341460    0.450810
  C     -4.542740    4.425910    1.577800
  O     -4.603130    3.237400    1.617160
  O     -4.873740    5.213050    2.651960
  C     -4.838950    6.546570    2.328770
  O     -5.111500    7.396890    3.116370
  C     -4.689270    9.104420    0.457580
  C     -4.253460    9.673640    1.599560
  C     -4.467500   11.034910    1.967240
  S     -3.550910   11.662120    3.309540
  C     -4.212700   13.244570    3.084290
  C     -5.112920   13.274070    2.033060
  C     -5.264940   12.021420    1.406200
  S     -6.473150   11.736070    0.151760
  C     -5.790460   12.711140   -1.242010
  C     -6.155280   14.185420   -1.200240
  C     -5.395260   14.973920   -0.145720
  S     -5.989170   14.728620    1.573550
  C     -3.779800   14.302840    3.921940
  S     -4.466410   15.911800    3.918310
  C     -3.273740   16.272390    5.161210
  N     -2.517620   15.247600    5.441210
  N     -2.791300   14.173640    4.766510
  C     -3.128520   17.576620    5.708660
  C     -2.511140   17.916530    6.863510
  C     -2.102500   19.345640    7.077000
  O     -2.482260   20.300100    6.445230
  C     -1.118760   19.277120    8.161130
  C     -0.280240   20.137690    8.806520
  S      0.632030   19.296100   10.035660
  C     -0.136290   17.793780    9.670970
  C     -1.033940   17.934080    8.660040
  C     -1.993860   17.105040    7.955670
  C     -2.456340   15.897570    8.394770
  C     -3.586470   15.237690    7.869610
  N     -4.549640   14.713610    7.531990
  C     -1.887410   15.260250    9.517730
  N     -1.425330   14.737500   10.427900
  Cl    -0.077480   21.797030    8.536560
  H     -0.248740   -2.235140    0.027100
  H      0.429430   -1.794680    2.565650
  H      0.528490   -0.069640    3.003730
  H      2.283390   -1.445410    0.900090
  H      2.793370   -1.014900    2.536330
  H      2.376730    0.252860    1.379920
  H     -3.644620    0.158050   -3.798700
  H     -3.548660    1.910430   -3.554220
  H     -5.477820   -0.059130   -2.203220
  H     -5.909350    1.177970   -3.385880
  H     -5.385590    1.645260   -1.761690
  H     -2.475460    3.148570    0.319810
  H     -3.951050    3.470730   -2.350310
  H     -5.224170    9.713130   -0.257580
  H     -3.624210    9.118030    2.280260
  H     -4.713100   12.551850   -1.256860
  H     -6.225910   12.238230   -2.121280
  H     -7.228380   14.290730   -1.028640
  H     -5.925130   14.619770   -2.177380
  H     -4.329690   14.745970   -0.159470
  H     -5.533780   16.042960   -0.304560
  H     -3.490480   18.395920    5.097670
  H      0.135110   16.914920   10.221230

 Total Charge           Charge          ....    0
 Multiplicity           Mult            ....    1
 Number of Electrons    NEL             ....  506
 Basis Dimension        Dim             .... 1053

ORBITAL ENERGIES
----------------

  NO   OCC          E(Eh)            E(eV)
   0   2.0000    -101.617011     -2765.1395
   1   2.0000     -88.992046     -2421.5967
   2   2.0000     -88.982385     -2421.3338
   3   2.0000     -88.975572     -2421.1484
   4   2.0000     -88.962532     -2420.7936
   5   2.0000     -88.941798     -2420.2294
   6   2.0000     -88.932981     -2419.9894
   7   2.0000     -19.296255      -525.0778
   8   2.0000     -19.256021      -523.9830
   9   2.0000     -19.255631      -523.9724
  10   2.0000     -19.243315      -523.6372
  11   2.0000     -19.242284      -523.6092
  12   2.0000     -19.221822      -523.0524
  13   2.0000     -19.196097      -522.3524
  14   2.0000     -19.186179      -522.0825
  15   2.0000     -14.457156      -393.3992
  16   2.0000     -14.451262      -393.2388
  17   2.0000     -14.449184      -393.1823
  18   2.0000     -14.444529      -393.0556
  19   2.0000     -14.417553      -392.3216
  20   2.0000     -14.412883      -392.1945
  21   2.0000     -10.438378      -284.0427
  22   2.0000     -10.437594      -284.0214
  23   2.0000     -10.417891      -283.4852
  24   2.0000     -10.417719      -283.4806
  25   2.0000     -10.377920      -282.3976
  26   2.0000     -10.377909      -282.3973
  27   2.0000     -10.375755      -282.3386
  28   2.0000     -10.372790      -282.2580
  29   2.0000     -10.356596      -281.8173
  30   2.0000     -10.346494      -281.5424
  31   2.0000     -10.345084      -281.5041
  32   2.0000     -10.344499      -281.4881
  33   2.0000     -10.342517      -281.4342
  34   2.0000     -10.342331      -281.4291
  35   2.0000     -10.341482      -281.4060
  36   2.0000     -10.338062      -281.3130
  37   2.0000     -10.337053      -281.2855
  38   2.0000     -10.335760      -281.2503
  39   2.0000     -10.335526      -281.2440
  40   2.0000     -10.334864      -281.2260
  41   2.0000     -10.327540      -281.0266
  42   2.0000     -10.326491      -280.9981
  43   2.0000     -10.325601      -280.9739
  44   2.0000     -10.324382      -280.9407
  45   2.0000     -10.320485      -280.8347
  46   2.0000     -10.318781      -280.7883
  47   2.0000     -10.315260      -280.6925
  48   2.0000     -10.314658      -280.6761
  49   2.0000     -10.312458      -280.6163
  50   2.0000     -10.311679      -280.5950
  51   2.0000     -10.311650      -280.5943
  52   2.0000     -10.311599      -280.5929
  53   2.0000     -10.306197      -280.4459
  54   2.0000     -10.305260      -280.4204
  55   2.0000     -10.304709      -280.4054
  56   2.0000     -10.302890      -280.3559
  57   2.0000     -10.300025      -280.2779
  58   2.0000     -10.299458      -280.2625
  59   2.0000     -10.288695      -279.9696
  60   2.0000     -10.286315      -279.9049
  61   2.0000     -10.267000      -279.3793
  62   2.0000     -10.265680      -279.3434
  63   2.0000     -10.261779      -279.2372
  64   2.0000     -10.259566      -279.1770
  65   2.0000      -9.571800      -260.4619
  66   2.0000      -8.087797      -220.0801
  67   2.0000      -8.077399      -219.7972
  68   2.0000      -8.070733      -219.6158
  69   2.0000      -8.061842      -219.3739
  70   2.0000      -8.036790      -218.6922
  71   2.0000      -8.027451      -218.4381
  72   2.0000      -7.342439      -199.7979
  73   2.0000      -7.331828      -199.5092
  74   2.0000      -7.331301      -199.4948
  75   2.0000      -6.057185      -164.8244
  76   2.0000      -6.052558      -164.6985
  77   2.0000      -6.050047      -164.6301
  78   2.0000      -6.046270      -164.5274
  79   2.0000      -6.042526      -164.4255
  80   2.0000      -6.039974      -164.3561
  81   2.0000      -6.039782      -164.3508
  82   2.0000      -6.035888      -164.2449
  83   2.0000      -6.032773      -164.1601
  84   2.0000      -6.030729      -164.1045
  85   2.0000      -6.027433      -164.0148
  86   2.0000      -6.022861      -163.8904
  87   2.0000      -6.007262      -163.4659
  88   2.0000      -6.003207      -163.3556
  89   2.0000      -5.998068      -163.2157
  90   2.0000      -5.996377      -163.1697
  91   2.0000      -5.994145      -163.1090
  92   2.0000      -5.986740      -162.9075
  93   2.0000      -1.246940       -33.9310
  94   2.0000      -1.180472       -32.1223
  95   2.0000      -1.176318       -32.0092
  96   2.0000      -1.171842       -31.8874
  97   2.0000      -1.152756       -31.3681
  98   2.0000      -1.139035       -30.9947
  99   2.0000      -1.134992       -30.8847
 100   2.0000      -1.133680       -30.8490
 101   2.0000      -1.126205       -30.6456
 102   2.0000      -1.065649       -28.9978
 103   2.0000      -1.054099       -28.6835
 104   2.0000      -1.037057       -28.2198
 105   2.0000      -1.025025       -27.8924
 106   2.0000      -1.016045       -27.6480
 107   2.0000      -1.013007       -27.5653
 108   2.0000      -0.993838       -27.0437
 109   2.0000      -0.987182       -26.8626
 110   2.0000      -0.962759       -26.1980
 111   2.0000      -0.959042       -26.0968
 112   2.0000      -0.948751       -25.8168
 113   2.0000      -0.942999       -25.6603
 114   2.0000      -0.935149       -25.4467
 115   2.0000      -0.931213       -25.3396
 116   2.0000      -0.928831       -25.2748
 117   2.0000      -0.908297       -24.7160
 118   2.0000      -0.903718       -24.5914
 119   2.0000      -0.892393       -24.2832
 120   2.0000      -0.886626       -24.1263
 121   2.0000      -0.876806       -23.8591
 122   2.0000      -0.875731       -23.8298
 123   2.0000      -0.869792       -23.6682
 124   2.0000      -0.861829       -23.4516
 125   2.0000      -0.831020       -22.6132
 126   2.0000      -0.828738       -22.5511
 127   2.0000      -0.820719       -22.3329
 128   2.0000      -0.812745       -22.1159
 129   2.0000      -0.806219       -21.9383
 130   2.0000      -0.794832       -21.6285
 131   2.0000      -0.791883       -21.5482
 132   2.0000      -0.780075       -21.2269
 133   2.0000      -0.774356       -21.0713
 134   2.0000      -0.763900       -20.7868
 135   2.0000      -0.760766       -20.7015
 136   2.0000      -0.757908       -20.6237
 137   2.0000      -0.749905       -20.4060
 138   2.0000      -0.742618       -20.2077
 139   2.0000      -0.717224       -19.5167
 140   2.0000      -0.712501       -19.3881
 141   2.0000      -0.709113       -19.2959
 142   2.0000      -0.701057       -19.0767
 143   2.0000      -0.689378       -18.7589
 144   2.0000      -0.683583       -18.6012
 145   2.0000      -0.677579       -18.4379
 146   2.0000      -0.675332       -18.3767
 147   2.0000      -0.673743       -18.3335
 148   2.0000      -0.662726       -18.0337
 149   2.0000      -0.652606       -17.7583
 150   2.0000      -0.649049       -17.6615
 151   2.0000      -0.642289       -17.4776
 152   2.0000      -0.638614       -17.3776
 153   2.0000      -0.630285       -17.1509
 154   2.0000      -0.622555       -16.9406
 155   2.0000      -0.612082       -16.6556
 156   2.0000      -0.611058       -16.6277
 157   2.0000      -0.608161       -16.5489
 158   2.0000      -0.604757       -16.4563
 159   2.0000      -0.600583       -16.3427
 160   2.0000      -0.590633       -16.0719
 161   2.0000      -0.588020       -16.0008
 162   2.0000      -0.582524       -15.8513
 163   2.0000      -0.577346       -15.7104
 164   2.0000      -0.576040       -15.6749
 165   2.0000      -0.574534       -15.6339
 166   2.0000      -0.569580       -15.4991
 167   2.0000      -0.566823       -15.4240
 168   2.0000      -0.562056       -15.2943
 169   2.0000      -0.560945       -15.2641
 170   2.0000      -0.558280       -15.1916
 171   2.0000      -0.555616       -15.1191
 172   2.0000      -0.552852       -15.0439
 173   2.0000      -0.550014       -14.9666
 174   2.0000      -0.547836       -14.9074
 175   2.0000      -0.545791       -14.8517
 176   2.0000      -0.538460       -14.6522
 177   2.0000      -0.532941       -14.5021
 178   2.0000      -0.532294       -14.4845
 179   2.0000      -0.530508       -14.4358
 180   2.0000      -0.529625       -14.4118
 181   2.0000      -0.528974       -14.3941
 182   2.0000      -0.525893       -14.3103
 183   2.0000      -0.523153       -14.2357
 184   2.0000      -0.521078       -14.1793
 185   2.0000      -0.520003       -14.1500
 186   2.0000      -0.516063       -14.0428
 187   2.0000      -0.514865       -14.0102
 188   2.0000      -0.510670       -13.8960
 189   2.0000      -0.509121       -13.8539
 190   2.0000      -0.504823       -13.7369
 191   2.0000      -0.503310       -13.6958
 192   2.0000      -0.502799       -13.6819
 193   2.0000      -0.500704       -13.6248
 194   2.0000      -0.500130       -13.6092
 195   2.0000      -0.495097       -13.4723
 196   2.0000      -0.492846       -13.4110
 197   2.0000      -0.487686       -13.2706
 198   2.0000      -0.486351       -13.2343
 199   2.0000      -0.485514       -13.2115
 200   2.0000      -0.480265       -13.0687
 201   2.0000      -0.473608       -12.8875
 202   2.0000      -0.472339       -12.8530
 203   2.0000      -0.470054       -12.7908
 204   2.0000      -0.467074       -12.7097
 205   2.0000      -0.465723       -12.6730
 206   2.0000      -0.458429       -12.4745
 207   2.0000      -0.455130       -12.3847
 208   2.0000      -0.454507       -12.3678
 209   2.0000      -0.453979       -12.3534
 210   2.0000      -0.450054       -12.2466
 211   2.0000      -0.449407       -12.2290
 212   2.0000      -0.447977       -12.1901
 213   2.0000      -0.443849       -12.0777
 214   2.0000      -0.442771       -12.0484
 215   2.0000      -0.441157       -12.0045
 216   2.0000      -0.434739       -11.8298
 217   2.0000      -0.434181       -11.8147
 218   2.0000      -0.429768       -11.6946
 219   2.0000      -0.427629       -11.6364
 220   2.0000      -0.426535       -11.6066
 221   2.0000      -0.419747       -11.4219
 222   2.0000      -0.417925       -11.3723
 223   2.0000      -0.416628       -11.3370
 224   2.0000      -0.411074       -11.1859
 225   2.0000      -0.408473       -11.1151
 226   2.0000      -0.407049       -11.0764
 227   2.0000      -0.403339       -10.9754
 228   2.0000      -0.402202       -10.9445
 229   2.0000      -0.399938       -10.8829
 230   2.0000      -0.397967       -10.8292
 231   2.0000      -0.388521       -10.5722
 232   2.0000      -0.384460       -10.4617
 233   2.0000      -0.382970       -10.4211
 234   2.0000      -0.380711       -10.3597
 235   2.0000      -0.377524       -10.2729
 236   2.0000      -0.366223        -9.9654
 237   2.0000      -0.358079        -9.7438
 238   2.0000      -0.354515        -9.6469
 239   2.0000      -0.348768        -9.4905
 240   2.0000      -0.346005        -9.4153
 241   2.0000      -0.344054        -9.3622
 242   2.0000      -0.341333        -9.2881
 243   2.0000      -0.336759        -9.1637
 244   2.0000      -0.331135        -9.0107
 245   2.0000      -0.330710        -8.9991
 246   2.0000      -0.321925        -8.7600
 247   2.0000      -0.315917        -8.5965
 248   2.0000      -0.309885        -8.4324
 249   2.0000      -0.306745        -8.3469
 250   2.0000      -0.302193        -8.2231
 251   2.0000      -0.271112        -7.3773
 252   2.0000      -0.251506        -6.8438
 253   0.0000      -0.103726        -2.8225
 254   0.0000      -0.102343        -2.7849
 255   0.0000      -0.091787        -2.4977
 256   0.0000      -0.063946        -1.7401
 257   0.0000      -0.048595        -1.3223

MULLIKEN ATOMIC CHARGES
-----------------------
   0 C :    0.056952
   1 N :   -0.268339
   2 C :    0.110832
   3 C :   -0.001672
   4 C :    0.171118
   5 O :   -0.185859
   6 C :   -0.065814
   7 C :   -0.001785
   8 C :    0.167997
   9 O :   -0.184104
  10 N :   -0.276830
  11 C :    0.092096
  12 C :   -0.002425
  13 C :    0.100391
  14 C :    0.033498
  15 C :   -0.039458
  16 C :    0.040376
  17 C :    0.033414
  18 C :    0.039421
  19 O :   -0.130464
  20 S :    0.026973
  21 C :    0.036979
  22 O :   -0.134311
  23 C :    0.029629
  24 C :    0.051646
  25 C :   -0.082444
  26 C :   -0.078113
  27 C :    0.227059
  28 O :   -0.091019
  29 O :   -0.223351
  30 C :    0.231214
  31 O :   -0.093071
  32 C :   -0.059058
  33 C :    0.103306
  34 C :   -0.118629
  35 S :    0.232265
  36 C :   -0.061022
  37 C :   -0.050792
  38 C :   -0.060935
  39 S :   -0.007999
  40 C :   -0.077938
  41 C :    0.102760
  42 C :   -0.094031
  43 S :    0.007356
  44 C :   -0.098901
  45 S :    0.151072
  46 C :   -0.094267
  47 N :   -0.056030
  48 N :   -0.055542
  49 C :    0.087292
  50 C :   -0.117248
  51 C :    0.128947
  52 O :   -0.125171
  53 C :    0.083323
  54 C :   -0.167328
  55 S :    0.184608
  56 C :   -0.125121
  57 C :    0.020906
  58 C :    0.273261
  59 C :   -0.278893
  60 C :   -0.184543
  61 N :    0.172638
  62 C :   -0.192092
  63 N :    0.156451
  64 Cl:   -0.000494
  65 H :    0.019591
  66 H :    0.020275
  67 H :    0.044916
  68 H :    0.015367
  69 H :    0.025546
  70 H :    0.030729
  71 H :    0.044432
  72 H :    0.035838
  73 H :    0.026338
  74 H :    0.021154
  75 H :    0.025618
  76 H :    0.010239
  77 H :    0.023914
  78 H :    0.038013
  79 H :   -0.006178
  80 H :    0.054212
  81 H :    0.057939
  82 H :    0.025709
  83 H :    0.021476
  84 H :    0.054365
  85 H :    0.060074
  86 H :    0.027807
  87 H :    0.053942
Sum of atomic charges:    0.0000000

LOEWDIN ATOMIC CHARGES
----------------------
   0 C :    0.106395
   1 N :   -0.002808
   2 C :    0.038870
   3 C :   -0.060247
   4 C :    0.082072
   5 O :   -0.185627
   6 C :   -0.106418
   7 C :   -0.133627
   8 C :    0.083931
   9 O :   -0.186631
  10 N :   -0.009330
  11 C :    0.033787
  12 C :   -0.063323
  13 C :    0.073232
  14 C :    0.015945
  15 C :   -0.026245
  16 C :    0.025225
  17 C :   -0.052084
  18 C :   -0.041038
  19 O :   -0.113876
  20 S :    0.310922
  21 C :   -0.039790
  22 O :   -0.116228
  23 C :   -0.055419
  24 C :    0.029872
  25 C :   -0.045809
  26 C :   -0.042060
  27 C :    0.105336
  28 O :   -0.089044
  29 O :   -0.050564
  30 C :    0.106190
  31 O :   -0.090651
  32 C :   -0.034933
  33 C :    0.000403
  34 C :   -0.168344
  35 S :    0.509045
  36 C :   -0.212767
  37 C :   -0.205092
  38 C :   -0.210481
  39 S :    0.310535
  40 C :   -0.122238
  41 C :   -0.064179
  42 C :   -0.123339
  43 S :    0.295699
  44 C :   -0.155175
  45 S :    0.432123
  46 C :   -0.170997
  47 N :   -0.051810
  48 N :   -0.081097
  49 C :    0.031462
  50 C :   -0.055460
  51 C :    0.080883
  52 O :   -0.129735
  53 C :   -0.120139
  54 C :   -0.272260
  55 S :    0.475633
  56 C :   -0.152455
  57 C :   -0.053448
  58 C :    0.066940
  59 C :   -0.108703
  60 C :   -0.017704
  61 N :   -0.044668
  62 C :   -0.013477
  63 N :   -0.046305
  64 Cl:    0.192037
  65 H :    0.034976
  66 H :    0.025609
  67 H :    0.037562
  68 H :    0.022509
  69 H :    0.031235
  70 H :    0.031777
  71 H :    0.037865
  72 H :    0.024450
  73 H :    0.031901
  74 H :    0.030345
  75 H :    0.022655
  76 H :    0.043926
  77 H :    0.033351
  78 H :    0.016184
  79 H :    0.029740
  80 H :    0.027390
  81 H :    0.031834
  82 H :    0.027168
  83 H :    0.032119
  84 H :    0.027099
  85 H :    0.031945
  86 H :    0.049300
  87 H :    0.038152

  Mayer bond orders larger than 0.100000
B(  0-C ,  1-N ) :   1.2061 B(  0-C ,  7-C ) :   1.4440 B(  0-C , 65-H ) :   0.9886
B(  1-N ,  2-C ) :   0.9390 B(  1-N ,  4-C ) :   1.0250 B(  2-C ,  3-C ) :   1.1183
B(  2-C , 66-H ) :   0.9542 B(  2-C , 67-H ) :   0.9351 B(  3-C , 68-H ) :   0.9690
B(  3-C , 69-H ) :   0.9688 B(  3-C , 70-H ) :   0.9676 B(  4-C ,  5-O ) :   2.1273
B(  4-C ,  6-C ) :   0.9815 B(  6-C ,  7-C ) :   1.1991 B(  6-C , 13-C ) :   1.4031
B(  7-C ,  8-C ) :   0.9538 B(  8-C ,  9-O ) :   2.1701 B(  8-C , 10-N ) :   1.0165
B( 10-N , 11-C ) :   0.9406 B( 10-N , 13-C ) :   1.1640 B( 11-C , 12-C ) :   1.1143
B( 11-C , 71-H ) :   0.9226 B( 11-C , 72-H ) :   0.9512 B( 12-C , 73-H ) :   0.9619
B( 12-C , 74-H ) :   0.9678 B( 12-C , 75-H ) :   0.9683 B( 13-C , 14-C ) :   1.1960
B( 14-C , 15-C ) :   1.6234 B( 14-C , 76-H ) :   0.9361 B( 15-C , 16-C ) :   1.0998
B( 15-C , 77-H ) :   0.9452 B( 16-C , 17-C ) :   1.3629 B( 16-C , 26-C ) :   1.3135
B( 17-C , 18-C ) :   0.8554 B( 17-C , 23-C ) :   1.3101 B( 18-C , 19-O ) :   2.1512
B( 18-C , 20-S ) :   1.0350 B( 19-O , 20-S ) :   0.1044 B( 20-S , 21-C ) :   1.0342
B( 20-S , 22-O ) :   0.1037 B( 21-C , 22-O ) :   2.1408 B( 21-C , 23-C ) :   0.8561
B( 23-C , 24-C ) :   1.3504 B( 24-C , 25-C ) :   1.3084 B( 24-C , 32-C ) :   1.1277
B( 25-C , 26-C ) :   1.3732 B( 25-C , 30-C ) :   0.9029 B( 26-C , 27-C ) :   0.9033
B( 27-C , 28-O ) :   2.2644 B( 27-C , 29-O ) :   1.0512 B( 29-O , 30-C ) :   1.0581
B( 30-C , 31-O ) :   2.2555 B( 32-C , 33-C ) :   1.7128 B( 32-C , 78-H ) :   0.9110
B( 33-C , 34-C ) :   1.1436 B( 33-C , 79-H ) :   0.9454 B( 34-C , 35-S ) :   1.1340
B( 34-C , 36-C ) :   0.1164 B( 34-C , 38-C ) :   1.5275 B( 35-S , 36-C ) :   1.1464
B( 36-C , 37-C ) :   1.5340 B( 36-C , 44-C ) :   1.1261 B( 37-C , 38-C ) :   1.2794
B( 37-C , 43-S ) :   1.0551 B( 38-C , 39-S ) :   1.0500 B( 39-S , 40-C ) :   1.0047
B( 40-C , 41-C ) :   1.0471 B( 40-C , 80-H ) :   0.9483 B( 40-C , 81-H ) :   0.9498
B( 41-C , 42-C ) :   1.0388 B( 41-C , 82-H ) :   0.9375 B( 41-C , 83-H ) :   0.9312
B( 42-C , 43-S ) :   1.0044 B( 42-C , 84-H ) :   0.9490 B( 42-C , 85-H ) :   0.9522
B( 44-C , 45-S ) :   1.1464 B( 44-C , 48-N ) :   1.6776 B( 45-S , 46-C ) :   1.0689
B( 46-C , 47-N ) :   1.6128 B( 46-C , 49-C ) :   1.0661 B( 47-N , 48-N ) :   1.2726
B( 49-C , 50-C ) :   1.7442 B( 49-C , 86-H ) :   0.9325 B( 50-C , 51-C ) :   0.9262
B( 50-C , 58-C ) :   1.0166 B( 51-C , 52-O ) :   2.2855 B( 51-C , 53-C ) :   0.9287
B( 53-C , 54-C ) :   1.4785 B( 53-C , 57-C ) :   1.2228 B( 54-C , 55-S ) :   1.1566
B( 54-C , 64-Cl) :   1.1288 B( 55-S , 56-C ) :   1.1545 B( 56-C , 57-C ) :   1.5551
B( 56-C , 87-H ) :   0.9559 B( 57-C , 58-C ) :   1.0087 B( 58-C , 59-C ) :   1.7108
B( 59-C , 60-C ) :   1.1511 B( 59-C , 62-C ) :   1.1382 B( 60-C , 61-N ) :   3.0064
B( 62-C , 63-N ) :   2.9978

-----------------------------------------------------------------------------
         ABSORPTION SPECTRUM VIA TRANSITION ELECTRIC DIPOLE MOMENTS
-----------------------------------------------------------------------------
State   Energy  Wavelength   fosc         T2         TX        TY        TZ
        (cm-1)    (nm)                  (au**2)     (au)      (au)      (au)
-----------------------------------------------------------------------------
   0   16226.0    616.3   0.025283112   0.51297  -0.10664  -0.05406   0.70617
   1   18404.4    543.3   0.809771855  14.48493  -1.15801   3.60274   0.40519
   2   20045.1    498.9   0.042137839   0.69206   0.15578  -0.06368   0.81470
   3   20775.2    481.3   0.719018837  11.39387   1.17448   1.77708   2.61848
   4   24102.4    414.9   0.275075513   3.75723  -0.26230   1.87652   0.40880
   5   24811.1    403.0   0.032432474   0.43034  -0.34013  -0.28744  -0.48169
   6   26035.6    384.1   0.007007358   0.08861  -0.16950   0.22725   0.09073
   7   26875.6    372.1   0.041649115   0.51018   0.11944   0.48414   0.51139
   8   27598.6    362.3   0.046106924   0.54999  -0.10377   0.25459   0.68877
   9   27673.6    361.4   0.012719324   0.15131   0.00569  -0.17177  -0.34896
  10   28164.7    355.1   0.058297198   0.68143  -0.30875  -0.69062  -0.33037
  11   28514.0    350.7   0.191897162   2.21557   0.85175   0.58190   1.07308
  12   29032.4    344.4   0.011618668   0.13175  -0.14441   0.14963  -0.29750
  13   29104.9    343.6   0.010234367   0.11576  -0.27767   0.17867  -0.08211
  14   29205.0    342.4   0.000943950   0.01064  -0.08303   0.00403   0.06108
  15   29543.7    338.5   0.021785795   0.24276   0.17503  -0.37203  -0.27151
  16   29760.1    336.0   0.071304692   0.78879  -0.19737   0.52462  -0.68892
  17   30768.6    325.0   0.044186417   0.47278  -0.17683  -0.59315  -0.29946
  18   31319.8    319.3   0.053182390   0.55902   0.09609   0.73753  -0.07635
  19   31487.7    317.6   0.068296319   0.71406   0.14081   0.83152   0.05297
  20   31866.9    313.8   0.085637822   0.88471  -0.41896  -0.42730  -0.72568
  21   31955.9    312.9   0.042113259   0.43385   0.24750   0.31939   0.52018
  22   32324.6    309.4   0.005224098   0.05321  -0.06263  -0.18855  -0.11719
  23   32842.9    304.5   0.012556997   0.12587  -0.24900   0.24677   0.05451
  24   33144.8    301.7   0.003983258   0.03956  -0.19612  -0.01376  -0.03018
  25   33224.1    301.0   0.000604212   0.00599  -0.00924   0.04540  -0.06197
  26   33412.9    299.3   0.138986514   1.36941  -0.33396  -1.10448  -0.19493
  27   33757.6    296.2   0.020804549   0.20289  -0.29970   0.28831  -0.17304
  28   34064.2    293.6   0.118037099   1.14076  -0.56940  -0.67145  -0.60473
  29   34126.5    293.0   0.040885209   0.39441  -0.47504   0.22975  -0.34053
  30   34602.3    289.0   0.081186969   0.77243  -0.20773   0.51849   0.67856
  31   35212.0    284.0   0.040447745   0.37816  -0.18491  -0.50835  -0.29250
  32   35315.0    283.2   0.011214254   0.10454  -0.04908  -0.24042  -0.21055
  33   35512.3    281.6   0.003082431   0.02858  -0.04650   0.13980   0.08287
  34   35981.9    277.9   0.027474112   0.25137   0.04818  -0.42162   0.26700
  35   36598.1    273.2   0.025371331   0.22822  -0.12855  -0.43093   0.16125
  36   36627.2    273.0   0.149692998   1.34547  -0.60163  -0.90748  -0.39999
  37   36814.1    271.6   0.094325061   0.84351   0.11136  -0.90168  -0.13446
  38   37303.9    268.1   0.094596695   0.83483  -0.29482  -0.84284   0.19372
  39   37542.3    266.4   0.018635766   0.16342  -0.28075  -0.15582  -0.24560
  40   37612.9    265.9   0.011507085   0.10072  -0.18524  -0.15145  -0.20848
  41   38293.6    261.1   0.364736620   3.13566   1.04801   1.07527   0.93868
  42   38477.5    259.9   0.212754778   1.82032   0.65406   1.17216  -0.13627
  43   38705.8    258.4   0.013001511   0.11058  -0.21092  -0.18140  -0.18218
  44   38727.6    258.2   0.027202493   0.23124  -0.14544  -0.11263  -0.44430
  45   38898.3    257.1   0.014717591   0.12456   0.14987  -0.01653   0.31910
  46   39064.8    256.0   0.000149432   0.00126   0.00971  -0.03404  -0.00255
  47   39593.5    252.6   0.065249364   0.54253   0.29705  -0.62167   0.26043
  48   39793.6    251.3   0.031559202   0.26109  -0.01422   0.39897  -0.31892
  49   39900.4    250.6   0.091025745   0.75104   0.34675  -0.77132  -0.18937
  50   40256.7    248.4   0.080046294   0.65460  -0.02311   0.53505  -0.60645

FINAL SINGLE POINT ENERGY     -5466.053850620985

DIPOLE MOMENT
-------------
                                X             Y             Z
Electronic contribution:      1.03407     101.17655      55.10670
Nuclear contribution   :      0.01835    -100.16428     -57.29805
                        -----------------------------------------
Total Dipole Moment    :      1.05242       1.01227      -2.19136
                        -----------------------------------------
Magnitude (a.u.)       :      2.63331
Magnitude (Debye)      :      6.69334

Rotational constants in cm-1:     0.001702     0.000290     0.000259
Rotational constants in MHz :    51.013751     8.705382     7.771936

                             ****ORCA TERMINATED NORMALLY****
TOTAL RUN TIME: 0 days 0 hours 7 minutes 20 seconds 906 msec
