                         Program Version 4.2.0 -  RELEASE  -
|  1> # ORCA input file
|  2> # SCF done       -201.502974773640          0.000446706649
|  3> ! CAM-B3LYP def2-SVP def2/J RIJCOSX Grid4 TightSCF
|  4> %maxcore 5000
|  5> %tddft
|  6>     Mode sTDDFT
|  7>     Ethresh 5.0
|  8>     maxcore 5000
|  9> end
| 10>
| 11> %pal
| 12>   nprocs 6
| 13>   end
| 14> * xyz 0 1
| 15>    C       13.11556         4.16490        10.33658
| 16>    C       13.02891         5.07739        11.35078
| 17>    F       13.70838         4.86410        12.49358
| 18>    C       12.25399         6.24044        11.25133
| 19>    C       11.55745         6.47382        10.09808
| 20>    C       11.60994         5.56608         9.02091
| 21>    C       12.40240         4.38789         9.14289
| 22>    C       12.45928         3.45450         8.08126
| 23>    C       11.74792         3.69585         6.93816
| 24>    C       10.97043         4.88357         6.81495
| 25>    C       10.89336         5.79774         7.82484
| 26>    C       10.32956         4.91061         5.48451
| 27>    O        9.56756         5.74218         5.04319
| 28>    C       10.86396         3.72328         4.77110
| 29>    C       11.56669         2.90116         5.72604
| 30>    C       11.76626         1.54512         5.63657
| 31>    C       11.25710         0.75473         4.58682
| 32>    N       10.80744         0.07152         3.78033
| 33>    C       12.41250         0.77899         6.62438
| 34>    N       12.96078         0.11176         7.38176
| 35>    C       10.69273         3.61129         3.42061
| 36>    C       11.41191         2.83753         2.48964
| 37>    C       10.97039         2.47968         1.22513
| 38>    C       11.89223         1.70599         0.53867
| 39>    C       13.09563         1.49921         1.23912
| 40>    S       13.05426         2.26720         2.78375
| 41>    C       13.98462         0.70360         0.52206
| 42>    C       13.44498         0.28788        -0.71954
| 43>    S       11.85107         0.91343        -1.01731
| 44>    C       14.36773        -0.53968        -1.32998
| 45>    C       15.47345        -0.61908        -0.46209
| 46>    N       15.22322         0.16349         0.64913
| 47>    C       16.07907         0.31931         1.79241
| 48>    C       16.67140        -1.34815        -0.61692
| 49>    C       16.86337        -2.39354        -1.48582
| 50>    C       18.05751        -3.13624        -1.67612
| 51>    C       17.93762        -4.19736        -2.52482
| 52>    C       16.63762        -4.36314        -3.04607
| 53>    S       15.58617        -3.09259        -2.46144
| 54>    C       16.10439        -5.34599        -3.85844
| 55>    C       16.70016        -6.45996        -4.48568
| 56>    C       15.81664        -7.23945        -5.17307
| 57>    C       14.47041        -6.79601        -5.11476
| 58>    S       14.38516        -5.31546        -4.18557
| 59>    C       13.36624        -7.41596        -5.64849
| 60>    C       12.02929        -7.01584        -5.49721
| 61>    C       10.90332        -7.67659        -5.98334
| 62>    C        9.71866        -7.05880        -5.60710
| 63>    C        9.91105        -5.90444        -4.83053
| 64>    S       11.58573        -5.58502        -4.57549
| 65>    C        8.70759        -5.32520        -4.43646
| 66>    C        7.58184        -6.04486        -4.90964
| 67>    S        8.02672        -7.42925        -5.87174
| 68>    C        6.45145        -5.42445        -4.41521
| 69>    C        6.89650        -4.32058        -3.65928
| 70>    N        8.27677        -4.27440        -3.71017
| 71>    C        9.11984        -3.34414        -3.01048
| 72>    C        6.16060        -3.30608        -3.01954
| 73>    C        4.85361        -3.28831        -2.61750
| 74>    C        4.19625        -1.97765        -2.38765
| 75>    O        4.73672        -0.89267        -2.35952
| 76>    C        2.75837        -2.27810        -2.25155
| 77>    C        1.70939        -1.41723        -2.11078
| 78>    C        0.39892        -1.93727        -2.01324
| 79>    C        0.20252        -3.34751        -2.07086
| 80>    C       -1.10625        -3.85879        -1.97710
| 81>    C       -2.15550        -2.99499        -1.82897
| 82>    C       -1.98296        -1.60595        -1.76775
| 83>    C       -0.71900        -1.09258        -1.85963
| 84>    F       -3.40736        -3.48257        -1.73734
| 85>    C        1.31050        -4.21667        -2.21101
| 86>    C        2.57035        -3.68991        -2.29250
| 87>    C        3.88296        -4.32772        -2.38509
| 88>    C        4.15067        -5.63121        -2.04283
| 89>    C        5.45288        -6.12263        -1.83290
| 90>    N        6.49469        -6.54384        -1.59576
| 91>    C        3.15911        -6.58984        -1.76054
| 92>    N        2.38988        -7.41470        -1.54366
| 93>    H       13.71855         3.27751        10.44983
| 94>    H       12.22329         6.92424        12.08471
| 95>    H       10.95288         7.36270         9.99765
| 96>    H       13.06966         2.57274         8.19713
| 97>    H       10.28903         6.68584         7.71589
| 98>    H        9.93286         4.26170         2.99710
| 99>    H        9.99453         2.73774         0.85700
|100>    H       14.27877        -0.99568        -2.29301
|101>    H       16.31710        -0.65207         2.23082
|102>    H       15.56196         0.92289         2.53621
|103>    H       17.00855         0.82299         1.51585
|104>    H       17.50257        -1.09073         0.02503
|105>    H       18.96820        -2.86620        -1.17055
|106>    H       18.73813        -4.87284        -2.76896
|107>    H       17.75486        -6.65764        -4.41295
|108>    H       16.08561        -8.13270        -5.70908
|109>    H       13.53105        -8.32330        -6.21456
|110>    H       10.96399        -8.57316        -6.57200
|111>    H        5.42957        -5.68916        -4.59861
|112>    H        8.98521        -2.33138        -3.39730
|113>    H       10.15840        -3.63773        -3.15181
|114>    H        8.89161        -3.34955        -1.94344
|115>    H        6.67118        -2.35639        -2.88926
|116>    H        1.87644        -0.35126        -2.07004
|117>    H       -1.27641        -4.92343        -2.01583
|118>    H       -2.84853        -0.97352        -1.65003
|119>    H       -0.56008        -0.02556        -1.81501
|120>    H        1.13205        -5.27943        -2.25577
|121> *
|122>
|123>                          ****END OF INPUT****

CARTESIAN COORDINATES (ANGSTROEM)
---------------------------------
  C     13.115560    4.164900   10.336580
  C     13.028910    5.077390   11.350780
  F     13.708380    4.864100   12.493580
  C     12.253990    6.240440   11.251330
  C     11.557450    6.473820   10.098080
  C     11.609940    5.566080    9.020910
  C     12.402400    4.387890    9.142890
  C     12.459280    3.454500    8.081260
  C     11.747920    3.695850    6.938160
  C     10.970430    4.883570    6.814950
  C     10.893360    5.797740    7.824840
  C     10.329560    4.910610    5.484510
  O      9.567560    5.742180    5.043190
  C     10.863960    3.723280    4.771100
  C     11.566690    2.901160    5.726040
  C     11.766260    1.545120    5.636570
  C     11.257100    0.754730    4.586820
  N     10.807440    0.071520    3.780330
  C     12.412500    0.778990    6.624380
  N     12.960780    0.111760    7.381760
  C     10.692730    3.611290    3.420610
  C     11.411910    2.837530    2.489640
  C     10.970390    2.479680    1.225130
  C     11.892230    1.705990    0.538670
  C     13.095630    1.499210    1.239120
  S     13.054260    2.267200    2.783750
  C     13.984620    0.703600    0.522060
  C     13.444980    0.287880   -0.719540
  S     11.851070    0.913430   -1.017310
  C     14.367730   -0.539680   -1.329980
  C     15.473450   -0.619080   -0.462090
  N     15.223220    0.163490    0.649130
  C     16.079070    0.319310    1.792410
  C     16.671400   -1.348150   -0.616920
  C     16.863370   -2.393540   -1.485820
  C     18.057510   -3.136240   -1.676120
  C     17.937620   -4.197360   -2.524820
  C     16.637620   -4.363140   -3.046070
  S     15.586170   -3.092590   -2.461440
  C     16.104390   -5.345990   -3.858440
  C     16.700160   -6.459960   -4.485680
  C     15.816640   -7.239450   -5.173070
  C     14.470410   -6.796010   -5.114760
  S     14.385160   -5.315460   -4.185570
  C     13.366240   -7.415960   -5.648490
  C     12.029290   -7.015840   -5.497210
  C     10.903320   -7.676590   -5.983340
  C      9.718660   -7.058800   -5.607100
  C      9.911050   -5.904440   -4.830530
  S     11.585730   -5.585020   -4.575490
  C      8.707590   -5.325200   -4.436460
  C      7.581840   -6.044860   -4.909640
  S      8.026720   -7.429250   -5.871740
  C      6.451450   -5.424450   -4.415210
  C      6.896500   -4.320580   -3.659280
  N      8.276770   -4.274400   -3.710170
  C      9.119840   -3.344140   -3.010480
  C      6.160600   -3.306080   -3.019540
  C      4.853610   -3.288310   -2.617500
  C      4.196250   -1.977650   -2.387650
  O      4.736720   -0.892670   -2.359520
  C      2.758370   -2.278100   -2.251550
  C      1.709390   -1.417230   -2.110780
  C      0.398920   -1.937270   -2.013240
  C      0.202520   -3.347510   -2.070860
  C     -1.106250   -3.858790   -1.977100
  C     -2.155500   -2.994990   -1.828970
  C     -1.982960   -1.605950   -1.767750
  C     -0.719000   -1.092580   -1.859630
  F     -3.407360   -3.482570   -1.737340
  C      1.310500   -4.216670   -2.211010
  C      2.570350   -3.689910   -2.292500
  C      3.882960   -4.327720   -2.385090
  C      4.150670   -5.631210   -2.042830
  C      5.452880   -6.122630   -1.832900
  N      6.494690   -6.543840   -1.595760
  C      3.159110   -6.589840   -1.760540
  N      2.389880   -7.414700   -1.543660
  H     13.718550    3.277510   10.449830
  H     12.223290    6.924240   12.084710
  H     10.952880    7.362700    9.997650
  H     13.069660    2.572740    8.197130
  H     10.289030    6.685840    7.715890
  H      9.932860    4.261700    2.997100
  H      9.994530    2.737740    0.857000
  H     14.278770   -0.995680   -2.293010
  H     16.317100   -0.652070    2.230820
  H     15.561960    0.922890    2.536210
  H     17.008550    0.822990    1.515850
  H     17.502570   -1.090730    0.025030
  H     18.968200   -2.866200   -1.170550
  H     18.738130   -4.872840   -2.768960
  H     17.754860   -6.657640   -4.412950
  H     16.085610   -8.132700   -5.709080
  H     13.531050   -8.323300   -6.214560
  H     10.963990   -8.573160   -6.572000
  H      5.429570   -5.689160   -4.598610
  H      8.985210   -2.331380   -3.397300
  H     10.158400   -3.637730   -3.151810
  H      8.891610   -3.349550   -1.943440
  H      6.671180   -2.356390   -2.889260
  H      1.876440   -0.351260   -2.070040
  H     -1.276410   -4.923430   -2.015830
  H     -2.848530   -0.973520   -1.650030
  H     -0.560080   -0.025560   -1.815010
  H      1.132050   -5.279430   -2.255770

 Total Charge           Charge          ....    0
 Multiplicity           Mult            ....    1
 Number of Electrons    NEL             ....  572
 Basis Dimension        Dim             .... 1256

ORBITAL ENERGIES
----------------

  NO   OCC          E(Eh)            E(eV)
   0   2.0000     -88.969901     -2420.9941
   1   2.0000     -88.966871     -2420.9116
   2   2.0000     -88.959182     -2420.7024
   3   2.0000     -88.954171     -2420.5661
   4   2.0000     -88.952284     -2420.5147
   5   2.0000     -88.951810     -2420.5018
   6   2.0000     -24.781426      -674.3369
   7   2.0000     -24.777719      -674.2360
   8   2.0000     -19.204677      -522.5858
   9   2.0000     -19.200480      -522.4716
  10   2.0000     -14.479185      -393.9986
  11   2.0000     -14.477542      -393.9540
  12   2.0000     -14.408863      -392.0851
  13   2.0000     -14.404120      -391.9560
  14   2.0000     -14.402910      -391.9231
  15   2.0000     -14.401972      -391.8976
  16   2.0000     -10.364598      -282.0351
  17   2.0000     -10.360676      -281.9283
  18   2.0000     -10.356870      -281.8248
  19   2.0000     -10.351831      -281.6876
  20   2.0000     -10.333674      -281.1936
  21   2.0000     -10.333097      -281.1779
  22   2.0000     -10.329331      -281.0754
  23   2.0000     -10.328316      -281.0478
  24   2.0000     -10.327269      -281.0193
  25   2.0000     -10.322558      -280.8911
  26   2.0000     -10.322351      -280.8855
  27   2.0000     -10.321540      -280.8634
  28   2.0000     -10.321143      -280.8526
  29   2.0000     -10.319235      -280.8007
  30   2.0000     -10.317362      -280.7497
  31   2.0000     -10.317312      -280.7483
  32   2.0000     -10.316866      -280.7362
  33   2.0000     -10.315753      -280.7059
  34   2.0000     -10.315340      -280.6947
  35   2.0000     -10.314939      -280.6838
  36   2.0000     -10.313934      -280.6564
  37   2.0000     -10.313844      -280.6540
  38   2.0000     -10.311969      -280.6029
  39   2.0000     -10.308142      -280.4988
  40   2.0000     -10.307997      -280.4949
  41   2.0000     -10.307907      -280.4924
  42   2.0000     -10.307116      -280.4709
  43   2.0000     -10.306935      -280.4660
  44   2.0000     -10.306418      -280.4519
  45   2.0000     -10.303925      -280.3841
  46   2.0000     -10.301676      -280.3228
  47   2.0000     -10.300565      -280.2926
  48   2.0000     -10.300277      -280.2848
  49   2.0000     -10.299428      -280.2617
  50   2.0000     -10.296363      -280.1783
  51   2.0000     -10.295623      -280.1581
  52   2.0000     -10.295452      -280.1535
  53   2.0000     -10.294999      -280.1412
  54   2.0000     -10.294892      -280.1382
  55   2.0000     -10.294446      -280.1261
  56   2.0000     -10.294390      -280.1246
  57   2.0000     -10.293721      -280.1064
  58   2.0000     -10.293688      -280.1055
  59   2.0000     -10.293488      -280.1000
  60   2.0000     -10.293204      -280.0923
  61   2.0000     -10.292862      -280.0830
  62   2.0000     -10.291757      -280.0529
  63   2.0000     -10.291336      -280.0415
  64   2.0000     -10.289737      -279.9980
  65   2.0000     -10.289352      -279.9875
  66   2.0000     -10.289111      -279.9810
  67   2.0000     -10.287319      -279.9322
  68   2.0000     -10.287299      -279.9316
  69   2.0000     -10.286753      -279.9168
  70   2.0000     -10.285949      -279.8949
  71   2.0000     -10.284204      -279.8474
  72   2.0000     -10.283839      -279.8375
  73   2.0000     -10.283214      -279.8205
  74   2.0000     -10.281291      -279.7682
  75   2.0000     -10.280272      -279.7404
  76   2.0000     -10.278754      -279.6991
  77   2.0000     -10.275221      -279.6030
  78   2.0000      -8.064112      -219.4356
  79   2.0000      -8.061221      -219.3570
  80   2.0000      -8.054273      -219.1679
  81   2.0000      -8.049093      -219.0269
  82   2.0000      -8.048699      -219.0162
  83   2.0000      -8.047998      -218.9971
  84   2.0000      -6.033783      -164.1876
  85   2.0000      -6.030827      -164.1071
  86   2.0000      -6.029707      -164.0767
  87   2.0000      -6.026661      -163.9938
  88   2.0000      -6.025566      -163.9640
  89   2.0000      -6.024147      -163.9254
  90   2.0000      -6.022821      -163.8893
  91   2.0000      -6.020297      -163.8206
  92   2.0000      -6.019093      -163.7878
  93   2.0000      -6.018484      -163.7713
  94   2.0000      -6.017781      -163.7521
  95   2.0000      -6.015177      -163.6813
  96   2.0000      -6.014989      -163.6762
  97   2.0000      -6.014263      -163.6564
  98   2.0000      -6.013595      -163.6383
  99   2.0000      -6.009624      -163.5302
 100   2.0000      -6.009574      -163.5288
 101   2.0000      -6.008907      -163.5107
 102   2.0000      -1.295931       -35.2641
 103   2.0000      -1.292250       -35.1639
 104   2.0000      -1.119689       -30.4683
 105   2.0000      -1.115219       -30.3466
 106   2.0000      -1.104248       -30.0481
 107   2.0000      -1.104041       -30.0425
 108   2.0000      -1.014173       -27.5971
 109   2.0000      -1.008099       -27.4318
 110   2.0000      -1.006880       -27.3986
 111   2.0000      -1.005832       -27.3701
 112   2.0000      -1.001492       -27.2520
 113   2.0000      -0.993489       -27.0342
 114   2.0000      -0.989131       -26.9156
 115   2.0000      -0.984919       -26.8010
 116   2.0000      -0.981244       -26.7010
 117   2.0000      -0.981158       -26.6987
 118   2.0000      -0.970191       -26.4002
 119   2.0000      -0.965268       -26.2663
 120   2.0000      -0.951810       -25.9001
 121   2.0000      -0.948033       -25.7973
 122   2.0000      -0.921410       -25.0728
 123   2.0000      -0.919598       -25.0235
 124   2.0000      -0.913172       -24.8487
 125   2.0000      -0.906036       -24.6545
 126   2.0000      -0.897084       -24.4109
 127   2.0000      -0.891335       -24.2545
 128   2.0000      -0.886271       -24.1167
 129   2.0000      -0.880801       -23.9678
 130   2.0000      -0.878428       -23.9033
 131   2.0000      -0.875425       -23.8215
 132   2.0000      -0.870436       -23.6858
 133   2.0000      -0.870115       -23.6770
 134   2.0000      -0.860060       -23.4034
 135   2.0000      -0.852552       -23.1991
 136   2.0000      -0.849485       -23.1157
 137   2.0000      -0.829587       -22.5742
 138   2.0000      -0.828750       -22.5514
 139   2.0000      -0.825821       -22.4717
 140   2.0000      -0.823253       -22.4018
 141   2.0000      -0.817688       -22.2504
 142   2.0000      -0.816168       -22.2091
 143   2.0000      -0.806435       -21.9442
 144   2.0000      -0.796718       -21.6798
 145   2.0000      -0.783227       -21.3127
 146   2.0000      -0.777575       -21.1589
 147   2.0000      -0.775620       -21.1057
 148   2.0000      -0.760743       -20.7009
 149   2.0000      -0.754220       -20.5234
 150   2.0000      -0.748506       -20.3679
 151   2.0000      -0.740235       -20.1428
 152   2.0000      -0.724657       -19.7189
 153   2.0000      -0.715242       -19.4627
 154   2.0000      -0.708017       -19.2661
 155   2.0000      -0.703430       -19.1413
 156   2.0000      -0.699690       -19.0395
 157   2.0000      -0.696396       -18.9499
 158   2.0000      -0.690146       -18.7798
 159   2.0000      -0.681645       -18.5485
 160   2.0000      -0.678720       -18.4689
 161   2.0000      -0.673247       -18.3200
 162   2.0000      -0.668523       -18.1914
 163   2.0000      -0.664348       -18.0778
 164   2.0000      -0.660763       -17.9803
 165   2.0000      -0.649448       -17.6724
 166   2.0000      -0.642810       -17.4917
 167   2.0000      -0.642407       -17.4808
 168   2.0000      -0.640149       -17.4193
 169   2.0000      -0.633468       -17.2375
 170   2.0000      -0.629092       -17.1185
 171   2.0000      -0.626694       -17.0532
 172   2.0000      -0.624869       -17.0036
 173   2.0000      -0.623398       -16.9635
 174   2.0000      -0.620947       -16.8968
 175   2.0000      -0.615617       -16.7518
 176   2.0000      -0.610150       -16.6030
 177   2.0000      -0.607281       -16.5250
 178   2.0000      -0.601827       -16.3765
 179   2.0000      -0.597614       -16.2619
 180   2.0000      -0.589750       -16.0479
 181   2.0000      -0.583001       -15.8643
 182   2.0000      -0.581287       -15.8176
 183   2.0000      -0.579079       -15.7575
 184   2.0000      -0.574840       -15.6422
 185   2.0000      -0.572857       -15.5882
 186   2.0000      -0.569506       -15.4970
 187   2.0000      -0.561865       -15.2891
 188   2.0000      -0.558390       -15.1946
 189   2.0000      -0.555673       -15.1206
 190   2.0000      -0.553863       -15.0714
 191   2.0000      -0.551871       -15.0172
 192   2.0000      -0.550115       -14.9694
 193   2.0000      -0.549355       -14.9487
 194   2.0000      -0.547625       -14.9016
 195   2.0000      -0.541367       -14.7313
 196   2.0000      -0.539317       -14.6756
 197   2.0000      -0.533458       -14.5161
 198   2.0000      -0.531031       -14.4501
 199   2.0000      -0.528355       -14.3773
 200   2.0000      -0.526571       -14.3287
 201   2.0000      -0.522477       -14.2173
 202   2.0000      -0.519893       -14.1470
 203   2.0000      -0.518403       -14.1065
 204   2.0000      -0.516813       -14.0632
 205   2.0000      -0.516505       -14.0548
 206   2.0000      -0.514909       -14.0114
 207   2.0000      -0.514344       -13.9960
 208   2.0000      -0.511284       -13.9127
 209   2.0000      -0.510740       -13.8979
 210   2.0000      -0.509560       -13.8658
 211   2.0000      -0.506862       -13.7924
 212   2.0000      -0.504150       -13.7186
 213   2.0000      -0.503117       -13.6905
 214   2.0000      -0.502153       -13.6643
 215   2.0000      -0.501226       -13.6390
 216   2.0000      -0.498980       -13.5779
 217   2.0000      -0.491792       -13.3824
 218   2.0000      -0.491536       -13.3754
 219   2.0000      -0.489095       -13.3090
 220   2.0000      -0.487452       -13.2642
 221   2.0000      -0.485514       -13.2115
 222   2.0000      -0.484377       -13.1806
 223   2.0000      -0.481194       -13.0939
 224   2.0000      -0.480380       -13.0718
 225   2.0000      -0.478627       -13.0241
 226   2.0000      -0.477825       -13.0023
 227   2.0000      -0.473480       -12.8840
 228   2.0000      -0.470465       -12.8020
 229   2.0000      -0.469199       -12.7676
 230   2.0000      -0.467465       -12.7204
 231   2.0000      -0.466704       -12.6997
 232   2.0000      -0.463432       -12.6106
 233   2.0000      -0.461991       -12.5714
 234   2.0000      -0.455600       -12.3975
 235   2.0000      -0.451673       -12.2906
 236   2.0000      -0.451059       -12.2739
 237   2.0000      -0.446863       -12.1597
 238   2.0000      -0.445894       -12.1334
 239   2.0000      -0.442848       -12.0505
 240   2.0000      -0.439415       -11.9571
 241   2.0000      -0.438157       -11.9229
 242   2.0000      -0.434573       -11.8253
 243   2.0000      -0.433641       -11.8000
 244   2.0000      -0.432660       -11.7733
 245   2.0000      -0.431512       -11.7420
 246   2.0000      -0.429198       -11.6791
 247   2.0000      -0.427646       -11.6368
 248   2.0000      -0.425521       -11.5790
 249   2.0000      -0.422168       -11.4878
 250   2.0000      -0.420795       -11.4504
 251   2.0000      -0.419806       -11.4235
 252   2.0000      -0.417815       -11.3693
 253   2.0000      -0.416710       -11.3393
 254   2.0000      -0.414812       -11.2876
 255   2.0000      -0.413534       -11.2528
 256   2.0000      -0.410697       -11.1756
 257   2.0000      -0.408619       -11.1191
 258   2.0000      -0.401029       -10.9126
 259   2.0000      -0.398320       -10.8388
 260   2.0000      -0.393869       -10.7177
 261   2.0000      -0.388702       -10.5771
 262   2.0000      -0.388598       -10.5743
 263   2.0000      -0.386890       -10.5278
 264   2.0000      -0.376340       -10.2407
 265   2.0000      -0.372936       -10.1481
 266   2.0000      -0.370447       -10.0804
 267   2.0000      -0.360867        -9.8197
 268   2.0000      -0.349151        -9.5009
 269   2.0000      -0.348416        -9.4809
 270   2.0000      -0.340645        -9.2694
 271   2.0000      -0.338063        -9.1992
 272   2.0000      -0.330128        -8.9832
 273   2.0000      -0.327344        -8.9075
 274   2.0000      -0.325532        -8.8582
 275   2.0000      -0.322913        -8.7869
 276   2.0000      -0.309693        -8.4272
 277   2.0000      -0.304455        -8.2846
 278   2.0000      -0.301619        -8.2075
 279   2.0000      -0.292390        -7.9563
 280   2.0000      -0.289133        -7.8677
 281   2.0000      -0.283937        -7.7263
 282   2.0000      -0.279487        -7.6052
 283   2.0000      -0.269004        -7.3200
 284   2.0000      -0.245319        -6.6755
 285   2.0000      -0.209386        -5.6977
 286   0.0000      -0.101590        -2.7644
 287   0.0000      -0.086301        -2.3484
 288   0.0000      -0.071116        -1.9352
 289   0.0000      -0.048438        -1.3181
 290   0.0000      -0.043825        -1.1925

MULLIKEN ATOMIC CHARGES
-----------------------
   0 C :   -0.098174
   1 C :    0.301776
   2 F :   -0.192630
   3 C :   -0.031332
   4 C :   -0.011456
   5 C :    0.100959
   6 C :    0.102405
   7 C :   -0.088610
   8 C :    0.041245
   9 C :    0.009047
  10 C :   -0.082543
  11 C :    0.141152
  12 O :   -0.150513
  13 C :   -0.147574
  14 C :    0.261863
  15 C :   -0.335116
  16 C :   -0.210719
  17 N :    0.167718
  18 C :   -0.169966
  19 N :    0.142591
  20 C :    0.045567
  21 C :   -0.088246
  22 C :    0.019186
  23 C :   -0.037211
  24 C :   -0.054115
  25 S :    0.148641
  26 C :    0.037708
  27 C :   -0.019101
  28 S :    0.153490
  29 C :   -0.136987
  30 C :    0.129964
  31 N :   -0.180640
  32 C :    0.122852
  33 C :   -0.036895
  34 C :   -0.027387
  35 C :    0.032793
  36 C :    0.035643
  37 C :   -0.042866
  38 S :    0.060033
  39 C :   -0.023895
  40 C :    0.033351
  41 C :    0.036125
  42 C :   -0.033179
  43 S :    0.040106
  44 C :    0.012555
  45 C :   -0.038996
  46 C :   -0.046935
  47 C :   -0.019989
  48 C :   -0.059191
  49 S :    0.102405
  50 C :    0.060197
  51 C :   -0.020694
  52 S :    0.155077
  53 C :   -0.084661
  54 C :    0.122508
  55 N :   -0.165514
  56 C :    0.119602
  57 C :   -0.006756
  58 C :   -0.143870
  59 C :    0.137687
  60 O :   -0.158626
  61 C :    0.011386
  62 C :   -0.083064
  63 C :    0.100565
  64 C :    0.100990
  65 C :   -0.099773
  66 C :    0.302442
  67 C :   -0.032425
  68 C :   -0.012372
  69 F :   -0.193447
  70 C :   -0.089152
  71 C :    0.037778
  72 C :    0.278509
  73 C :   -0.346150
  74 C :   -0.207825
  75 N :    0.165144
  76 C :   -0.173840
  77 N :    0.144199
  78 H :   -0.004234
  79 H :    0.002452
  80 H :   -0.010198
  81 H :   -0.007071
  82 H :   -0.013375
  83 H :    0.026889
  84 H :   -0.000545
  85 H :   -0.003766
  86 H :    0.051304
  87 H :    0.042805
  88 H :    0.045902
  89 H :   -0.021495
  90 H :   -0.011613
  91 H :   -0.011035
  92 H :   -0.011334
  93 H :   -0.009536
  94 H :   -0.010619
  95 H :   -0.014956
  96 H :   -0.005446
  97 H :    0.051280
  98 H :    0.044775
  99 H :    0.061905
 100 H :    0.007379
 101 H :   -0.014466
 102 H :   -0.002163
 103 H :    0.001340
 104 H :   -0.010607
 105 H :   -0.006395
Sum of atomic charges:   -0.0000000

LOEWDIN ATOMIC CHARGES
----------------------
   0 C :   -0.043328
   1 C :    0.092001
   2 F :   -0.067305
   3 C :   -0.039219
   4 C :    0.003951
   5 C :   -0.019637
   6 C :    0.002744
   7 C :    0.007111
   8 C :   -0.015627
   9 C :   -0.057939
  10 C :    0.031818
  11 C :    0.081005
  12 O :   -0.152314
  13 C :   -0.111873
  14 C :    0.060581
  15 C :   -0.149613
  16 C :   -0.036443
  17 N :   -0.054230
  18 C :   -0.019354
  19 N :   -0.060905
  20 C :    0.053155
  21 C :   -0.181037
  22 C :   -0.009701
  23 C :   -0.191706
  24 C :   -0.186160
  25 S :    0.442103
  26 C :   -0.042949
  27 C :   -0.174462
  28 S :    0.397292
  29 C :   -0.090440
  30 C :    0.005668
  31 N :    0.047231
  32 C :    0.038177
  33 C :   -0.075177
  34 C :   -0.139439
  35 C :   -0.032530
  36 C :   -0.033275
  37 C :   -0.177720
  38 S :    0.391150
  39 C :   -0.176021
  40 C :   -0.036331
  41 C :   -0.028868
  42 C :   -0.153941
  43 S :    0.369879
  44 C :   -0.068547
  45 C :   -0.154136
  46 C :   -0.066413
  47 C :   -0.171910
  48 C :   -0.225938
  49 S :    0.420770
  50 C :   -0.012428
  51 C :   -0.183987
  52 S :    0.392785
  53 C :   -0.027554
  54 C :   -0.017799
  55 N :    0.061023
  56 C :    0.039389
  57 C :    0.048815
  58 C :   -0.107787
  59 C :    0.079978
  60 O :   -0.159173
  61 C :   -0.057705
  62 C :    0.030536
  63 C :   -0.020021
  64 C :    0.002522
  65 C :   -0.043121
  66 C :    0.091428
  67 C :   -0.040001
  68 C :    0.003101
  69 F :   -0.067749
  70 C :    0.007193
  71 C :   -0.015271
  72 C :    0.065004
  73 C :   -0.150524
  74 C :   -0.016996
  75 N :   -0.051836
  76 C :   -0.020711
  77 N :   -0.061925
  78 H :    0.042355
  79 H :    0.041177
  80 H :    0.035240
  81 H :    0.038170
  82 H :    0.038959
  83 H :    0.051559
  84 H :    0.041809
  85 H :    0.017561
  86 H :    0.036205
  87 H :    0.033142
  88 H :    0.032242
  89 H :    0.033355
  90 H :    0.033264
  91 H :    0.033432
  92 H :    0.033343
  93 H :    0.034457
  94 H :    0.041454
  95 H :    0.034283
  96 H :    0.033696
  97 H :    0.034636
  98 H :    0.032280
  99 H :    0.041893
 100 H :    0.043167
 101 H :    0.038339
 102 H :    0.042724
 103 H :    0.040733
 104 H :    0.034831
 105 H :    0.038364

  Mayer bond orders larger than 0.100000
B(  0-C ,  1-C ) :   1.4411 B(  0-C ,  6-C ) :   1.2027 B(  0-C , 78-H ) :   1.0062
B(  1-C ,  2-F ) :   1.0865 B(  1-C ,  3-C ) :   1.2576 B(  3-C ,  4-C ) :   1.4596
B(  3-C , 79-H ) :   0.9922 B(  4-C ,  5-C ) :   1.2354 B(  4-C , 80-H ) :   0.9965
B(  5-C ,  6-C ) :   1.2599 B(  5-C , 10-C ) :   1.1878 B(  6-C ,  7-C ) :   1.1991
B(  7-C ,  8-C ) :   1.4653 B(  7-C , 81-H ) :   0.9939 B(  8-C ,  9-C ) :   1.2205
B(  8-C , 14-C ) :   0.9982 B(  9-C , 10-C ) :   1.4768 B(  9-C , 11-C ) :   0.9190
B( 10-C , 82-H ) :   1.0146 B( 11-C , 12-O ) :   2.2664 B( 11-C , 13-C ) :   0.9503
B( 13-C , 14-C ) :   1.0591 B( 13-C , 20-C ) :   1.5827 B( 14-C , 15-C ) :   1.6326
B( 15-C , 16-C ) :   1.1548 B( 15-C , 18-C ) :   1.1397 B( 16-C , 17-N ) :   3.0206
B( 18-C , 19-N ) :   2.9800 B( 20-C , 21-C ) :   1.1793 B( 20-C , 83-H ) :   0.9480
B( 21-C , 22-C ) :   1.4087 B( 21-C , 25-S ) :   1.0590 B( 22-C , 23-C ) :   1.3297
B( 22-C , 84-H ) :   1.0035 B( 23-C , 24-C ) :   1.3830 B( 23-C , 28-S ) :   1.0378
B( 24-C , 25-S ) :   1.0675 B( 24-C , 26-C ) :   1.3219 B( 26-C , 27-C ) :   1.3450
B( 26-C , 31-N ) :   1.1942 B( 27-C , 28-S ) :   1.0282 B( 27-C , 29-C ) :   1.3736
B( 29-C , 30-C ) :   1.3726 B( 29-C , 85-H ) :   0.9895 B( 30-C , 31-N ) :   1.1504
B( 30-C , 33-C ) :   1.1344 B( 31-N , 32-C ) :   0.9712 B( 32-C , 86-H ) :   0.9678
B( 32-C , 87-H ) :   0.9690 B( 32-C , 88-H ) :   0.9674 B( 33-C , 34-C ) :   1.5783
B( 33-C , 89-H ) :   0.9581 B( 34-C , 35-C ) :   1.1517 B( 34-C , 38-S ) :   1.0446
B( 35-C , 36-C ) :   1.5823 B( 35-C , 90-H ) :   0.9966 B( 36-C , 37-C ) :   1.1953
B( 36-C , 91-H ) :   0.9939 B( 37-C , 38-S ) :   1.0412 B( 37-C , 39-C ) :   1.4988
B( 39-C , 40-C ) :   1.1942 B( 39-C , 43-S ) :   1.0413 B( 40-C , 41-C ) :   1.5834
B( 40-C , 92-H ) :   0.9937 B( 41-C , 42-C ) :   1.1538 B( 41-C , 93-H ) :   0.9989
B( 42-C , 43-S ) :   1.0382 B( 42-C , 44-C ) :   1.5410 B( 44-C , 45-C ) :   1.2072
B( 44-C , 94-H ) :   0.9720 B( 45-C , 46-C ) :   1.4217 B( 45-C , 49-S ) :   1.0705
B( 46-C , 47-C ) :   1.3136 B( 46-C , 95-H ) :   1.0079 B( 47-C , 48-C ) :   1.3989
B( 47-C , 52-S ) :   1.0456 B( 48-C , 49-S ) :   1.0559 B( 48-C , 50-C ) :   1.2796
B( 50-C , 51-C ) :   1.3199 B( 50-C , 55-N ) :   1.2458 B( 51-C , 52-S ) :   1.0062
B( 51-C , 53-C ) :   1.4224 B( 53-C , 54-C ) :   1.3298 B( 53-C , 96-H ) :   1.0081
B( 54-C , 55-N ) :   1.1250 B( 54-C , 57-C ) :   1.1459 B( 55-N , 56-C ) :   0.9653
B( 56-C , 97-H ) :   0.9648 B( 56-C , 98-H ) :   0.9678 B( 56-C , 99-H ) :   0.9682
B( 57-C , 58-C ) :   1.5778 B( 57-C ,100-H ) :   0.9279 B( 58-C , 59-C ) :   0.9623
B( 58-C , 72-C ) :   1.0703 B( 59-C , 60-O ) :   2.2440 B( 59-C , 61-C ) :   0.9212
B( 61-C , 62-C ) :   1.4765 B( 61-C , 71-C ) :   1.2188 B( 62-C , 63-C ) :   1.1870
B( 62-C ,101-H ) :   1.0150 B( 63-C , 64-C ) :   1.2597 B( 63-C , 68-C ) :   1.2348
B( 64-C , 65-C ) :   1.2053 B( 64-C , 70-C ) :   1.1969 B( 65-C , 66-C ) :   1.4391
B( 65-C ,102-H ) :   1.0067 B( 66-C , 67-C ) :   1.2572 B( 66-C , 69-F ) :   1.0860
B( 67-C , 68-C ) :   1.4587 B( 67-C ,103-H ) :   0.9927 B( 68-C ,104-H ) :   0.9970
B( 70-C , 71-C ) :   1.4680 B( 70-C ,105-H ) :   0.9944 B( 71-C , 72-C ) :   0.9912
B( 72-C , 73-C ) :   1.6191 B( 73-C , 74-C ) :   1.1706 B( 73-C , 76-C ) :   1.1352
B( 74-C , 75-N ) :   2.9976 B( 76-C , 77-N ) :   2.9787

-----------------------------------------------------------------------------
         ABSORPTION SPECTRUM VIA TRANSITION ELECTRIC DIPOLE MOMENTS
-----------------------------------------------------------------------------
State   Energy  Wavelength   fosc         T2         TX        TY        TZ
        (cm-1)    (nm)                  (au**2)     (au)      (au)      (au)
-----------------------------------------------------------------------------
   0   10310.1    969.9   0.871694626  27.83408   2.71781   3.17426   3.22051
   1   14882.6    671.9   1.006647375  22.26758   3.65896  -1.34476  -2.65917
   2   18080.7    553.1   0.623938870  11.36066   2.81126  -0.72667  -1.71155
   3   18129.3    551.6   0.429914730   7.80686   0.98052  -2.00124  -1.68537
   4   21335.6    468.7   0.042677849   0.65853   0.55203  -0.58854   0.08613
   5   23652.9    422.8   0.068723624   0.95653   0.95970   0.03804   0.18454
   6   23828.0    419.7   0.615131169   8.49878   1.96812  -1.89612  -1.01489
   7   24186.1    413.5   0.067866302   0.92377   0.10675   0.83246   0.46839
   8   24380.8    410.2   0.040024570   0.54045  -0.46149   0.53819  -0.19448
   9   24810.6    403.1   0.048097442   0.63820  -0.44605  -0.44249  -0.49341
  10   25155.8    397.5   0.102554308   1.34212  -0.52161   0.65246  -0.80271
  11   27100.0    369.0   0.079061509   0.96044   0.69981  -0.67215  -0.13757
  12   27506.3    363.6   0.161659513   1.93484   1.25609  -0.27592   0.53005
  13   27795.7    359.8   0.105354637   1.24782   0.81253  -0.29301  -0.70834
  14   27859.9    358.9   0.021516481   0.25425  -0.35518   0.35770   0.01220
  15   28006.5    357.1   0.031875926   0.37470   0.58167  -0.18285  -0.05409
  16   28275.5    353.7   0.114131634   1.32884   0.62296  -0.88555  -0.39566
  17   28859.2    346.5   0.109846487   1.25308  -0.73760   0.79095  -0.28884
  18   29081.9    343.9   0.018551082   0.21000   0.27961  -0.24430  -0.26858
  19   29852.1    335.0   0.018821876   0.20757  -0.08290  -0.35062  -0.27886
  20   30195.1    331.2   0.000958846   0.01045  -0.03868   0.04779   0.08170
  21   30249.3    330.6   0.033079291   0.36001  -0.57187   0.17370   0.05292
  22   30509.4    327.8   0.016351737   0.17644   0.24583  -0.04251   0.33794
  23   30790.8    324.8   0.037296205   0.39877  -0.57101   0.25069  -0.09932
  24   31413.1    318.3   0.224340565   2.35110   0.91721  -1.16073  -0.40316
  25   31601.0    316.4   0.126011402   1.31276   0.32619  -0.80250  -0.74991
  26   31811.9    314.3   0.132811064   1.37442   0.57066   0.52125   0.88152
  27   32153.3    311.0   0.095288541   0.97564   0.66910  -0.70624  -0.17080
  28   33073.6    302.4   0.031992305   0.31845  -0.07558   0.12361  -0.54539
  29   33331.1    300.0   0.011698827   0.11555   0.23978  -0.22522   0.08564
  30   33592.9    297.7   0.274935777   2.69438   1.43519  -0.61575   0.50544
  31   33628.7    297.4   0.411056575   4.02408  -0.12189   1.41759   1.41409
  32   33902.1    295.0   0.073236785   0.71118   0.13215  -0.72014  -0.41847
  33   34278.5    291.7   0.007206171   0.06921  -0.12930  -0.10446  -0.20391
  34   34373.2    290.9   0.070420353   0.67446  -0.46542  -0.34146  -0.58416
  35   34510.1    289.8   0.081289292   0.77547   0.52691  -0.48911  -0.50853
  36   34836.4    287.1   0.170405898   1.61037  -1.12503   0.08831  -0.58042
  37   35050.2    285.3   0.194124992   1.82334   0.18736   0.75587   1.10313
  38   35496.9    281.7   0.039703398   0.36822   0.33723   0.21251   0.45754
  39   35764.0    279.6   0.037289225   0.34325   0.28242   0.14214   0.49324
  40   36040.8    277.5   0.097392503   0.88962   0.93242  -0.11383   0.08516
  41   36272.8    275.7   0.132760161   1.20493   0.82185  -0.72630  -0.04460
  42   36394.1    274.8   0.007395095   0.06689  -0.01360   0.25448   0.04412
  43   36607.5    273.2   0.120700251   1.08546  -0.70936   0.75177  -0.13081
  44   36963.7    270.5   0.010884901   0.09694   0.11969  -0.28354  -0.04719
  45   37387.0    267.5   0.036228073   0.31901   0.52505  -0.10857   0.17759
  46   37531.7    266.4   0.089105020   0.78159   0.35535   0.51822   0.62190
  47   37702.9    265.2   0.012237590   0.10686   0.14739   0.07352   0.28236
  48   38025.3    263.0   0.127240612   1.10161  -0.31907   0.78552   0.61869
  49   38197.6    261.8   0.132615953   1.14297  -0.64589   0.71277   0.46664
  50   38348.3    260.8   0.118943870   1.02111   0.21633   0.81784   0.55268
  51   38404.6    260.4   0.026750813   0.22931  -0.21073  -0.39803   0.16271
  52   38942.0    256.8   0.032325655   0.27328   0.32283   0.19656   0.36115
  53   39131.1    255.6   0.130800229   1.10043  -0.06679   1.04191  -0.10198
  54   39428.7    253.6   0.045315978   0.37837   0.20856  -0.40329   0.41500
  55   39505.1    253.1   0.017028719   0.14191  -0.00834  -0.13092  -0.35313
  56   39728.7    251.7   0.001796540   0.01489   0.03822   0.10334  -0.05242
  57   39894.8    250.7   0.009632871   0.07949  -0.26376   0.07338  -0.06737
  58   40145.0    249.1   0.031496538   0.25829  -0.10740  -0.47513   0.14495

FINAL SINGLE POINT ENERGY     -5442.574148290894

DIPOLE MOMENT
-------------
                                X             Y             Z
Electronic contribution:    -21.36144      -2.26661       5.59771
Nuclear contribution   :     25.21504       3.91295      -7.50756
                        -----------------------------------------
Total Dipole Moment    :      3.85360       1.64634      -1.90985
                        -----------------------------------------
Magnitude (a.u.)       :      4.60523
Magnitude (Debye)      :     11.70558

Rotational constants in cm-1:     0.000580     0.000343     0.000229
Rotational constants in MHz :    17.399149    10.283822     6.852930

                             ****ORCA TERMINATED NORMALLY****
TOTAL RUN TIME: 0 days 0 hours 11 minutes 58 seconds 116 msec
