                         Program Version 4.2.0 -  RELEASE  -
|  1> # ORCA input file
|  2> # SCF done       -160.641284158596          0.000307003810
|  3> ! CAM-B3LYP def2-SVP def2/J RIJCOSX Grid4 TightSCF
|  4> %maxcore 5000
|  5> %tddft
|  6>     Mode sTDDFT
|  7>     Ethresh 5.0
|  8>     maxcore 5000
|  9> end
| 10>
| 11> %pal
| 12>   nprocs 6
| 13>   end
| 14> * xyz 0 1
| 15>    C       -2.72146        -2.92554        -1.95474
| 16>    C       -2.11072        -2.68962        -0.76109
| 17>    C       -1.94886        -1.30963        -0.53190
| 18>    C       -2.45293        -0.53106        -1.58078
| 19>    S       -3.11703        -1.48340        -2.83190
| 20>    C       -2.24528         0.84283        -1.26861
| 21>    C       -1.60967         0.92227        -0.02212
| 22>    C       -1.40454        -0.42872         0.48468
| 23>    C       -0.82459        -0.78232         1.66827
| 24>    C       -0.33345         0.17031         2.58554
| 25>    N        0.06987         0.93185         3.34241
| 26>    C       -0.67819        -2.12980         2.05861
| 27>    N       -0.55633        -3.22358         2.38137
| 28>    C       -1.35230         2.23430         0.37600
| 29>    C       -1.78832         3.15466        -0.55723
| 30>    S       -2.53149         2.38030        -1.95124
| 31>    C       -1.68035         4.57710        -0.48454
| 32>    C       -2.17566         5.42906        -1.47128
| 33>    N       -2.10060         6.74723        -1.46114
| 34>    C       -1.50936         7.39933        -0.46829
| 35>    C       -0.95510         6.66473         0.61757
| 36>    C       -1.05156         5.23066         0.60861
| 37>    N       -0.50239         4.69365         1.69674
| 38>    S        0.07102         5.86605         2.63553
| 39>    N       -0.33965         7.11319         1.70918
| 40>    C       -1.49389         8.82752        -0.55671
| 41>    C       -0.87583         9.63390         0.36784
| 42>    C       -0.86741        11.02265         0.32635
| 43>    C       -1.47830        11.73241        -0.80413
| 44>    C       -2.13239        11.12269        -1.82163
| 45>    S       -2.35106         9.42817        -1.96019
| 46>    C       -1.21066        13.10898        -0.57488
| 47>    C       -0.48680        13.25539         0.61076
| 48>    C       -0.19236        14.60941         0.88978
| 49>    C       -0.68510        15.43493        -0.06892
| 50>    S       -1.52605        14.61295        -1.34285
| 51>    C       -0.27676        11.96225         1.20345
| 52>    C        0.41348        11.78290         2.42718
| 53>    C        0.45285        10.66249         3.19570
| 54>    C        1.20194        10.49954         4.39889
| 55>    C        2.02825        11.45632         4.99823
| 56>    N        2.73851        11.29670         6.10153
| 57>    C        2.71908        10.15033         6.76907
| 58>    C        1.91669         9.07979         6.29115
| 59>    C        1.15529         9.25597         5.08920
| 60>    N        0.47785         8.15427         4.77061
| 61>    S        0.76693         7.02175         5.87859
| 62>    N        1.77010         7.86702         6.81483
| 63>    C        3.51565        10.01594         7.94360
| 64>    C        4.35991        10.96936         8.48736
| 65>    C        4.99589        10.49828         9.63318
| 66>    C        4.62576         9.18139         9.95644
| 67>    S        3.50255         8.52183         8.85408
| 68>    C        5.32752         8.79778        11.13356
| 69>    C        6.13466         9.86480        11.54685
| 70>    C        5.95842        10.96895        10.62182
| 71>    C        6.56905        12.18853        10.66371
| 72>    C        7.49313        12.53054        11.67288
| 73>    N        8.24614        12.81507        12.48993
| 74>    C        6.32524        13.19303         9.70389
| 75>    N        6.14087        14.02173         8.93300
| 76>    C        6.86774         9.56529        12.71121
| 77>    C        6.60711         8.30268        13.14942
| 78>    S        5.46840         7.44406        12.16394
| 79>    H       -2.97183        -3.87257        -2.38902
| 80>    H       -1.79587        -3.46575        -0.08779
| 81>    H       -0.87325         2.53296         1.29018
| 82>    H       -2.67424         5.01121        -2.33686
| 83>    H       -0.35650         9.11814         1.15973
| 84>    H       -2.57187        11.68525        -2.63071
| 85>    H        0.35249        14.95936         1.74775
| 86>    H       -0.61110        16.50375        -0.11765
| 87>    H        0.94017        12.66360         2.77266
| 88>    H       -0.12774         9.79326         2.92902
| 89>    H        2.13190        12.43644         4.55428
| 90>    H        4.47863        11.93991         8.04256
| 91>    H        7.54818        10.23819        13.20008
| 92>    H        7.01791         7.80707        14.00613
| 93> *
| 94>
| 95>                          ****END OF INPUT****

CARTESIAN COORDINATES (ANGSTROEM)
---------------------------------
  C     -2.721460   -2.925540   -1.954740
  C     -2.110720   -2.689620   -0.761090
  C     -1.948860   -1.309630   -0.531900
  C     -2.452930   -0.531060   -1.580780
  S     -3.117030   -1.483400   -2.831900
  C     -2.245280    0.842830   -1.268610
  C     -1.609670    0.922270   -0.022120
  C     -1.404540   -0.428720    0.484680
  C     -0.824590   -0.782320    1.668270
  C     -0.333450    0.170310    2.585540
  N      0.069870    0.931850    3.342410
  C     -0.678190   -2.129800    2.058610
  N     -0.556330   -3.223580    2.381370
  C     -1.352300    2.234300    0.376000
  C     -1.788320    3.154660   -0.557230
  S     -2.531490    2.380300   -1.951240
  C     -1.680350    4.577100   -0.484540
  C     -2.175660    5.429060   -1.471280
  N     -2.100600    6.747230   -1.461140
  C     -1.509360    7.399330   -0.468290
  C     -0.955100    6.664730    0.617570
  C     -1.051560    5.230660    0.608610
  N     -0.502390    4.693650    1.696740
  S      0.071020    5.866050    2.635530
  N     -0.339650    7.113190    1.709180
  C     -1.493890    8.827520   -0.556710
  C     -0.875830    9.633900    0.367840
  C     -0.867410   11.022650    0.326350
  C     -1.478300   11.732410   -0.804130
  C     -2.132390   11.122690   -1.821630
  S     -2.351060    9.428170   -1.960190
  C     -1.210660   13.108980   -0.574880
  C     -0.486800   13.255390    0.610760
  C     -0.192360   14.609410    0.889780
  C     -0.685100   15.434930   -0.068920
  S     -1.526050   14.612950   -1.342850
  C     -0.276760   11.962250    1.203450
  C      0.413480   11.782900    2.427180
  C      0.452850   10.662490    3.195700
  C      1.201940   10.499540    4.398890
  C      2.028250   11.456320    4.998230
  N      2.738510   11.296700    6.101530
  C      2.719080   10.150330    6.769070
  C      1.916690    9.079790    6.291150
  C      1.155290    9.255970    5.089200
  N      0.477850    8.154270    4.770610
  S      0.766930    7.021750    5.878590
  N      1.770100    7.867020    6.814830
  C      3.515650   10.015940    7.943600
  C      4.359910   10.969360    8.487360
  C      4.995890   10.498280    9.633180
  C      4.625760    9.181390    9.956440
  S      3.502550    8.521830    8.854080
  C      5.327520    8.797780   11.133560
  C      6.134660    9.864800   11.546850
  C      5.958420   10.968950   10.621820
  C      6.569050   12.188530   10.663710
  C      7.493130   12.530540   11.672880
  N      8.246140   12.815070   12.489930
  C      6.325240   13.193030    9.703890
  N      6.140870   14.021730    8.933000
  C      6.867740    9.565290   12.711210
  C      6.607110    8.302680   13.149420
  S      5.468400    7.444060   12.163940
  H     -2.971830   -3.872570   -2.389020
  H     -1.795870   -3.465750   -0.087790
  H     -0.873250    2.532960    1.290180
  H     -2.674240    5.011210   -2.336860
  H     -0.356500    9.118140    1.159730
  H     -2.571870   11.685250   -2.630710
  H      0.352490   14.959360    1.747750
  H     -0.611100   16.503750   -0.117650
  H      0.940170   12.663600    2.772660
  H     -0.127740    9.793260    2.929020
  H      2.131900   12.436440    4.554280
  H      4.478630   11.939910    8.042560
  H      7.548180   10.238190   13.200080
  H      7.017910    7.807070   14.006130

 Total Charge           Charge          ....    0
 Multiplicity           Mult            ....    1
 Number of Electrons    NEL             ....  488
 Basis Dimension        Dim             ....  998

ORBITAL ENERGIES
----------------

  NO   OCC          E(Eh)            E(eV)
   0   2.0000     -89.039665     -2422.8925
   1   2.0000     -89.038167     -2422.8517
   2   2.0000     -88.985335     -2421.4141
   3   2.0000     -88.985169     -2421.4096
   4   2.0000     -88.980173     -2421.2736
   5   2.0000     -88.977077     -2421.1894
   6   2.0000     -88.968172     -2420.9470
   7   2.0000     -88.953892     -2420.5585
   8   2.0000     -14.455320      -393.3493
   9   2.0000     -14.455129      -393.3441
  10   2.0000     -14.451094      -393.2343
  11   2.0000     -14.450009      -393.2047
  12   2.0000     -14.426233      -392.5577
  13   2.0000     -14.425804      -392.5461
  14   2.0000     -14.421242      -392.4219
  15   2.0000     -14.420447      -392.4003
  16   2.0000     -14.418897      -392.3581
  17   2.0000     -14.412924      -392.1956
  18   2.0000     -10.359542      -281.8975
  19   2.0000     -10.352982      -281.7190
  20   2.0000     -10.347137      -281.5599
  21   2.0000     -10.341314      -281.4015
  22   2.0000     -10.340264      -281.3729
  23   2.0000     -10.339684      -281.3571
  24   2.0000     -10.337243      -281.2907
  25   2.0000     -10.332961      -281.1742
  26   2.0000     -10.332370      -281.1581
  27   2.0000     -10.330722      -281.1132
  28   2.0000     -10.327533      -281.0264
  29   2.0000     -10.326981      -281.0114
  30   2.0000     -10.326770      -281.0057
  31   2.0000     -10.326380      -280.9951
  32   2.0000     -10.321986      -280.8755
  33   2.0000     -10.321913      -280.8735
  34   2.0000     -10.321156      -280.8529
  35   2.0000     -10.321095      -280.8513
  36   2.0000     -10.319360      -280.8041
  37   2.0000     -10.319318      -280.8029
  38   2.0000     -10.318066      -280.7689
  39   2.0000     -10.313383      -280.6414
  40   2.0000     -10.309811      -280.5442
  41   2.0000     -10.309209      -280.5278
  42   2.0000     -10.308795      -280.5166
  43   2.0000     -10.307470      -280.4805
  44   2.0000     -10.305250      -280.4201
  45   2.0000     -10.296774      -280.1895
  46   2.0000     -10.295656      -280.1590
  47   2.0000     -10.295339      -280.1504
  48   2.0000     -10.294440      -280.1259
  49   2.0000     -10.293333      -280.0958
  50   2.0000     -10.292237      -280.0660
  51   2.0000     -10.291807      -280.0543
  52   2.0000     -10.290385      -280.0156
  53   2.0000     -10.290027      -280.0059
  54   2.0000     -10.289670      -279.9961
  55   2.0000     -10.289130      -279.9815
  56   2.0000     -10.288877      -279.9746
  57   2.0000     -10.285136      -279.8728
  58   2.0000     -10.281790      -279.7817
  59   2.0000     -10.279818      -279.7281
  60   2.0000     -10.276076      -279.6262
  61   2.0000     -10.273048      -279.5438
  62   2.0000     -10.272374      -279.5255
  63   2.0000     -10.270256      -279.4679
  64   2.0000      -8.130607      -221.2451
  65   2.0000      -8.129527      -221.2157
  66   2.0000      -8.080423      -219.8795
  67   2.0000      -8.079661      -219.8588
  68   2.0000      -8.075174      -219.7367
  69   2.0000      -8.070702      -219.6150
  70   2.0000      -8.062680      -219.3967
  71   2.0000      -8.049341      -219.0337
  72   2.0000      -6.101871      -166.0404
  73   2.0000      -6.100697      -166.0084
  74   2.0000      -6.093908      -165.8237
  75   2.0000      -6.093162      -165.8034
  76   2.0000      -6.093063      -165.8007
  77   2.0000      -6.091954      -165.7705
  78   2.0000      -6.049678      -164.6201
  79   2.0000      -6.048920      -164.5995
  80   2.0000      -6.045224      -164.4989
  81   2.0000      -6.044755      -164.4861
  82   2.0000      -6.044416      -164.4769
  83   2.0000      -6.043009      -164.4386
  84   2.0000      -6.042050      -164.4125
  85   2.0000      -6.040000      -164.3568
  86   2.0000      -6.039989      -164.3564
  87   2.0000      -6.037804      -164.2970
  88   2.0000      -6.035561      -164.2360
  89   2.0000      -6.033252      -164.1731
  90   2.0000      -6.032171      -164.1437
  91   2.0000      -6.027560      -164.0183
  92   2.0000      -6.024798      -163.9431
  93   2.0000      -6.018828      -163.7806
  94   2.0000      -6.014554      -163.6643
  95   2.0000      -6.011300      -163.5758
  96   2.0000      -1.139433       -31.0056
  97   2.0000      -1.137160       -30.9437
  98   2.0000      -1.058288       -28.7975
  99   2.0000      -1.047519       -28.5044
 100   2.0000      -1.038876       -28.2693
 101   2.0000      -1.031744       -28.0752
 102   2.0000      -1.017468       -27.6867
 103   2.0000      -1.011120       -27.5140
 104   2.0000      -1.003505       -27.3068
 105   2.0000      -1.002421       -27.2773
 106   2.0000      -0.997475       -27.1427
 107   2.0000      -0.997178       -27.1346
 108   2.0000      -0.994158       -27.0524
 109   2.0000      -0.986756       -26.8510
 110   2.0000      -0.980818       -26.6894
 111   2.0000      -0.964832       -26.2544
 112   2.0000      -0.953188       -25.9376
 113   2.0000      -0.945816       -25.7370
 114   2.0000      -0.927975       -25.2515
 115   2.0000      -0.919679       -25.0257
 116   2.0000      -0.913928       -24.8692
 117   2.0000      -0.902262       -24.5518
 118   2.0000      -0.901645       -24.5350
 119   2.0000      -0.893925       -24.3249
 120   2.0000      -0.881868       -23.9969
 121   2.0000      -0.866015       -23.5655
 122   2.0000      -0.859167       -23.3791
 123   2.0000      -0.856730       -23.3128
 124   2.0000      -0.850036       -23.1306
 125   2.0000      -0.847048       -23.0493
 126   2.0000      -0.841775       -22.9059
 127   2.0000      -0.833335       -22.6762
 128   2.0000      -0.815961       -22.2034
 129   2.0000      -0.801939       -21.8219
 130   2.0000      -0.788420       -21.4540
 131   2.0000      -0.776258       -21.1230
 132   2.0000      -0.770327       -20.9617
 133   2.0000      -0.767938       -20.8967
 134   2.0000      -0.763291       -20.7702
 135   2.0000      -0.757701       -20.6181
 136   2.0000      -0.739914       -20.1341
 137   2.0000      -0.731241       -19.8981
 138   2.0000      -0.726777       -19.7766
 139   2.0000      -0.719956       -19.5910
 140   2.0000      -0.708771       -19.2867
 141   2.0000      -0.699893       -19.0451
 142   2.0000      -0.697923       -18.9915
 143   2.0000      -0.692232       -18.8366
 144   2.0000      -0.678489       -18.4626
 145   2.0000      -0.670865       -18.2552
 146   2.0000      -0.668272       -18.1846
 147   2.0000      -0.661121       -17.9900
 148   2.0000      -0.654675       -17.8146
 149   2.0000      -0.637950       -17.3595
 150   2.0000      -0.635411       -17.2904
 151   2.0000      -0.633216       -17.2307
 152   2.0000      -0.628232       -17.0951
 153   2.0000      -0.622917       -16.9504
 154   2.0000      -0.619193       -16.8491
 155   2.0000      -0.612711       -16.6727
 156   2.0000      -0.609056       -16.5732
 157   2.0000      -0.608402       -16.5555
 158   2.0000      -0.604259       -16.4427
 159   2.0000      -0.598381       -16.2828
 160   2.0000      -0.593840       -16.1592
 161   2.0000      -0.587751       -15.9935
 162   2.0000      -0.572407       -15.5760
 163   2.0000      -0.567648       -15.4465
 164   2.0000      -0.566379       -15.4120
 165   2.0000      -0.563180       -15.3249
 166   2.0000      -0.560650       -15.2561
 167   2.0000      -0.557925       -15.1819
 168   2.0000      -0.545065       -14.8320
 169   2.0000      -0.541089       -14.7238
 170   2.0000      -0.538835       -14.6625
 171   2.0000      -0.535013       -14.5584
 172   2.0000      -0.533915       -14.5286
 173   2.0000      -0.531698       -14.4682
 174   2.0000      -0.518360       -14.1053
 175   2.0000      -0.514953       -14.0126
 176   2.0000      -0.512901       -13.9568
 177   2.0000      -0.509747       -13.8709
 178   2.0000      -0.507413       -13.8074
 179   2.0000      -0.505869       -13.7654
 180   2.0000      -0.501355       -13.6426
 181   2.0000      -0.500689       -13.6244
 182   2.0000      -0.496790       -13.5183
 183   2.0000      -0.493804       -13.4371
 184   2.0000      -0.490129       -13.3371
 185   2.0000      -0.487944       -13.2776
 186   2.0000      -0.485991       -13.2245
 187   2.0000      -0.483679       -13.1616
 188   2.0000      -0.482098       -13.1186
 189   2.0000      -0.480215       -13.0673
 190   2.0000      -0.478584       -13.0229
 191   2.0000      -0.478479       -13.0201
 192   2.0000      -0.469421       -12.7736
 193   2.0000      -0.468448       -12.7471
 194   2.0000      -0.463895       -12.6232
 195   2.0000      -0.459978       -12.5166
 196   2.0000      -0.457872       -12.4593
 197   2.0000      -0.455019       -12.3817
 198   2.0000      -0.453710       -12.3461
 199   2.0000      -0.453138       -12.3305
 200   2.0000      -0.451568       -12.2878
 201   2.0000      -0.448691       -12.2095
 202   2.0000      -0.447732       -12.1834
 203   2.0000      -0.445127       -12.1125
 204   2.0000      -0.440632       -11.9902
 205   2.0000      -0.438129       -11.9221
 206   2.0000      -0.437468       -11.9041
 207   2.0000      -0.436414       -11.8754
 208   2.0000      -0.435444       -11.8490
 209   2.0000      -0.434503       -11.8234
 210   2.0000      -0.432870       -11.7790
 211   2.0000      -0.430655       -11.7187
 212   2.0000      -0.429923       -11.6988
 213   2.0000      -0.428557       -11.6616
 214   2.0000      -0.424546       -11.5525
 215   2.0000      -0.421903       -11.4806
 216   2.0000      -0.416717       -11.3394
 217   2.0000      -0.414568       -11.2810
 218   2.0000      -0.409815       -11.1516
 219   2.0000      -0.405954       -11.0466
 220   2.0000      -0.404375       -11.0036
 221   2.0000      -0.398349       -10.8396
 222   2.0000      -0.397510       -10.8168
 223   2.0000      -0.384132       -10.4528
 224   2.0000      -0.379861       -10.3365
 225   2.0000      -0.375943       -10.2299
 226   2.0000      -0.374990       -10.2040
 227   2.0000      -0.372844       -10.1456
 228   2.0000      -0.362120        -9.8538
 229   2.0000      -0.360337        -9.8053
 230   2.0000      -0.354199        -9.6383
 231   2.0000      -0.346655        -9.4330
 232   2.0000      -0.342624        -9.3233
 233   2.0000      -0.338840        -9.2203
 234   2.0000      -0.336632        -9.1602
 235   2.0000      -0.333328        -9.0703
 236   2.0000      -0.325156        -8.8479
 237   2.0000      -0.316224        -8.6049
 238   2.0000      -0.311038        -8.4638
 239   2.0000      -0.306755        -8.3472
 240   2.0000      -0.281240        -7.6529
 241   2.0000      -0.268263        -7.2998
 242   2.0000      -0.254436        -6.9236
 243   2.0000      -0.220867        -6.0101
 244   0.0000      -0.104660        -2.8479
 245   0.0000      -0.097156        -2.6438
 246   0.0000      -0.088865        -2.4181
 247   0.0000      -0.076042        -2.0692
 248   0.0000      -0.041930        -1.1410

MULLIKEN ATOMIC CHARGES
-----------------------
   0 C :   -0.082385
   1 C :    0.038874
   2 C :   -0.034102
   3 C :   -0.118147
   4 S :    0.179598
   5 C :   -0.090116
   6 C :    0.022239
   7 C :    0.304253
   8 C :   -0.304344
   9 C :   -0.185093
  10 N :    0.169786
  11 C :   -0.191609
  12 N :    0.170810
  13 C :   -0.058555
  14 C :   -0.104674
  15 S :    0.163820
  16 C :    0.083025
  17 C :   -0.066064
  18 N :   -0.063215
  19 C :    0.024261
  20 C :    0.024707
  21 C :    0.043093
  22 N :   -0.277684
  23 S :    0.532126
  24 N :   -0.270413
  25 C :   -0.098152
  26 C :   -0.083741
  27 C :    0.052344
  28 C :    0.053230
  29 C :   -0.127759
  30 S :    0.187370
  31 C :   -0.102059
  32 C :    0.045830
  33 C :    0.009091
  34 C :   -0.069673
  35 S :    0.125750
  36 C :    0.094811
  37 C :   -0.000598
  38 C :   -0.038098
  39 C :    0.019694
  40 C :   -0.035821
  41 N :   -0.030955
  42 C :    0.011245
  43 C :   -0.012971
  44 C :    0.065433
  45 N :   -0.294921
  46 S :    0.517414
  47 N :   -0.292434
  48 C :   -0.098837
  49 C :   -0.059228
  50 C :    0.029956
  51 C :   -0.083558
  52 S :    0.211187
  53 C :   -0.117570
  54 C :   -0.030651
  55 C :    0.297857
  56 C :   -0.301388
  57 C :   -0.191110
  58 N :    0.167123
  59 C :   -0.192639
  60 N :    0.177125
  61 C :    0.032309
  62 C :   -0.080108
  63 S :    0.179224
  64 H :    0.035035
  65 H :    0.011437
  66 H :    0.019158
  67 H :    0.006152
  68 H :    0.004761
  69 H :    0.032114
  70 H :   -0.015852
  71 H :    0.027536
  72 H :   -0.028278
  73 H :    0.001073
  74 H :    0.000638
  75 H :    0.015299
  76 H :    0.011611
  77 H :    0.034398
Sum of atomic charges:   -0.0000000

LOEWDIN ATOMIC CHARGES
----------------------
   0 C :   -0.178289
   1 C :   -0.034305
   2 C :   -0.076550
   3 C :   -0.183894
   4 S :    0.475739
   5 C :   -0.177733
   6 C :   -0.073437
   7 C :    0.084077
   8 C :   -0.104787
   9 C :   -0.016269
  10 N :   -0.035922
  11 C :   -0.016678
  12 N :   -0.036195
  13 C :   -0.021867
  14 C :   -0.162927
  15 S :    0.471024
  16 C :   -0.071340
  17 C :    0.007408
  18 N :   -0.086490
  19 C :   -0.003302
  20 C :   -0.056340
  21 C :   -0.029852
  22 N :   -0.277452
  23 S :    0.666527
  24 N :   -0.261542
  25 C :   -0.185318
  26 C :    0.000026
  27 C :   -0.021685
  28 C :   -0.055199
  29 C :   -0.138894
  30 S :    0.489349
  31 C :   -0.197912
  32 C :   -0.043239
  33 C :   -0.063579
  34 C :   -0.164654
  35 S :    0.418562
  36 C :   -0.041263
  37 C :   -0.001427
  38 C :   -0.029335
  39 C :   -0.054317
  40 C :    0.017916
  41 N :   -0.062948
  42 C :   -0.013156
  43 C :   -0.071679
  44 C :   -0.033012
  45 N :   -0.293516
  46 S :    0.644955
  47 N :   -0.290574
  48 C :   -0.181922
  49 C :    0.000985
  50 C :   -0.075189
  51 C :   -0.181771
  52 S :    0.509643
  53 C :   -0.183743
  54 C :   -0.075046
  55 C :    0.083287
  56 C :   -0.106562
  57 C :   -0.016154
  58 N :   -0.038682
  59 C :   -0.018422
  60 N :   -0.033481
  61 C :   -0.035551
  62 C :   -0.178113
  63 S :    0.474887
  64 H :    0.027153
  65 H :    0.042422
  66 H :    0.037989
  67 H :    0.017664
  68 H :    0.036866
  69 H :    0.034720
  70 H :    0.030290
  71 H :    0.023570
  72 H :    0.027748
  73 H :    0.031786
  74 H :    0.022868
  75 H :    0.045114
  76 H :    0.042145
  77 H :    0.026798

  Mayer bond orders larger than 0.100000
B(  0-C ,  1-C ) :   1.5486 B(  0-C ,  4-S ) :   1.1491 B(  0-C , 64-H ) :   0.9646
B(  1-C ,  2-C ) :   1.2763 B(  1-C , 65-H ) :   0.9960 B(  2-C ,  3-C ) :   1.4586
B(  2-C ,  7-C ) :   1.0128 B(  3-C ,  4-S ) :   1.1356 B(  3-C ,  5-C ) :   1.1780
B(  5-C ,  6-C ) :   1.4581 B(  5-C , 15-S ) :   1.1257 B(  6-C ,  7-C ) :   0.9959
B(  6-C , 13-C ) :   1.2393 B(  7-C ,  8-C ) :   1.7067 B(  8-C ,  9-C ) :   1.1378
B(  8-C , 11-C ) :   1.1298 B(  9-C , 10-N ) :   2.9871 B( 11-C , 12-N ) :   3.0024
B( 13-C , 14-C ) :   1.4918 B( 13-C , 66-H ) :   0.9832 B( 14-C , 15-S ) :   1.0925
B( 14-C , 16-C ) :   1.1167 B( 16-C , 17-C ) :   1.4062 B( 16-C , 19-C ) :   0.1032
B( 16-C , 21-C ) :   1.2072 B( 17-C , 18-N ) :   1.4689 B( 17-C , 67-H ) :   0.9761
B( 18-N , 19-C ) :   1.6322 B( 19-C , 20-C ) :   1.1635 B( 19-C , 25-C ) :   1.1407
B( 20-C , 21-C ) :   1.1855 B( 20-C , 24-N ) :   1.5219 B( 21-C , 22-N ) :   1.5218
B( 22-N , 23-S ) :   1.2600 B( 22-N , 24-N ) :   0.1428 B( 23-S , 24-N ) :   1.2661
B( 25-C , 26-C ) :   1.5297 B( 25-C , 30-S ) :   1.0524 B( 26-C , 27-C ) :   1.2372
B( 26-C , 68-H ) :   0.9495 B( 27-C , 28-C ) :   1.0637 B( 27-C , 36-C ) :   1.3474
B( 28-C , 29-C ) :   1.5855 B( 28-C , 31-C ) :   1.1808 B( 29-C , 30-S ) :   1.1470
B( 29-C , 69-H ) :   0.9407 B( 31-C , 32-C ) :   1.4310 B( 31-C , 35-S ) :   1.0756
B( 32-C , 33-C ) :   1.2107 B( 32-C , 36-C ) :   1.1144 B( 33-C , 34-C ) :   1.5957
B( 33-C , 70-H ) :   0.9969 B( 34-C , 35-S ) :   1.1477 B( 34-C , 71-H ) :   0.9658
B( 36-C , 37-C ) :   1.1697 B( 37-C , 38-C ) :   1.5791 B( 37-C , 72-H ) :   0.9603
B( 38-C , 39-C ) :   1.1351 B( 38-C , 73-H ) :   0.9831 B( 39-C , 40-C ) :   1.3822
B( 39-C , 44-C ) :   1.1772 B( 40-C , 41-N ) :   1.4682 B( 40-C , 74-H ) :   0.9767
B( 41-N , 42-C ) :   1.6630 B( 42-C , 43-C ) :   1.1323 B( 42-C , 48-C ) :   1.1334
B( 43-C , 44-C ) :   1.1815 B( 43-C , 47-N ) :   1.5192 B( 44-C , 45-N ) :   1.5284
B( 45-N , 46-S ) :   1.2522 B( 45-N , 47-N ) :   0.1509 B( 46-S , 47-N ) :   1.2646
B( 48-C , 49-C ) :   1.4200 B( 48-C , 52-S ) :   1.1163 B( 49-C , 50-C ) :   1.2582
B( 49-C , 75-H ) :   1.0153 B( 50-C , 51-C ) :   1.4264 B( 50-C , 55-C ) :   0.9882
B( 51-C , 52-S ) :   1.1167 B( 51-C , 53-C ) :   1.1857 B( 53-C , 54-C ) :   1.4558
B( 53-C , 63-S ) :   1.1348 B( 54-C , 55-C ) :   1.0164 B( 54-C , 61-C ) :   1.2756
B( 55-C , 56-C ) :   1.7110 B( 56-C , 57-C ) :   1.1287 B( 56-C , 59-C ) :   1.1354
B( 57-C , 58-N ) :   3.0011 B( 59-C , 60-N ) :   3.0002 B( 61-C , 62-C ) :   1.5481
B( 61-C , 76-H ) :   0.9961 B( 62-C , 63-S ) :   1.1492 B( 62-C , 77-H ) :   0.9645

-----------------------------------------------------------------------------
         ABSORPTION SPECTRUM VIA TRANSITION ELECTRIC DIPOLE MOMENTS
-----------------------------------------------------------------------------
State   Energy  Wavelength   fosc         T2         TX        TY        TZ
        (cm-1)    (nm)                  (au**2)     (au)      (au)      (au)
-----------------------------------------------------------------------------
   0   10988.2    910.1   0.637341734  19.09504   1.82665   2.73563   2.87659
   1   13458.9    743.0   0.224450590   5.49017   0.92556  -1.46623   1.57597
   2   14188.6    704.8   0.020242828   0.46968  -0.21959   0.54959  -0.34556
   3   15758.9    634.6   0.154185768   3.22102  -0.83302   0.57290  -1.48286
   4   18438.1    542.4   0.255679226   4.56515  -0.41834   1.94508  -0.77898
   5   19748.8    506.4   0.257972718   4.30039  -0.75801   1.51804  -1.19221
   6   20841.4    479.8   0.165104010   2.60800   0.36090   1.55066   0.27056
   7   21737.2    460.0   0.055076105   0.83413  -0.40000  -0.39549  -0.71953
   8   22964.0    435.5   0.184595084   2.64635  -0.94609  -0.48854  -1.22987
   9   24460.1    408.8   0.002604073   0.03505   0.02251   0.18540   0.01299
  10   24555.3    407.2   0.029733465   0.39864  -0.30034  -0.48496  -0.27064
  11   26473.3    377.7   0.012069300   0.15009  -0.08246  -0.34348   0.15909
  12   26660.1    375.1   0.349901246   4.32075  -1.00296  -0.72596  -1.66967
  13   27380.1    365.2   0.011681941   0.14046   0.11597   0.19903   0.29563
  14   29136.0    343.2   0.013894439   0.15700  -0.08751  -0.34082   0.18215
  15   29227.0    342.1   0.002432548   0.02740   0.05776  -0.15457  -0.01316
  16   29602.5    337.8   0.035477606   0.39455   0.11106   0.61676  -0.04274
  17   30058.8    332.7   0.000521028   0.00571   0.06812   0.00201   0.03259
  18   30515.5    327.7   0.004877051   0.05262   0.03329  -0.21946   0.05781
  19   30548.1    327.4   0.116003622   1.25015  -0.13246   0.97405  -0.53277
  20   30797.6    324.7   0.558030030   5.96507   1.64761   0.07125   1.80149
  21   31341.2    319.1   0.242046934   2.54249   0.02894  -1.44778   0.66753
  22   31374.0    318.7   0.624367006   6.55157  -0.80632   1.25069  -2.08260
  23   32004.0    312.5   0.048628781   0.50022   0.11267  -0.68176   0.15075
  24   32401.3    308.6   0.050250150   0.51056  -0.13496   0.69031  -0.12579
  25   32904.0    303.9   0.184373635   1.84470   0.12714   1.29355  -0.39403
  26   33357.9    299.8   0.262419256   2.58984   0.14332   1.55640  -0.38329
  27   33481.2    298.7   0.219624789   2.15952  -0.43699  -1.40167  -0.06222
  28   33955.1    294.5   0.275514254   2.67125  -0.48989  -1.21151  -0.98158
  29   34179.1    292.6   0.117050602   1.12743  -0.03184   0.89142  -0.57601
  30   34332.4    291.3   0.238611870   2.28804   0.86155  -0.01369   1.24321
  31   34470.5    290.1   0.099520664   0.95048   0.55713   0.78951   0.12946
  32   34811.5    287.3   0.030319297   0.28673   0.28580   0.35352   0.28297
  33   35168.6    284.3   0.052898248   0.49518  -0.00169  -0.70342  -0.01927
  34   35431.2    282.2   0.128397628   1.19302  -0.33296  -0.82716  -0.63084
  35   35879.0    278.7   0.240297159   2.20487  -0.06117  -1.47894   0.11773
  36   36212.6    276.1   0.047885266   0.43533  -0.15031  -0.57101  -0.29442
  37   37013.4    270.2   0.253072768   2.25093  -0.08833  -1.49754  -0.02267
  38   37298.9    268.1   0.057419328   0.50680   0.11661  -0.64718   0.27270
  39   37373.3    267.6   0.002969248   0.02616  -0.05586   0.14436  -0.04684
  40   37787.7    264.6   0.007443752   0.06485  -0.00882  -0.25294   0.02820
  41   38007.1    263.1   0.013072086   0.11323   0.17114   0.23034   0.17574
  42   38450.4    260.1   0.024486650   0.20965  -0.21551  -0.03914  -0.40209
  43   38588.9    259.1   0.036458191   0.31103  -0.05716  -0.55466   0.01086
  44   38832.9    257.5   0.017796466   0.15087  -0.10789   0.35665  -0.10968
  45   38999.0    256.4   0.079270588   0.66917   0.45945   0.48496   0.47211
  46   39098.7    255.8   0.005384859   0.04534   0.01622  -0.08680   0.19376
  47   39339.8    254.2   0.097195219   0.81337   0.44359   0.56084   0.54960
  48   39416.7    253.7   0.010800563   0.09021   0.10490   0.27131   0.07478
  49   39524.8    253.0   0.029861003   0.24872  -0.03065  -0.49551   0.04738
  50   39923.1    250.5   0.098913095   0.81565   0.14897   0.83880  -0.29978
  51   39939.9    250.4   0.003737155   0.03080  -0.05974  -0.16494   0.00549
  52   40162.0    249.0   0.071410528   0.58536  -0.31210  -0.09570  -0.69195

FINAL SINGLE POINT ENERGY     -5490.302628412181

DIPOLE MOMENT
-------------
                                X             Y             Z
Electronic contribution:     -1.90199     -16.61745       3.10743
Nuclear contribution   :     -0.15794      15.03439      -5.20010
                        -----------------------------------------
Total Dipole Moment    :     -2.05993      -1.58306      -2.09266
                        -----------------------------------------
Magnitude (a.u.)       :      3.33596
Magnitude (Debye)      :      8.47934

Rotational constants in cm-1:     0.001035     0.000423     0.000303
Rotational constants in MHz :    31.041985    12.683831     9.077401

                             ****ORCA TERMINATED NORMALLY****
TOTAL RUN TIME: 0 days 0 hours 6 minutes 48 seconds 310 msec
