                         Program Version 4.2.0 -  RELEASE  -
|  1> # ORCA input file
|  2> # SCF done       -205.257913305449          0.000584316011
|  3> ! CAM-B3LYP def2-SVP def2/J RIJCOSX Grid4 TightSCF
|  4> %maxcore 5000
|  5> %tddft
|  6>     Mode sTDDFT
|  7>     Ethresh 5.0
|  8>     maxcore 5000
|  9> end
| 10>
| 11> %pal
| 12>   nprocs 6
| 13>   end
| 14> * xyz 0 1
| 15>    C        0.42584         1.07152         1.54105
| 16>    C       -0.70896         1.54578         2.14705
| 17>    C       -1.07731         1.23479         3.47279
| 18>    N       -1.42915         1.00697         4.54092
| 19>    C       -1.68542         2.32111         1.49331
| 20>    N       -2.51682         2.93648         0.99414
| 21>    C        1.33716         0.09543         2.12808
| 22>    C        2.06512        -0.53617         1.07745
| 23>    C        2.97673        -1.52042         1.33038
| 24>    C        3.21521        -1.91147         2.66763
| 25>    C        2.50695        -1.26638         3.72277
| 26>    C        1.56099        -0.25687         3.43115
| 27>    C        2.76532        -1.65570         5.05255
| 28>    C        3.67620        -2.63850         5.32961
| 29>    C        4.37102        -3.27528         4.29053
| 30>    C        4.14531        -2.91987         2.98827
| 31>    C        1.68181         0.06858        -0.20998
| 32>    O        2.04154        -0.24102        -1.32262
| 33>    C        0.79077         1.21235         0.14662
| 34>    C        0.55995         2.18226        -0.78087
| 35>    C        0.11687         3.50494        -0.55963
| 36>    C        0.15227         4.23668         0.61803
| 37>    C       -0.34285         5.52248         0.45462
| 38>    C       -0.75955         5.78955        -0.86672
| 39>    S       -0.51719         4.45713        -1.89865
| 40>    C       -1.26205         7.11183        -0.91502
| 41>    C       -1.16514         7.67830         0.37080
| 42>    C       -0.59916         6.68947         1.27618
| 43>    C       -0.39255         6.80681         2.61900
| 44>    C       -0.69938         7.98716         3.32820
| 45>    N       -0.94683         8.94922         3.89989
| 46>    C        0.13890         5.74068         3.37544
| 47>    N        0.57558         4.86645         3.97535
| 48>    C       -1.63119         8.98625         0.42716
| 49>    C       -2.08783         9.42501        -0.80709
| 50>    S       -1.93858         8.19613        -2.05276
| 51>    C       -2.62139        10.69914        -1.09881
| 52>    C       -3.14141        11.19486        -2.27799
| 53>    C       -3.60256        12.53650        -2.21590
| 54>    C       -4.11215        12.92959        -3.48743
| 55>    C       -4.05495        11.97389        -4.44896
| 56>    S       -3.34996        10.48687        -3.84680
| 57>    C       -4.50732        12.08003        -5.85781
| 58>    F       -4.61233        14.15246        -3.74023
| 59>    C       -3.43218        13.10463        -0.95548
| 60>    S       -2.69871        11.93904         0.12709
| 61>    C       -3.74296        14.38473        -0.44321
| 62>    C       -3.43292        14.82075         0.84114
| 63>    C       -3.87188        16.11615         1.07407
| 64>    C       -4.53099        16.67865        -0.03696
| 65>    S       -4.59556        15.60876        -1.36761
| 66>    C       -4.94944        17.98491         0.30306
| 67>    C       -4.54878        18.25464         1.63310
| 68>    C       -3.86821        17.08591         2.16077
| 69>    C       -3.34775        16.91478         3.40878
| 70>    C       -3.44007        17.89301         4.42306
| 71>    N       -3.52031        18.65620         5.27424
| 72>    C       -2.68825        15.72338         3.78123
| 73>    N       -2.14688        14.75795         4.07955
| 74>    C       -4.89612        19.52716         2.06249
| 75>    C       -5.56863        20.24660         1.08256
| 76>    S       -5.77624        19.29463        -0.39717
| 77>    C       -6.15557        21.52704         1.09317
| 78>    C       -5.99971        22.55608         1.98191
| 79>    C       -6.78032        23.78074         1.95673
| 80>    C       -7.95125        23.99052         1.27318
| 81>    C       -8.68038        25.19733         1.31105
| 82>    N       -9.31776        26.15220         1.29259
| 83>    C       -8.61746        23.03782         0.47476
| 84>    N       -9.23017        22.31299        -0.17289
| 85>    C       -6.15749        24.73000         2.87092
| 86>    C       -5.05493        24.08872         3.50201
| 87>    C       -4.92520        22.71239         2.99598
| 88>    O       -4.06895        21.91370         3.31260
| 89>    C       -4.28000        24.72468         4.42822
| 90>    C       -4.57989        26.06127         4.77386
| 91>    C       -5.67655        26.71464         4.14088
| 92>    C       -6.45958        26.02906         3.18358
| 93>    C       -5.96457        28.04949         4.49086
| 94>    C       -5.20910        28.70759         5.42293
| 95>    C       -4.13045        28.06272         6.04628
| 96>    C       -3.82244        26.76761         5.72854
| 97>    H        3.51329        -1.99358         0.52143
| 98>    H        1.04749         0.22637         4.24766
| 99>    H        2.22539        -1.16402         5.84826
|100>    H        3.86618        -2.93090         6.35144
|101>    H        5.08680        -4.04831         4.52700
|102>    H        4.67838        -3.40641         2.18451
|103>    H        0.82177         1.92003        -1.80107
|104>    H        0.56381         3.85268         1.53342
|105>    H       -1.64967         9.60599         1.30571
|106>    H       -4.89888        13.07718        -6.04495
|107>    H       -5.28696        11.34706        -6.06336
|108>    H       -3.67988        11.88718        -6.53982
|109>    H       -2.90975        14.20428         1.54998
|110>    H       -4.67587        19.93208         3.03264
|111>    H       -6.81996        21.70492         0.25529
|112>    H       -3.45165        24.21167         4.89381
|113>    H       -7.27857        26.55421         2.71849
|114>    H       -6.79709        28.54144         4.00956
|115>    H       -5.43926        29.72928         5.68561
|116>    H       -3.54494        28.59708         6.77944
|117>    H       -2.99329        26.26537         6.20503
|118> *
|119>
|120>                          ****END OF INPUT****

CARTESIAN COORDINATES (ANGSTROEM)
---------------------------------
  C      0.425840    1.071520    1.541050
  C     -0.708960    1.545780    2.147050
  C     -1.077310    1.234790    3.472790
  N     -1.429150    1.006970    4.540920
  C     -1.685420    2.321110    1.493310
  N     -2.516820    2.936480    0.994140
  C      1.337160    0.095430    2.128080
  C      2.065120   -0.536170    1.077450
  C      2.976730   -1.520420    1.330380
  C      3.215210   -1.911470    2.667630
  C      2.506950   -1.266380    3.722770
  C      1.560990   -0.256870    3.431150
  C      2.765320   -1.655700    5.052550
  C      3.676200   -2.638500    5.329610
  C      4.371020   -3.275280    4.290530
  C      4.145310   -2.919870    2.988270
  C      1.681810    0.068580   -0.209980
  O      2.041540   -0.241020   -1.322620
  C      0.790770    1.212350    0.146620
  C      0.559950    2.182260   -0.780870
  C      0.116870    3.504940   -0.559630
  C      0.152270    4.236680    0.618030
  C     -0.342850    5.522480    0.454620
  C     -0.759550    5.789550   -0.866720
  S     -0.517190    4.457130   -1.898650
  C     -1.262050    7.111830   -0.915020
  C     -1.165140    7.678300    0.370800
  C     -0.599160    6.689470    1.276180
  C     -0.392550    6.806810    2.619000
  C     -0.699380    7.987160    3.328200
  N     -0.946830    8.949220    3.899890
  C      0.138900    5.740680    3.375440
  N      0.575580    4.866450    3.975350
  C     -1.631190    8.986250    0.427160
  C     -2.087830    9.425010   -0.807090
  S     -1.938580    8.196130   -2.052760
  C     -2.621390   10.699140   -1.098810
  C     -3.141410   11.194860   -2.277990
  C     -3.602560   12.536500   -2.215900
  C     -4.112150   12.929590   -3.487430
  C     -4.054950   11.973890   -4.448960
  S     -3.349960   10.486870   -3.846800
  C     -4.507320   12.080030   -5.857810
  F     -4.612330   14.152460   -3.740230
  C     -3.432180   13.104630   -0.955480
  S     -2.698710   11.939040    0.127090
  C     -3.742960   14.384730   -0.443210
  C     -3.432920   14.820750    0.841140
  C     -3.871880   16.116150    1.074070
  C     -4.530990   16.678650   -0.036960
  S     -4.595560   15.608760   -1.367610
  C     -4.949440   17.984910    0.303060
  C     -4.548780   18.254640    1.633100
  C     -3.868210   17.085910    2.160770
  C     -3.347750   16.914780    3.408780
  C     -3.440070   17.893010    4.423060
  N     -3.520310   18.656200    5.274240
  C     -2.688250   15.723380    3.781230
  N     -2.146880   14.757950    4.079550
  C     -4.896120   19.527160    2.062490
  C     -5.568630   20.246600    1.082560
  S     -5.776240   19.294630   -0.397170
  C     -6.155570   21.527040    1.093170
  C     -5.999710   22.556080    1.981910
  C     -6.780320   23.780740    1.956730
  C     -7.951250   23.990520    1.273180
  C     -8.680380   25.197330    1.311050
  N     -9.317760   26.152200    1.292590
  C     -8.617460   23.037820    0.474760
  N     -9.230170   22.312990   -0.172890
  C     -6.157490   24.730000    2.870920
  C     -5.054930   24.088720    3.502010
  C     -4.925200   22.712390    2.995980
  O     -4.068950   21.913700    3.312600
  C     -4.280000   24.724680    4.428220
  C     -4.579890   26.061270    4.773860
  C     -5.676550   26.714640    4.140880
  C     -6.459580   26.029060    3.183580
  C     -5.964570   28.049490    4.490860
  C     -5.209100   28.707590    5.422930
  C     -4.130450   28.062720    6.046280
  C     -3.822440   26.767610    5.728540
  H      3.513290   -1.993580    0.521430
  H      1.047490    0.226370    4.247660
  H      2.225390   -1.164020    5.848260
  H      3.866180   -2.930900    6.351440
  H      5.086800   -4.048310    4.527000
  H      4.678380   -3.406410    2.184510
  H      0.821770    1.920030   -1.801070
  H      0.563810    3.852680    1.533420
  H     -1.649670    9.605990    1.305710
  H     -4.898880   13.077180   -6.044950
  H     -5.286960   11.347060   -6.063360
  H     -3.679880   11.887180   -6.539820
  H     -2.909750   14.204280    1.549980
  H     -4.675870   19.932080    3.032640
  H     -6.819960   21.704920    0.255290
  H     -3.451650   24.211670    4.893810
  H     -7.278570   26.554210    2.718490
  H     -6.797090   28.541440    4.009560
  H     -5.439260   29.729280    5.685610
  H     -3.544940   28.597080    6.779440
  H     -2.993290   26.265370    6.205030

 Total Charge           Charge          ....    0
 Multiplicity           Mult            ....    1
 Number of Electrons    NEL             ....  588
 Basis Dimension        Dim             .... 1277

ORBITAL ENERGIES
----------------

  NO   OCC          E(Eh)            E(eV)
   0   2.0000     -89.001521     -2421.8545
   1   2.0000     -88.997533     -2421.7460
   2   2.0000     -88.997361     -2421.7413
   3   2.0000     -88.995572     -2421.6926
   4   2.0000     -88.987239     -2421.4659
   5   2.0000     -88.976729     -2421.1799
   6   2.0000     -24.810075      -675.1165
   7   2.0000     -19.214421      -522.8510
   8   2.0000     -19.213604      -522.8287
   9   2.0000     -14.435181      -392.8012
  10   2.0000     -14.433476      -392.7548
  11   2.0000     -14.432586      -392.7306
  12   2.0000     -14.429499      -392.6466
  13   2.0000     -14.416638      -392.2967
  14   2.0000     -14.413949      -392.2235
  15   2.0000     -14.411242      -392.1498
  16   2.0000     -14.411039      -392.1443
  17   2.0000     -10.377443      -282.3846
  18   2.0000     -10.370311      -282.1905
  19   2.0000     -10.368821      -282.1500
  20   2.0000     -10.366352      -282.0828
  21   2.0000     -10.365284      -282.0537
  22   2.0000     -10.356742      -281.8213
  23   2.0000     -10.355165      -281.7784
  24   2.0000     -10.347110      -281.5592
  25   2.0000     -10.345630      -281.5189
  26   2.0000     -10.342590      -281.4362
  27   2.0000     -10.342410      -281.4313
  28   2.0000     -10.342300      -281.4283
  29   2.0000     -10.341675      -281.4113
  30   2.0000     -10.340774      -281.3868
  31   2.0000     -10.339237      -281.3450
  32   2.0000     -10.338826      -281.3338
  33   2.0000     -10.338329      -281.3202
  34   2.0000     -10.337757      -281.3047
  35   2.0000     -10.335791      -281.2512
  36   2.0000     -10.335179      -281.2345
  37   2.0000     -10.333183      -281.1802
  38   2.0000     -10.332392      -281.1587
  39   2.0000     -10.330263      -281.1008
  40   2.0000     -10.328589      -281.0552
  41   2.0000     -10.328074      -281.0412
  42   2.0000     -10.327767      -281.0328
  43   2.0000     -10.327314      -281.0205
  44   2.0000     -10.326102      -280.9875
  45   2.0000     -10.324833      -280.9530
  46   2.0000     -10.318024      -280.7677
  47   2.0000     -10.317564      -280.7552
  48   2.0000     -10.317251      -280.7467
  49   2.0000     -10.314993      -280.6852
  50   2.0000     -10.314464      -280.6708
  51   2.0000     -10.314316      -280.6668
  52   2.0000     -10.313780      -280.6522
  53   2.0000     -10.312688      -280.6225
  54   2.0000     -10.310281      -280.5570
  55   2.0000     -10.309507      -280.5360
  56   2.0000     -10.308343      -280.5043
  57   2.0000     -10.308092      -280.4974
  58   2.0000     -10.307038      -280.4688
  59   2.0000     -10.301415      -280.3158
  60   2.0000     -10.299572      -280.2656
  61   2.0000     -10.299515      -280.2641
  62   2.0000     -10.298789      -280.2443
  63   2.0000     -10.296086      -280.1707
  64   2.0000     -10.296046      -280.1697
  65   2.0000     -10.295849      -280.1643
  66   2.0000     -10.295646      -280.1588
  67   2.0000     -10.294723      -280.1336
  68   2.0000     -10.294622      -280.1309
  69   2.0000     -10.294467      -280.1267
  70   2.0000     -10.293681      -280.1053
  71   2.0000     -10.293108      -280.0897
  72   2.0000     -10.288093      -279.9532
  73   2.0000     -10.285209      -279.8748
  74   2.0000     -10.284831      -279.8645
  75   2.0000     -10.284358      -279.8516
  76   2.0000     -10.283973      -279.8411
  77   2.0000     -10.283840      -279.8375
  78   2.0000     -10.283315      -279.8232
  79   2.0000     -10.283304      -279.8229
  80   2.0000     -10.283113      -279.8177
  81   2.0000     -10.282708      -279.8067
  82   2.0000      -8.095736      -220.2962
  83   2.0000      -8.092035      -220.1955
  84   2.0000      -8.091610      -220.1839
  85   2.0000      -8.090312      -220.1486
  86   2.0000      -8.081698      -219.9142
  87   2.0000      -8.072349      -219.6598
  88   2.0000      -6.065091      -165.0395
  89   2.0000      -6.061192      -164.9334
  90   2.0000      -6.060990      -164.9279
  91   2.0000      -6.060866      -164.9245
  92   2.0000      -6.059442      -164.8858
  93   2.0000      -6.057983      -164.8461
  94   2.0000      -6.057060      -164.8210
  95   2.0000      -6.056623      -164.8091
  96   2.0000      -6.055305      -164.7732
  97   2.0000      -6.054506      -164.7515
  98   2.0000      -6.053846      -164.7335
  99   2.0000      -6.052816      -164.7055
 100   2.0000      -6.051289      -164.6639
 101   2.0000      -6.047049      -164.5486
 102   2.0000      -6.043404      -164.4494
 103   2.0000      -6.042234      -164.4176
 104   2.0000      -6.038059      -164.3039
 105   2.0000      -6.033195      -164.1716
 106   2.0000      -1.322334       -35.9825
 107   2.0000      -1.130091       -30.7513
 108   2.0000      -1.128921       -30.7195
 109   2.0000      -1.053462       -28.6662
 110   2.0000      -1.051618       -28.6160
 111   2.0000      -1.036728       -28.2108
 112   2.0000      -1.026213       -27.9247
 113   2.0000      -1.023657       -27.8551
 114   2.0000      -1.018181       -27.7061
 115   2.0000      -1.015874       -27.6433
 116   2.0000      -1.011858       -27.5341
 117   2.0000      -1.008471       -27.4419
 118   2.0000      -1.006240       -27.3812
 119   2.0000      -1.003617       -27.3098
 120   2.0000      -0.997570       -27.1453
 121   2.0000      -0.995881       -27.0993
 122   2.0000      -0.991140       -26.9703
 123   2.0000      -0.990841       -26.9621
 124   2.0000      -0.976255       -26.5653
 125   2.0000      -0.971507       -26.4361
 126   2.0000      -0.968855       -26.3639
 127   2.0000      -0.965428       -26.2706
 128   2.0000      -0.959554       -26.1108
 129   2.0000      -0.930781       -25.3278
 130   2.0000      -0.926604       -25.2142
 131   2.0000      -0.920967       -25.0608
 132   2.0000      -0.916900       -24.9501
 133   2.0000      -0.903060       -24.5735
 134   2.0000      -0.896722       -24.4011
 135   2.0000      -0.888224       -24.1698
 136   2.0000      -0.882217       -24.0063
 137   2.0000      -0.880053       -23.9475
 138   2.0000      -0.879084       -23.9211
 139   2.0000      -0.877737       -23.8845
 140   2.0000      -0.874532       -23.7972
 141   2.0000      -0.866478       -23.5781
 142   2.0000      -0.864408       -23.5217
 143   2.0000      -0.860876       -23.4256
 144   2.0000      -0.860095       -23.4044
 145   2.0000      -0.834430       -22.7060
 146   2.0000      -0.826708       -22.4959
 147   2.0000      -0.825365       -22.4593
 148   2.0000      -0.820432       -22.3251
 149   2.0000      -0.808795       -22.0084
 150   2.0000      -0.800703       -21.7882
 151   2.0000      -0.795086       -21.6354
 152   2.0000      -0.783065       -21.3083
 153   2.0000      -0.779172       -21.2024
 154   2.0000      -0.766487       -20.8572
 155   2.0000      -0.759126       -20.6569
 156   2.0000      -0.758499       -20.6398
 157   2.0000      -0.743595       -20.2342
 158   2.0000      -0.728124       -19.8133
 159   2.0000      -0.718006       -19.5379
 160   2.0000      -0.707036       -19.2394
 161   2.0000      -0.706121       -19.2145
 162   2.0000      -0.701828       -19.0977
 163   2.0000      -0.699969       -19.0471
 164   2.0000      -0.698557       -19.0087
 165   2.0000      -0.694917       -18.9096
 166   2.0000      -0.691077       -18.8052
 167   2.0000      -0.687292       -18.7022
 168   2.0000      -0.684111       -18.6156
 169   2.0000      -0.677903       -18.4467
 170   2.0000      -0.675801       -18.3895
 171   2.0000      -0.673828       -18.3358
 172   2.0000      -0.665067       -18.0974
 173   2.0000      -0.655437       -17.8353
 174   2.0000      -0.649650       -17.6779
 175   2.0000      -0.642381       -17.4801
 176   2.0000      -0.638301       -17.3691
 177   2.0000      -0.632710       -17.2169
 178   2.0000      -0.631408       -17.1815
 179   2.0000      -0.628158       -17.0930
 180   2.0000      -0.624959       -17.0060
 181   2.0000      -0.622587       -16.9414
 182   2.0000      -0.611189       -16.6313
 183   2.0000      -0.606380       -16.5004
 184   2.0000      -0.605348       -16.4724
 185   2.0000      -0.603576       -16.4241
 186   2.0000      -0.601885       -16.3781
 187   2.0000      -0.595559       -16.2060
 188   2.0000      -0.587804       -15.9950
 189   2.0000      -0.583248       -15.8710
 190   2.0000      -0.577932       -15.7263
 191   2.0000      -0.566362       -15.4115
 192   2.0000      -0.563031       -15.3208
 193   2.0000      -0.556699       -15.1486
 194   2.0000      -0.555440       -15.1143
 195   2.0000      -0.553654       -15.0657
 196   2.0000      -0.552840       -15.0435
 197   2.0000      -0.545325       -14.8391
 198   2.0000      -0.544019       -14.8035
 199   2.0000      -0.543614       -14.7925
 200   2.0000      -0.541731       -14.7413
 201   2.0000      -0.537220       -14.6185
 202   2.0000      -0.536109       -14.5883
 203   2.0000      -0.534467       -14.5436
 204   2.0000      -0.531085       -14.4515
 205   2.0000      -0.529952       -14.4207
 206   2.0000      -0.527357       -14.3501
 207   2.0000      -0.524178       -14.2636
 208   2.0000      -0.521172       -14.1818
 209   2.0000      -0.519785       -14.1441
 210   2.0000      -0.517353       -14.0779
 211   2.0000      -0.516776       -14.0622
 212   2.0000      -0.514985       -14.0135
 213   2.0000      -0.512508       -13.9461
 214   2.0000      -0.510636       -13.8951
 215   2.0000      -0.509148       -13.8546
 216   2.0000      -0.508198       -13.8288
 217   2.0000      -0.507808       -13.8182
 218   2.0000      -0.507072       -13.7981
 219   2.0000      -0.505543       -13.7565
 220   2.0000      -0.503818       -13.7096
 221   2.0000      -0.501942       -13.6585
 222   2.0000      -0.499049       -13.5798
 223   2.0000      -0.494344       -13.4518
 224   2.0000      -0.493866       -13.4388
 225   2.0000      -0.490745       -13.3538
 226   2.0000      -0.490291       -13.3415
 227   2.0000      -0.486582       -13.2406
 228   2.0000      -0.484614       -13.1870
 229   2.0000      -0.482147       -13.1199
 230   2.0000      -0.480827       -13.0840
 231   2.0000      -0.479569       -13.0497
 232   2.0000      -0.476911       -12.9774
 233   2.0000      -0.472301       -12.8520
 234   2.0000      -0.465838       -12.6761
 235   2.0000      -0.464349       -12.6356
 236   2.0000      -0.463299       -12.6070
 237   2.0000      -0.462277       -12.5792
 238   2.0000      -0.461793       -12.5660
 239   2.0000      -0.460861       -12.5407
 240   2.0000      -0.456776       -12.4295
 241   2.0000      -0.452223       -12.3056
 242   2.0000      -0.451069       -12.2742
 243   2.0000      -0.449805       -12.2398
 244   2.0000      -0.446727       -12.1561
 245   2.0000      -0.444594       -12.0980
 246   2.0000      -0.444078       -12.0840
 247   2.0000      -0.443703       -12.0738
 248   2.0000      -0.442819       -12.0497
 249   2.0000      -0.441891       -12.0245
 250   2.0000      -0.441070       -12.0021
 251   2.0000      -0.440527       -11.9874
 252   2.0000      -0.439941       -11.9714
 253   2.0000      -0.438044       -11.9198
 254   2.0000      -0.437415       -11.9027
 255   2.0000      -0.436669       -11.8824
 256   2.0000      -0.435529       -11.8513
 257   2.0000      -0.431192       -11.7333
 258   2.0000      -0.431006       -11.7283
 259   2.0000      -0.429994       -11.7007
 260   2.0000      -0.429904       -11.6983
 261   2.0000      -0.429230       -11.6799
 262   2.0000      -0.427653       -11.6370
 263   2.0000      -0.425875       -11.5887
 264   2.0000      -0.424390       -11.5482
 265   2.0000      -0.423963       -11.5366
 266   2.0000      -0.419375       -11.4118
 267   2.0000      -0.417381       -11.3575
 268   2.0000      -0.416180       -11.3248
 269   2.0000      -0.409238       -11.1359
 270   2.0000      -0.406294       -11.0558
 271   2.0000      -0.403166       -10.9707
 272   2.0000      -0.402152       -10.9431
 273   2.0000      -0.397988       -10.8298
 274   2.0000      -0.381456       -10.3799
 275   2.0000      -0.377381       -10.2691
 276   2.0000      -0.370235       -10.0746
 277   2.0000      -0.365684        -9.9508
 278   2.0000      -0.356626        -9.7043
 279   2.0000      -0.355955        -9.6860
 280   2.0000      -0.342500        -9.3199
 281   2.0000      -0.342095        -9.3089
 282   2.0000      -0.334771        -9.1096
 283   2.0000      -0.333075        -9.0634
 284   2.0000      -0.329183        -8.9575
 285   2.0000      -0.325799        -8.8654
 286   2.0000      -0.323423        -8.8008
 287   2.0000      -0.315188        -8.5767
 288   2.0000      -0.314593        -8.5605
 289   2.0000      -0.300187        -8.1685
 290   2.0000      -0.293733        -7.9929
 291   2.0000      -0.289982        -7.8908
 292   2.0000      -0.275154        -7.4873
 293   2.0000      -0.241307        -6.5663
 294   0.0000      -0.119953        -3.2641
 295   0.0000      -0.110392        -3.0039
 296   0.0000      -0.090611        -2.4656
 297   0.0000      -0.088713        -2.4140
 298   0.0000      -0.065446        -1.7809

MULLIKEN ATOMIC CHARGES
-----------------------
   0 C :    0.266307
   1 C :   -0.333980
   2 C :   -0.172295
   3 N :    0.161836
   4 C :   -0.200717
   5 N :    0.164574
   6 C :    0.027087
   7 C :    0.013858
   8 C :   -0.079805
   9 C :    0.093717
  10 C :    0.088862
  11 C :   -0.071905
  12 C :   -0.015411
  13 C :    0.035693
  14 C :    0.034036
  15 C :   -0.013954
  16 C :    0.136487
  17 O :   -0.144055
  18 C :   -0.139463
  19 C :    0.080907
  20 C :   -0.113134
  21 C :   -0.002404
  22 C :   -0.006224
  23 C :   -0.067207
  24 S :    0.213508
  25 C :   -0.107771
  26 C :    0.036179
  27 C :    0.305559
  28 C :   -0.286606
  29 C :   -0.190834
  30 N :    0.183479
  31 C :   -0.182580
  32 N :    0.172574
  33 C :   -0.077148
  34 C :   -0.062923
  35 S :    0.192504
  36 C :   -0.097297
  37 C :   -0.073776
  38 C :    0.069107
  39 C :    0.221757
  40 C :   -0.286099
  41 S :    0.129040
  42 C :    0.114815
  43 F :   -0.185352
  44 C :   -0.096034
  45 S :    0.157234
  46 C :   -0.061863
  47 C :   -0.085591
  48 C :    0.043483
  49 C :   -0.106181
  50 S :    0.217869
  51 C :   -0.080438
  52 C :   -0.019870
  53 C :    0.309356
  54 C :   -0.296731
  55 C :   -0.185993
  56 N :    0.192177
  57 C :   -0.193394
  58 N :    0.178894
  59 C :    0.022472
  60 C :   -0.114950
  61 S :    0.205498
  62 C :    0.029234
  63 C :   -0.095324
  64 C :    0.310916
  65 C :   -0.351852
  66 C :   -0.182839
  67 N :    0.144927
  68 C :   -0.202785
  69 N :    0.153906
  70 C :    0.047348
  71 C :   -0.006011
  72 C :    0.156296
  73 O :   -0.155066
  74 C :   -0.079276
  75 C :    0.097546
  76 C :    0.096917
  77 C :   -0.083984
  78 C :   -0.019584
  79 C :    0.036303
  80 C :    0.034467
  81 C :   -0.015604
  82 H :   -0.012640
  83 H :    0.000446
  84 H :   -0.008855
  85 H :   -0.004969
  86 H :   -0.004982
  87 H :   -0.017931
  88 H :    0.020442
  89 H :    0.027139
  90 H :    0.020224
  91 H :    0.037733
  92 H :    0.045381
  93 H :    0.042852
  94 H :    0.023959
  95 H :    0.035873
  96 H :    0.018230
  97 H :   -0.010526
  98 H :   -0.008265
  99 H :   -0.009838
 100 H :   -0.005411
 101 H :   -0.004759
 102 H :   -0.016524
Sum of atomic charges:   -0.0000000

LOEWDIN ATOMIC CHARGES
----------------------
   0 C :    0.065495
   1 C :   -0.137996
   2 C :   -0.018966
   3 N :   -0.047387
   4 C :   -0.015929
   5 N :   -0.049637
   6 C :   -0.023005
   7 C :   -0.057783
   8 C :    0.032213
   9 C :   -0.009293
  10 C :   -0.005256
  11 C :    0.019724
  12 C :   -0.004952
  13 C :   -0.012743
  14 C :   -0.013307
  15 C :   -0.009577
  16 C :    0.083083
  17 O :   -0.145806
  18 C :   -0.089720
  19 C :    0.041978
  20 C :   -0.182217
  21 C :    0.008693
  22 C :   -0.068614
  23 C :   -0.157177
  24 S :    0.496768
  25 C :   -0.189800
  26 C :   -0.051865
  27 C :    0.081008
  28 C :   -0.094222
  29 C :   -0.018805
  30 N :   -0.023147
  31 C :   -0.012629
  32 N :   -0.029615
  33 C :   -0.035130
  34 C :   -0.173127
  35 S :    0.478448
  36 C :   -0.202888
  37 C :   -0.188642
  38 C :   -0.091583
  39 C :    0.028455
  40 C :   -0.182009
  41 S :    0.394193
  42 C :   -0.055373
  43 F :   -0.063754
  44 C :   -0.177978
  45 S :    0.476664
  46 C :   -0.174222
  47 C :   -0.038045
  48 C :   -0.050384
  49 C :   -0.196268
  50 S :    0.499149
  51 C :   -0.156439
  52 C :   -0.076432
  53 C :    0.075424
  54 C :   -0.092210
  55 C :   -0.020957
  56 N :   -0.016001
  57 C :   -0.016779
  58 N :   -0.026576
  59 C :    0.023311
  60 C :   -0.177762
  61 S :    0.492563
  62 C :    0.042933
  63 C :   -0.096927
  64 C :    0.076767
  65 C :   -0.145136
  66 C :   -0.017370
  67 N :   -0.056683
  68 C :   -0.024787
  69 N :   -0.057180
  70 C :   -0.026439
  71 C :   -0.054923
  72 C :    0.085039
  73 O :   -0.141148
  74 C :    0.033149
  75 C :   -0.008414
  76 C :   -0.006577
  77 C :    0.018994
  78 C :   -0.005772
  79 C :   -0.014016
  80 C :   -0.012853
  81 C :   -0.009084
  82 H :    0.038972
  83 H :    0.040801
  84 H :    0.035138
  85 H :    0.033104
  86 H :    0.032643
  87 H :    0.031547
  88 H :    0.045583
  89 H :    0.042833
  90 H :    0.038781
  91 H :    0.044454
  92 H :    0.043775
  93 H :    0.042857
  94 H :    0.035512
  95 H :    0.044766
  96 H :    0.043333
  97 H :    0.039979
  98 H :    0.038817
  99 H :    0.034504
 100 H :    0.032907
 101 H :    0.032733
 102 H :    0.032226

  Mayer bond orders larger than 0.100000
B(  0-C ,  1-C ) :   1.6507 B(  0-C ,  6-C ) :   0.9971 B(  0-C , 18-C ) :   1.0361
B(  1-C ,  2-C ) :   1.1308 B(  1-C ,  4-C ) :   1.1691 B(  2-C ,  3-N ) :   2.9952
B(  4-C ,  5-N ) :   2.9988 B(  6-C ,  7-C ) :   1.2141 B(  6-C , 11-C ) :   1.4616
B(  7-C ,  8-C ) :   1.4747 B(  7-C , 16-C ) :   0.9220 B(  8-C ,  9-C ) :   1.1863
B(  8-C , 82-H ) :   1.0154 B(  9-C , 10-C ) :   1.2560 B(  9-C , 15-C ) :   1.2444
B( 10-C , 11-C ) :   1.2061 B( 10-C , 12-C ) :   1.2425 B( 11-C , 83-H ) :   0.9941
B( 12-C , 13-C ) :   1.4905 B( 12-C , 84-H ) :   0.9975 B( 13-C , 14-C ) :   1.2589
B( 13-C , 85-H ) :   0.9893 B( 14-C , 15-C ) :   1.4895 B( 14-C , 86-H ) :   0.9895
B( 15-C , 87-H ) :   0.9975 B( 16-C , 17-O ) :   2.2698 B( 16-C , 18-C ) :   0.9396
B( 18-C , 19-C ) :   1.6688 B( 19-C , 20-C ) :   1.1360 B( 19-C , 88-H ) :   0.9316
B( 20-C , 21-C ) :   1.4014 B( 20-C , 24-S ) :   1.0839 B( 21-C , 22-C ) :   1.3568
B( 21-C , 89-H ) :   0.9796 B( 22-C , 23-C ) :   1.4027 B( 22-C , 27-C ) :   1.0034
B( 23-C , 24-S ) :   1.1534 B( 23-C , 25-C ) :   1.2030 B( 25-C , 26-C ) :   1.4280
B( 25-C , 35-S ) :   1.1119 B( 26-C , 27-C ) :   0.9865 B( 26-C , 33-C ) :   1.3193
B( 27-C , 28-C ) :   1.7213 B( 28-C , 29-C ) :   1.1304 B( 28-C , 31-C ) :   1.1362
B( 29-C , 30-N ) :   2.9936 B( 31-C , 32-N ) :   2.9800 B( 33-C , 34-C ) :   1.4199
B( 33-C , 90-H ) :   0.9903 B( 34-C , 35-S ) :   1.1115 B( 34-C , 36-C ) :   1.1929
B( 36-C , 37-C ) :   1.5033 B( 36-C , 44-C ) :   0.1052 B( 36-C , 45-S ) :   1.1273
B( 37-C , 38-C ) :   1.2396 B( 37-C , 41-S ) :   1.0438 B( 38-C , 39-C ) :   1.0741
B( 38-C , 44-C ) :   1.4007 B( 39-C , 40-C ) :   1.6721 B( 39-C , 43-F ) :   1.1285
B( 40-C , 41-S ) :   1.0527 B( 40-C , 42-C ) :   1.0664 B( 42-C , 91-H ) :   0.9552
B( 42-C , 92-H ) :   0.9475 B( 42-C , 93-H ) :   0.9474 B( 44-C , 45-S ) :   1.1249
B( 44-C , 46-C ) :   1.1952 B( 46-C , 47-C ) :   1.4066 B( 46-C , 50-S ) :   1.1235
B( 47-C , 48-C ) :   1.3311 B( 47-C , 94-H ) :   0.9826 B( 48-C , 49-C ) :   1.4145
B( 48-C , 53-C ) :   0.9907 B( 49-C , 50-S ) :   1.0937 B( 49-C , 51-C ) :   1.2146
B( 51-C , 52-C ) :   1.3751 B( 51-C , 61-S ) :   1.1649 B( 52-C , 53-C ) :   0.9975
B( 52-C , 59-C ) :   1.3352 B( 53-C , 54-C ) :   1.7196 B( 54-C , 55-C ) :   1.1332
B( 54-C , 57-C ) :   1.1381 B( 55-C , 56-N ) :   2.9959 B( 57-C , 58-N ) :   2.9870
B( 59-C , 60-C ) :   1.3977 B( 59-C , 95-H ) :   0.9713 B( 60-C , 61-S ) :   1.0711
B( 60-C , 62-C ) :   1.2126 B( 62-C , 63-C ) :   1.5827 B( 62-C , 96-H ) :   0.9217
B( 63-C , 64-C ) :   1.0809 B( 63-C , 72-C ) :   0.9424 B( 64-C , 65-C ) :   1.6218
B( 64-C , 70-C ) :   0.9873 B( 65-C , 66-C ) :   1.1489 B( 65-C , 68-C ) :   1.1399
B( 66-C , 67-N ) :   2.9645 B( 68-C , 69-N ) :   2.9868 B( 70-C , 71-C ) :   1.2149
B( 70-C , 77-C ) :   1.4475 B( 71-C , 72-C ) :   0.9471 B( 71-C , 74-C ) :   1.4733
B( 72-C , 73-O ) :   2.1841 B( 74-C , 75-C ) :   1.1735 B( 74-C , 97-H ) :   1.0175
B( 75-C , 76-C ) :   1.2593 B( 75-C , 81-C ) :   1.2451 B( 76-C , 77-C ) :   1.2040
B( 76-C , 78-C ) :   1.2382 B( 77-C , 98-H ) :   0.9912 B( 78-C , 79-C ) :   1.4887
B( 78-C , 99-H ) :   0.9979 B( 79-C , 80-C ) :   1.2609 B( 79-C ,100-H ) :   0.9880
B( 80-C , 81-C ) :   1.4860 B( 80-C ,101-H ) :   0.9894 B( 81-C ,102-H ) :   0.9986

-----------------------------------------------------------------------------
         ABSORPTION SPECTRUM VIA TRANSITION ELECTRIC DIPOLE MOMENTS
-----------------------------------------------------------------------------
State   Energy  Wavelength   fosc         T2         TX        TY        TZ
        (cm-1)    (nm)                  (au**2)     (au)      (au)      (au)
-----------------------------------------------------------------------------
   0   11000.6    909.0   0.889422161  26.61741   1.55427  -4.91426  -0.22749
   1   12409.4    805.8   0.048151932   1.27743   0.13239  -0.75828  -0.82760
   2   17808.9    561.5   1.588272183  29.36047   1.50201  -5.20589  -0.05594
   3   19707.3    507.4   0.143301652   2.39386  -0.48792   1.10592   0.96578
   4   20132.8    496.7   0.085701231   1.40139   0.37607  -0.35233  -1.06575
   5   21466.6    465.8   0.151680802   2.32618   0.40492  -1.46713  -0.09865
   6   24181.5    413.5   0.053239005   0.72481  -0.18195   0.74240   0.37489
   7   25027.7    399.6   0.033059350   0.43486  -0.48957   0.44147  -0.01690
   8   25132.1    397.9   0.033887839   0.44391   0.22836   0.44608   0.43906
   9   26396.3    378.8   0.057580342   0.71814   0.15610  -0.66296   0.50424
  10   26674.5    374.9   0.019177807   0.23669  -0.22263   0.35178   0.25174
  11   27188.2    367.8   0.005869019   0.07107  -0.21159  -0.15574  -0.04516
  12   27702.2    361.0   0.021514745   0.25568  -0.35371  -0.20515   0.29746
  13   27939.1    357.9   0.107970000   1.27223  -0.63842  -0.34860  -0.86205
  14   27987.9    357.3   0.102830008   1.20955   0.34321  -1.03999  -0.10093
  15   28282.0    353.6   0.030330208   0.35305  -0.26018  -0.17330  -0.50530
  16   28654.7    349.0   0.004289987   0.04929   0.17711  -0.12815  -0.03867
  17   28996.9    344.9   0.118552831   1.34597   0.73689  -0.76447   0.46751
  18   29268.2    341.7   0.060607790   0.68172  -0.47042   0.66591   0.13037
  19   29654.0    337.2   0.138824745   1.54120   0.40473  -1.11809   0.35673
  20   29940.5    334.0   0.120428882   1.32418   0.96815  -0.38028   0.49221
  21   30125.6    331.9   0.253226072   2.76725  -0.18331   1.63644   0.23604
  22   30447.6    328.4   0.294967846   3.18932   0.70367   0.38471   1.59567
  23   30675.3    326.0   0.098528481   1.05742   0.18591  -0.59081  -0.82085
  24   31269.4    319.8   0.250423374   2.63652  -0.38379   0.29324  -1.55024
  25   31358.6    318.9   0.093922713   0.98603  -0.30062  -0.12272  -0.93840
  26   32020.7    312.3   0.309021529   3.17712   0.71451  -1.21723   1.08856
  27   32245.4    310.1   0.136965163   1.39836  -0.77435   0.15086  -0.88090
  28   32369.1    308.9   0.117835968   1.19846   0.29742  -0.46486   0.94547
  29   32586.9    306.9   0.313818730   3.17039   0.37473   1.26288   1.19795
  30   33059.8    302.5   0.026706852   0.26595  -0.22011   0.10166  -0.45515
  31   33129.9    301.8   0.016588133   0.16484  -0.27824  -0.09881  -0.27867
  32   33418.9    299.2   0.155469508   1.53154  -0.56211  -0.24100  -1.07587
  33   33829.9    295.6   0.018020010   0.17536   0.08189  -0.32667  -0.24888
  34   34028.5    293.9   0.217141192   2.10075  -0.38719   1.36228  -0.30828
  35   34244.8    292.0   0.237462576   2.28284   1.02292  -1.09988  -0.16358
  36   34272.3    291.8   0.154955594   1.48847   0.80103  -0.79865   0.45713
  37   34553.2    289.4   0.048569782   0.46276  -0.19876   0.65024  -0.02098
  38   34696.9    288.2   0.352615468   3.34570  -1.38292  -0.73994  -0.94112
  39   34771.9    287.6   0.562485761   5.32548  -0.04189  -1.08264  -2.03755
  40   35019.7    285.6   0.129886090   1.22103  -0.90549   0.32009  -0.54649
  41   35330.8    283.0   0.193319234   1.80134   0.83900  -0.82756   0.64231
  42   35466.9    282.0   0.008292508   0.07697  -0.06083   0.26832   0.03571
  43   35841.0    279.0   0.058567438   0.53796  -0.30973   0.00669  -0.66482
  44   35896.7    278.6   0.003044629   0.02792   0.10945  -0.07076  -0.10458
  45   36172.5    276.5   0.050068989   0.45569  -0.53178   0.37217  -0.18544
  46   36222.2    276.1   0.009957274   0.09050  -0.13791   0.13783  -0.22909
  47   36283.4    275.6   0.009688081   0.08790  -0.08260  -0.07805  -0.27384
  48   36546.8    273.6   0.015601449   0.14054  -0.03726   0.13188  -0.34894
  49   36823.2    271.6   0.153313140   1.37067   0.80403  -0.65711   0.54075
  50   36992.3    270.3   0.082897602   0.73775   0.36798   0.11111   0.76811
  51   37186.0    268.9   0.042722193   0.37822  -0.19489   0.57467   0.09998
  52   37411.8    267.3   0.078316607   0.68916   0.63478  -0.21834   0.48841
  53   37452.9    267.0   0.005936124   0.05218   0.07797   0.17624  -0.12262
  54   38014.6    263.1   0.020884089   0.18086   0.22285   0.18248   0.31289
  55   38636.2    258.8   0.027673556   0.23580   0.05845   0.08878   0.47382
  56   38690.4    258.5   0.018730813   0.15938  -0.04064   0.05154  -0.39379
  57   38844.4    257.4   0.025962300   0.22003  -0.25840   0.24752  -0.30331
  58   38891.9    257.1   0.099424289   0.84161   0.64550  -0.17176   0.62884
  59   39211.6    255.0   0.071511428   0.60039  -0.35184  -0.09955  -0.68315
  60   39307.3    254.4   0.062407564   0.52268  -0.49328   0.52628  -0.04892
  61   39502.9    253.1   0.066995315   0.55833   0.64623  -0.36930   0.06579
  62   39552.5    252.8   0.046420753   0.38638   0.57758  -0.22843   0.02453
  63   39752.4    251.6   0.042830422   0.35470   0.05668  -0.40215  -0.43563

FINAL SINGLE POINT ENERGY     -5562.085672934155

DIPOLE MOMENT
-------------
                                X             Y             Z
Electronic contribution:    -15.47031      -2.40211     -24.36432
Nuclear contribution   :     18.08956       1.88724      21.69156
                        -----------------------------------------
Total Dipole Moment    :      2.61925      -0.51486      -2.67276
                        -----------------------------------------
Magnitude (a.u.)       :      3.77746
Magnitude (Debye)      :      9.60154

Rotational constants in cm-1:     0.001703     0.000157     0.000147
Rotational constants in MHz :    51.067465     4.716124     4.392273

                             ****ORCA TERMINATED NORMALLY****
TOTAL RUN TIME: 0 days 0 hours 12 minutes 30 seconds 553 msec
