                         Program Version 4.2.0 -  RELEASE  -
|  1> # ORCA input file
|  2> # SCF done       -173.526446475763          0.000667518723
|  3> ! CAM-B3LYP def2-SVP def2/J RIJCOSX Grid4 TightSCF
|  4> %maxcore 5000
|  5> %tddft
|  6>     Mode sTDDFT
|  7>     Ethresh 5.0
|  8>     maxcore 5000
|  9> end
| 10>
| 11> %pal
| 12>   nprocs 6
| 13>   end
| 14> * xyz 0 1
| 15>    C        1.32704        -0.99147         2.35825
| 16>    C        0.66395        -0.73569         3.55862
| 17>    C        0.62727         0.70764         3.98747
| 18>    O        1.47748         1.47212         3.62749
| 19>    O       -0.38130         1.11505         4.76086
| 20>    C        0.13633        -1.79732         4.31420
| 21>    C       -0.54806        -1.60001         5.53652
| 22>    N       -1.12302        -1.48749         6.52323
| 23>    C        0.29564        -3.12101         3.88621
| 24>    C        0.96011        -3.34881         2.70340
| 25>    C        1.45790        -2.29637         1.91676
| 26>    C        2.05938        -2.86426         0.71167
| 27>    C        2.43279        -2.13587        -0.38493
| 28>    C        2.33400        -0.72872        -0.47254
| 29>    N        2.27929         0.40669        -0.62471
| 30>    C        2.90374        -2.66230        -1.60749
| 31>    N        3.27782        -3.00833        -2.63660
| 32>    C        2.06955        -4.31122         0.86444
| 33>    C        1.28051        -4.64524         2.06477
| 34>    O        0.91244        -5.73171         2.46587
| 35>    C        2.73963        -5.15519         0.01483
| 36>    C        2.90470        -6.54948         0.02686
| 37>    C        2.50956        -7.55078         0.90221
| 38>    C        2.90917        -8.83011         0.53786
| 39>    C        2.61518       -10.03220         1.36695
| 40>    C        3.62583        -8.84548        -0.66382
| 41>    S        3.81090        -7.24579        -1.30364
| 42>    C        4.12657        -9.95197        -1.39223
| 43>    C        4.91569        -9.92730        -2.53088
| 44>    C        5.18005       -11.18040        -3.08271
| 45>    C        6.00178       -11.36555        -4.31249
| 46>    C        4.55874       -12.20758        -2.37427
| 47>    S        3.70934       -11.58012        -0.98823
| 48>    C        4.42313       -13.60045        -2.64915
| 49>    C        3.44497       -14.32141        -1.99749
| 50>    C        3.10902       -15.64265        -2.23984
| 51>    C        3.95718       -16.49844        -3.06944
| 52>    C        4.99129       -16.01675        -3.79745
| 53>    S        5.44356       -14.35968        -3.85447
| 54>    C        3.42729       -17.81018        -2.91213
| 55>    C        2.31113       -17.77486        -2.07088
| 56>    C        1.73313       -19.05043        -1.89970
| 57>    C        2.41162       -20.00192        -2.59425
| 58>    S        3.76415       -19.39459        -3.48611
| 59>    C        2.06225       -16.41289        -1.67440
| 60>    C        0.99008       -15.92312        -0.90737
| 61>    C        0.59222       -14.60823        -0.94938
| 62>    C       -0.29296       -14.00188        -0.05380
| 63>    C       -0.51744       -12.63854        -0.02876
| 64>    C       -1.37538       -11.91711         0.88449
| 65>    C       -2.23227       -12.45249         1.81506
| 66>    C       -3.04900       -11.68543         2.67026
| 67>    N       -3.74020       -11.11829         3.39093
| 68>    C       -2.43916       -13.82793         2.04225
| 69>    N       -2.66579       -14.92701         2.28854
| 70>    C       -1.20647       -10.48758         0.62616
| 71>    C       -0.31613       -10.33042        -0.46311
| 72>    C        0.16290       -11.65904        -0.89333
| 73>    O        1.00057       -11.85557        -1.76104
| 74>    C        0.02373        -9.10285        -0.97623
| 75>    C       -0.53887        -7.96847        -0.38122
| 76>    C       -1.40152        -8.13198         0.72735
| 77>    C       -1.74810        -9.37683         1.24288
| 78>    S       -1.98149        -6.60590         1.31594
| 79>    C       -1.09570        -5.78526         0.06546
| 80>    C       -0.38117        -6.60255        -0.74319
| 81>   Br       -1.21324        -3.91563        -0.06964
| 82>    H        1.73018        -0.15055         1.81656
| 83>    H       -0.99701         0.42199         5.04062
| 84>    H       -0.08919        -3.94143         4.47319
| 85>    H        3.25754        -4.67719        -0.80799
| 86>    H        1.94092        -7.34313         1.78959
| 87>    H        2.10234        -9.73334         2.27727
| 88>    H        3.53435       -10.55404         1.63175
| 89>    H        1.98054       -10.73291         0.82532
| 90>    H        5.27958        -9.00624        -2.95256
| 91>    H        6.31101       -10.39834        -4.69894
| 92>    H        5.43457       -11.88476        -5.08406
| 93>    H        6.89171       -11.95585        -4.09690
| 94>    H        2.88636       -13.79009        -1.24288
| 95>    H        5.60048       -16.64151        -4.43121
| 96>    H        0.86815       -19.25822        -1.29684
| 97>    H        2.20095       -21.05226        -2.64502
| 98>    H        0.46105       -16.62216        -0.27082
| 99>    H        0.99461       -13.97754        -1.72492
|100>    H       -0.77033       -14.62612         0.68989
|101>    H        0.69308        -9.01973        -1.81869
|102>    H       -2.41665        -9.44518         2.08453
|103>    H        0.22018        -6.26042        -1.56611
|104> *
|105>
|106>                          ****END OF INPUT****

CARTESIAN COORDINATES (ANGSTROEM)
---------------------------------
  C      1.327040   -0.991470    2.358250
  C      0.663950   -0.735690    3.558620
  C      0.627270    0.707640    3.987470
  O      1.477480    1.472120    3.627490
  O     -0.381300    1.115050    4.760860
  C      0.136330   -1.797320    4.314200
  C     -0.548060   -1.600010    5.536520
  N     -1.123020   -1.487490    6.523230
  C      0.295640   -3.121010    3.886210
  C      0.960110   -3.348810    2.703400
  C      1.457900   -2.296370    1.916760
  C      2.059380   -2.864260    0.711670
  C      2.432790   -2.135870   -0.384930
  C      2.334000   -0.728720   -0.472540
  N      2.279290    0.406690   -0.624710
  C      2.903740   -2.662300   -1.607490
  N      3.277820   -3.008330   -2.636600
  C      2.069550   -4.311220    0.864440
  C      1.280510   -4.645240    2.064770
  O      0.912440   -5.731710    2.465870
  C      2.739630   -5.155190    0.014830
  C      2.904700   -6.549480    0.026860
  C      2.509560   -7.550780    0.902210
  C      2.909170   -8.830110    0.537860
  C      2.615180  -10.032200    1.366950
  C      3.625830   -8.845480   -0.663820
  S      3.810900   -7.245790   -1.303640
  C      4.126570   -9.951970   -1.392230
  C      4.915690   -9.927300   -2.530880
  C      5.180050  -11.180400   -3.082710
  C      6.001780  -11.365550   -4.312490
  C      4.558740  -12.207580   -2.374270
  S      3.709340  -11.580120   -0.988230
  C      4.423130  -13.600450   -2.649150
  C      3.444970  -14.321410   -1.997490
  C      3.109020  -15.642650   -2.239840
  C      3.957180  -16.498440   -3.069440
  C      4.991290  -16.016750   -3.797450
  S      5.443560  -14.359680   -3.854470
  C      3.427290  -17.810180   -2.912130
  C      2.311130  -17.774860   -2.070880
  C      1.733130  -19.050430   -1.899700
  C      2.411620  -20.001920   -2.594250
  S      3.764150  -19.394590   -3.486110
  C      2.062250  -16.412890   -1.674400
  C      0.990080  -15.923120   -0.907370
  C      0.592220  -14.608230   -0.949380
  C     -0.292960  -14.001880   -0.053800
  C     -0.517440  -12.638540   -0.028760
  C     -1.375380  -11.917110    0.884490
  C     -2.232270  -12.452490    1.815060
  C     -3.049000  -11.685430    2.670260
  N     -3.740200  -11.118290    3.390930
  C     -2.439160  -13.827930    2.042250
  N     -2.665790  -14.927010    2.288540
  C     -1.206470  -10.487580    0.626160
  C     -0.316130  -10.330420   -0.463110
  C      0.162900  -11.659040   -0.893330
  O      1.000570  -11.855570   -1.761040
  C      0.023730   -9.102850   -0.976230
  C     -0.538870   -7.968470   -0.381220
  C     -1.401520   -8.131980    0.727350
  C     -1.748100   -9.376830    1.242880
  S     -1.981490   -6.605900    1.315940
  C     -1.095700   -5.785260    0.065460
  C     -0.381170   -6.602550   -0.743190
  Br    -1.213240   -3.915630   -0.069640
  H      1.730180   -0.150550    1.816560
  H     -0.997010    0.421990    5.040620
  H     -0.089190   -3.941430    4.473190
  H      3.257540   -4.677190   -0.807990
  H      1.940920   -7.343130    1.789590
  H      2.102340   -9.733340    2.277270
  H      3.534350  -10.554040    1.631750
  H      1.980540  -10.732910    0.825320
  H      5.279580   -9.006240   -2.952560
  H      6.311010  -10.398340   -4.698940
  H      5.434570  -11.884760   -5.084060
  H      6.891710  -11.955850   -4.096900
  H      2.886360  -13.790090   -1.242880
  H      5.600480  -16.641510   -4.431210
  H      0.868150  -19.258220   -1.296840
  H      2.200950  -21.052260   -2.645020
  H      0.461050  -16.622160   -0.270820
  H      0.994610  -13.977540   -1.724920
  H     -0.770330  -14.626120    0.689890
  H      0.693080   -9.019730   -1.818690
  H     -2.416650   -9.445180    2.084530
  H      0.220180   -6.260420   -1.566110

 Total Charge           Charge          ....    0
 Multiplicity           Mult            ....    1
 Number of Electrons    NEL             ....  516
 Basis Dimension        Dim             .... 1086

ORBITAL ENERGIES
----------------

  NO   OCC          E(Eh)            E(eV)
   0   2.0000    -482.893704    -13140.2057
   1   2.0000     -89.000435     -2421.8250
   2   2.0000     -88.981319     -2421.3048
   3   2.0000     -88.979874     -2421.2655
   4   2.0000     -88.975011     -2421.1331
   5   2.0000     -88.969747     -2420.9899
   6   2.0000     -62.570821     -1702.6386
   7   2.0000     -56.404763     -1534.8516
   8   2.0000     -56.402116     -1534.7796
   9   2.0000     -56.402058     -1534.7780
  10   2.0000     -19.270689      -524.3821
  11   2.0000     -19.236526      -523.4525
  12   2.0000     -19.215731      -522.8866
  13   2.0000     -19.211183      -522.7629
  14   2.0000     -14.442655      -393.0046
  15   2.0000     -14.430219      -392.6662
  16   2.0000     -14.423485      -392.4830
  17   2.0000     -14.411318      -392.1519
  18   2.0000     -14.409536      -392.1034
  19   2.0000     -10.419267      -283.5227
  20   2.0000     -10.386904      -282.6420
  21   2.0000     -10.363857      -282.0149
  22   2.0000     -10.359253      -281.8896
  23   2.0000     -10.357768      -281.8492
  24   2.0000     -10.355744      -281.7941
  25   2.0000     -10.354775      -281.7677
  26   2.0000     -10.350658      -281.6557
  27   2.0000     -10.346046      -281.5302
  28   2.0000     -10.339750      -281.3589
  29   2.0000     -10.339603      -281.3549
  30   2.0000     -10.336786      -281.2782
  31   2.0000     -10.336267      -281.2641
  32   2.0000     -10.336096      -281.2595
  33   2.0000     -10.334948      -281.2282
  34   2.0000     -10.332161      -281.1524
  35   2.0000     -10.331550      -281.1358
  36   2.0000     -10.329877      -281.0902
  37   2.0000     -10.329430      -281.0781
  38   2.0000     -10.328566      -281.0546
  39   2.0000     -10.326950      -281.0106
  40   2.0000     -10.325240      -280.9641
  41   2.0000     -10.324000      -280.9303
  42   2.0000     -10.320104      -280.8243
  43   2.0000     -10.318525      -280.7813
  44   2.0000     -10.317725      -280.7596
  45   2.0000     -10.314725      -280.6779
  46   2.0000     -10.313167      -280.6355
  47   2.0000     -10.311798      -280.5983
  48   2.0000     -10.310832      -280.5720
  49   2.0000     -10.309617      -280.5389
  50   2.0000     -10.309287      -280.5300
  51   2.0000     -10.309061      -280.5238
  52   2.0000     -10.307630      -280.4849
  53   2.0000     -10.307287      -280.4756
  54   2.0000     -10.306070      -280.4424
  55   2.0000     -10.305628      -280.4304
  56   2.0000     -10.305115      -280.4164
  57   2.0000     -10.303410      -280.3700
  58   2.0000     -10.301959      -280.3305
  59   2.0000     -10.300039      -280.2783
  60   2.0000     -10.297706      -280.2148
  61   2.0000     -10.297147      -280.1996
  62   2.0000     -10.296834      -280.1911
  63   2.0000     -10.290722      -280.0248
  64   2.0000     -10.290174      -280.0099
  65   2.0000     -10.289930      -280.0032
  66   2.0000     -10.289298      -279.9860
  67   2.0000     -10.289284      -279.9856
  68   2.0000     -10.286942      -279.9219
  69   2.0000     -10.284364      -279.8518
  70   2.0000     -10.275802      -279.6188
  71   2.0000      -8.800037      -239.4612
  72   2.0000      -8.094980      -220.2756
  73   2.0000      -8.076792      -219.7807
  74   2.0000      -8.073926      -219.7027
  75   2.0000      -8.070763      -219.6166
  76   2.0000      -8.065132      -219.4634
  77   2.0000      -6.636069      -180.5766
  78   2.0000      -6.621993      -180.1936
  79   2.0000      -6.621640      -180.1840
  80   2.0000      -6.064557      -165.0250
  81   2.0000      -6.059772      -164.8948
  82   2.0000      -6.057179      -164.8242
  83   2.0000      -6.046012      -164.5204
  84   2.0000      -6.043351      -164.4479
  85   2.0000      -6.042017      -164.4116
  86   2.0000      -6.040486      -164.3700
  87   2.0000      -6.038994      -164.3294
  88   2.0000      -6.038855      -164.3256
  89   2.0000      -6.036171      -164.2526
  90   2.0000      -6.036065      -164.2497
  91   2.0000      -6.034579      -164.2093
  92   2.0000      -6.032009      -164.1393
  93   2.0000      -6.030321      -164.0934
  94   2.0000      -6.027162      -164.0074
  95   2.0000      -2.751997       -74.8857
  96   2.0000      -2.748111       -74.7799
  97   2.0000      -2.747807       -74.7716
  98   2.0000      -2.736641       -74.4678
  99   2.0000      -2.736609       -74.4669
 100   2.0000      -1.196362       -32.5547
 101   2.0000      -1.150357       -31.3028
 102   2.0000      -1.127735       -30.6872
 103   2.0000      -1.110461       -30.2172
 104   2.0000      -1.037127       -28.2217
 105   2.0000      -1.028902       -27.9978
 106   2.0000      -1.027842       -27.9690
 107   2.0000      -1.021328       -27.7917
 108   2.0000      -1.020195       -27.7609
 109   2.0000      -1.014763       -27.6131
 110   2.0000      -1.010136       -27.4872
 111   2.0000      -1.005243       -27.3541
 112   2.0000      -1.003959       -27.3191
 113   2.0000      -0.989553       -26.9271
 114   2.0000      -0.986513       -26.8444
 115   2.0000      -0.983718       -26.7683
 116   2.0000      -0.976690       -26.5771
 117   2.0000      -0.948170       -25.8010
 118   2.0000      -0.941989       -25.6328
 119   2.0000      -0.926221       -25.2038
 120   2.0000      -0.920203       -25.0400
 121   2.0000      -0.917076       -24.9549
 122   2.0000      -0.909357       -24.7449
 123   2.0000      -0.906388       -24.6641
 124   2.0000      -0.896960       -24.4075
 125   2.0000      -0.890626       -24.2352
 126   2.0000      -0.885705       -24.1012
 127   2.0000      -0.882560       -24.0157
 128   2.0000      -0.881411       -23.9844
 129   2.0000      -0.865368       -23.5479
 130   2.0000      -0.860339       -23.4110
 131   2.0000      -0.842997       -22.9391
 132   2.0000      -0.834963       -22.7205
 133   2.0000      -0.828013       -22.5314
 134   2.0000      -0.822349       -22.3773
 135   2.0000      -0.811903       -22.0930
 136   2.0000      -0.802376       -21.8337
 137   2.0000      -0.795487       -21.6463
 138   2.0000      -0.790151       -21.5011
 139   2.0000      -0.778536       -21.1850
 140   2.0000      -0.764047       -20.7908
 141   2.0000      -0.755852       -20.5678
 142   2.0000      -0.751228       -20.4420
 143   2.0000      -0.742222       -20.1969
 144   2.0000      -0.733002       -19.9460
 145   2.0000      -0.723956       -19.6998
 146   2.0000      -0.714606       -19.4454
 147   2.0000      -0.707651       -19.2562
 148   2.0000      -0.701869       -19.0988
 149   2.0000      -0.691433       -18.8148
 150   2.0000      -0.689610       -18.7653
 151   2.0000      -0.682578       -18.5739
 152   2.0000      -0.680906       -18.5284
 153   2.0000      -0.671299       -18.2670
 154   2.0000      -0.666604       -18.1392
 155   2.0000      -0.656192       -17.8559
 156   2.0000      -0.652996       -17.7689
 157   2.0000      -0.646284       -17.5863
 158   2.0000      -0.644086       -17.5265
 159   2.0000      -0.636756       -17.3270
 160   2.0000      -0.629387       -17.1265
 161   2.0000      -0.622887       -16.9496
 162   2.0000      -0.615260       -16.7421
 163   2.0000      -0.610541       -16.6137
 164   2.0000      -0.608164       -16.5490
 165   2.0000      -0.601522       -16.3682
 166   2.0000      -0.594683       -16.1821
 167   2.0000      -0.593639       -16.1537
 168   2.0000      -0.586797       -15.9676
 169   2.0000      -0.579024       -15.7560
 170   2.0000      -0.575032       -15.6474
 171   2.0000      -0.571376       -15.5479
 172   2.0000      -0.564169       -15.3518
 173   2.0000      -0.562955       -15.3188
 174   2.0000      -0.558386       -15.1944
 175   2.0000      -0.553557       -15.0630
 176   2.0000      -0.550536       -14.9808
 177   2.0000      -0.547901       -14.9092
 178   2.0000      -0.546481       -14.8705
 179   2.0000      -0.541307       -14.7297
 180   2.0000      -0.540212       -14.6999
 181   2.0000      -0.538131       -14.6433
 182   2.0000      -0.534887       -14.5550
 183   2.0000      -0.532212       -14.4822
 184   2.0000      -0.531879       -14.4732
 185   2.0000      -0.529771       -14.4158
 186   2.0000      -0.526808       -14.3352
 187   2.0000      -0.525166       -14.2905
 188   2.0000      -0.523847       -14.2546
 189   2.0000      -0.523014       -14.2319
 190   2.0000      -0.520443       -14.1620
 191   2.0000      -0.514951       -14.0125
 192   2.0000      -0.511503       -13.9187
 193   2.0000      -0.510897       -13.9022
 194   2.0000      -0.506961       -13.7951
 195   2.0000      -0.501132       -13.6365
 196   2.0000      -0.498487       -13.5645
 197   2.0000      -0.495029       -13.4704
 198   2.0000      -0.492986       -13.4148
 199   2.0000      -0.490695       -13.3525
 200   2.0000      -0.487119       -13.2552
 201   2.0000      -0.485836       -13.2203
 202   2.0000      -0.483275       -13.1506
 203   2.0000      -0.481663       -13.1067
 204   2.0000      -0.478921       -13.0321
 205   2.0000      -0.475353       -12.9350
 206   2.0000      -0.473867       -12.8946
 207   2.0000      -0.471305       -12.8249
 208   2.0000      -0.469178       -12.7670
 209   2.0000      -0.466051       -12.6819
 210   2.0000      -0.465388       -12.6638
 211   2.0000      -0.461372       -12.5546
 212   2.0000      -0.460577       -12.5329
 213   2.0000      -0.459477       -12.5030
 214   2.0000      -0.457650       -12.4533
 215   2.0000      -0.456374       -12.4186
 216   2.0000      -0.451256       -12.2793
 217   2.0000      -0.450607       -12.2616
 218   2.0000      -0.445280       -12.1167
 219   2.0000      -0.444102       -12.0846
 220   2.0000      -0.442568       -12.0429
 221   2.0000      -0.440425       -11.9846
 222   2.0000      -0.439912       -11.9706
 223   2.0000      -0.439682       -11.9644
 224   2.0000      -0.437433       -11.9032
 225   2.0000      -0.437229       -11.8976
 226   2.0000      -0.435806       -11.8589
 227   2.0000      -0.432513       -11.7693
 228   2.0000      -0.430504       -11.7146
 229   2.0000      -0.428161       -11.6509
 230   2.0000      -0.422708       -11.5025
 231   2.0000      -0.420907       -11.4535
 232   2.0000      -0.419357       -11.4113
 233   2.0000      -0.418046       -11.3756
 234   2.0000      -0.412828       -11.2336
 235   2.0000      -0.410501       -11.1703
 236   2.0000      -0.403493       -10.9796
 237   2.0000      -0.402715       -10.9584
 238   2.0000      -0.398803       -10.8520
 239   2.0000      -0.385907       -10.5011
 240   2.0000      -0.385682       -10.4950
 241   2.0000      -0.381985       -10.3943
 242   2.0000      -0.375518       -10.2184
 243   2.0000      -0.366337        -9.9685
 244   2.0000      -0.358673        -9.7600
 245   2.0000      -0.356765        -9.7081
 246   2.0000      -0.350070        -9.5259
 247   2.0000      -0.344999        -9.3879
 248   2.0000      -0.340824        -9.2743
 249   2.0000      -0.336976        -9.1696
 250   2.0000      -0.332676        -9.0526
 251   2.0000      -0.327522        -8.9123
 252   2.0000      -0.314622        -8.5613
 253   2.0000      -0.311623        -8.4797
 254   2.0000      -0.297642        -8.0993
 255   2.0000      -0.293707        -7.9922
 256   2.0000      -0.274700        -7.4750
 257   2.0000      -0.241281        -6.5656
 258   0.0000      -0.114014        -3.1025
 259   0.0000      -0.097482        -2.6526
 260   0.0000      -0.088908        -2.4193
 261   0.0000      -0.065304        -1.7770
 262   0.0000      -0.055555        -1.5117

MULLIKEN ATOMIC CHARGES
-----------------------
   0 C :   -0.075375
   1 C :    0.004119
   2 C :    0.168784
   3 O :   -0.157118
   4 O :   -0.133577
   5 C :   -0.048627
   6 C :   -0.223855
   7 N :    0.133876
   8 C :   -0.038325
   9 C :    0.029216
  10 C :    0.058383
  11 C :    0.312286
  12 C :   -0.346985
  13 C :   -0.195631
  14 N :    0.175894
  15 C :   -0.189808
  16 N :    0.163299
  17 C :   -0.085613
  18 C :    0.151123
  19 O :   -0.153815
  20 C :    0.057887
  21 C :   -0.116740
  22 C :    0.012259
  23 C :   -0.106002
  24 C :    0.134140
  25 C :   -0.049560
  26 S :    0.140401
  27 C :   -0.048225
  28 C :   -0.038658
  29 C :   -0.080136
  30 C :    0.115556
  31 C :   -0.057504
  32 S :    0.120217
  33 C :   -0.052581
  34 C :   -0.077685
  35 C :    0.058849
  36 C :    0.071070
  37 C :   -0.117343
  38 S :    0.132598
  39 C :   -0.116047
  40 C :    0.071283
  41 C :    0.010507
  42 C :   -0.066302
  43 S :    0.136879
  44 C :    0.064732
  45 C :    0.010028
  46 C :   -0.049598
  47 C :   -0.016579
  48 C :   -0.092126
  49 C :    0.321628
  50 C :   -0.361270
  51 C :   -0.186625
  52 N :    0.145759
  53 C :   -0.193067
  54 N :    0.143488
  55 C :    0.028147
  56 C :   -0.038536
  57 C :    0.133363
  58 O :   -0.186523
  59 C :   -0.061069
  60 C :    0.104863
  61 C :   -0.083228
  62 C :   -0.035006
  63 S :    0.197123
  64 C :   -0.143775
  65 C :    0.059403
  66 Br:    0.013299
  67 H :    0.030953
  68 H :    0.183303
  69 H :    0.014672
  70 H :    0.004925
  71 H :    0.008198
  72 H :    0.023405
  73 H :    0.034808
  74 H :    0.042856
  75 H :   -0.010526
  76 H :    0.018319
  77 H :    0.038242
  78 H :    0.039563
  79 H :    0.025974
  80 H :    0.043276
  81 H :   -0.010776
  82 H :    0.033274
  83 H :    0.001768
  84 H :    0.039266
  85 H :    0.007718
  86 H :   -0.015091
  87 H :   -0.008310
  88 H :   -0.003362
Sum of atomic charges:   -0.0000000

LOEWDIN ATOMIC CHARGES
----------------------
   0 C :    0.036251
   1 C :   -0.034098
   2 C :    0.081280
   3 O :   -0.135953
   4 O :   -0.009433
   5 C :   -0.055994
   6 C :   -0.043537
   7 N :   -0.028745
   8 C :    0.045451
   9 C :   -0.031653
  10 C :    0.001855
  11 C :    0.068613
  12 C :   -0.128398
  13 C :   -0.025367
  14 N :   -0.033221
  15 C :   -0.022281
  16 N :   -0.043409
  17 C :   -0.108048
  18 C :    0.081775
  19 O :   -0.138651
  20 C :    0.048950
  21 C :   -0.184814
  22 C :    0.000729
  23 C :   -0.058928
  24 C :   -0.054858
  25 C :   -0.156251
  26 S :    0.454332
  27 C :   -0.187996
  28 C :   -0.052804
  29 C :   -0.048476
  30 C :   -0.055419
  31 C :   -0.183602
  32 S :    0.524261
  33 C :   -0.166447
  34 C :   -0.025528
  35 C :    0.014025
  36 C :   -0.043757
  37 C :   -0.142815
  38 S :    0.491647
  39 C :   -0.208633
  40 C :   -0.033411
  41 C :   -0.061263
  42 C :   -0.158146
  43 S :    0.428381
  44 C :   -0.065245
  45 C :    0.046268
  46 C :   -0.060151
  47 C :    0.063828
  48 C :   -0.115412
  49 C :    0.073785
  50 C :   -0.149655
  51 C :   -0.019221
  52 N :   -0.061095
  53 C :   -0.020391
  54 N :   -0.060113
  55 C :   -0.020423
  56 C :   -0.055419
  57 C :    0.073413
  58 O :   -0.174561
  59 C :    0.018024
  60 C :   -0.035196
  61 C :   -0.143602
  62 C :   -0.012630
  63 S :    0.442825
  64 C :   -0.277269
  65 C :   -0.066185
  66 Br:    0.144214
  67 H :    0.051007
  68 H :    0.088558
  69 H :    0.051338
  70 H :    0.042835
  71 H :    0.033779
  72 H :    0.041230
  73 H :    0.035027
  74 H :    0.029688
  75 H :    0.027672
  76 H :    0.037737
  77 H :    0.033821
  78 H :    0.034238
  79 H :    0.029841
  80 H :    0.039362
  81 H :    0.033740
  82 H :    0.026262
  83 H :    0.035962
  84 H :    0.031611
  85 H :    0.040442
  86 H :    0.037315
  87 H :    0.040648
  88 H :    0.036483

  Mayer bond orders larger than 0.100000
B(  0-C ,  1-C ) :   1.3729 B(  0-C , 10-C ) :   1.3245 B(  0-C , 67-H ) :   0.9897
B(  1-C ,  2-C ) :   0.8611 B(  1-C ,  5-C ) :   1.3541 B(  2-C ,  3-O ) :   2.1769
B(  2-C ,  4-O ) :   1.2695 B(  4-O , 68-H ) :   0.9393 B(  5-C ,  6-C ) :   1.0561
B(  5-C ,  8-C ) :   1.3488 B(  6-C ,  7-N ) :   2.9963 B(  8-C ,  9-C ) :   1.3709
B(  8-C , 69-H ) :   1.0134 B(  9-C , 10-C ) :   1.3293 B(  9-C , 18-C ) :   0.9310
B( 10-C , 11-C ) :   0.9669 B( 11-C , 12-C ) :   1.6402 B( 11-C , 17-C ) :   1.0726
B( 12-C , 13-C ) :   1.1421 B( 12-C , 15-C ) :   1.1449 B( 13-C , 14-N ) :   2.9829
B( 15-C , 16-N ) :   2.9751 B( 17-C , 18-C ) :   0.9579 B( 17-C , 20-C ) :   1.5537
B( 18-C , 19-O ) :   2.1434 B( 20-C , 21-C ) :   1.2468 B( 20-C , 70-H ) :   0.9109
B( 21-C , 22-C ) :   1.3995 B( 21-C , 26-S ) :   1.0845 B( 22-C , 23-C ) :   1.3219
B( 22-C , 71-H ) :   0.9792 B( 23-C , 24-C ) :   1.1116 B( 23-C , 25-C ) :   1.4146
B( 24-C , 72-H ) :   0.9340 B( 24-C , 73-H ) :   0.9371 B( 24-C , 74-H ) :   0.9273
B( 25-C , 26-S ) :   1.1574 B( 25-C , 27-C ) :   1.1597 B( 27-C , 28-C ) :   1.4216
B( 27-C , 32-S ) :   1.1556 B( 28-C , 29-C ) :   1.3351 B( 28-C , 75-H ) :   0.9933
B( 29-C , 30-C ) :   1.0958 B( 29-C , 31-C ) :   1.4476 B( 30-C , 76-H ) :   0.9418
B( 30-C , 77-H ) :   0.9385 B( 30-C , 78-H ) :   0.9432 B( 31-C , 32-S ) :   1.1378
B( 31-C , 33-C ) :   1.1524 B( 33-C , 34-C ) :   1.4646 B( 33-C , 38-S ) :   1.0788
B( 34-C , 35-C ) :   1.3105 B( 34-C , 79-H ) :   0.9477 B( 35-C , 36-C ) :   1.0782
B( 35-C , 44-C ) :   1.3119 B( 36-C , 37-C ) :   1.5869 B( 36-C , 39-C ) :   1.1694
B( 37-C , 38-S ) :   1.1468 B( 37-C , 80-H ) :   0.9391 B( 39-C , 40-C ) :   1.4434
B( 39-C , 43-S ) :   1.0772 B( 40-C , 41-C ) :   1.2331 B( 40-C , 44-C ) :   1.0804
B( 41-C , 42-C ) :   1.5764 B( 41-C , 81-H ) :   1.0005 B( 42-C , 43-S ) :   1.1611
B( 42-C , 82-H ) :   0.9668 B( 44-C , 45-C ) :   1.2142 B( 45-C , 46-C ) :   1.4483
B( 45-C , 83-H ) :   0.9766 B( 46-C , 47-C ) :   1.2555 B( 46-C , 84-H ) :   0.9724
B( 47-C , 48-C ) :   1.4457 B( 47-C , 85-H ) :   0.9638 B( 48-C , 49-C ) :   1.0882
B( 48-C , 57-C ) :   0.9822 B( 49-C , 50-C ) :   1.6093 B( 49-C , 55-C ) :   0.9926
B( 50-C , 51-C ) :   1.1459 B( 50-C , 53-C ) :   1.1516 B( 51-C , 52-N ) :   2.9664
B( 53-C , 54-N ) :   2.9630 B( 55-C , 56-C ) :   1.2729 B( 55-C , 62-C ) :   1.4167
B( 56-C , 57-C ) :   0.9485 B( 56-C , 59-C ) :   1.4278 B( 57-C , 58-O ) :   2.1080
B( 59-C , 60-C ) :   1.2389 B( 59-C , 86-H ) :   1.0151 B( 60-C , 61-C ) :   1.3227
B( 60-C , 65-C ) :   1.1673 B( 61-C , 62-C ) :   1.3085 B( 61-C , 63-S ) :   1.0930
B( 62-C , 87-H ) :   0.9810 B( 63-S , 64-C ) :   1.0900 B( 64-C , 65-C ) :   1.6121
B( 64-C , 66-Br) :   1.0086 B( 65-C , 88-H ) :   0.9938

-----------------------------------------------------------------------------
         ABSORPTION SPECTRUM VIA TRANSITION ELECTRIC DIPOLE MOMENTS
-----------------------------------------------------------------------------
State   Energy  Wavelength   fosc         T2         TX        TY        TZ
        (cm-1)    (nm)                  (au**2)     (au)      (au)      (au)
-----------------------------------------------------------------------------
   0   12945.8    772.5   0.299477213   7.61573   1.83063   2.02100  -0.42433
   1   17287.8    578.4   0.646739998  12.31588   1.72571  -2.80276  -1.21751
   2   20346.1    491.5   0.552260968   8.93591  -1.25049   2.55322   0.92373
   3   21259.9    470.4   0.540606801   8.37137   1.31485  -2.13770  -1.43972
   4   21628.4    462.4   0.099374329   1.51260   0.43549  -0.93585  -0.66869
   5   22944.6    435.8   0.027059383   0.38825   0.55016  -0.25082  -0.15055
   6   23260.9    429.9   0.502464542   7.11139  -0.51383   2.56116   0.53650
   7   24458.0    408.9   0.126552566   1.70343   0.87628  -0.22210  -0.94140
   8   25615.2    390.4   0.129191614   1.66040  -0.18889  -1.27425  -0.03157
   9   26276.1    380.6   0.027826298   0.34863  -0.49365  -0.18514   0.26584
  10   26544.4    376.7   0.109553771   1.35872   0.01804   1.04304   0.52006
  11   27021.6    370.1   0.035003967   0.42646  -0.38430   0.31088   0.42677
  12   27390.1    365.1   0.036618606   0.44013  -0.09627   0.62588   0.19783
  13   27774.7    360.0   0.005731970   0.06794   0.23824   0.00673  -0.10553
  14   28230.7    354.2   0.072451096   0.84489   0.04591   0.82583  -0.40099
  15   29226.6    342.2   0.030746636   0.34633   0.11752   0.40651  -0.40899
  16   29458.8    339.5   0.006941532   0.07757  -0.07797  -0.23145   0.13388
  17   29747.6    336.2   0.273167134   3.02310   0.07839  -1.64993  -0.54285
  18   30175.3    331.4   0.011368107   0.12403   0.11920  -0.33138  -0.00048
  19   30965.2    322.9   0.140871476   1.49770   0.18303  -1.17238   0.29953
  20   31531.8    317.1   0.063060252   0.65839  -0.52088   0.18544   0.59388
  21   31612.8    316.3   0.007433250   0.07741  -0.01546   0.14024   0.23979
  22   31706.4    315.4   0.037425842   0.38860   0.12034   0.57516   0.20810
  23   31878.9    313.7   0.028293468   0.29219  -0.21813  -0.18360   0.45923
  24   31926.0    313.2   0.143044524   1.47504  -0.30793  -1.10765   0.39157
  25   32306.5    309.5   0.066069949   0.67327  -0.50672   0.44067   0.47151
  26   32659.1    306.2   0.044274997   0.44630   0.07125  -0.53977   0.38714
  27   33026.7    302.8   0.135514038   1.35081   0.14862   1.02755  -0.52236
  28   33408.1    299.3   0.230735773   2.27373  -0.15030   1.36655   0.61942
  29   33592.5    297.7   0.054795908   0.53701   0.23309   0.63602  -0.27957
  30   33867.7    295.3   0.121256534   1.17868  -0.09492  -1.08131  -0.02100
  31   34229.9    292.1   0.102684606   0.98759  -0.36657   0.48814   0.78418
  32   34541.7    289.5   0.093988902   0.89579  -0.42639   0.16269   0.82917
  33   34859.9    286.9   0.041852361   0.39525   0.02502   0.47756   0.40812
  34   34904.0    286.5   0.187032994   1.76408   0.68933   0.51210  -1.01324
  35   35652.1    280.5   0.440554285   4.06808  -0.97339  -1.56764   0.81432
  36   35808.4    279.3   0.179640696   1.65156  -0.73837  -0.30442   1.00683
  37   36101.4    277.0   0.028167043   0.25686  -0.20297  -0.22481   0.40635
  38   36338.1    275.2   0.025035333   0.22681   0.06099  -0.31538   0.35161
  39   36469.0    274.2   0.043803769   0.39542   0.36233   0.00479  -0.51392
  40   36922.8    270.8   0.075583566   0.67392   0.57847  -0.10157  -0.57356
  41   37212.0    268.7   0.090777330   0.80310  -0.72854  -0.05736   0.51869
  42   37296.9    268.1   0.153525576   1.35514   0.65866  -0.70678  -0.64944
  43   37656.1    265.6   0.143479755   1.25438   0.16121  -0.87553  -0.67959
  44   37859.2    264.1   0.019338429   0.16816  -0.09497   0.39848   0.01877
  45   38181.3    261.9   0.103307169   0.89075  -0.06717   0.84718   0.41051
  46   38292.6    261.1   0.062910224   0.54086   0.36664   0.21361  -0.60067
  47   38513.6    259.6   0.051037962   0.43627   0.09271   0.63089   0.17220
  48   38598.3    259.1   0.011242080   0.09589  -0.01402  -0.18485   0.24803
  49   38979.9    256.5   0.107081022   0.90437   0.00156  -0.92394   0.22518
  50   39263.7    254.7   0.128649487   1.07868   0.59195   0.66187  -0.53871
  51   39594.2    252.6   0.041644941   0.34626   0.39496  -0.11787  -0.41997
  52   39786.7    251.3   0.106578407   0.88187   0.47851  -0.63466  -0.50011
  53   39946.1    250.3   0.261055399   2.15146   0.61166   1.24886  -0.46658
  54   40051.2    249.7   0.014522986   0.11938  -0.08093  -0.33532   0.01964
  55   40282.6    248.2   0.095885535   0.78363  -0.33516  -0.81736   0.05669

FINAL SINGLE POINT ENERGY     -7130.393300029901

DIPOLE MOMENT
-------------
                                X             Y             Z
Electronic contribution:    -37.77389      75.30494       7.16448
Nuclear contribution   :     40.83850     -79.79595      -9.73924
                        -----------------------------------------
Total Dipole Moment    :      3.06460      -4.49100      -2.57476
                        -----------------------------------------
Magnitude (a.u.)       :      6.01583
Magnitude (Debye)      :     15.29103

Rotational constants in cm-1:     0.002029     0.000446     0.000389
Rotational constants in MHz :    60.827852    13.375490    11.663889

                             ****ORCA TERMINATED NORMALLY****
TOTAL RUN TIME: 0 days 0 hours 17 minutes 44 seconds 432 msec
