                         Program Version 4.2.0 -  RELEASE  -
|  1> # ORCA input file
|  2> # SCF done       -161.200286375985          0.000540984793
|  3> ! CAM-B3LYP def2-SVP def2/J RIJCOSX Grid4 TightSCF
|  4> %maxcore 5000
|  5> %tddft
|  6>     Mode sTDDFT
|  7>     Ethresh 5.0
|  8>     maxcore 5000
|  9> end
| 10>
| 11> %pal
| 12>   nprocs 6
| 13>   end
| 14> * xyz 0 1
| 15>    C      -11.81593         0.06755        -3.49934
| 16>    C      -10.82759         0.46919        -2.59420
| 17>    C      -11.18424         1.27327        -1.50525
| 18>    C      -12.51199         1.66882        -1.33113
| 19>    C      -13.46701         1.26050        -2.23478
| 20>    C      -13.12174         0.45810        -3.32158
| 21>    O      -10.27653         1.71389        -0.60487
| 22>    C       -8.98861         1.32701        -0.68485
| 23>    C       -8.14000         1.97399         0.35677
| 24>    C       -8.55684         0.47517        -1.65440
| 25>    C       -9.43792         0.05836        -2.75356
| 26>    O       -8.99336        -0.57132        -3.70533
| 27>    N       -7.24663         0.03267        -1.82216
| 28>    C       -6.42846        -0.51553        -0.89206
| 29>    S       -6.96337        -0.88684         0.71428
| 30>    C       -5.38878        -1.52667         1.08140
| 31>    N       -5.17648        -1.97234         2.38172
| 32>    O       -4.08081        -2.42781         2.66241
| 33>    O       -6.11837        -1.86890         3.15710
| 34>    C       -4.52370        -1.47598         0.02130
| 35>    C       -5.09541        -0.89863        -1.12895
| 36>    C       -4.43173        -0.67642        -2.37711
| 37>    C       -3.15435        -1.04428        -2.65601
| 38>    C       -2.51750        -0.78322        -3.88399
| 39>    C       -1.22025        -1.12471        -4.16304
| 40>    C       -0.50224        -0.86159        -5.35735
| 41>    C        0.78901        -1.28942        -5.34228
| 42>    C        1.16977        -1.92614        -4.13816
| 43>    S       -0.17795        -1.96368        -3.02117
| 44>    C        2.39953        -2.45790        -3.81087
| 45>    C        3.58283        -2.44975        -4.58648
| 46>    C        4.65127        -3.03816        -3.98613
| 47>    C        4.36924        -3.56145        -2.69415
| 48>    S        2.68644        -3.25869        -2.27826
| 49>    C        5.19361        -4.21607        -1.82580
| 50>    N        6.50874        -4.44372        -2.08149
| 51>    C        7.37933        -5.12115        -1.30337
| 52>    S        6.88002        -5.95876         0.13125
| 53>    C        8.51438        -6.51869         0.34809
| 54>    N        8.78245        -7.31398         1.45344
| 55>    O        9.92898        -7.71056         1.60802
| 56>    O        7.84359        -7.56338         2.19865
| 57>    C        9.37532        -6.08153        -0.62841
| 58>    C        8.74965        -5.26977        -1.58329
| 59>    C        9.36976        -4.61447        -2.70472
| 60>    C       10.57561        -4.90576        -3.21644
| 61>    C       11.15023        -4.23381        -4.36805
| 62>    C       12.49093        -4.34350        -4.61401
| 63>    O       13.11588        -3.77846        -5.65989
| 64>    C       12.41000        -3.04089        -6.54750
| 65>    C       13.10391        -2.46195        -7.61107
| 66>    C       12.41906        -1.70357        -8.53371
| 67>    C       11.04395        -1.51288        -8.41254
| 68>    C       10.36061        -2.08289        -7.36450
| 69>    C       11.03261        -2.85664        -6.41297
| 70>    C       10.30352        -3.46449        -5.29121
| 71>    O        9.09138        -3.32842        -5.17531
| 72>    C       13.45461        -5.08880        -3.74408
| 73>    H      -11.51482        -0.55372        -4.32883
| 74>    H      -12.76177         2.28898        -0.48506
| 75>    H      -14.49343         1.56489        -2.09825
| 76>    H      -13.88205         0.14618        -4.02054
| 77>    H       -8.53519         2.96650         0.56137
| 78>    H       -7.11029         2.04961         0.01987
| 79>    H       -8.16297         1.40665         1.28765
| 80>    H       -7.11989        -0.29859        -2.78115
| 81>    H       -3.51374        -1.83387         0.09521
| 82>    H       -4.99543        -0.16080        -3.14307
| 83>    H       -2.56647        -1.56107        -1.91026
| 84>    H       -3.07598        -0.26906        -4.65529
| 85>    H       -0.96727        -0.35831        -6.18684
| 86>    H        1.47559        -1.16953        -6.16117
| 87>    H        3.61335        -2.00372        -5.56429
| 88>    H        5.62311        -3.11193        -4.44309
| 89>    H        4.82037        -4.58018        -0.88076
| 90>    H        6.88312        -4.07444        -2.94947
| 91>    H       10.41913        -6.33498        -0.61929
| 92>    H        8.80348        -3.81940        -3.16392
| 93>    H       11.16624        -5.69517        -2.77546
| 94>    H       14.16781        -2.62180        -7.68670
| 95>    H       12.95335        -1.25384        -9.35663
| 96>    H       10.51904        -0.91692        -9.14310
| 97>    H        9.29588        -1.95343        -7.24346
| 98>    H       13.22479        -6.15318        -3.73668
| 99>    H       13.41618        -4.72209        -2.72070
|100>    H       14.45939        -4.95142        -4.13490
|101> *
|102>
|103>                          ****END OF INPUT****

CARTESIAN COORDINATES (ANGSTROEM)
---------------------------------
  C    -11.815930    0.067550   -3.499340
  C    -10.827590    0.469190   -2.594200
  C    -11.184240    1.273270   -1.505250
  C    -12.511990    1.668820   -1.331130
  C    -13.467010    1.260500   -2.234780
  C    -13.121740    0.458100   -3.321580
  O    -10.276530    1.713890   -0.604870
  C     -8.988610    1.327010   -0.684850
  C     -8.140000    1.973990    0.356770
  C     -8.556840    0.475170   -1.654400
  C     -9.437920    0.058360   -2.753560
  O     -8.993360   -0.571320   -3.705330
  N     -7.246630    0.032670   -1.822160
  C     -6.428460   -0.515530   -0.892060
  S     -6.963370   -0.886840    0.714280
  C     -5.388780   -1.526670    1.081400
  N     -5.176480   -1.972340    2.381720
  O     -4.080810   -2.427810    2.662410
  O     -6.118370   -1.868900    3.157100
  C     -4.523700   -1.475980    0.021300
  C     -5.095410   -0.898630   -1.128950
  C     -4.431730   -0.676420   -2.377110
  C     -3.154350   -1.044280   -2.656010
  C     -2.517500   -0.783220   -3.883990
  C     -1.220250   -1.124710   -4.163040
  C     -0.502240   -0.861590   -5.357350
  C      0.789010   -1.289420   -5.342280
  C      1.169770   -1.926140   -4.138160
  S     -0.177950   -1.963680   -3.021170
  C      2.399530   -2.457900   -3.810870
  C      3.582830   -2.449750   -4.586480
  C      4.651270   -3.038160   -3.986130
  C      4.369240   -3.561450   -2.694150
  S      2.686440   -3.258690   -2.278260
  C      5.193610   -4.216070   -1.825800
  N      6.508740   -4.443720   -2.081490
  C      7.379330   -5.121150   -1.303370
  S      6.880020   -5.958760    0.131250
  C      8.514380   -6.518690    0.348090
  N      8.782450   -7.313980    1.453440
  O      9.928980   -7.710560    1.608020
  O      7.843590   -7.563380    2.198650
  C      9.375320   -6.081530   -0.628410
  C      8.749650   -5.269770   -1.583290
  C      9.369760   -4.614470   -2.704720
  C     10.575610   -4.905760   -3.216440
  C     11.150230   -4.233810   -4.368050
  C     12.490930   -4.343500   -4.614010
  O     13.115880   -3.778460   -5.659890
  C     12.410000   -3.040890   -6.547500
  C     13.103910   -2.461950   -7.611070
  C     12.419060   -1.703570   -8.533710
  C     11.043950   -1.512880   -8.412540
  C     10.360610   -2.082890   -7.364500
  C     11.032610   -2.856640   -6.412970
  C     10.303520   -3.464490   -5.291210
  O      9.091380   -3.328420   -5.175310
  C     13.454610   -5.088800   -3.744080
  H    -11.514820   -0.553720   -4.328830
  H    -12.761770    2.288980   -0.485060
  H    -14.493430    1.564890   -2.098250
  H    -13.882050    0.146180   -4.020540
  H     -8.535190    2.966500    0.561370
  H     -7.110290    2.049610    0.019870
  H     -8.162970    1.406650    1.287650
  H     -7.119890   -0.298590   -2.781150
  H     -3.513740   -1.833870    0.095210
  H     -4.995430   -0.160800   -3.143070
  H     -2.566470   -1.561070   -1.910260
  H     -3.075980   -0.269060   -4.655290
  H     -0.967270   -0.358310   -6.186840
  H      1.475590   -1.169530   -6.161170
  H      3.613350   -2.003720   -5.564290
  H      5.623110   -3.111930   -4.443090
  H      4.820370   -4.580180   -0.880760
  H      6.883120   -4.074440   -2.949470
  H     10.419130   -6.334980   -0.619290
  H      8.803480   -3.819400   -3.163920
  H     11.166240   -5.695170   -2.775460
  H     14.167810   -2.621800   -7.686700
  H     12.953350   -1.253840   -9.356630
  H     10.519040   -0.916920   -9.143100
  H      9.295880   -1.953430   -7.243460
  H     13.224790   -6.153180   -3.736680
  H     13.416180   -4.722090   -2.720700
  H     14.459390   -4.951420   -4.134900

 Total Charge           Charge          ....    0
 Multiplicity           Mult            ....    1
 Number of Electrons    NEL             ....  436
 Basis Dimension        Dim             ....  968

ORBITAL ENERGIES
----------------

  NO   OCC          E(Eh)            E(eV)
   0   2.0000     -88.971997     -2421.0511
   1   2.0000     -88.970323     -2421.0056
   2   2.0000     -88.939213     -2420.1590
   3   2.0000     -88.935769     -2420.0653
   4   2.0000     -19.306850      -525.3661
   5   2.0000     -19.305247      -525.3225
   6   2.0000     -19.219927      -523.0008
   7   2.0000     -19.219852      -522.9988
   8   2.0000     -19.218229      -522.9546
   9   2.0000     -19.217159      -522.9255
  10   2.0000     -19.206719      -522.6414
  11   2.0000     -19.195315      -522.3311
  12   2.0000     -14.631841      -398.1526
  13   2.0000     -14.629793      -398.0969
  14   2.0000     -14.478365      -393.9763
  15   2.0000     -14.460057      -393.4782
  16   2.0000     -10.372019      -282.2370
  17   2.0000     -10.368945      -282.1533
  18   2.0000     -10.366178      -282.0780
  19   2.0000     -10.362704      -281.9835
  20   2.0000     -10.358900      -281.8800
  21   2.0000     -10.358092      -281.8580
  22   2.0000     -10.356668      -281.8193
  23   2.0000     -10.355492      -281.7873
  24   2.0000     -10.326985      -281.0115
  25   2.0000     -10.325787      -280.9789
  26   2.0000     -10.325024      -280.9582
  27   2.0000     -10.324754      -280.9508
  28   2.0000     -10.305273      -280.4207
  29   2.0000     -10.303973      -280.3854
  30   2.0000     -10.301535      -280.3190
  31   2.0000     -10.298585      -280.2387
  32   2.0000     -10.296150      -280.1725
  33   2.0000     -10.295139      -280.1450
  34   2.0000     -10.294193      -280.1192
  35   2.0000     -10.293837      -280.1095
  36   2.0000     -10.291393      -280.0430
  37   2.0000     -10.290848      -280.0282
  38   2.0000     -10.290594      -280.0213
  39   2.0000     -10.288241      -279.9573
  40   2.0000     -10.287953      -279.9494
  41   2.0000     -10.286841      -279.9192
  42   2.0000     -10.286682      -279.9148
  43   2.0000     -10.286455      -279.9087
  44   2.0000     -10.285908      -279.8938
  45   2.0000     -10.285231      -279.8754
  46   2.0000     -10.285047      -279.8704
  47   2.0000     -10.284710      -279.8612
  48   2.0000     -10.283337      -279.8238
  49   2.0000     -10.282362      -279.7973
  50   2.0000     -10.281502      -279.7739
  51   2.0000     -10.281464      -279.7728
  52   2.0000     -10.276996      -279.6513
  53   2.0000     -10.276944      -279.6499
  54   2.0000     -10.276820      -279.6465
  55   2.0000     -10.275400      -279.6078
  56   2.0000     -10.270950      -279.4868
  57   2.0000     -10.270449      -279.4731
  58   2.0000      -8.067331      -219.5232
  59   2.0000      -8.065549      -219.4747
  60   2.0000      -8.035582      -218.6593
  61   2.0000      -8.031978      -218.5612
  62   2.0000      -6.037073      -164.2771
  63   2.0000      -6.035239      -164.2272
  64   2.0000      -6.032685      -164.1577
  65   2.0000      -6.030820      -164.1069
  66   2.0000      -6.028642      -164.0477
  67   2.0000      -6.027021      -164.0036
  68   2.0000      -6.005565      -163.4197
  69   2.0000      -6.001714      -163.3149
  70   2.0000      -6.001494      -163.3090
  71   2.0000      -5.997825      -163.2091
  72   2.0000      -5.996027      -163.1602
  73   2.0000      -5.992797      -163.0723
  74   2.0000      -1.299453       -35.3599
  75   2.0000      -1.296302       -35.2742
  76   2.0000      -1.220747       -33.2182
  77   2.0000      -1.219126       -33.1741
  78   2.0000      -1.127548       -30.6821
  79   2.0000      -1.118234       -30.4287
  80   2.0000      -1.115005       -30.3408
  81   2.0000      -1.112458       -30.2715
  82   2.0000      -1.085144       -29.5283
  83   2.0000      -1.066385       -29.0178
  84   2.0000      -0.993435       -27.0327
  85   2.0000      -0.988083       -26.8871
  86   2.0000      -0.985654       -26.8210
  87   2.0000      -0.972190       -26.4546
  88   2.0000      -0.968489       -26.3539
  89   2.0000      -0.965301       -26.2672
  90   2.0000      -0.931552       -25.3488
  91   2.0000      -0.918563       -24.9954
  92   2.0000      -0.907092       -24.6832
  93   2.0000      -0.901683       -24.5360
  94   2.0000      -0.886419       -24.1207
  95   2.0000      -0.882506       -24.0142
  96   2.0000      -0.877604       -23.8808
  97   2.0000      -0.873440       -23.7675
  98   2.0000      -0.863995       -23.5105
  99   2.0000      -0.854381       -23.2489
 100   2.0000      -0.850735       -23.1497
 101   2.0000      -0.848895       -23.0996
 102   2.0000      -0.842758       -22.9326
 103   2.0000      -0.828657       -22.5489
 104   2.0000      -0.822787       -22.3892
 105   2.0000      -0.817725       -22.2514
 106   2.0000      -0.815379       -22.1876
 107   2.0000      -0.807035       -21.9605
 108   2.0000      -0.789207       -21.4754
 109   2.0000      -0.774176       -21.0664
 110   2.0000      -0.760779       -20.7018
 111   2.0000      -0.748422       -20.3656
 112   2.0000      -0.736181       -20.0325
 113   2.0000      -0.728721       -19.8295
 114   2.0000      -0.726288       -19.7633
 115   2.0000      -0.722305       -19.6549
 116   2.0000      -0.712054       -19.3760
 117   2.0000      -0.699917       -19.0457
 118   2.0000      -0.690172       -18.7805
 119   2.0000      -0.688598       -18.7377
 120   2.0000      -0.678953       -18.4753
 121   2.0000      -0.666871       -18.1465
 122   2.0000      -0.661961       -18.0129
 123   2.0000      -0.654139       -17.8000
 124   2.0000      -0.650243       -17.6940
 125   2.0000      -0.644933       -17.5495
 126   2.0000      -0.635940       -17.3048
 127   2.0000      -0.630727       -17.1629
 128   2.0000      -0.623984       -16.9795
 129   2.0000      -0.618872       -16.8404
 130   2.0000      -0.613396       -16.6914
 131   2.0000      -0.612927       -16.6786
 132   2.0000      -0.612655       -16.6712
 133   2.0000      -0.610828       -16.6215
 134   2.0000      -0.608613       -16.5612
 135   2.0000      -0.603691       -16.4273
 136   2.0000      -0.602927       -16.4065
 137   2.0000      -0.594235       -16.1699
 138   2.0000      -0.591896       -16.1063
 139   2.0000      -0.583047       -15.8655
 140   2.0000      -0.580652       -15.8003
 141   2.0000      -0.579153       -15.7595
 142   2.0000      -0.575855       -15.6698
 143   2.0000      -0.572408       -15.5760
 144   2.0000      -0.565815       -15.3966
 145   2.0000      -0.560591       -15.2545
 146   2.0000      -0.557138       -15.1605
 147   2.0000      -0.551629       -15.0106
 148   2.0000      -0.544009       -14.8032
 149   2.0000      -0.540302       -14.7024
 150   2.0000      -0.536427       -14.5969
 151   2.0000      -0.534130       -14.5344
 152   2.0000      -0.528424       -14.3791
 153   2.0000      -0.527702       -14.3595
 154   2.0000      -0.527298       -14.3485
 155   2.0000      -0.524586       -14.2747
 156   2.0000      -0.523421       -14.2430
 157   2.0000      -0.520249       -14.1567
 158   2.0000      -0.514861       -14.0101
 159   2.0000      -0.512978       -13.9588
 160   2.0000      -0.511426       -13.9166
 161   2.0000      -0.510541       -13.8925
 162   2.0000      -0.509558       -13.8658
 163   2.0000      -0.505502       -13.7554
 164   2.0000      -0.499843       -13.6014
 165   2.0000      -0.495708       -13.4889
 166   2.0000      -0.492867       -13.4116
 167   2.0000      -0.490446       -13.3457
 168   2.0000      -0.488500       -13.2928
 169   2.0000      -0.484750       -13.1907
 170   2.0000      -0.483625       -13.1601
 171   2.0000      -0.482431       -13.1276
 172   2.0000      -0.479601       -13.0506
 173   2.0000      -0.474053       -12.8996
 174   2.0000      -0.466813       -12.7026
 175   2.0000      -0.465205       -12.6589
 176   2.0000      -0.464576       -12.6418
 177   2.0000      -0.461192       -12.5497
 178   2.0000      -0.459503       -12.5037
 179   2.0000      -0.455906       -12.4058
 180   2.0000      -0.454246       -12.3606
 181   2.0000      -0.450374       -12.2553
 182   2.0000      -0.449582       -12.2338
 183   2.0000      -0.447523       -12.1777
 184   2.0000      -0.440713       -11.9924
 185   2.0000      -0.436763       -11.8849
 186   2.0000      -0.435941       -11.8626
 187   2.0000      -0.431479       -11.7411
 188   2.0000      -0.430073       -11.7029
 189   2.0000      -0.426846       -11.6151
 190   2.0000      -0.420408       -11.4399
 191   2.0000      -0.417921       -11.3722
 192   2.0000      -0.404791       -11.0149
 193   2.0000      -0.396707       -10.7949
 194   2.0000      -0.392805       -10.6888
 195   2.0000      -0.371267       -10.1027
 196   2.0000      -0.368931       -10.0391
 197   2.0000      -0.367558       -10.0017
 198   2.0000      -0.360529        -9.8105
 199   2.0000      -0.360101        -9.7988
 200   2.0000      -0.350744        -9.5442
 201   2.0000      -0.349661        -9.5148
 202   2.0000      -0.349023        -9.4974
 203   2.0000      -0.347062        -9.4440
 204   2.0000      -0.342965        -9.3326
 205   2.0000      -0.339829        -9.2472
 206   2.0000      -0.337371        -9.1803
 207   2.0000      -0.336696        -9.1620
 208   2.0000      -0.333718        -9.0809
 209   2.0000      -0.325827        -8.8662
 210   2.0000      -0.323404        -8.8003
 211   2.0000      -0.320377        -8.7179
 212   2.0000      -0.316833        -8.6215
 213   2.0000      -0.307152        -8.3580
 214   2.0000      -0.289391        -7.8747
 215   2.0000      -0.267941        -7.2910
 216   2.0000      -0.247771        -6.7422
 217   2.0000      -0.198122        -5.3912
 218   0.0000      -0.069991        -1.9046
 219   0.0000      -0.039534        -1.0758
 220   0.0000      -0.036086        -0.9819
 221   0.0000      -0.033575        -0.9136
 222   0.0000      -0.027254        -0.7416

MULLIKEN ATOMIC CHARGES
-----------------------
   0 C :    0.000115
   1 C :   -0.065041
   2 C :    0.182887
   3 C :   -0.028585
   4 C :    0.043674
   5 C :    0.035285
   6 O :   -0.201273
   7 C :   -0.052436
   8 C :    0.101148
   9 C :   -0.075540
  10 C :    0.188537
  11 O :   -0.210485
  12 N :   -0.051619
  13 C :   -0.102510
  14 S :    0.148622
  15 C :   -0.024582
  16 N :    0.280390
  17 O :   -0.259318
  18 O :   -0.280571
  19 C :    0.008951
  20 C :    0.126250
  21 C :   -0.044000
  22 C :    0.012096
  23 C :   -0.017893
  24 C :   -0.017924
  25 C :    0.035434
  26 C :    0.024537
  27 C :   -0.048478
  28 S :    0.059695
  29 C :   -0.049489
  30 C :    0.014580
  31 C :    0.008547
  32 C :   -0.063396
  33 S :    0.088797
  34 C :    0.052179
  35 N :   -0.024353
  36 C :   -0.111472
  37 S :    0.151515
  38 C :   -0.019707
  39 N :    0.281074
  40 O :   -0.269794
  41 O :   -0.279285
  42 C :    0.009613
  43 C :    0.119943
  44 C :   -0.032354
  45 C :   -0.052090
  46 C :   -0.002797
  47 C :   -0.053547
  48 O :   -0.194032
  49 C :    0.175427
  50 C :   -0.031843
  51 C :    0.037870
  52 C :    0.038839
  53 C :   -0.007708
  54 C :   -0.050328
  55 C :    0.172382
  56 O :   -0.228841
  57 C :    0.087018
  58 H :    0.002025
  59 H :   -0.010793
  60 H :    0.001284
  61 H :   -0.004252
  62 H :    0.034726
  63 H :    0.048002
  64 H :    0.069809
  65 H :    0.152983
  66 H :    0.007471
  67 H :   -0.030605
  68 H :   -0.002658
  69 H :   -0.021496
  70 H :   -0.016901
  71 H :   -0.016802
  72 H :   -0.014312
  73 H :   -0.002111
  74 H :    0.021149
  75 H :    0.156054
  76 H :    0.001351
  77 H :    0.000898
  78 H :   -0.027756
  79 H :   -0.013543
  80 H :   -0.001462
  81 H :   -0.007840
  82 H :   -0.003909
  83 H :    0.056622
  84 H :    0.053093
  85 H :    0.034855
Sum of atomic charges:   -0.0000000

LOEWDIN ATOMIC CHARGES
----------------------
   0 C :    0.023592
   1 C :   -0.088793
   2 C :    0.068299
   3 C :   -0.036511
   4 C :    0.005270
   5 C :   -0.028083
   6 O :    0.001704
   7 C :    0.056678
   8 C :   -0.060130
   9 C :   -0.083190
  10 C :    0.067095
  11 O :   -0.192978
  12 N :    0.018419
  13 C :   -0.099000
  14 S :    0.462749
  15 C :   -0.219369
  16 N :    0.274027
  17 O :   -0.225306
  18 O :   -0.247403
  19 C :    0.005813
  20 C :   -0.107497
  21 C :   -0.030906
  22 C :   -0.030802
  23 C :   -0.061338
  24 C :   -0.144553
  25 C :   -0.039084
  26 C :   -0.033267
  27 C :   -0.185372
  28 S :    0.360622
  29 C :   -0.178734
  30 C :   -0.025802
  31 C :   -0.048609
  32 C :   -0.187557
  33 S :    0.365452
  34 C :   -0.014011
  35 N :    0.056366
  36 C :   -0.096495
  37 S :    0.448088
  38 C :   -0.219285
  39 N :    0.274506
  40 O :   -0.235876
  41 O :   -0.245010
  42 C :    0.004895
  43 C :   -0.112034
  44 C :   -0.019278
  45 C :   -0.032587
  46 C :   -0.113713
  47 C :    0.085043
  48 O :    0.005230
  49 C :    0.061800
  50 C :   -0.038462
  51 C :    0.000796
  52 C :   -0.029600
  53 C :    0.020254
  54 C :   -0.085411
  55 C :    0.082541
  56 O :   -0.202792
  57 C :   -0.053097
  58 H :    0.040433
  59 H :    0.037888
  60 H :    0.035493
  61 H :    0.033132
  62 H :    0.044929
  63 H :    0.044278
  64 H :    0.041089
  65 H :    0.089473
  66 H :    0.043707
  67 H :    0.023571
  68 H :    0.020506
  69 H :    0.030705
  70 H :    0.031773
  71 H :    0.030177
  72 H :    0.032455
  73 H :    0.032227
  74 H :    0.027423
  75 H :    0.100694
  76 H :    0.041311
  77 H :    0.021830
  78 H :    0.022540
  79 H :    0.036543
  80 H :    0.034157
  81 H :    0.031471
  82 H :    0.036594
  83 H :    0.048261
  84 H :    0.048059
  85 H :    0.041977

  Mayer bond orders larger than 0.100000
B(  0-C ,  1-C ) :   1.3273 B(  0-C ,  5-C ) :   1.4119 B(  0-C , 58-H ) :   0.9997
B(  1-C ,  2-C ) :   1.3266 B(  1-C , 10-C ) :   1.0193 B(  2-C ,  3-C ) :   1.3455
B(  2-C ,  6-O ) :   1.0982 B(  3-C ,  4-C ) :   1.4226 B(  3-C , 59-H ) :   0.9947
B(  4-C ,  5-C ) :   1.3188 B(  4-C , 60-H ) :   0.9904 B(  5-C , 61-H ) :   0.9938
B(  6-O ,  7-C ) :   1.1240 B(  7-C ,  8-C ) :   1.1178 B(  7-C ,  9-C ) :   1.5583
B(  8-C , 62-H ) :   0.9256 B(  8-C , 63-H ) :   0.9524 B(  8-C , 64-H ) :   0.9279
B(  9-C , 10-C ) :   1.0279 B(  9-C , 12-N ) :   1.1191 B( 10-C , 11-O ) :   2.1132
B( 12-N , 13-C ) :   1.2139 B( 12-N , 65-H ) :   0.8638 B( 13-C , 14-S ) :   1.1324
B( 13-C , 20-C ) :   1.3454 B( 14-S , 15-C ) :   1.0708 B( 15-C , 16-N ) :   0.9883
B( 15-C , 19-C ) :   1.4779 B( 16-N , 17-O ) :   1.5226 B( 16-N , 18-O ) :   1.4973
B( 17-O , 18-O ) :   0.2492 B( 19-C , 20-C ) :   1.2388 B( 19-C , 66-H ) :   0.9980
B( 20-C , 21-C ) :   1.0730 B( 21-C , 22-C ) :   1.6723 B( 21-C , 67-H ) :   0.9790
B( 22-C , 23-C ) :   1.1453 B( 22-C , 68-H ) :   0.9673 B( 23-C , 24-C ) :   1.5713
B( 23-C , 69-H ) :   0.9844 B( 24-C , 25-C ) :   1.1375 B( 24-C , 28-S ) :   1.0285
B( 25-C , 26-C ) :   1.5938 B( 25-C , 70-H ) :   0.9984 B( 26-C , 27-C ) :   1.1898
B( 26-C , 71-H ) :   0.9924 B( 27-C , 28-S ) :   1.0384 B( 27-C , 29-C ) :   1.5135
B( 29-C , 30-C ) :   1.1902 B( 29-C , 33-S ) :   1.0473 B( 30-C , 31-C ) :   1.6342
B( 30-C , 72-H ) :   0.9912 B( 31-C , 32-C ) :   1.1252 B( 31-C , 73-H ) :   0.9841
B( 32-C , 33-S ) :   1.0203 B( 32-C , 34-C ) :   1.6102 B( 34-C , 35-N ) :   1.1504
B( 34-C , 74-H ) :   0.9469 B( 35-N , 36-C ) :   1.2594 B( 35-N , 75-H ) :   0.8967
B( 36-C , 37-S ) :   1.1310 B( 36-C , 43-C ) :   1.3279 B( 37-S , 38-C ) :   1.0572
B( 38-C , 39-N ) :   0.9988 B( 38-C , 42-C ) :   1.4662 B( 39-N , 40-O ) :   1.5135
B( 39-N , 41-O ) :   1.4944 B( 40-O , 41-O ) :   0.2462 B( 42-C , 43-C ) :   1.2554
B( 42-C , 76-H ) :   1.0005 B( 43-C , 44-C ) :   1.0412 B( 44-C , 45-C ) :   1.7745
B( 44-C , 77-H ) :   0.9513 B( 45-C , 46-C ) :   1.0772 B( 45-C , 78-H ) :   0.9615
B( 46-C , 47-C ) :   1.5265 B( 46-C , 55-C ) :   1.0153 B( 47-C , 48-O ) :   1.1544
B( 47-C , 57-C ) :   1.1033 B( 48-O , 49-C ) :   1.0870 B( 49-C , 50-C ) :   1.3471
B( 49-C , 54-C ) :   1.3285 B( 50-C , 51-C ) :   1.4196 B( 50-C , 79-H ) :   0.9948
B( 51-C , 52-C ) :   1.3213 B( 51-C , 80-H ) :   0.9903 B( 52-C , 53-C ) :   1.4068
B( 52-C , 81-H ) :   0.9944 B( 53-C , 54-C ) :   1.3346 B( 53-C , 82-H ) :   0.9959
B( 54-C , 55-C ) :   1.0020 B( 55-C , 56-O ) :   2.0817 B( 57-C , 83-H ) :   0.9387
B( 57-C , 84-H ) :   0.9454 B( 57-C , 85-H ) :   0.9429

-----------------------------------------------------------------------------
         ABSORPTION SPECTRUM VIA TRANSITION ELECTRIC DIPOLE MOMENTS
-----------------------------------------------------------------------------
State   Energy  Wavelength   fosc         T2         TX        TY        TZ
        (cm-1)    (nm)                  (au**2)     (au)      (au)      (au)
-----------------------------------------------------------------------------
   0   14508.6    689.2   1.823608168  41.37915   6.00655  -2.26895   0.39041
   1   21019.2    475.8   0.203272529   3.18374   0.85709  -0.81902   1.33355
   2   22518.8    444.1   0.152320580   2.22684  -0.97386  -0.31453   1.08605
   3   24376.2    410.2   0.326448307   4.40883  -0.77938  -0.64643   1.83943
   4   24602.7    406.5   0.013237066   0.17713   0.11504   0.13255   0.38252
   5   25560.0    391.2   0.038214274   0.49220   0.16892  -0.16895   0.65964
   6   26155.9    382.3   0.005451169   0.06861   0.00389   0.14347   0.21912
   7   28508.4    350.8   0.021570597   0.24910   0.26970   0.17217  -0.38303
   8   30137.9    331.8   0.208102162   2.27321   0.05840   0.47385  -1.43013
   9   30548.1    327.4   0.304656900   3.28324  -1.50938   0.75578  -0.65864
  10   31632.0    316.1   0.001327638   0.01382  -0.07742  -0.01489   0.08719
  11   31868.4    313.8   0.090585800   0.93578  -0.31731  -0.48868   0.77220
  12   33276.7    300.5   0.043591449   0.43126   0.28874   0.46430   0.36375
  13   33409.6    299.3   0.264741937   2.60872  -0.26784  -0.63944   1.45880
  14   33424.1    299.2   0.025203060   0.24824  -0.25456  -0.13032   0.40799
  15   34163.5    292.7   0.081131179   0.78181   0.81256  -0.29894   0.17943
  16   34175.5    292.6   0.035869029   0.34553   0.30503   0.10010  -0.49241
  17   35377.5    282.7   0.040727284   0.37900   0.44822  -0.25492   0.33632
  18   35446.6    282.1   0.008169950   0.07588  -0.02983   0.11424  -0.24888
  19   36378.7    274.9   0.414083980   3.74728  -1.18419  -0.52190   1.43965
  20   37081.0    269.7   0.065975815   0.58574  -0.32806   0.39472  -0.56773
  21   37206.6    268.8   0.291334679   2.57779  -0.75932  -0.39163   1.35936
  22   37795.9    264.6   0.086397114   0.75254   0.78924  -0.28091  -0.22525
  23   37952.5    263.5   0.049382706   0.42836   0.52897  -0.09323  -0.37397
  24   38276.7    261.3   0.002263240   0.01947  -0.00334  -0.02510  -0.13720
  25   38573.2    259.2   0.002486016   0.02122  -0.07353   0.05632  -0.11242
  26   39880.8    250.7   0.020080892   0.16577  -0.32495   0.19558   0.14807
  27   40217.9    248.6   0.035798462   0.29304  -0.21234  -0.00665  -0.49790

FINAL SINGLE POINT ENERGY     -4027.173947310903

DIPOLE MOMENT
-------------
                                X             Y             Z
Electronic contribution:     -9.84168     -14.54449      26.08992
Nuclear contribution   :      9.76233      17.80714     -30.61604
                        -----------------------------------------
Total Dipole Moment    :     -0.07935       3.26265      -4.52611
                        -----------------------------------------
Magnitude (a.u.)       :      5.58004
Magnitude (Debye)      :     14.18334

Rotational constants in cm-1:     0.002362     0.000269     0.000244
Rotational constants in MHz :    70.806938     8.052393     7.323500

                             ****ORCA TERMINATED NORMALLY****
TOTAL RUN TIME: 0 days 0 hours 6 minutes 29 seconds 625 msec
