                         Program Version 4.2.0 -  RELEASE  -
|  1> # ORCA input file
|  2> # SCF done       -180.251665624304          0.000946569598
|  3> ! CAM-B3LYP def2-SVP def2/J RIJCOSX Grid4 TightSCF
|  4> %maxcore 5000
|  5> %tddft
|  6>     Mode sTDDFT
|  7>     Ethresh 5.0
|  8>     maxcore 5000
|  9> end
| 10>
| 11> %pal
| 12>   nprocs 6
| 13>   end
| 14> * xyz 0 1
| 15>    C        0.13822         0.69143        -1.49908
| 16>    C       -0.12433        -0.66129        -1.56856
| 17>    C        0.86024        -1.64703        -1.76420
| 18>    N        1.61346        -2.50186        -1.91888
| 19>    C       -1.39207        -1.26159        -1.45489
| 20>    N       -2.38449        -1.83760        -1.37571
| 21>    C        1.46942         1.28925        -1.61686
| 22>    C        1.34532         2.69278        -1.48508
| 23>    C        2.41990         3.54292        -1.55347
| 24>    C        3.68453         2.98065        -1.76502
| 25>    C        3.79908         1.57892        -1.89579
| 26>    C        2.70908         0.71778        -1.82452
| 27>    S        5.44861         1.09401        -2.15699
| 28>    C        5.95255         2.76154        -2.08481
| 29>    C        4.94162         3.63698        -1.87790
| 30>   Br        7.76778         3.19004        -2.29653
| 31>    C       -0.07998         3.03533        -1.27919
| 32>    O       -0.52828         4.15747        -1.12793
| 33>    C       -0.80406         1.75474        -1.30129
| 34>    C       -2.18035         1.62822        -1.16164
| 35>    C       -3.05491         2.68314        -0.97814
| 36>    C       -4.43148         2.52618        -0.85631
| 37>    C       -5.37712         3.54829        -0.67987
| 38>    C       -6.67353         3.10219        -0.60215
| 39>    C       -6.79404         1.71140        -0.71226
| 40>    S       -5.22816         0.97088        -0.91550
| 41>    C       -7.96977         0.95228        -0.68074
| 42>    C       -9.28337         1.41581        -0.55599
| 43>    C      -10.22429         0.41144        -0.57224
| 44>    C       -9.68430        -0.87062        -0.70569
| 45>    S       -7.94245        -0.78455        -0.81293
| 46>    C      -10.39660        -2.07292        -0.75669
| 47>    C       -9.83672        -3.31806        -0.86799
| 48>    C      -10.56924        -4.50857        -0.92909
| 49>    C      -10.06187        -5.80781        -1.01704
| 50>    C      -11.02942        -6.78653        -1.06138
| 51>    C      -12.33385        -6.28624        -1.01516
| 52>    S      -12.31534        -4.54410        -0.90749
| 53>    C      -13.53728        -6.99569        -1.05057
| 54>    C      -13.72426        -8.38383        -1.10781
| 55>    C      -15.04210        -8.75986        -1.13089
| 56>    C      -15.94962        -7.68421        -1.09881
| 57>    S      -15.07393        -6.17029        -1.02821
| 58>    C      -17.32820        -7.78797        -1.13062
| 59>    C      -18.25779        -6.75612        -1.11044
| 60>    S      -17.82059        -5.06707        -0.99448
| 61>    C      -19.49398        -4.57443        -1.01417
| 62>    C      -20.33364        -5.67937        -1.16285
| 63>    C      -19.65757        -6.90003        -1.18565
| 64>    S      -20.36194        -8.49366        -1.38267
| 65>    C      -21.78300        -8.50118        -0.21473
| 66>    C      -23.08674        -8.79068        -0.92875
| 67>    S      -22.07502        -5.46617        -1.38885
| 68>    C      -22.09183        -4.61859        -3.02473
| 69>    C      -22.97045        -3.38452        -3.00300
| 70>    C      -19.89212        -3.23171        -0.90013
| 71>    C      -19.03756        -2.17150        -0.91260
| 72>    C      -19.45998        -0.83316        -0.79708
| 73>    C      -20.74859        -0.30699        -0.63394
| 74>    N      -21.89516        -1.00711        -0.53963
| 75>    C      -23.00214        -0.32774        -0.37038
| 76>    C      -24.26747        -1.10893        -0.24555
| 77>    C      -23.01031         1.10725        -0.30990
| 78>    C      -24.28856         1.85758        -0.13747
| 79>    N      -21.91547         1.81042        -0.40588
| 80>    C      -20.75812         1.12741        -0.56121
| 81>    C      -19.49838         1.67506        -0.66895
| 82>    S      -18.30695         0.46773        -0.85263
| 83>    H        2.29179         4.60892        -1.44805
| 84>    H        2.85182        -0.34424        -1.93222
| 85>    H        5.07321         4.70142        -1.80845
| 86>    H       -2.60875         0.63444        -1.20397
| 87>    H       -2.66307         3.68893        -0.92981
| 88>    H       -5.08481         4.58121        -0.61641
| 89>    H       -7.52440         3.74565        -0.46860
| 90>    H       -9.51995         2.45997        -0.46139
| 91>    H      -11.28432         0.57563        -0.49046
| 92>    H      -11.47567        -1.99306        -0.70124
| 93>    H       -8.75877        -3.40766        -0.91123
| 94>    H       -9.00450        -6.00259        -1.04499
| 95>    H      -10.81835        -7.83833        -1.12999
| 96>    H      -12.90029        -9.07377        -1.12849
| 97>    H      -15.38177        -9.77942        -1.17407
| 98>    H      -17.73854        -8.78841        -1.18571
| 99>    H      -21.80057        -7.53299         0.27970
|100>    H      -21.55189        -9.28060         0.51208
|101>    H      -23.31109        -8.00116        -1.64105
|102>    H      -23.89548        -8.84386        -0.20311
|103>    H      -23.02931        -9.73812        -1.45956
|104>    H      -22.46386        -5.35324        -3.74026
|105>    H      -21.05903        -4.37095        -3.26246
|106>    H      -23.98457        -3.64529        -2.70716
|107>    H      -23.00226        -2.94497        -3.99846
|108>    H      -22.58156        -2.64259        -2.30892
|109>    H      -20.94950        -3.04127        -0.78362
|110>    H      -17.97490        -2.34341        -1.03026
|111>    H      -24.04026        -2.17119        -0.23332
|112>    H      -24.93020        -0.89395        -1.08340
|113>    H      -24.78928        -0.84306         0.67217
|114>    H      -24.98678         1.61125        -0.93598
|115>    H      -24.08057         2.92358        -0.15441
|116>    H      -24.75609         1.59856         0.81160
|117>    H      -19.22851         2.71093        -0.64498
|118> *
|119>
|120>                          ****END OF INPUT****

CARTESIAN COORDINATES (ANGSTROEM)
---------------------------------
  C      0.138220    0.691430   -1.499080
  C     -0.124330   -0.661290   -1.568560
  C      0.860240   -1.647030   -1.764200
  N      1.613460   -2.501860   -1.918880
  C     -1.392070   -1.261590   -1.454890
  N     -2.384490   -1.837600   -1.375710
  C      1.469420    1.289250   -1.616860
  C      1.345320    2.692780   -1.485080
  C      2.419900    3.542920   -1.553470
  C      3.684530    2.980650   -1.765020
  C      3.799080    1.578920   -1.895790
  C      2.709080    0.717780   -1.824520
  S      5.448610    1.094010   -2.156990
  C      5.952550    2.761540   -2.084810
  C      4.941620    3.636980   -1.877900
  Br     7.767780    3.190040   -2.296530
  C     -0.079980    3.035330   -1.279190
  O     -0.528280    4.157470   -1.127930
  C     -0.804060    1.754740   -1.301290
  C     -2.180350    1.628220   -1.161640
  C     -3.054910    2.683140   -0.978140
  C     -4.431480    2.526180   -0.856310
  C     -5.377120    3.548290   -0.679870
  C     -6.673530    3.102190   -0.602150
  C     -6.794040    1.711400   -0.712260
  S     -5.228160    0.970880   -0.915500
  C     -7.969770    0.952280   -0.680740
  C     -9.283370    1.415810   -0.555990
  C    -10.224290    0.411440   -0.572240
  C     -9.684300   -0.870620   -0.705690
  S     -7.942450   -0.784550   -0.812930
  C    -10.396600   -2.072920   -0.756690
  C     -9.836720   -3.318060   -0.867990
  C    -10.569240   -4.508570   -0.929090
  C    -10.061870   -5.807810   -1.017040
  C    -11.029420   -6.786530   -1.061380
  C    -12.333850   -6.286240   -1.015160
  S    -12.315340   -4.544100   -0.907490
  C    -13.537280   -6.995690   -1.050570
  C    -13.724260   -8.383830   -1.107810
  C    -15.042100   -8.759860   -1.130890
  C    -15.949620   -7.684210   -1.098810
  S    -15.073930   -6.170290   -1.028210
  C    -17.328200   -7.787970   -1.130620
  C    -18.257790   -6.756120   -1.110440
  S    -17.820590   -5.067070   -0.994480
  C    -19.493980   -4.574430   -1.014170
  C    -20.333640   -5.679370   -1.162850
  C    -19.657570   -6.900030   -1.185650
  S    -20.361940   -8.493660   -1.382670
  C    -21.783000   -8.501180   -0.214730
  C    -23.086740   -8.790680   -0.928750
  S    -22.075020   -5.466170   -1.388850
  C    -22.091830   -4.618590   -3.024730
  C    -22.970450   -3.384520   -3.003000
  C    -19.892120   -3.231710   -0.900130
  C    -19.037560   -2.171500   -0.912600
  C    -19.459980   -0.833160   -0.797080
  C    -20.748590   -0.306990   -0.633940
  N    -21.895160   -1.007110   -0.539630
  C    -23.002140   -0.327740   -0.370380
  C    -24.267470   -1.108930   -0.245550
  C    -23.010310    1.107250   -0.309900
  C    -24.288560    1.857580   -0.137470
  N    -21.915470    1.810420   -0.405880
  C    -20.758120    1.127410   -0.561210
  C    -19.498380    1.675060   -0.668950
  S    -18.306950    0.467730   -0.852630
  H      2.291790    4.608920   -1.448050
  H      2.851820   -0.344240   -1.932220
  H      5.073210    4.701420   -1.808450
  H     -2.608750    0.634440   -1.203970
  H     -2.663070    3.688930   -0.929810
  H     -5.084810    4.581210   -0.616410
  H     -7.524400    3.745650   -0.468600
  H     -9.519950    2.459970   -0.461390
  H    -11.284320    0.575630   -0.490460
  H    -11.475670   -1.993060   -0.701240
  H     -8.758770   -3.407660   -0.911230
  H     -9.004500   -6.002590   -1.044990
  H    -10.818350   -7.838330   -1.129990
  H    -12.900290   -9.073770   -1.128490
  H    -15.381770   -9.779420   -1.174070
  H    -17.738540   -8.788410   -1.185710
  H    -21.800570   -7.532990    0.279700
  H    -21.551890   -9.280600    0.512080
  H    -23.311090   -8.001160   -1.641050
  H    -23.895480   -8.843860   -0.203110
  H    -23.029310   -9.738120   -1.459560
  H    -22.463860   -5.353240   -3.740260
  H    -21.059030   -4.370950   -3.262460
  H    -23.984570   -3.645290   -2.707160
  H    -23.002260   -2.944970   -3.998460
  H    -22.581560   -2.642590   -2.308920
  H    -20.949500   -3.041270   -0.783620
  H    -17.974900   -2.343410   -1.030260
  H    -24.040260   -2.171190   -0.233320
  H    -24.930200   -0.893950   -1.083400
  H    -24.789280   -0.843060    0.672170
  H    -24.986780    1.611250   -0.935980
  H    -24.080570    2.923580   -0.154410
  H    -24.756090    1.598560    0.811600
  H    -19.228510    2.710930   -0.644980

 Total Charge           Charge          ....    0
 Multiplicity           Mult            ....    1
 Number of Electrons    NEL             ....  568
 Basis Dimension        Dim             .... 1181

ORBITAL ENERGIES
----------------

  NO   OCC          E(Eh)            E(eV)
   0   2.0000    -482.864665    -13139.4155
   1   2.0000     -88.984795     -2421.3994
   2   2.0000     -88.970834     -2421.0195
   3   2.0000     -88.967388     -2420.9257
   4   2.0000     -88.962350     -2420.7886
   5   2.0000     -88.953747     -2420.5545
   6   2.0000     -88.949583     -2420.4412
   7   2.0000     -88.942066     -2420.2367
   8   2.0000     -88.934847     -2420.0402
   9   2.0000     -88.931784     -2419.9569
  10   2.0000     -62.542370     -1701.8644
  11   2.0000     -56.376291     -1534.0769
  12   2.0000     -56.373631     -1534.0045
  13   2.0000     -56.373586     -1534.0033
  14   2.0000     -19.177627      -521.8497
  15   2.0000     -14.430709      -392.6796
  16   2.0000     -14.425807      -392.5462
  17   2.0000     -14.379404      -391.2835
  18   2.0000     -14.377365      -391.2280
  19   2.0000     -10.334437      -281.2143
  20   2.0000     -10.333404      -281.1862
  21   2.0000     -10.333271      -281.1826
  22   2.0000     -10.331016      -281.1212
  23   2.0000     -10.327831      -281.0346
  24   2.0000     -10.323357      -280.9128
  25   2.0000     -10.322783      -280.8972
  26   2.0000     -10.321963      -280.8749
  27   2.0000     -10.321670      -280.8669
  28   2.0000     -10.321372      -280.8588
  29   2.0000     -10.320568      -280.8369
  30   2.0000     -10.320405      -280.8325
  31   2.0000     -10.318171      -280.7717
  32   2.0000     -10.317108      -280.7428
  33   2.0000     -10.317009      -280.7401
  34   2.0000     -10.312161      -280.6082
  35   2.0000     -10.309089      -280.5246
  36   2.0000     -10.308743      -280.5152
  37   2.0000     -10.307021      -280.4683
  38   2.0000     -10.303685      -280.3775
  39   2.0000     -10.303653      -280.3766
  40   2.0000     -10.303649      -280.3766
  41   2.0000     -10.301414      -280.3157
  42   2.0000     -10.301112      -280.3075
  43   2.0000     -10.301100      -280.3072
  44   2.0000     -10.300937      -280.3027
  45   2.0000     -10.300476      -280.2902
  46   2.0000     -10.298576      -280.2385
  47   2.0000     -10.297969      -280.2220
  48   2.0000     -10.297247      -280.2023
  49   2.0000     -10.295978      -280.1678
  50   2.0000     -10.290754      -280.0257
  51   2.0000     -10.290607      -280.0217
  52   2.0000     -10.286389      -279.9069
  53   2.0000     -10.285452      -279.8814
  54   2.0000     -10.284534      -279.8564
  55   2.0000     -10.283781      -279.8359
  56   2.0000     -10.283614      -279.8314
  57   2.0000     -10.283064      -279.8164
  58   2.0000     -10.280373      -279.7432
  59   2.0000     -10.277807      -279.6733
  60   2.0000     -10.277666      -279.6695
  61   2.0000     -10.274826      -279.5922
  62   2.0000     -10.273217      -279.5484
  63   2.0000     -10.272398      -279.5262
  64   2.0000     -10.271779      -279.5093
  65   2.0000     -10.269791      -279.4552
  66   2.0000     -10.269040      -279.4348
  67   2.0000     -10.267789      -279.4008
  68   2.0000     -10.264792      -279.3192
  69   2.0000     -10.258416      -279.1457
  70   2.0000     -10.250288      -278.9245
  71   2.0000     -10.249368      -278.8995
  72   2.0000      -8.771780      -238.6923
  73   2.0000      -8.079818      -219.8630
  74   2.0000      -8.066139      -219.4908
  75   2.0000      -8.063452      -219.4177
  76   2.0000      -8.058560      -219.2846
  77   2.0000      -8.049826      -219.0469
  78   2.0000      -8.045588      -218.9316
  79   2.0000      -8.037927      -218.7231
  80   2.0000      -8.030200      -218.5129
  81   2.0000      -8.026244      -218.4052
  82   2.0000      -6.607954      -179.8116
  83   2.0000      -6.593545      -179.4195
  84   2.0000      -6.593430      -179.4163
  85   2.0000      -6.048640      -164.5919
  86   2.0000      -6.044530      -164.4800
  87   2.0000      -6.043045      -164.4396
  88   2.0000      -6.035375      -164.2309
  89   2.0000      -6.033090      -164.1687
  90   2.0000      -6.031582      -164.1277
  91   2.0000      -6.028888      -164.0544
  92   2.0000      -6.028078      -164.0323
  93   2.0000      -6.027941      -164.0286
  94   2.0000      -6.024698      -163.9404
  95   2.0000      -6.024078      -163.9235
  96   2.0000      -6.019936      -163.8108
  97   2.0000      -6.019308      -163.7937
  98   2.0000      -6.015288      -163.6843
  99   2.0000      -6.015271      -163.6839
 100   2.0000      -6.011288      -163.5755
 101   2.0000      -6.011039      -163.5687
 102   2.0000      -6.007404      -163.4698
 103   2.0000      -6.006790      -163.4531
 104   2.0000      -6.003383      -163.3604
 105   2.0000      -6.000540      -163.2830
 106   2.0000      -5.999399      -163.2519
 107   2.0000      -5.996781      -163.1807
 108   2.0000      -5.996563      -163.1748
 109   2.0000      -5.992861      -163.0740
 110   2.0000      -5.989952      -162.9949
 111   2.0000      -5.985717      -162.8797
 112   2.0000      -2.723854       -74.1198
 113   2.0000      -2.719806       -74.0097
 114   2.0000      -2.719688       -74.0065
 115   2.0000      -2.708252       -73.6953
 116   2.0000      -2.708239       -73.6949
 117   2.0000      -1.090726       -29.6802
 118   2.0000      -1.086498       -29.5651
 119   2.0000      -1.015560       -27.6348
 120   2.0000      -1.011342       -27.5200
 121   2.0000      -1.007339       -27.4111
 122   2.0000      -0.996990       -27.1295
 123   2.0000      -0.992171       -26.9983
 124   2.0000      -0.991944       -26.9922
 125   2.0000      -0.988732       -26.9048
 126   2.0000      -0.978933       -26.6381
 127   2.0000      -0.971681       -26.4408
 128   2.0000      -0.958191       -26.0737
 129   2.0000      -0.954613       -25.9763
 130   2.0000      -0.928894       -25.2765
 131   2.0000      -0.920158       -25.0388
 132   2.0000      -0.913616       -24.8608
 133   2.0000      -0.911467       -24.8023
 134   2.0000      -0.899060       -24.4647
 135   2.0000      -0.894188       -24.3321
 136   2.0000      -0.891848       -24.2684
 137   2.0000      -0.883901       -24.0522
 138   2.0000      -0.876755       -23.8577
 139   2.0000      -0.868377       -23.6298
 140   2.0000      -0.859836       -23.3973
 141   2.0000      -0.857529       -23.3346
 142   2.0000      -0.855192       -23.2710
 143   2.0000      -0.848921       -23.1003
 144   2.0000      -0.843977       -22.9658
 145   2.0000      -0.841859       -22.9082
 146   2.0000      -0.837812       -22.7980
 147   2.0000      -0.831457       -22.6251
 148   2.0000      -0.819374       -22.2963
 149   2.0000      -0.819036       -22.2871
 150   2.0000      -0.808295       -21.9948
 151   2.0000      -0.806350       -21.9419
 152   2.0000      -0.801543       -21.8111
 153   2.0000      -0.799119       -21.7451
 154   2.0000      -0.781456       -21.2645
 155   2.0000      -0.773282       -21.0421
 156   2.0000      -0.763772       -20.7833
 157   2.0000      -0.753305       -20.4985
 158   2.0000      -0.734537       -19.9878
 159   2.0000      -0.725519       -19.7424
 160   2.0000      -0.723710       -19.6931
 161   2.0000      -0.717011       -19.5109
 162   2.0000      -0.706129       -19.2148
 163   2.0000      -0.694916       -18.9096
 164   2.0000      -0.691182       -18.8080
 165   2.0000      -0.688646       -18.7390
 166   2.0000      -0.682837       -18.5809
 167   2.0000      -0.679451       -18.4888
 168   2.0000      -0.664739       -18.0885
 169   2.0000      -0.664483       -18.0815
 170   2.0000      -0.656492       -17.8640
 171   2.0000      -0.653008       -17.7693
 172   2.0000      -0.646518       -17.5926
 173   2.0000      -0.642343       -17.4790
 174   2.0000      -0.638785       -17.3822
 175   2.0000      -0.634980       -17.2787
 176   2.0000      -0.630770       -17.1641
 177   2.0000      -0.626259       -17.0414
 178   2.0000      -0.621984       -16.9250
 179   2.0000      -0.613227       -16.6868
 180   2.0000      -0.609188       -16.5769
 181   2.0000      -0.601816       -16.3762
 182   2.0000      -0.600087       -16.3292
 183   2.0000      -0.598738       -16.2925
 184   2.0000      -0.591204       -16.0875
 185   2.0000      -0.584911       -15.9162
 186   2.0000      -0.571305       -15.5460
 187   2.0000      -0.567055       -15.4304
 188   2.0000      -0.563711       -15.3394
 189   2.0000      -0.561782       -15.2869
 190   2.0000      -0.561236       -15.2720
 191   2.0000      -0.559409       -15.2223
 192   2.0000      -0.554613       -15.0918
 193   2.0000      -0.550265       -14.9735
 194   2.0000      -0.542954       -14.7745
 195   2.0000      -0.535547       -14.5730
 196   2.0000      -0.533006       -14.5038
 197   2.0000      -0.527897       -14.3648
 198   2.0000      -0.524040       -14.2598
 199   2.0000      -0.521076       -14.1792
 200   2.0000      -0.518563       -14.1108
 201   2.0000      -0.516470       -14.0539
 202   2.0000      -0.512446       -13.9444
 203   2.0000      -0.511859       -13.9284
 204   2.0000      -0.511675       -13.9234
 205   2.0000      -0.507751       -13.8166
 206   2.0000      -0.506299       -13.7771
 207   2.0000      -0.505397       -13.7526
 208   2.0000      -0.502650       -13.6778
 209   2.0000      -0.502536       -13.6747
 210   2.0000      -0.500014       -13.6061
 211   2.0000      -0.497644       -13.5416
 212   2.0000      -0.497432       -13.5358
 213   2.0000      -0.496957       -13.5229
 214   2.0000      -0.493451       -13.4275
 215   2.0000      -0.488616       -13.2959
 216   2.0000      -0.486177       -13.2295
 217   2.0000      -0.484355       -13.1800
 218   2.0000      -0.481777       -13.1098
 219   2.0000      -0.480945       -13.0872
 220   2.0000      -0.479126       -13.0377
 221   2.0000      -0.476815       -12.9748
 222   2.0000      -0.475944       -12.9511
 223   2.0000      -0.473620       -12.8879
 224   2.0000      -0.471686       -12.8352
 225   2.0000      -0.467514       -12.7217
 226   2.0000      -0.465997       -12.6804
 227   2.0000      -0.463394       -12.6096
 228   2.0000      -0.462780       -12.5929
 229   2.0000      -0.461824       -12.5669
 230   2.0000      -0.461077       -12.5465
 231   2.0000      -0.457180       -12.4405
 232   2.0000      -0.454307       -12.3623
 233   2.0000      -0.454129       -12.3575
 234   2.0000      -0.449446       -12.2300
 235   2.0000      -0.447428       -12.1751
 236   2.0000      -0.443078       -12.0568
 237   2.0000      -0.440783       -11.9943
 238   2.0000      -0.440147       -11.9770
 239   2.0000      -0.436986       -11.8910
 240   2.0000      -0.435771       -11.8579
 241   2.0000      -0.432259       -11.7624
 242   2.0000      -0.429821       -11.6960
 243   2.0000      -0.429065       -11.6754
 244   2.0000      -0.426139       -11.5958
 245   2.0000      -0.420979       -11.4554
 246   2.0000      -0.419740       -11.4217
 247   2.0000      -0.418072       -11.3763
 248   2.0000      -0.415683       -11.3113
 249   2.0000      -0.411279       -11.1915
 250   2.0000      -0.410809       -11.1787
 251   2.0000      -0.408914       -11.1271
 252   2.0000      -0.405282       -11.0283
 253   2.0000      -0.399433       -10.8691
 254   2.0000      -0.396659       -10.7936
 255   2.0000      -0.395508       -10.7623
 256   2.0000      -0.392341       -10.6762
 257   2.0000      -0.388623       -10.5750
 258   2.0000      -0.388469       -10.5708
 259   2.0000      -0.387362       -10.5407
 260   2.0000      -0.378548       -10.3008
 261   2.0000      -0.372507       -10.1364
 262   2.0000      -0.367389        -9.9972
 263   2.0000      -0.358582        -9.7575
 264   2.0000      -0.356795        -9.7089
 265   2.0000      -0.354442        -9.6449
 266   2.0000      -0.349264        -9.5040
 267   2.0000      -0.346023        -9.4158
 268   2.0000      -0.336810        -9.1651
 269   2.0000      -0.335475        -9.1287
 270   2.0000      -0.331638        -9.0243
 271   2.0000      -0.326469        -8.8837
 272   2.0000      -0.326335        -8.8800
 273   2.0000      -0.319790        -8.7019
 274   2.0000      -0.314812        -8.5665
 275   2.0000      -0.305233        -8.3058
 276   2.0000      -0.298600        -8.1253
 277   2.0000      -0.297074        -8.0838
 278   2.0000      -0.286899        -7.8069
 279   2.0000      -0.284495        -7.7415
 280   2.0000      -0.266702        -7.2573
 281   2.0000      -0.259905        -7.0724
 282   2.0000      -0.233932        -6.3656
 283   2.0000      -0.190037        -5.1712
 284   0.0000      -0.123137        -3.3507
 285   0.0000      -0.078593        -2.1386
 286   0.0000      -0.060474        -1.6456
 287   0.0000      -0.038837        -1.0568
 288   0.0000      -0.027045        -0.7359

MULLIKEN ATOMIC CHARGES
-----------------------
   0 C :    0.327169
   1 C :   -0.376798
   2 C :   -0.189558
   3 N :    0.123483
   4 C :   -0.191773
   5 N :    0.116963
   6 C :    0.016400
   7 C :   -0.006964
   8 C :   -0.084179
   9 C :    0.118681
  10 C :   -0.093610
  11 C :   -0.031646
  12 S :    0.170391
  13 C :   -0.122308
  14 C :    0.032311
  15 Br:    0.002981
  16 C :    0.130541
  17 O :   -0.175338
  18 C :   -0.102912
  19 C :   -0.038748
  20 C :   -0.028219
  21 C :    0.003689
  22 C :    0.013657
  23 C :    0.032999
  24 C :   -0.057612
  25 S :    0.112769
  26 C :   -0.023344
  27 C :    0.003582
  28 C :    0.036262
  29 C :   -0.045069
  30 S :    0.121188
  31 C :    0.015860
  32 C :   -0.017155
  33 C :   -0.015502
  34 C :    0.018010
  35 C :    0.029139
  36 C :   -0.053717
  37 S :    0.091412
  38 C :   -0.014801
  39 C :    0.015785
  40 C :    0.041498
  41 C :   -0.048446
  42 S :    0.082527
  43 C :    0.005919
  44 C :   -0.099536
  45 S :    0.096737
  46 C :   -0.025356
  47 C :   -0.079603
  48 C :   -0.004735
  49 S :   -0.003015
  50 C :   -0.112482
  51 C :    0.036205
  52 S :   -0.030949
  53 C :   -0.098386
  54 C :    0.014975
  55 C :   -0.028586
  56 C :    0.027194
  57 C :   -0.171272
  58 C :    0.049253
  59 N :   -0.013453
  60 C :   -0.153958
  61 C :    0.117994
  62 C :   -0.188100
  63 C :    0.126016
  64 N :    0.019274
  65 C :    0.056999
  66 C :   -0.148279
  67 S :    0.173341
  68 H :   -0.020092
  69 H :   -0.012970
  70 H :   -0.009580
  71 H :    0.006368
  72 H :    0.010340
  73 H :   -0.008994
  74 H :   -0.014640
  75 H :   -0.014391
  76 H :   -0.012162
  77 H :   -0.003225
  78 H :    0.005105
  79 H :   -0.000975
  80 H :   -0.006531
  81 H :   -0.007439
  82 H :   -0.003042
  83 H :    0.005366
  84 H :    0.061380
  85 H :    0.057167
  86 H :    0.024844
  87 H :    0.021033
  88 H :    0.019376
  89 H :    0.055256
  90 H :    0.063493
  91 H :    0.018863
  92 H :    0.020431
  93 H :    0.034886
  94 H :    0.026661
  95 H :   -0.016534
  96 H :    0.035168
  97 H :    0.029966
  98 H :    0.026062
  99 H :    0.024391
 100 H :    0.031772
 101 H :    0.027095
 102 H :    0.019761
Sum of atomic charges:   -0.0000000

LOEWDIN ATOMIC CHARGES
----------------------
   0 C :    0.070219
   1 C :   -0.171567
   2 C :   -0.019468
   3 N :   -0.084647
   4 C :   -0.020500
   5 N :   -0.082139
   6 C :   -0.014796
   7 C :   -0.046605
   8 C :    0.011835
   9 C :   -0.039759
  10 C :   -0.147840
  11 C :   -0.018367
  12 S :    0.420457
  13 C :   -0.278909
  14 C :   -0.071718
  15 Br:    0.120840
  16 C :    0.078767
  17 O :   -0.168819
  18 C :   -0.121455
  19 C :    0.037692
  20 C :   -0.078899
  21 C :   -0.110252
  22 C :   -0.056730
  23 C :   -0.017830
  24 C :   -0.205285
  25 S :    0.418668
  26 C :   -0.146901
  27 C :   -0.056454
  28 C :   -0.022125
  29 C :   -0.172954
  30 S :    0.416205
  31 C :   -0.023779
  32 C :   -0.074531
  33 C :   -0.126292
  34 C :   -0.046234
  35 C :   -0.019629
  36 C :   -0.193455
  37 S :    0.396621
  38 C :   -0.153763
  39 C :   -0.048163
  40 C :   -0.013489
  41 C :   -0.171026
  42 S :    0.391804
  43 C :   -0.038372
  44 C :   -0.196495
  45 S :    0.424613
  46 C :   -0.158498
  47 C :   -0.221054
  48 C :   -0.187986
  49 S :    0.296444
  50 C :   -0.124347
  51 C :   -0.073115
  52 S :    0.282559
  53 C :   -0.118015
  54 C :   -0.074695
  55 C :   -0.047790
  56 C :   -0.032884
  57 C :   -0.190459
  58 C :   -0.048152
  59 N :   -0.044905
  60 C :    0.006031
  61 C :   -0.053253
  62 C :   -0.003277
  63 C :   -0.052427
  64 N :   -0.044953
  65 C :   -0.056715
  66 C :   -0.192300
  67 S :    0.498641
  68 H :    0.036552
  69 H :    0.038786
  70 H :    0.035957
  71 H :    0.029511
  72 H :    0.036146
  73 H :    0.034967
  74 H :    0.031243
  75 H :    0.031131
  76 H :    0.033557
  77 H :    0.029474
  78 H :    0.033295
  79 H :    0.038021
  80 H :    0.034721
  81 H :    0.034279
  82 H :    0.037643
  83 H :    0.036623
  84 H :    0.021782
  85 H :    0.024618
  86 H :    0.016274
  87 H :    0.028779
  88 H :    0.023492
  89 H :    0.023307
  90 H :    0.029108
  91 H :    0.022323
  92 H :    0.029750
  93 H :    0.024928
  94 H :    0.031443
  95 H :    0.022029
  96 H :    0.039046
  97 H :    0.039689
  98 H :    0.038248
  99 H :    0.037068
 100 H :    0.040559
 101 H :    0.038313
 102 H :    0.030013

  Mayer bond orders larger than 0.100000
B(  0-C ,  1-C ) :   1.5456 B(  0-C ,  6-C ) :   0.9801 B(  0-C , 18-C ) :   1.1540
B(  1-C ,  2-C ) :   1.1546 B(  1-C ,  4-C ) :   1.1604 B(  2-C ,  3-N ) :   2.9555
B(  4-C ,  5-N ) :   2.9511 B(  6-C ,  7-C ) :   1.2815 B(  6-C , 11-C ) :   1.4282
B(  7-C ,  8-C ) :   1.4370 B(  7-C , 16-C ) :   0.9317 B(  8-C ,  9-C ) :   1.2323
B(  8-C , 68-H ) :   1.0161 B(  9-C , 10-C ) :   1.3257 B(  9-C , 14-C ) :   1.1589
B( 10-C , 11-C ) :   1.3110 B( 10-C , 12-S ) :   1.0796 B( 11-C , 69-H ) :   0.9795
B( 12-S , 13-C ) :   1.0832 B( 13-C , 14-C ) :   1.6226 B( 13-C , 15-Br) :   1.0062
B( 14-C , 70-H ) :   1.0001 B( 16-C , 17-O ) :   2.1721 B( 16-C , 18-C ) :   0.9848
B( 18-C , 19-C ) :   1.3932 B( 19-C , 20-C ) :   1.3450 B( 19-C , 71-H ) :   0.9459
B( 20-C , 21-C ) :   1.3248 B( 20-C , 72-H ) :   0.9777 B( 21-C , 22-C ) :   1.2499
B( 21-C , 25-S ) :   1.0993 B( 22-C , 23-C ) :   1.4516 B( 22-C , 73-H ) :   1.0029
B( 23-C , 24-C ) :   1.3011 B( 23-C , 74-H ) :   0.9950 B( 24-C , 25-S ) :   1.0619
B( 24-C , 26-C ) :   1.3359 B( 26-C , 27-C ) :   1.3001 B( 26-C , 30-S ) :   1.1056
B( 27-C , 28-C ) :   1.4495 B( 27-C , 75-H ) :   0.9961 B( 28-C , 29-C ) :   1.2672
B( 28-C , 76-H ) :   1.0005 B( 29-C , 30-S ) :   1.0535 B( 29-C , 31-C ) :   1.3943
B( 31-C , 32-C ) :   1.3463 B( 31-C , 77-H ) :   0.9705 B( 32-C , 33-C ) :   1.3809
B( 32-C , 78-H ) :   0.9753 B( 33-C , 34-C ) :   1.2625 B( 33-C , 37-S ) :   1.0829
B( 34-C , 35-C ) :   1.4584 B( 34-C , 79-H ) :   1.0023 B( 35-C , 36-C ) :   1.2920
B( 35-C , 80-H ) :   0.9959 B( 36-C , 37-S ) :   1.0575 B( 36-C , 38-C ) :   1.3747
B( 38-C , 39-C ) :   1.2557 B( 38-C , 42-S ) :   1.0856 B( 39-C , 40-C ) :   1.5125
B( 39-C , 81-H ) :   0.9952 B( 40-C , 41-C ) :   1.2009 B( 40-C , 82-H ) :   1.0019
B( 41-C , 42-S ) :   1.0371 B( 41-C , 43-C ) :   1.4751 B( 43-C , 44-C ) :   1.2784
B( 43-C , 83-H ) :   0.9555 B( 44-C , 45-S ) :   1.0686 B( 44-C , 48-C ) :   1.4207
B( 45-S , 46-C ) :   1.1101 B( 46-C , 47-C ) :   1.4295 B( 46-C , 55-C ) :   1.1962
B( 47-C , 48-C ) :   1.3528 B( 47-C , 52-S ) :   1.0549 B( 48-C , 49-S ) :   1.0632
B( 49-S , 50-C ) :   0.9701 B( 50-C , 51-C ) :   1.0681 B( 50-C , 84-H ) :   0.9533
B( 50-C , 85-H ) :   0.9544 B( 51-C , 86-H ) :   0.9653 B( 51-C , 87-H ) :   0.9623
B( 51-C , 88-H ) :   0.9716 B( 52-S , 53-C ) :   0.9723 B( 53-C , 54-C ) :   1.0764
B( 53-C , 89-H ) :   0.9554 B( 53-C , 90-H ) :   0.9547 B( 54-C , 91-H ) :   0.9690
B( 54-C , 92-H ) :   0.9574 B( 54-C , 93-H ) :   0.9671 B( 55-C , 56-C ) :   1.6019
B( 55-C , 94-H ) :   0.9499 B( 56-C , 57-C ) :   1.1871 B( 56-C , 95-H ) :   0.9544
B( 57-C , 58-C ) :   1.3071 B( 57-C , 66-C ) :   0.1158 B( 57-C , 67-S ) :   1.1744
B( 58-C , 59-N ) :   1.3666 B( 58-C , 65-C ) :   1.2129 B( 59-N , 60-C ) :   1.7070
B( 60-C , 61-C ) :   1.0957 B( 60-C , 62-C ) :   1.1091 B( 61-C , 96-H ) :   0.9428
B( 61-C , 97-H ) :   0.9394 B( 61-C , 98-H ) :   0.9390 B( 62-C , 63-C ) :   1.0962
B( 62-C , 64-N ) :   1.7719 B( 63-C , 99-H ) :   0.9415 B( 63-C ,100-H ) :   0.9426
B( 63-C ,101-H ) :   0.9417 B( 64-N , 65-C ) :   1.3455 B( 65-C , 66-C ) :   1.3934
B( 66-C , 67-S ) :   1.2005 B( 66-C ,102-H ) :   0.9766

-----------------------------------------------------------------------------
         ABSORPTION SPECTRUM VIA TRANSITION ELECTRIC DIPOLE MOMENTS
-----------------------------------------------------------------------------
State   Energy  Wavelength   fosc         T2         TX        TY        TZ
        (cm-1)    (nm)                  (au**2)     (au)      (au)      (au)
-----------------------------------------------------------------------------
   0    3782.4   2643.8   0.625281760  54.42370   6.88553   2.64604  -0.10820
   1   11336.2    882.1   0.037339671   1.08438   1.03910   0.06606   0.01687
   2   13871.2    720.9   0.180072323   4.27376   0.29339   2.03489  -0.21661
   3   16413.0    609.3   0.015689707   0.31470   0.44513  -0.31022  -0.14257
   4   19150.4    522.2   0.877583576  15.08639   1.35724  -3.61658  -0.40580
   5   20067.3    498.3   0.161159987   2.64389   0.61576  -1.49909  -0.13216
   6   21986.3    454.8   0.008803278   0.13182  -0.31419  -0.15846   0.08940
   7   22331.2    447.8   0.301345136   4.44249   0.34993  -2.07074  -0.17911
   8   22372.3    447.0   0.283115046   4.16608   0.08220  -2.02778  -0.21781
   9   23540.9    424.8   0.299447124   4.18768   1.97737  -0.51449  -0.11392
  10   25179.9    397.1   0.116917152   1.52862  -1.11636   0.51704   0.12258
  11   25625.9    390.2   0.098103719   1.26032  -0.32520   1.07393   0.03522
  12   25725.9    388.7   0.001100018   0.01408  -0.06352   0.09986   0.00835
  13   25900.4    386.1   0.024172337   0.30725  -0.32393  -0.44726  -0.04771
  14   26691.7    374.6   0.009713048   0.11980   0.34257  -0.03685  -0.03302
  15   27367.0    365.4   0.142520796   1.71446   1.25235  -0.35888  -0.13146
  16   27692.4    361.1   0.004225801   0.05024  -0.13388   0.05418  -0.17140
  17   28063.1    356.3   0.034129638   0.40038   0.25507   0.57463   0.07154
  18   28228.0    354.3   0.062764809   0.73200  -0.79060   0.31879   0.07294
  19   28841.6    346.7   0.050188502   0.57288   0.39565   0.64511  -0.01284
  20   29660.3    337.2   0.014846133   0.16478   0.09785   0.39094   0.04876
  21   29747.1    336.2   0.006467719   0.07158  -0.02667  -0.26489   0.02649
  22   29833.4    335.2   0.003443060   0.03799   0.16793  -0.08386  -0.05257
  23   30563.5    327.2   0.161941025   1.74433  -1.20763  -0.53464   0.01074
  24   31129.8    321.2   0.033084725   0.34989   0.50132   0.30993  -0.05002
  25   31385.1    318.6   0.050722727   0.53205  -0.67317  -0.27489   0.05774
  26   31561.3    316.8   0.000340956   0.00356   0.04850   0.02253  -0.02640
  27   32014.1    312.4   0.370495908   3.80994  -1.87420  -0.50552   0.20432
  28   32423.9    308.4   0.057569564   0.58453   0.09761   0.75670   0.04908
  29   32550.7    307.2   0.113256167   1.14545  -0.81105  -0.69826  -0.00928
  30   32757.7    305.3   0.025179719   0.25305  -0.39988   0.30102   0.05039
  31   32876.8    304.2   0.004079763   0.04085   0.11549  -0.16075   0.04093
  32   33371.7    299.7   0.001021376   0.01008  -0.09737  -0.02427   0.00231
  33   33477.5    298.7   0.001047525   0.01030  -0.00522   0.00701   0.10112
  34   33666.3    297.0   0.086404679   0.84492  -0.79557  -0.45935   0.03135
  35   33855.6    295.4   0.046702286   0.45413   0.20752   0.64035  -0.03189
  36   34305.6    291.5   0.002235572   0.02145  -0.03581  -0.06479  -0.12639
  37   35036.0    285.4   0.000971140   0.00913   0.02538  -0.05990   0.06995
  38   35297.5    283.3   0.013571146   0.12658  -0.17697  -0.30799  -0.02008
  39   35530.8    281.4   0.142088479   1.31653   0.70152   0.90788   0.01192
  40   35585.3    281.0   0.004823882   0.04463   0.13421   0.16293   0.00826
  41   35659.1    280.4   0.089223236   0.82373   0.47519   0.77216  -0.04106
  42   36007.4    277.7   0.070440535   0.64403   0.69354   0.40365   0.00979
  43   36942.2    270.7   0.009437814   0.08411  -0.10437  -0.27027   0.01289
  44   37377.3    267.5   0.020141753   0.17740   0.13227   0.39786  -0.04021
  45   37822.2    264.4   0.015955217   0.13888   0.22783  -0.29079  -0.04912
  46   37827.4    264.4   0.011470519   0.09983  -0.18998   0.24023   0.07765
  47   37952.5    263.5   0.078609630   0.68188   0.69782  -0.40691  -0.17135
  48   38296.2    261.1   0.183565585   1.57802   0.72032   1.02853   0.03568
  49   38457.5    260.0   0.005980240   0.05119  -0.10022   0.20284   0.00228
  50   38715.1    258.3   0.044924249   0.38201   0.36348  -0.49390  -0.07715
  51   39271.3    254.6   0.018415882   0.15438   0.15019   0.36282   0.01368
  52   39558.4    252.8   0.041374382   0.34432   0.20274  -0.54622  -0.06977
  53   39640.8    252.3   0.008195575   0.06806  -0.14815   0.21236   0.03188
  54   40078.5    249.5   0.088209889   0.72457   0.23971  -0.80446  -0.14126
  55   40177.4    248.9   0.016997666   0.13928  -0.29523   0.21988   0.06139
  56   40312.8    248.1   0.023548727   0.19231   0.11768   0.42233   0.00997

FINAL SINGLE POINT ENERGY     -8488.440238818584

DIPOLE MOMENT
-------------
                                X             Y             Z
Electronic contribution:    341.77820      71.83060     -13.13884
Nuclear contribution   :   -352.37008     -73.07493      13.54532
                        -----------------------------------------
Total Dipole Moment    :    -10.59188      -1.24433       0.40648
                        -----------------------------------------
Magnitude (a.u.)       :     10.67246
Magnitude (Debye)      :     27.12724

Rotational constants in cm-1:     0.001655     0.000137     0.000127
Rotational constants in MHz :    49.627202     4.119060     3.819254

                             ****ORCA TERMINATED NORMALLY****
TOTAL RUN TIME: 0 days 0 hours 11 minutes 18 seconds 947 msec
