                         Program Version 4.2.0 -  RELEASE  -
|  1> # ORCA input file
|  2> # SCF done       -182.055104915589          0.000760395431
|  3> ! CAM-B3LYP def2-SVP def2/J RIJCOSX Grid4 TightSCF
|  4> %maxcore 5000
|  5> %tddft
|  6>     Mode sTDDFT
|  7>     Ethresh 5.0
|  8>     maxcore 5000
|  9> end
| 10>
| 11> %pal
| 12>   nprocs 6
| 13>   end
| 14> * xyz 0 1
| 15>    C      -10.61283         2.11022        -5.24386
| 16>    C       -9.87503         2.79681        -6.17626
| 17>    C      -10.35423         3.18701        -7.44265
| 18>    N      -10.68270         3.52723        -8.48903
| 19>    C       -8.54396         3.20660        -5.98376
| 20>    N       -7.45925         3.56910        -5.87352
| 21>    C      -12.00676         1.70262        -5.39833
| 22>    C      -12.42956         1.04613        -4.21366
| 23>    C      -13.70221         0.55565        -4.05146
| 24>    C      -14.60447         0.72171        -5.10790
| 25>    C      -14.17457         1.37754        -6.28591
| 26>    C      -12.88587         1.87239        -6.45025
| 27>    S      -15.44830         1.47927        -7.46190
| 28>    C      -16.52791         0.65194        -6.37044
| 29>    C      -15.96423         0.31501        -5.18579
| 30>   Br      -18.29539         0.31328        -6.89728
| 31>    C      -11.30860         1.01601        -3.26504
| 32>    O      -11.29632         0.52779        -2.14041
| 33>    C      -10.18770         1.68484        -3.93260
| 34>    C       -8.96516         1.83015        -3.31757
| 35>    N       -8.79041         1.40327        -2.06380
| 36>    C       -7.67572         1.46233        -1.26965
| 37>    S       -7.49640         0.14128        -0.14649
| 38>    C       -6.00690         0.82316         0.40806
| 39>    N       -5.31516         0.12613         1.40432
| 40>    O       -4.29143         0.61460         1.84595
| 41>    O       -5.78931        -0.94424         1.75483
| 42>    C       -5.67583         1.98468        -0.23214
| 43>    C       -6.62680         2.38455        -1.20203
| 44>    C       -6.39909         3.59572        -1.94564
| 45>    C       -7.26307         4.34711        -2.66114
| 46>    C       -6.83838         5.47238        -3.43163
| 47>    S       -7.88424         6.85542        -3.54667
| 48>    C       -6.68333         7.79917        -4.29278
| 49>    C       -5.52036         7.08988        -4.49471
| 50>    C       -5.61653         5.73041        -4.05430
| 51>    C       -4.53775         4.83249        -4.32038
| 52>    C       -3.36348         5.37190        -4.79178
| 53>    C       -3.22959         6.72931        -5.13054
| 54>    C       -4.29722         7.58655        -5.04134
| 55>    O       -4.31793         8.88577        -5.42272
| 56>    C       -3.14297         9.44308        -5.96349
| 57>    C       -4.73136         3.40239        -4.21336
| 58>    C       -3.89198         2.52908        -3.61744
| 59>    C       -4.22445         1.16601        -3.41847
| 60>    C       -3.67537         0.39759        -2.43079
| 61>    C       -4.03351        -0.92250        -2.04837
| 62>    C       -3.42488        -1.36048        -0.91261
| 63>    C       -2.55797        -0.40871        -0.32537
| 64>    S       -2.47739         1.03399        -1.30623
| 65>    C       -1.91802        -0.45657         0.89581
| 66>    C       -1.90527        -1.49218         1.85804
| 67>    C       -1.26700        -1.15241         3.00847
| 68>    C       -0.75920         0.17758         3.02809
| 69>    S       -1.07395         0.94793         1.49579
| 70>    C       -0.09103         0.74368         4.08414
| 71>    C        0.34162         2.07906         4.23029
| 72>    S        1.53189         2.45986         5.45591
| 73>    C        1.53580         4.13631         5.07721
| 74>    C        0.66186         4.39793         4.06453
| 75>    C       -0.01740         3.25580         3.58599
| 76>    O       -0.98881         3.36429         2.63217
| 77>    C       -1.27757         4.56079         2.09699
| 78>    O       -2.13411         4.65893         1.26127
| 79>    C       -0.49519         5.79357         2.57428
| 80>    O       -0.69479         6.87506         2.10034
| 81>    O        0.42976         5.64394         3.54549
| 82>    H      -13.99503         0.06218        -3.13805
| 83>    H      -12.60774         2.36508        -7.36680
| 84>    H      -16.48517        -0.19808        -4.39818
| 85>    H       -8.11914         2.27931        -3.81675
| 86>    H       -9.61217         0.89734        -1.68909
| 87>    H       -4.78528         2.54369        -0.00266
| 88>    H       -5.37778         3.94004        -1.88342
| 89>    H       -8.33119         4.18260        -2.60938
| 90>    H       -6.86896         8.82645        -4.53182
| 91>    H       -2.52665         4.71516        -4.97738
| 92>    H       -2.27917         7.06536        -5.51275
| 93>    H       -3.38837        10.47708        -6.19948
| 94>    H       -2.83909         8.92363        -6.87761
| 95>    H       -2.32172         9.42052        -5.24077
| 96>    H       -5.67218         3.04444        -4.61087
| 97>    H       -2.98859         2.88878        -3.14096
| 98>    H       -5.02325         0.74043        -4.01205
| 99>    H       -4.74763        -1.49426        -2.61514
|100>    H       -3.59844        -2.32125        -0.46154
|101>    H       -2.38152        -2.44030         1.68338
|102>    H       -1.16799        -1.79687         3.86398
|103>    H        0.15698         0.08888         4.90900
|104>    H        2.15942         4.82425         5.60711
|105> *
|106>
|107>                          ****END OF INPUT****

CARTESIAN COORDINATES (ANGSTROEM)
---------------------------------
  C    -10.612830    2.110220   -5.243860
  C     -9.875030    2.796810   -6.176260
  C    -10.354230    3.187010   -7.442650
  N    -10.682700    3.527230   -8.489030
  C     -8.543960    3.206600   -5.983760
  N     -7.459250    3.569100   -5.873520
  C    -12.006760    1.702620   -5.398330
  C    -12.429560    1.046130   -4.213660
  C    -13.702210    0.555650   -4.051460
  C    -14.604470    0.721710   -5.107900
  C    -14.174570    1.377540   -6.285910
  C    -12.885870    1.872390   -6.450250
  S    -15.448300    1.479270   -7.461900
  C    -16.527910    0.651940   -6.370440
  C    -15.964230    0.315010   -5.185790
  Br   -18.295390    0.313280   -6.897280
  C    -11.308600    1.016010   -3.265040
  O    -11.296320    0.527790   -2.140410
  C    -10.187700    1.684840   -3.932600
  C     -8.965160    1.830150   -3.317570
  N     -8.790410    1.403270   -2.063800
  C     -7.675720    1.462330   -1.269650
  S     -7.496400    0.141280   -0.146490
  C     -6.006900    0.823160    0.408060
  N     -5.315160    0.126130    1.404320
  O     -4.291430    0.614600    1.845950
  O     -5.789310   -0.944240    1.754830
  C     -5.675830    1.984680   -0.232140
  C     -6.626800    2.384550   -1.202030
  C     -6.399090    3.595720   -1.945640
  C     -7.263070    4.347110   -2.661140
  C     -6.838380    5.472380   -3.431630
  S     -7.884240    6.855420   -3.546670
  C     -6.683330    7.799170   -4.292780
  C     -5.520360    7.089880   -4.494710
  C     -5.616530    5.730410   -4.054300
  C     -4.537750    4.832490   -4.320380
  C     -3.363480    5.371900   -4.791780
  C     -3.229590    6.729310   -5.130540
  C     -4.297220    7.586550   -5.041340
  O     -4.317930    8.885770   -5.422720
  C     -3.142970    9.443080   -5.963490
  C     -4.731360    3.402390   -4.213360
  C     -3.891980    2.529080   -3.617440
  C     -4.224450    1.166010   -3.418470
  C     -3.675370    0.397590   -2.430790
  C     -4.033510   -0.922500   -2.048370
  C     -3.424880   -1.360480   -0.912610
  C     -2.557970   -0.408710   -0.325370
  S     -2.477390    1.033990   -1.306230
  C     -1.918020   -0.456570    0.895810
  C     -1.905270   -1.492180    1.858040
  C     -1.267000   -1.152410    3.008470
  C     -0.759200    0.177580    3.028090
  S     -1.073950    0.947930    1.495790
  C     -0.091030    0.743680    4.084140
  C      0.341620    2.079060    4.230290
  S      1.531890    2.459860    5.455910
  C      1.535800    4.136310    5.077210
  C      0.661860    4.397930    4.064530
  C     -0.017400    3.255800    3.585990
  O     -0.988810    3.364290    2.632170
  C     -1.277570    4.560790    2.096990
  O     -2.134110    4.658930    1.261270
  C     -0.495190    5.793570    2.574280
  O     -0.694790    6.875060    2.100340
  O      0.429760    5.643940    3.545490
  H    -13.995030    0.062180   -3.138050
  H    -12.607740    2.365080   -7.366800
  H    -16.485170   -0.198080   -4.398180
  H     -8.119140    2.279310   -3.816750
  H     -9.612170    0.897340   -1.689090
  H     -4.785280    2.543690   -0.002660
  H     -5.377780    3.940040   -1.883420
  H     -8.331190    4.182600   -2.609380
  H     -6.868960    8.826450   -4.531820
  H     -2.526650    4.715160   -4.977380
  H     -2.279170    7.065360   -5.512750
  H     -3.388370   10.477080   -6.199480
  H     -2.839090    8.923630   -6.877610
  H     -2.321720    9.420520   -5.240770
  H     -5.672180    3.044440   -4.610870
  H     -2.988590    2.888780   -3.140960
  H     -5.023250    0.740430   -4.012050
  H     -4.747630   -1.494260   -2.615140
  H     -3.598440   -2.321250   -0.461540
  H     -2.381520   -2.440300    1.683380
  H     -1.167990   -1.796870    3.863980
  H      0.156980    0.088880    4.909000
  H      2.159420    4.824250    5.607110

 Total Charge           Charge          ....    0
 Multiplicity           Mult            ....    1
 Number of Electrons    NEL             ....  534
 Basis Dimension        Dim             .... 1095

ORBITAL ENERGIES
----------------

  NO   OCC          E(Eh)            E(eV)
   0   2.0000    -482.889119    -13140.0810
   1   2.0000     -88.981879     -2421.3200
   2   2.0000     -88.980486     -2421.2821
   3   2.0000     -88.963835     -2420.8290
   4   2.0000     -88.956395     -2420.6266
   5   2.0000     -88.934917     -2420.0421
   6   2.0000     -88.929058     -2419.8827
   7   2.0000     -62.566838     -1702.5302
   8   2.0000     -56.400793     -1534.7436
   9   2.0000     -56.398066     -1534.6694
  10   2.0000     -56.398034     -1534.6685
  11   2.0000     -19.299103      -525.1553
  12   2.0000     -19.298220      -525.1312
  13   2.0000     -19.245710      -523.7024
  14   2.0000     -19.238268      -523.4999
  15   2.0000     -19.236475      -523.4511
  16   2.0000     -19.232504      -523.3430
  17   2.0000     -19.226955      -523.1920
  18   2.0000     -19.226769      -523.1870
  19   2.0000     -14.646840      -398.5608
  20   2.0000     -14.492119      -394.3506
  21   2.0000     -14.423945      -392.4955
  22   2.0000     -14.416670      -392.2975
  23   2.0000     -10.429742      -283.8077
  24   2.0000     -10.429145      -283.7915
  25   2.0000     -10.379679      -282.4454
  26   2.0000     -10.369014      -282.1552
  27   2.0000     -10.364695      -282.0377
  28   2.0000     -10.363108      -281.9945
  29   2.0000     -10.352858      -281.7156
  30   2.0000     -10.349090      -281.6131
  31   2.0000     -10.348241      -281.5900
  32   2.0000     -10.343197      -281.4527
  33   2.0000     -10.341494      -281.4064
  34   2.0000     -10.330379      -281.1039
  35   2.0000     -10.329609      -281.0829
  36   2.0000     -10.327102      -281.0147
  37   2.0000     -10.320211      -280.8272
  38   2.0000     -10.319727      -280.8141
  39   2.0000     -10.314613      -280.6749
  40   2.0000     -10.313600      -280.6473
  41   2.0000     -10.312389      -280.6144
  42   2.0000     -10.310865      -280.5729
  43   2.0000     -10.307893      -280.4920
  44   2.0000     -10.302917      -280.3566
  45   2.0000     -10.302846      -280.3547
  46   2.0000     -10.302228      -280.3379
  47   2.0000     -10.301785      -280.3258
  48   2.0000     -10.301144      -280.3084
  49   2.0000     -10.301074      -280.3065
  50   2.0000     -10.299645      -280.2676
  51   2.0000     -10.298428      -280.2345
  52   2.0000     -10.296774      -280.1895
  53   2.0000     -10.293552      -280.1018
  54   2.0000     -10.290572      -280.0207
  55   2.0000     -10.287226      -279.9297
  56   2.0000     -10.283917      -279.8396
  57   2.0000     -10.280904      -279.7576
  58   2.0000     -10.280322      -279.7418
  59   2.0000     -10.277729      -279.6712
  60   2.0000     -10.276842      -279.6471
  61   2.0000     -10.276587      -279.6402
  62   2.0000     -10.274877      -279.5936
  63   2.0000     -10.271348      -279.4976
  64   2.0000     -10.271129      -279.4916
  65   2.0000     -10.269571      -279.4492
  66   2.0000     -10.265208      -279.3305
  67   2.0000     -10.264337      -279.3068
  68   2.0000     -10.263866      -279.2940
  69   2.0000     -10.261677      -279.2344
  70   2.0000     -10.256819      -279.1022
  71   2.0000      -8.796281      -239.3590
  72   2.0000      -8.077579      -219.8021
  73   2.0000      -8.076333      -219.7682
  74   2.0000      -8.059459      -219.3090
  75   2.0000      -8.052055      -219.1076
  76   2.0000      -8.030904      -218.5320
  77   2.0000      -8.025400      -218.3822
  78   2.0000      -6.632596      -180.4821
  79   2.0000      -6.618003      -180.0850
  80   2.0000      -6.617809      -180.0797
  81   2.0000      -6.047170      -164.5519
  82   2.0000      -6.046013      -164.5204
  83   2.0000      -6.042771      -164.4322
  84   2.0000      -6.041727      -164.4037
  85   2.0000      -6.039141      -164.3334
  86   2.0000      -6.037633      -164.2923
  87   2.0000      -6.028885      -164.0543
  88   2.0000      -6.024885      -163.9454
  89   2.0000      -6.021102      -163.8425
  90   2.0000      -6.020954      -163.8385
  91   2.0000      -6.016750      -163.7241
  92   2.0000      -6.015112      -163.6795
  93   2.0000      -6.000657      -163.2862
  94   2.0000      -5.996690      -163.1782
  95   2.0000      -5.995183      -163.1372
  96   2.0000      -5.991746      -163.0437
  97   2.0000      -5.990995      -163.0233
  98   2.0000      -5.986158      -162.8916
  99   2.0000      -2.748486       -74.7901
 100   2.0000      -2.744365       -74.6780
 101   2.0000      -2.744211       -74.6738
 102   2.0000      -2.732608       -74.3581
 103   2.0000      -2.732607       -74.3580
 104   2.0000      -1.316569       -35.8257
 105   2.0000      -1.243496       -33.8372
 106   2.0000      -1.208770       -32.8923
 107   2.0000      -1.149107       -31.2688
 108   2.0000      -1.147564       -31.2268
 109   2.0000      -1.144934       -31.1553
 110   2.0000      -1.135094       -30.8875
 111   2.0000      -1.117319       -30.4038
 112   2.0000      -1.096254       -29.8306
 113   2.0000      -1.028274       -27.9808
 114   2.0000      -1.018838       -27.7240
 115   2.0000      -1.005173       -27.3521
 116   2.0000      -0.999926       -27.2094
 117   2.0000      -0.993700       -27.0400
 118   2.0000      -0.993033       -27.0218
 119   2.0000      -0.985087       -26.8056
 120   2.0000      -0.984552       -26.7910
 121   2.0000      -0.962861       -26.2008
 122   2.0000      -0.946402       -25.7529
 123   2.0000      -0.923498       -25.1297
 124   2.0000      -0.915492       -24.9118
 125   2.0000      -0.913891       -24.8683
 126   2.0000      -0.905662       -24.6443
 127   2.0000      -0.895833       -24.3769
 128   2.0000      -0.891144       -24.2493
 129   2.0000      -0.884844       -24.0778
 130   2.0000      -0.880464       -23.9586
 131   2.0000      -0.868667       -23.6376
 132   2.0000      -0.852650       -23.2018
 133   2.0000      -0.851011       -23.1572
 134   2.0000      -0.844392       -22.9771
 135   2.0000      -0.839118       -22.8336
 136   2.0000      -0.834216       -22.7002
 137   2.0000      -0.829290       -22.5661
 138   2.0000      -0.823290       -22.4028
 139   2.0000      -0.817109       -22.2347
 140   2.0000      -0.808372       -21.9969
 141   2.0000      -0.793175       -21.5834
 142   2.0000      -0.788064       -21.4443
 143   2.0000      -0.784597       -21.3500
 144   2.0000      -0.782161       -21.2837
 145   2.0000      -0.766685       -20.8626
 146   2.0000      -0.763828       -20.7848
 147   2.0000      -0.756121       -20.5751
 148   2.0000      -0.736456       -20.0400
 149   2.0000      -0.724012       -19.7014
 150   2.0000      -0.721623       -19.6364
 151   2.0000      -0.713581       -19.4175
 152   2.0000      -0.707439       -19.2504
 153   2.0000      -0.698623       -19.0105
 154   2.0000      -0.695304       -18.9202
 155   2.0000      -0.693650       -18.8752
 156   2.0000      -0.680043       -18.5049
 157   2.0000      -0.673394       -18.3240
 158   2.0000      -0.666844       -18.1457
 159   2.0000      -0.663414       -18.0524
 160   2.0000      -0.657507       -17.8917
 161   2.0000      -0.649544       -17.6750
 162   2.0000      -0.642419       -17.4811
 163   2.0000      -0.635331       -17.2882
 164   2.0000      -0.631095       -17.1730
 165   2.0000      -0.629638       -17.1333
 166   2.0000      -0.626101       -17.0371
 167   2.0000      -0.625665       -17.0252
 168   2.0000      -0.615006       -16.7352
 169   2.0000      -0.610811       -16.6210
 170   2.0000      -0.606434       -16.5019
 171   2.0000      -0.605047       -16.4642
 172   2.0000      -0.603483       -16.4216
 173   2.0000      -0.600114       -16.3299
 174   2.0000      -0.598037       -16.2734
 175   2.0000      -0.590354       -16.0644
 176   2.0000      -0.582930       -15.8623
 177   2.0000      -0.582353       -15.8466
 178   2.0000      -0.574029       -15.6201
 179   2.0000      -0.571523       -15.5519
 180   2.0000      -0.559673       -15.2295
 181   2.0000      -0.559254       -15.2181
 182   2.0000      -0.554938       -15.1006
 183   2.0000      -0.551397       -15.0043
 184   2.0000      -0.550529       -14.9807
 185   2.0000      -0.546451       -14.8697
 186   2.0000      -0.543424       -14.7873
 187   2.0000      -0.542356       -14.7583
 188   2.0000      -0.540375       -14.7044
 189   2.0000      -0.538124       -14.6431
 190   2.0000      -0.533636       -14.5210
 191   2.0000      -0.531508       -14.4631
 192   2.0000      -0.530865       -14.4456
 193   2.0000      -0.527970       -14.3668
 194   2.0000      -0.527156       -14.3446
 195   2.0000      -0.523060       -14.2332
 196   2.0000      -0.518134       -14.0992
 197   2.0000      -0.515776       -14.0350
 198   2.0000      -0.513437       -13.9713
 199   2.0000      -0.510897       -13.9022
 200   2.0000      -0.507457       -13.8086
 201   2.0000      -0.503674       -13.7057
 202   2.0000      -0.502836       -13.6829
 203   2.0000      -0.501747       -13.6532
 204   2.0000      -0.499719       -13.5981
 205   2.0000      -0.492020       -13.3885
 206   2.0000      -0.486926       -13.2499
 207   2.0000      -0.484658       -13.1882
 208   2.0000      -0.481735       -13.1087
 209   2.0000      -0.480774       -13.0825
 210   2.0000      -0.479654       -13.0520
 211   2.0000      -0.474414       -12.9095
 212   2.0000      -0.469986       -12.7890
 213   2.0000      -0.468457       -12.7474
 214   2.0000      -0.465821       -12.6756
 215   2.0000      -0.464058       -12.6277
 216   2.0000      -0.461832       -12.5671
 217   2.0000      -0.459309       -12.4984
 218   2.0000      -0.454753       -12.3744
 219   2.0000      -0.453253       -12.3336
 220   2.0000      -0.450135       -12.2488
 221   2.0000      -0.447873       -12.1872
 222   2.0000      -0.444972       -12.1083
 223   2.0000      -0.444589       -12.0979
 224   2.0000      -0.441986       -12.0271
 225   2.0000      -0.437043       -11.8925
 226   2.0000      -0.436846       -11.8872
 227   2.0000      -0.435432       -11.8487
 228   2.0000      -0.432033       -11.7562
 229   2.0000      -0.428884       -11.6705
 230   2.0000      -0.428032       -11.6473
 231   2.0000      -0.426081       -11.5942
 232   2.0000      -0.421867       -11.4796
 233   2.0000      -0.417823       -11.3696
 234   2.0000      -0.414930       -11.2908
 235   2.0000      -0.414413       -11.2767
 236   2.0000      -0.413691       -11.2571
 237   2.0000      -0.405956       -11.0466
 238   2.0000      -0.404621       -11.0103
 239   2.0000      -0.401630       -10.9289
 240   2.0000      -0.392977       -10.6935
 241   2.0000      -0.391116       -10.6428
 242   2.0000      -0.388814       -10.5802
 243   2.0000      -0.386431       -10.5153
 244   2.0000      -0.384651       -10.4669
 245   2.0000      -0.383079       -10.4241
 246   2.0000      -0.378452       -10.2982
 247   2.0000      -0.373690       -10.1686
 248   2.0000      -0.371701       -10.1145
 249   2.0000      -0.365262        -9.9393
 250   2.0000      -0.360594        -9.8123
 251   2.0000      -0.357674        -9.7328
 252   2.0000      -0.356237        -9.6937
 253   2.0000      -0.341955        -9.3051
 254   2.0000      -0.333331        -9.0704
 255   2.0000      -0.328431        -8.9371
 256   2.0000      -0.325143        -8.8476
 257   2.0000      -0.322144        -8.7660
 258   2.0000      -0.309952        -8.4342
 259   2.0000      -0.306810        -8.3487
 260   2.0000      -0.306675        -8.3450
 261   2.0000      -0.299602        -8.1526
 262   2.0000      -0.296239        -8.0611
 263   2.0000      -0.288227        -7.8431
 264   2.0000      -0.263626        -7.1736
 265   2.0000      -0.231560        -6.3011
 266   2.0000      -0.202375        -5.5069
 267   0.0000      -0.088003        -2.3947
 268   0.0000      -0.069413        -1.8888
 269   0.0000      -0.067855        -1.8464
 270   0.0000      -0.042600        -1.1592
 271   0.0000      -0.033228        -0.9042

MULLIKEN ATOMIC CHARGES
-----------------------
   0 C :    0.335449
   1 C :   -0.362695
   2 C :   -0.183685
   3 N :    0.152180
   4 C :   -0.193222
   5 N :    0.168562
   6 C :    0.004630
   7 C :   -0.005643
   8 C :   -0.068547
   9 C :    0.115113
  10 C :   -0.094387
  11 C :   -0.017270
  12 S :    0.190963
  13 C :   -0.125047
  14 C :    0.040972
  15 Br:    0.027272
  16 C :    0.168923
  17 O :   -0.215140
  18 C :   -0.140762
  19 C :    0.027020
  20 N :   -0.000366
  21 C :   -0.147936
  22 S :    0.178191
  23 C :   -0.006015
  24 N :    0.280651
  25 O :   -0.224784
  26 O :   -0.273237
  27 C :    0.014296
  28 C :    0.135828
  29 C :   -0.003940
  30 C :   -0.023758
  31 C :   -0.194634
  32 S :    0.146851
  33 C :   -0.136000
  34 C :    0.054980
  35 C :    0.154559
  36 C :    0.055493
  37 C :   -0.026582
  38 C :   -0.121901
  39 C :    0.229557
  40 O :   -0.302152
  41 C :    0.177032
  42 C :   -0.032842
  43 C :   -0.004060
  44 C :   -0.005547
  45 C :   -0.031790
  46 C :    0.040778
  47 C :    0.020461
  48 C :   -0.077572
  49 S :    0.061743
  50 C :   -0.018456
  51 C :    0.047837
  52 C :    0.027856
  53 C :   -0.012019
  54 S :    0.103413
  55 C :    0.002191
  56 C :   -0.187236
  57 S :    0.135104
  58 C :   -0.155972
  59 C :    0.203087
  60 C :    0.161758
  61 O :   -0.196326
  62 C :    0.156522
  63 O :   -0.117867
  64 C :    0.141567
  65 O :   -0.110199
  66 O :   -0.192538
  67 H :   -0.009317
  68 H :   -0.005216
  69 H :   -0.001699
  70 H :    0.048927
  71 H :    0.169936
  72 H :    0.031471
  73 H :    0.020439
  74 H :   -0.006059
  75 H :    0.023391
  76 H :   -0.022795
  77 H :   -0.035079
  78 H :    0.037185
  79 H :    0.026272
  80 H :    0.028875
  81 H :    0.002365
  82 H :    0.003779
  83 H :   -0.018702
  84 H :   -0.015637
  85 H :   -0.010540
  86 H :   -0.014403
  87 H :   -0.016412
  88 H :   -0.018697
  89 H :    0.031206
Sum of atomic charges:   -0.0000000

LOEWDIN ATOMIC CHARGES
----------------------
   0 C :    0.081758
   1 C :   -0.155103
   2 C :   -0.020209
   3 N :   -0.055979
   4 C :   -0.009678
   5 N :   -0.043516
   6 C :   -0.019439
   7 C :   -0.050834
   8 C :    0.023951
   9 C :   -0.033617
  10 C :   -0.144437
  11 C :   -0.007301
  12 S :    0.436898
  13 C :   -0.271262
  14 C :   -0.069981
  15 Br:    0.139278
  16 C :    0.094014
  17 O :   -0.172235
  18 C :   -0.155152
  19 C :    0.122136
  20 N :    0.067687
  21 C :   -0.124686
  22 S :    0.462493
  23 C :   -0.202218
  24 N :    0.276806
  25 O :   -0.188509
  26 O :   -0.238339
  27 C :    0.013969
  28 C :   -0.074696
  29 C :   -0.026335
  30 C :   -0.049283
  31 C :   -0.187134
  32 S :    0.477514
  33 C :   -0.180533
  34 C :   -0.064139
  35 C :   -0.029229
  36 C :   -0.044459
  37 C :    0.000022
  38 C :   -0.099788
  39 C :    0.070081
  40 O :   -0.093145
  41 C :    0.078837
  42 C :    0.014180
  43 C :   -0.053419
  44 C :   -0.044280
  45 C :   -0.157277
  46 C :   -0.032956
  47 C :   -0.040849
  48 C :   -0.177432
  49 S :    0.373492
  50 C :   -0.185167
  51 C :   -0.018367
  52 C :   -0.038826
  53 C :   -0.128238
  54 S :    0.405054
  55 C :   -0.108872
  56 C :   -0.178788
  57 S :    0.453668
  58 C :   -0.210667
  59 C :   -0.013511
  60 C :   -0.037019
  61 O :   -0.017602
  62 C :    0.053819
  63 O :   -0.099117
  64 C :    0.053370
  65 O :   -0.091691
  66 O :   -0.025776
  67 H :    0.041759
  68 H :    0.041922
  69 H :    0.039363
  70 H :    0.043302
  71 H :    0.081557
  72 H :    0.047346
  73 H :    0.042802
  74 H :    0.022762
  75 H :    0.026522
  76 H :    0.029633
  77 H :    0.026596
  78 H :    0.028682
  79 H :    0.016986
  80 H :    0.017756
  81 H :    0.021692
  82 H :    0.020522
  83 H :    0.030003
  84 H :    0.031550
  85 H :    0.032871
  86 H :    0.032279
  87 H :    0.031038
  88 H :    0.032144
  89 H :    0.032976

  Mayer bond orders larger than 0.100000
B(  0-C ,  1-C ) :   1.6140 B(  0-C ,  6-C ) :   1.0028 B(  0-C , 18-C ) :   1.1119
B(  1-C ,  2-C ) :   1.1413 B(  1-C ,  4-C ) :   1.1676 B(  2-C ,  3-N ) :   2.9694
B(  4-C ,  5-N ) :   2.9312 B(  6-C ,  7-C ) :   1.2742 B(  6-C , 11-C ) :   1.4250
B(  7-C ,  8-C ) :   1.4262 B(  7-C , 16-C ) :   0.9797 B(  8-C ,  9-C ) :   1.2408
B(  8-C , 67-H ) :   1.0175 B(  9-C , 10-C ) :   1.3114 B(  9-C , 14-C ) :   1.1653
B( 10-C , 11-C ) :   1.3207 B( 10-C , 12-S ) :   1.0900 B( 11-C , 68-H ) :   0.9788
B( 12-S , 13-C ) :   1.0886 B( 13-C , 14-C ) :   1.6158 B( 13-C , 15-Br) :   1.0212
B( 14-C , 69-H ) :   0.9994 B( 16-C , 17-O ) :   2.0467 B( 16-C , 18-C ) :   0.9953
B( 17-O , 71-H ) :   0.1480 B( 18-C , 19-C ) :   1.4281 B( 19-C , 20-N ) :   1.3798
B( 19-C , 70-H ) :   0.9385 B( 20-N , 21-C ) :   1.1070 B( 20-N , 71-H ) :   0.8254
B( 21-C , 22-S ) :   1.1384 B( 21-C , 28-C ) :   1.4084 B( 22-S , 23-C ) :   1.0919
B( 23-C , 24-N ) :   0.9620 B( 23-C , 27-C ) :   1.4830 B( 24-N , 25-O ) :   1.5366
B( 24-N , 26-O ) :   1.4983 B( 25-O , 26-O ) :   0.2562 B( 27-C , 28-C ) :   1.2004
B( 27-C , 72-H ) :   1.0042 B( 28-C , 29-C ) :   1.1165 B( 29-C , 30-C ) :   1.6981
B( 29-C , 73-H ) :   0.9487 B( 30-C , 31-C ) :   1.0979 B( 30-C , 74-H ) :   0.9539
B( 31-C , 32-S ) :   1.1506 B( 31-C , 33-C ) :   0.1053 B( 31-C , 35-C ) :   1.3964
B( 32-S , 33-C ) :   1.2068 B( 33-C , 34-C ) :   1.4322 B( 33-C , 75-H ) :   0.9691
B( 34-C , 35-C ) :   1.2322 B( 34-C , 39-C ) :   1.1494 B( 35-C , 36-C ) :   1.1548
B( 36-C , 37-C ) :   1.5401 B( 36-C , 42-C ) :   1.0503 B( 37-C , 38-C ) :   1.1700
B( 37-C , 76-H ) :   0.9872 B( 38-C , 39-C ) :   1.4558 B( 38-C , 77-H ) :   0.9966
B( 39-C , 40-O ) :   1.2121 B( 40-O , 41-C ) :   0.9601 B( 41-C , 78-H ) :   0.9796
B( 41-C , 79-H ) :   0.9690 B( 41-C , 80-H ) :   0.9692 B( 42-C , 43-C ) :   1.7129
B( 42-C , 81-H ) :   0.9455 B( 43-C , 44-C ) :   1.1133 B( 43-C , 82-H ) :   0.9676
B( 44-C , 45-C ) :   1.6059 B( 44-C , 83-H ) :   0.9836 B( 45-C , 46-C ) :   1.1256
B( 45-C , 49-S ) :   1.0173 B( 46-C , 47-C ) :   1.5900 B( 46-C , 84-H ) :   1.0013
B( 47-C , 48-C ) :   1.1813 B( 47-C , 85-H ) :   0.9988 B( 48-C , 49-S ) :   1.0502
B( 48-C , 50-C ) :   1.5153 B( 50-C , 51-C ) :   1.1776 B( 50-C , 54-S ) :   1.0461
B( 51-C , 52-C ) :   1.6074 B( 51-C , 86-H ) :   0.9906 B( 52-C , 53-C ) :   1.1324
B( 52-C , 87-H ) :   0.9982 B( 53-C , 54-S ) :   1.0707 B( 53-C , 55-C ) :   1.6081
B( 55-C , 56-C ) :   1.1429 B( 55-C , 88-H ) :   0.9439 B( 56-C , 57-S ) :   1.1412
B( 56-C , 60-C ) :   1.4550 B( 57-S , 58-C ) :   1.1251 B( 58-C , 59-C ) :   1.5540
B( 58-C , 89-H ) :   0.9769 B( 59-C , 60-C ) :   1.2229 B( 59-C , 66-O ) :   1.0361
B( 60-C , 61-O ) :   1.0476 B( 61-O , 62-C ) :   1.0868 B( 62-C , 63-O ) :   2.2228
B( 62-C , 64-C ) :   0.8376 B( 64-C , 65-O ) :   2.2412 B( 64-C , 66-O ) :   1.0965

-----------------------------------------------------------------------------
         ABSORPTION SPECTRUM VIA TRANSITION ELECTRIC DIPOLE MOMENTS
-----------------------------------------------------------------------------
State   Energy  Wavelength   fosc         T2         TX        TY        TZ
        (cm-1)    (nm)                  (au**2)     (au)      (au)      (au)
-----------------------------------------------------------------------------
   0   10838.1    922.7   0.004616013   0.14021   0.37066  -0.04993  -0.01826
   1   14998.1    666.8   0.034518084   0.75768   0.69979   0.50462  -0.11547
   2   15315.7    652.9   0.952856864  20.48171  -2.50012   0.15215  -3.76935
   3   16121.7    620.3   0.062898647   1.28442   0.50933  -0.27223   0.97514
   4   18939.4    528.0   0.023595285   0.41014   0.51432   0.25175   0.28676
   5   20032.7    499.2   0.110508358   1.81607   0.82133  -0.58895   0.89142
   6   20518.0    487.4   0.044910834   0.72060  -0.48934  -0.46985   0.51027
   7   21148.1    472.9   0.181538193   2.82600   1.01809   1.25837   0.45386
   8   23270.5    429.7   0.068282463   0.96600  -0.60795  -0.70627  -0.31238
   9   23748.2    421.1   0.146519231   2.03114   0.84917   0.02653   1.14427
  10   25351.8    394.4   0.055071688   0.71515   0.00860   0.33591  -0.77604
  11   25444.2    393.0   0.066764620   0.86384   0.15627  -0.27757   0.87314
  12   26184.4    381.9   0.175416897   2.20549   1.07961   0.27822   0.98108
  13   27658.3    361.6   0.351553894   4.18448   0.42879  -0.35230   1.96888
  14   27980.8    357.4   0.277036944   3.25952  -0.95646  -1.51074  -0.24974
  15   28745.0    347.9   0.515209114   5.90060  -0.17127   2.28747  -0.79923
  16   29334.7    340.9   0.273725769   3.07192  -1.37834   1.01382  -0.37983
  17   29468.5    339.3   0.009882121   0.11040   0.19359  -0.00118   0.27004
  18   29878.7    334.7   0.532598803   5.86833   2.13520   1.08602   0.36028
  19   30983.6    322.8   0.083708042   0.88943  -0.08521   0.77643  -0.52851
  20   31249.6    320.0   0.046577782   0.49069  -0.07472  -0.67060   0.18817
  21   31568.8    316.8   0.017464914   0.18213   0.42129  -0.04200  -0.05365
  22   31891.8    313.6   0.261853379   2.70306   1.46116  -0.14187   0.74022
  23   32387.5    308.8   0.034159604   0.34723  -0.38291   0.42532  -0.14036
  24   32784.6    305.0   0.052980628   0.53201  -0.40272   0.60813  -0.00152
  25   32926.2    303.7   0.032716723   0.32712   0.06224  -0.50762   0.25607
  26   33399.5    299.4   0.021585793   0.21277  -0.13080  -0.42942   0.10610
  27   33661.5    297.1   0.088456046   0.86511   0.24485  -0.85964   0.25723
  28   33884.2    295.1   0.042592039   0.41382  -0.03628   0.64067   0.04513
  29   33973.0    294.4   0.032671411   0.31660  -0.33918   0.43678  -0.10382
  30   34148.6    292.8   0.059827671   0.57677  -0.63994   0.10689   0.39475
  31   34338.9    291.2   0.319368252   3.06183  -1.27420  -1.00234   0.65844
  32   34527.7    289.6   0.176928882   1.68697  -0.41322  -1.03087   0.67344
  33   34774.4    287.6   0.001564494   0.01481  -0.02656   0.10963  -0.04568
  34   34957.0    286.1   0.017777026   0.16742   0.26673   0.26526  -0.16096
  35   35156.6    284.4   0.054138786   0.50696  -0.27695   0.61413  -0.23045
  36   35532.2    281.4   0.038750406   0.35903   0.17151   0.41266  -0.39915
  37   35928.4    278.3   0.007346247   0.06731  -0.10391   0.01267   0.23739
  38   36096.6    277.0   0.005174160   0.04719   0.18604   0.01331   0.11136
  39   36180.0    276.4   0.018693379   0.17010   0.26729   0.23135  -0.21243
  40   36695.2    272.5   0.108345887   0.97203   0.65890  -0.04395   0.73208
  41   37000.0    270.3   0.053686795   0.47769  -0.11062  -0.57257   0.37096
  42   37207.0    268.8   0.023236332   0.20560  -0.37928  -0.21726   0.12058
  43   37428.4    267.2   0.007985169   0.07024  -0.12078  -0.23537  -0.01571
  44   37771.6    264.7   0.011318856   0.09865   0.21044  -0.22544  -0.05955
  45   37815.6    264.4   0.022369445   0.19474   0.33370  -0.27760   0.07954
  46   38097.7    262.5   0.006765577   0.05846  -0.05402  -0.04122  -0.23205
  47   38332.1    260.9   0.071432987   0.61350  -0.48582   0.01801  -0.61413
  48   38628.1    258.9   0.068361083   0.58261  -0.68481  -0.20845   0.26494
  49   38912.0    257.0   0.017765090   0.15030   0.35389   0.01661   0.15745
  50   39012.0    256.3   0.019676285   0.16604  -0.31488   0.11172  -0.23326
  51   39081.9    255.9   0.056407628   0.47516   0.46282  -0.15998   0.48514
  52   39457.9    253.4   0.198156273   1.65329   0.02264  -0.72272   1.06323
  53   39574.7    252.7   0.027162413   0.22596   0.25676   0.26249   0.30188
  54   39670.5    252.1   0.005815520   0.04826  -0.21248   0.01146   0.05459
  55   39930.2    250.4   0.080955806   0.66745  -0.25853   0.36638  -0.68292

FINAL SINGLE POINT ENERGY     -7622.621386873387

DIPOLE MOMENT
-------------
                                X             Y             Z
Electronic contribution:   -138.88831     -32.60332     -36.43513
Nuclear contribution   :    137.66770      31.64680      36.47028
                        -----------------------------------------
Total Dipole Moment    :     -1.22061      -0.95652       0.03516
                        -----------------------------------------
Magnitude (a.u.)       :      1.55114
Magnitude (Debye)      :      3.94270

Rotational constants in cm-1:     0.001533     0.000358     0.000312
Rotational constants in MHz :    45.972152    10.738636     9.349508

                             ****ORCA TERMINATED NORMALLY****
TOTAL RUN TIME: 0 days 0 hours 18 minutes 21 seconds 833 msec
