                         Program Version 4.2.0 -  RELEASE  -
|  1> # ORCA input file
|  2> # SCF done       -155.091837585303          0.004531714049
|  3> ! CAM-B3LYP def2-SVP def2/J RIJCOSX Grid4 TightSCF
|  4> %maxcore 5000
|  5> %tddft
|  6>     Mode sTDDFT
|  7>     Ethresh 5.0
|  8>     maxcore 5000
|  9> end
| 10>
| 11> %pal
| 12>   nprocs 6
| 13>   end
| 14> * xyz 0 1
| 15>    C       -7.29087         0.86197         1.34832
| 16>    C       -6.64385         0.08880         2.27423
| 17>    C       -6.95591        -1.26306         2.53109
| 18>    N       -7.17311        -2.36210         2.78344
| 19>    C       -5.62129         0.54467         3.13573
| 20>    N       -4.79603         0.83546         3.88006
| 21>    C       -8.40426         0.44799         0.50933
| 22>    C       -8.92538         1.58325        -0.16371
| 23>    C      -10.00596         1.51119        -1.01045
| 24>    C      -10.59512         0.25940        -1.21485
| 25>    C      -10.06230        -0.87208        -0.54741
| 26>    C       -8.97375        -0.79984         0.31238
| 27>    S      -10.94147        -2.31784        -0.94242
| 28>    C      -12.00742        -1.39507        -1.97234
| 29>    C      -11.71447        -0.07370        -2.02689
| 30>   Br      -13.40424        -2.26140        -2.87424
| 31>    C       -8.15970         2.78424         0.22559
| 32>    O       -8.44459         3.93289        -0.00738
| 33>    C       -7.02749         2.27022         1.06340
| 34>    C       -5.96751         3.00132         1.44876
| 35>    C       -5.74199         4.38277         1.01873
| 36>    N       -5.44154         5.25085         1.98127
| 37>    C       -5.27127         6.51253         1.60999
| 38>    C       -5.33579         6.90541         0.28859
| 39>    C       -5.60430         5.90426        -0.65945
| 40>    N       -5.81431         4.64677        -0.27513
| 41>    C       -5.64667         6.23473        -2.06635
| 42>    C       -6.09174         5.43959        -3.04854
| 43>    C       -6.06603         5.90186        -4.43112
| 44>    N       -6.61403         5.13725        -5.37894
| 45>    C       -6.56552         5.61235        -6.61578
| 46>    C       -5.97624         6.82036        -6.94378
| 47>    C       -5.40260         7.54952        -5.88729
| 48>    N       -5.47628         7.06556        -4.64426
| 49>    C       -4.70687         8.80069        -6.03991
| 50>    C       -4.09274         9.33287        -4.94932
| 51>    C       -3.34337        10.50968        -4.81770
| 52>    C       -2.75672        10.83158        -3.61214
| 53>    C       -1.96059        11.94710        -3.27258
| 54>    C       -1.50793        11.94510        -1.98056
| 55>    C       -1.92131        10.82885        -1.23304
| 56>    S       -2.92049         9.78113        -2.21148
| 57>    C       -1.62204        10.48400         0.08084
| 58>    C       -0.82339        11.15973         1.01584
| 59>    C       -0.71708        10.51082         2.22096
| 60>    C       -1.42164         9.29971         2.28943
| 61>    S       -2.24746         9.00578         0.77211
| 62>    C       -1.49332         8.41081         3.35664
| 63>    C       -2.19091         7.22172         3.31476
| 64>    C       -2.30576         6.30373         4.34927
| 65>    C       -3.03537         5.09951         4.31030
| 66>    C       -2.96499         4.36502         5.46072
| 67>    C       -2.17959         4.96226         6.46871
| 68>    S       -1.53214         6.49303         5.90658
| 69>    C       -1.92517         4.48445         7.74000
| 70>    C       -2.39165         3.26716         8.30430
| 71>    C       -1.99959         3.06086         9.58379
| 72>    C       -1.18710         4.10770        10.12931
| 73>    S       -0.95468         5.36177         8.89901
| 74>    C       -0.65962         4.18949        11.36015
| 75>    H      -10.38240         2.39525        -1.50132
| 76>    H       -8.60338        -1.68783         0.79808
| 77>    H      -12.26580         0.64025        -2.61133
| 78>    H       -5.21689         2.59797         2.11533
| 79>    H       -5.07075         7.21189         2.41233
| 80>    H       -5.17693         7.92855        -0.01029
| 81>    H       -5.29622         7.22503        -2.32454
| 82>    H       -6.48281         4.45246        -2.85814
| 83>    H       -7.02069         4.98388        -7.37287
| 84>    H       -5.94664         7.18027        -7.95963
| 85>    H       -4.67553         9.26289        -7.01421
| 86>    H       -4.19417         8.74213        -4.04737
| 87>    H       -3.20590        11.17520        -5.65845
| 88>    H       -1.73835        12.71783        -3.98961
| 89>    H       -0.88758        12.71631        -1.55801
| 90>    H       -0.34271        12.09452         0.78947
| 91>    H       -0.14277        10.87663         3.05383
| 92>    H       -0.96591         8.67947         4.26271
| 93>    H       -2.69873         6.96327         2.39285
| 94>    H       -3.61527         4.81827         3.44760
| 95>    H       -3.45751         3.41869         5.59736
| 96>    H       -3.00150         2.58470         7.73942
| 97>    H       -2.25572         2.19835        10.17300
| 98>    H       -0.82363         3.40965        12.08247
| 99>    H       -0.06195         5.02931        11.66288
|100> *
|101>
|102>                          ****END OF INPUT****

CARTESIAN COORDINATES (ANGSTROEM)
---------------------------------
  C     -7.290870    0.861970    1.348320
  C     -6.643850    0.088800    2.274230
  C     -6.955910   -1.263060    2.531090
  N     -7.173110   -2.362100    2.783440
  C     -5.621290    0.544670    3.135730
  N     -4.796030    0.835460    3.880060
  C     -8.404260    0.447990    0.509330
  C     -8.925380    1.583250   -0.163710
  C    -10.005960    1.511190   -1.010450
  C    -10.595120    0.259400   -1.214850
  C    -10.062300   -0.872080   -0.547410
  C     -8.973750   -0.799840    0.312380
  S    -10.941470   -2.317840   -0.942420
  C    -12.007420   -1.395070   -1.972340
  C    -11.714470   -0.073700   -2.026890
  Br   -13.404240   -2.261400   -2.874240
  C     -8.159700    2.784240    0.225590
  O     -8.444590    3.932890   -0.007380
  C     -7.027490    2.270220    1.063400
  C     -5.967510    3.001320    1.448760
  C     -5.741990    4.382770    1.018730
  N     -5.441540    5.250850    1.981270
  C     -5.271270    6.512530    1.609990
  C     -5.335790    6.905410    0.288590
  C     -5.604300    5.904260   -0.659450
  N     -5.814310    4.646770   -0.275130
  C     -5.646670    6.234730   -2.066350
  C     -6.091740    5.439590   -3.048540
  C     -6.066030    5.901860   -4.431120
  N     -6.614030    5.137250   -5.378940
  C     -6.565520    5.612350   -6.615780
  C     -5.976240    6.820360   -6.943780
  C     -5.402600    7.549520   -5.887290
  N     -5.476280    7.065560   -4.644260
  C     -4.706870    8.800690   -6.039910
  C     -4.092740    9.332870   -4.949320
  C     -3.343370   10.509680   -4.817700
  C     -2.756720   10.831580   -3.612140
  C     -1.960590   11.947100   -3.272580
  C     -1.507930   11.945100   -1.980560
  C     -1.921310   10.828850   -1.233040
  S     -2.920490    9.781130   -2.211480
  C     -1.622040   10.484000    0.080840
  C     -0.823390   11.159730    1.015840
  C     -0.717080   10.510820    2.220960
  C     -1.421640    9.299710    2.289430
  S     -2.247460    9.005780    0.772110
  C     -1.493320    8.410810    3.356640
  C     -2.190910    7.221720    3.314760
  C     -2.305760    6.303730    4.349270
  C     -3.035370    5.099510    4.310300
  C     -2.964990    4.365020    5.460720
  C     -2.179590    4.962260    6.468710
  S     -1.532140    6.493030    5.906580
  C     -1.925170    4.484450    7.740000
  C     -2.391650    3.267160    8.304300
  C     -1.999590    3.060860    9.583790
  C     -1.187100    4.107700   10.129310
  S     -0.954680    5.361770    8.899010
  C     -0.659620    4.189490   11.360150
  H    -10.382400    2.395250   -1.501320
  H     -8.603380   -1.687830    0.798080
  H    -12.265800    0.640250   -2.611330
  H     -5.216890    2.597970    2.115330
  H     -5.070750    7.211890    2.412330
  H     -5.176930    7.928550   -0.010290
  H     -5.296220    7.225030   -2.324540
  H     -6.482810    4.452460   -2.858140
  H     -7.020690    4.983880   -7.372870
  H     -5.946640    7.180270   -7.959630
  H     -4.675530    9.262890   -7.014210
  H     -4.194170    8.742130   -4.047370
  H     -3.205900   11.175200   -5.658450
  H     -1.738350   12.717830   -3.989610
  H     -0.887580   12.716310   -1.558010
  H     -0.342710   12.094520    0.789470
  H     -0.142770   10.876630    3.053830
  H     -0.965910    8.679470    4.262710
  H     -2.698730    6.963270    2.392850
  H     -3.615270    4.818270    3.447600
  H     -3.457510    3.418690    5.597360
  H     -3.001500    2.584700    7.739420
  H     -2.255720    2.198350   10.173000
  H     -0.823630    3.409650   12.082470
  H     -0.061950    5.029310   11.662880

 Total Charge           Charge          ....    0
 Multiplicity           Mult            ....    1
 Number of Electrons    NEL             ....  472
 Basis Dimension        Dim             .... 1003

ORBITAL ENERGIES
----------------

  NO   OCC          E(Eh)            E(eV)
   0   2.0000    -482.887612    -13140.0400
   1   2.0000     -88.977897     -2421.2117
   2   2.0000     -88.944974     -2420.3158
   3   2.0000     -88.942638     -2420.2522
   4   2.0000     -88.939962     -2420.1794
   5   2.0000     -88.939509     -2420.1671
   6   2.0000     -62.565322     -1702.4890
   7   2.0000     -56.399279     -1534.7024
   8   2.0000     -56.396549     -1534.6281
   9   2.0000     -56.396521     -1534.6274
  10   2.0000     -19.217500      -522.9348
  11   2.0000     -14.424006      -392.4972
  12   2.0000     -14.421005      -392.4155
  13   2.0000     -14.413111      -392.2007
  14   2.0000     -14.408138      -392.0654
  15   2.0000     -14.389960      -391.5707
  16   2.0000     -14.388106      -391.5203
  17   2.0000     -10.368630      -282.1448
  18   2.0000     -10.361970      -281.9635
  19   2.0000     -10.349770      -281.6316
  20   2.0000     -10.347760      -281.5769
  21   2.0000     -10.347421      -281.5676
  22   2.0000     -10.329037      -281.0674
  23   2.0000     -10.326720      -281.0043
  24   2.0000     -10.326415      -280.9960
  25   2.0000     -10.323936      -280.9286
  26   2.0000     -10.323318      -280.9118
  27   2.0000     -10.319014      -280.7946
  28   2.0000     -10.313088      -280.6334
  29   2.0000     -10.312681      -280.6223
  30   2.0000     -10.312665      -280.6219
  31   2.0000     -10.311989      -280.6035
  32   2.0000     -10.311336      -280.5857
  33   2.0000     -10.311244      -280.5832
  34   2.0000     -10.309935      -280.5476
  35   2.0000     -10.306977      -280.4671
  36   2.0000     -10.306885      -280.4646
  37   2.0000     -10.305941      -280.4389
  38   2.0000     -10.305387      -280.4238
  39   2.0000     -10.305376      -280.4235
  40   2.0000     -10.305077      -280.4154
  41   2.0000     -10.303211      -280.3646
  42   2.0000     -10.301769      -280.3254
  43   2.0000     -10.301270      -280.3118
  44   2.0000     -10.298906      -280.2475
  45   2.0000     -10.295639      -280.1586
  46   2.0000     -10.287223      -279.9296
  47   2.0000     -10.286283      -279.9040
  48   2.0000     -10.284215      -279.8477
  49   2.0000     -10.283997      -279.8418
  50   2.0000     -10.283646      -279.8322
  51   2.0000     -10.282379      -279.7977
  52   2.0000     -10.281723      -279.7799
  53   2.0000     -10.280307      -279.7414
  54   2.0000     -10.276561      -279.6395
  55   2.0000     -10.274387      -279.5803
  56   2.0000     -10.272135      -279.5190
  57   2.0000     -10.271260      -279.4952
  58   2.0000     -10.269462      -279.4463
  59   2.0000     -10.267623      -279.3962
  60   2.0000     -10.265998      -279.3520
  61   2.0000     -10.265531      -279.3393
  62   2.0000     -10.264934      -279.3231
  63   2.0000     -10.257472      -279.1200
  64   2.0000      -8.794750      -239.3173
  65   2.0000      -8.073863      -219.7010
  66   2.0000      -8.040997      -218.8067
  67   2.0000      -8.038982      -218.7518
  68   2.0000      -8.036612      -218.6873
  69   2.0000      -8.035493      -218.6569
  70   2.0000      -6.631086      -180.4410
  71   2.0000      -6.616469      -180.0433
  72   2.0000      -6.616254      -180.0374
  73   2.0000      -6.043552      -164.4534
  74   2.0000      -6.039302      -164.3378
  75   2.0000      -6.035066      -164.2225
  76   2.0000      -6.010616      -163.5572
  77   2.0000      -6.008610      -163.5026
  78   2.0000      -6.006631      -163.4487
  79   2.0000      -6.006379      -163.4419
  80   2.0000      -6.005175      -163.4091
  81   2.0000      -6.004683      -163.3957
  82   2.0000      -6.002477      -163.3357
  83   2.0000      -6.002167      -163.3273
  84   2.0000      -6.001221      -163.3015
  85   2.0000      -6.000020      -163.2689
  86   2.0000      -5.997262      -163.1938
  87   2.0000      -5.996525      -163.1738
  88   2.0000      -2.746968       -74.7488
  89   2.0000      -2.742873       -74.6374
  90   2.0000      -2.742654       -74.6314
  91   2.0000      -2.731079       -74.3164
  92   2.0000      -2.731067       -74.3161
  93   2.0000      -1.133521       -30.8447
  94   2.0000      -1.084281       -29.5048
  95   2.0000      -1.065529       -28.9945
  96   2.0000      -1.026545       -27.9337
  97   2.0000      -1.017659       -27.6919
  98   2.0000      -1.000165       -27.2159
  99   2.0000      -0.993009       -27.0211
 100   2.0000      -0.992754       -27.0142
 101   2.0000      -0.990335       -26.9484
 102   2.0000      -0.981123       -26.6977
 103   2.0000      -0.971091       -26.4247
 104   2.0000      -0.967042       -26.3145
 105   2.0000      -0.963926       -26.2298
 106   2.0000      -0.946322       -25.7507
 107   2.0000      -0.918176       -24.9848
 108   2.0000      -0.911868       -24.8132
 109   2.0000      -0.905477       -24.6393
 110   2.0000      -0.900514       -24.5042
 111   2.0000      -0.888886       -24.1878
 112   2.0000      -0.887586       -24.1524
 113   2.0000      -0.881542       -23.9880
 114   2.0000      -0.870524       -23.6882
 115   2.0000      -0.853022       -23.2119
 116   2.0000      -0.848913       -23.1001
 117   2.0000      -0.842043       -22.9131
 118   2.0000      -0.838091       -22.8056
 119   2.0000      -0.834394       -22.7050
 120   2.0000      -0.831722       -22.6323
 121   2.0000      -0.824792       -22.4437
 122   2.0000      -0.816204       -22.2100
 123   2.0000      -0.812666       -22.1138
 124   2.0000      -0.792158       -21.5557
 125   2.0000      -0.784171       -21.3384
 126   2.0000      -0.766368       -20.8539
 127   2.0000      -0.765250       -20.8235
 128   2.0000      -0.761453       -20.7202
 129   2.0000      -0.741716       -20.1831
 130   2.0000      -0.737222       -20.0608
 131   2.0000      -0.722345       -19.6560
 132   2.0000      -0.710252       -19.3269
 133   2.0000      -0.700897       -19.0724
 134   2.0000      -0.694984       -18.9115
 135   2.0000      -0.690921       -18.8009
 136   2.0000      -0.681506       -18.5447
 137   2.0000      -0.673587       -18.3292
 138   2.0000      -0.670487       -18.2449
 139   2.0000      -0.659909       -17.9570
 140   2.0000      -0.656134       -17.8543
 141   2.0000      -0.647767       -17.6266
 142   2.0000      -0.637221       -17.3397
 143   2.0000      -0.628370       -17.0988
 144   2.0000      -0.627278       -17.0691
 145   2.0000      -0.622653       -16.9433
 146   2.0000      -0.618559       -16.8318
 147   2.0000      -0.616088       -16.7646
 148   2.0000      -0.609487       -16.5850
 149   2.0000      -0.604115       -16.4388
 150   2.0000      -0.603015       -16.4089
 151   2.0000      -0.598043       -16.2736
 152   2.0000      -0.594948       -16.1894
 153   2.0000      -0.590270       -16.0621
 154   2.0000      -0.589566       -16.0429
 155   2.0000      -0.575464       -15.6592
 156   2.0000      -0.570751       -15.5309
 157   2.0000      -0.564600       -15.3636
 158   2.0000      -0.555183       -15.1073
 159   2.0000      -0.550942       -14.9919
 160   2.0000      -0.545473       -14.8431
 161   2.0000      -0.542682       -14.7671
 162   2.0000      -0.542348       -14.7580
 163   2.0000      -0.534219       -14.5368
 164   2.0000      -0.532582       -14.4923
 165   2.0000      -0.527206       -14.3460
 166   2.0000      -0.523015       -14.2320
 167   2.0000      -0.517241       -14.0748
 168   2.0000      -0.515033       -14.0148
 169   2.0000      -0.513385       -13.9699
 170   2.0000      -0.511752       -13.9255
 171   2.0000      -0.510702       -13.8969
 172   2.0000      -0.507580       -13.8120
 173   2.0000      -0.505387       -13.7523
 174   2.0000      -0.501934       -13.6583
 175   2.0000      -0.497257       -13.5310
 176   2.0000      -0.495205       -13.4752
 177   2.0000      -0.494781       -13.4637
 178   2.0000      -0.494143       -13.4463
 179   2.0000      -0.493932       -13.4406
 180   2.0000      -0.491464       -13.3734
 181   2.0000      -0.490200       -13.3390
 182   2.0000      -0.488396       -13.2899
 183   2.0000      -0.478572       -13.0226
 184   2.0000      -0.475597       -12.9417
 185   2.0000      -0.472050       -12.8451
 186   2.0000      -0.466438       -12.6924
 187   2.0000      -0.465312       -12.6618
 188   2.0000      -0.460903       -12.5418
 189   2.0000      -0.460258       -12.5243
 190   2.0000      -0.457840       -12.4584
 191   2.0000      -0.456396       -12.4192
 192   2.0000      -0.455907       -12.4058
 193   2.0000      -0.452615       -12.3163
 194   2.0000      -0.449948       -12.2437
 195   2.0000      -0.449664       -12.2360
 196   2.0000      -0.448152       -12.1948
 197   2.0000      -0.442381       -12.0378
 198   2.0000      -0.433284       -11.7902
 199   2.0000      -0.432081       -11.7575
 200   2.0000      -0.430984       -11.7277
 201   2.0000      -0.429671       -11.6919
 202   2.0000      -0.428611       -11.6631
 203   2.0000      -0.421856       -11.4793
 204   2.0000      -0.420758       -11.4494
 205   2.0000      -0.417756       -11.3677
 206   2.0000      -0.415266       -11.3000
 207   2.0000      -0.415030       -11.2935
 208   2.0000      -0.409752       -11.1499
 209   2.0000      -0.400624       -10.9015
 210   2.0000      -0.397420       -10.8143
 211   2.0000      -0.390503       -10.6261
 212   2.0000      -0.389082       -10.5875
 213   2.0000      -0.383359       -10.4317
 214   2.0000      -0.379601       -10.3295
 215   2.0000      -0.378752       -10.3064
 216   2.0000      -0.376760       -10.2522
 217   2.0000      -0.371836       -10.1182
 218   2.0000      -0.361268        -9.8306
 219   2.0000      -0.360215        -9.8019
 220   2.0000      -0.353755        -9.6262
 221   2.0000      -0.337245        -9.1769
 222   2.0000      -0.335382        -9.1262
 223   2.0000      -0.334165        -9.0931
 224   2.0000      -0.325641        -8.8612
 225   2.0000      -0.324790        -8.8380
 226   2.0000      -0.321932        -8.7602
 227   2.0000      -0.318366        -8.6632
 228   2.0000      -0.316418        -8.6102
 229   2.0000      -0.314624        -8.5614
 230   2.0000      -0.306755        -8.3472
 231   2.0000      -0.296677        -8.0730
 232   2.0000      -0.294106        -8.0030
 233   2.0000      -0.282411        -7.6848
 234   2.0000      -0.240356        -6.5404
 235   2.0000      -0.190172        -5.1748
 236   0.0000      -0.094636        -2.5752
 237   0.0000      -0.090418        -2.4604
 238   0.0000      -0.055629        -1.5138
 239   0.0000      -0.045517        -1.2386
 240   0.0000      -0.041460        -1.1282

MULLIKEN ATOMIC CHARGES
-----------------------
   0 C :    0.296683
   1 C :   -0.334833
   2 C :   -0.186674
   3 N :    0.157884
   4 C :   -0.182875
   5 N :    0.150714
   6 C :    0.015501
   7 C :   -0.014887
   8 C :   -0.062869
   9 C :    0.114804
  10 C :   -0.087670
  11 C :   -0.017552
  12 S :    0.187855
  13 C :   -0.123217
  14 C :    0.041916
  15 Br:    0.028482
  16 C :    0.155660
  17 O :   -0.123390
  18 C :   -0.062663
  19 C :    0.025853
  20 C :   -0.033364
  21 N :   -0.110133
  22 C :    0.090368
  23 C :   -0.033091
  24 C :    0.061546
  25 N :   -0.042441
  26 C :    0.032723
  27 C :    0.067156
  28 C :   -0.064296
  29 N :   -0.080680
  30 C :    0.075563
  31 C :   -0.045238
  32 C :    0.067333
  33 N :   -0.088998
  34 C :   -0.038024
  35 C :    0.043833
  36 C :    0.005420
  37 C :   -0.014703
  38 C :    0.022147
  39 C :    0.034231
  40 C :   -0.048785
  41 S :    0.044426
  42 C :   -0.024242
  43 C :    0.008985
  44 C :    0.035895
  45 C :   -0.037948
  46 S :    0.060796
  47 C :    0.014896
  48 C :   -0.041999
  49 C :   -0.013475
  50 C :    0.041988
  51 C :    0.023591
  52 C :   -0.047482
  53 S :    0.080679
  54 C :   -0.061397
  55 C :    0.026207
  56 C :    0.056103
  57 C :   -0.069964
  58 S :    0.086223
  59 C :   -0.023533
  60 H :   -0.004643
  61 H :   -0.003504
  62 H :    0.000129
  63 H :    0.043575
  64 H :    0.018212
  65 H :    0.003204
  66 H :    0.002143
  67 H :   -0.005188
  68 H :   -0.000158
  69 H :   -0.014140
  70 H :   -0.034868
  71 H :    0.030111
  72 H :   -0.024619
  73 H :   -0.014986
  74 H :   -0.013860
  75 H :   -0.016483
  76 H :   -0.012366
  77 H :   -0.006435
  78 H :   -0.004519
  79 H :   -0.022280
  80 H :   -0.001135
  81 H :    0.003008
  82 H :   -0.007887
  83 H :    0.023621
  84 H :    0.024034
Sum of atomic charges:   -0.0000000

LOEWDIN ATOMIC CHARGES
----------------------
   0 C :    0.079387
   1 C :   -0.132675
   2 C :   -0.018101
   3 N :   -0.047321
   4 C :   -0.013667
   5 N :   -0.053717
   6 C :   -0.023029
   7 C :   -0.048059
   8 C :    0.025051
   9 C :   -0.028411
  10 C :   -0.142967
  11 C :   -0.007408
  12 S :    0.432832
  13 C :   -0.268642
  14 C :   -0.069095
  15 Br:    0.140807
  16 C :    0.086193
  17 O :   -0.117942
  18 C :   -0.062422
  19 C :    0.072303
  20 C :    0.018548
  21 N :   -0.087647
  22 C :    0.047947
  23 C :   -0.045765
  24 C :    0.042995
  25 N :   -0.066292
  26 C :   -0.016083
  27 C :    0.015844
  28 C :    0.023326
  29 N :   -0.108045
  30 C :    0.045136
  31 C :   -0.072870
  32 C :    0.041764
  33 N :   -0.086371
  34 C :   -0.069431
  35 C :    0.008618
  36 C :   -0.079257
  37 C :   -0.120311
  38 C :   -0.052698
  39 C :   -0.021478
  40 C :   -0.196575
  41 S :    0.373375
  42 C :   -0.163924
  43 C :   -0.048578
  44 C :   -0.027239
  45 C :   -0.161325
  46 S :    0.380094
  47 C :   -0.039985
  48 C :   -0.081927
  49 C :   -0.130184
  50 C :   -0.034760
  51 C :   -0.020402
  52 C :   -0.181262
  53 S :    0.373160
  54 C :   -0.167585
  55 C :   -0.023488
  56 C :   -0.027177
  57 C :   -0.139498
  58 S :    0.358844
  59 C :   -0.069145
  60 H :    0.043355
  61 H :    0.041401
  62 H :    0.040239
  63 H :    0.048389
  64 H :    0.027919
  65 H :    0.032598
  66 H :    0.031025
  67 H :    0.035843
  68 H :    0.023365
  69 H :    0.030180
  70 H :    0.022011
  71 H :    0.019867
  72 H :    0.028251
  73 H :    0.032079
  74 H :    0.032002
  75 H :    0.030756
  76 H :    0.033995
  77 H :    0.030401
  78 H :    0.025503
  79 H :    0.029760
  80 H :    0.037410
  81 H :    0.037995
  82 H :    0.034960
  83 H :    0.030089
  84 H :    0.027141

  Mayer bond orders larger than 0.100000
B(  0-C ,  1-C ) :   1.6603 B(  0-C ,  6-C ) :   1.0227 B(  0-C , 18-C ) :   1.0255
B(  1-C ,  2-C ) :   1.1355 B(  1-C ,  4-C ) :   1.1385 B(  2-C ,  3-N ) :   2.9790
B(  4-C ,  5-N ) :   2.9840 B(  6-C ,  7-C ) :   1.2690 B(  6-C , 11-C ) :   1.3972
B(  7-C ,  8-C ) :   1.4218 B(  7-C , 16-C ) :   0.9351 B(  8-C ,  9-C ) :   1.2552
B(  8-C , 60-H ) :   1.0157 B(  9-C , 10-C ) :   1.2958 B(  9-C , 14-C ) :   1.1644
B( 10-C , 11-C ) :   1.3432 B( 10-C , 12-S ) :   1.0846 B( 11-C , 61-H ) :   0.9802
B( 12-S , 13-C ) :   1.0859 B( 13-C , 14-C ) :   1.6174 B( 13-C , 15-Br) :   1.0222
B( 14-C , 62-H ) :   1.0003 B( 16-C , 17-O ) :   2.2597 B( 16-C , 18-C ) :   0.9050
B( 18-C , 19-C ) :   1.8211 B( 19-C , 20-C ) :   0.9588 B( 19-C , 63-H ) :   0.9332
B( 20-C , 21-N ) :   1.4802 B( 20-C , 25-N ) :   1.5199 B( 21-N , 22-C ) :   1.4879
B( 22-C , 23-C ) :   1.3960 B( 22-C , 64-H ) :   0.9695 B( 23-C , 24-C ) :   1.3179
B( 23-C , 65-H ) :   0.9719 B( 24-C , 25-N ) :   1.5184 B( 24-C , 26-C ) :   1.0494
B( 26-C , 27-C ) :   1.7432 B( 26-C , 66-H ) :   0.9633 B( 27-C , 28-C ) :   0.9987
B( 27-C , 67-H ) :   0.9834 B( 28-C , 29-N ) :   1.5125 B( 28-C , 33-N ) :   1.5671
B( 29-N , 30-C ) :   1.5246 B( 30-C , 31-C ) :   1.4034 B( 30-C , 68-H ) :   0.9783
B( 31-C , 32-C ) :   1.2974 B( 31-C , 69-H ) :   0.9759 B( 32-C , 33-N ) :   1.4826
B( 32-C , 34-C ) :   1.0905 B( 34-C , 35-C ) :   1.6339 B( 34-C , 70-H ) :   0.9880
B( 35-C , 36-C ) :   1.1622 B( 35-C , 71-H ) :   0.9469 B( 36-C , 37-C ) :   1.5214
B( 36-C , 72-H ) :   0.9857 B( 37-C , 38-C ) :   1.1675 B( 37-C , 41-S ) :   1.0525
B( 38-C , 39-C ) :   1.5459 B( 38-C , 73-H ) :   0.9983 B( 39-C , 40-C ) :   1.2323
B( 39-C , 74-H ) :   0.9942 B( 40-C , 41-S ) :   1.0411 B( 40-C , 42-C ) :   1.4378
B( 42-C , 43-C ) :   1.2364 B( 42-C , 46-S ) :   1.0657 B( 43-C , 44-C ) :   1.5209
B( 43-C , 75-H ) :   0.9957 B( 44-C , 45-C ) :   1.2059 B( 44-C , 76-H ) :   0.9997
B( 45-C , 46-S ) :   1.0359 B( 45-C , 47-C ) :   1.4865 B( 47-C , 48-C ) :   1.2420
B( 47-C , 77-H ) :   0.9742 B( 48-C , 49-C ) :   1.4899 B( 48-C , 78-H ) :   0.9647
B( 49-C , 50-C ) :   1.1810 B( 49-C , 53-S ) :   1.0565 B( 50-C , 51-C ) :   1.5590
B( 50-C , 79-H ) :   0.9841 B( 51-C , 52-C ) :   1.1952 B( 51-C , 80-H ) :   0.9942
B( 52-C , 53-S ) :   1.0387 B( 52-C , 54-C ) :   1.5108 B( 54-C , 55-C ) :   1.1661
B( 54-C , 58-S ) :   1.0579 B( 55-C , 56-C ) :   1.6476 B( 55-C , 81-H ) :   0.9938
B( 56-C , 57-C ) :   1.0837 B( 56-C , 82-H ) :   0.9935 B( 57-C , 58-S ) :   1.0071
B( 57-C , 59-C ) :   1.8567 B( 59-C , 83-H ) :   0.9509 B( 59-C , 84-H ) :   0.9413

-----------------------------------------------------------------------------
         ABSORPTION SPECTRUM VIA TRANSITION ELECTRIC DIPOLE MOMENTS
-----------------------------------------------------------------------------
State   Energy  Wavelength   fosc         T2         TX        TY        TZ
        (cm-1)    (nm)                  (au**2)     (au)      (au)      (au)
-----------------------------------------------------------------------------
   0    9401.1   1063.7   1.323445735  46.34486  -1.09900   2.31248  -6.30789
   1   10795.7    926.3   0.001380299   0.04209  -0.00353   0.10775  -0.17455
   2   16834.7    594.0   0.007186698   0.14054  -0.04773  -0.27228   0.25323
   3   17783.8    562.3   0.002859818   0.05294   0.11099   0.11659   0.16440
   4   18503.9    540.4   0.000311630   0.00554   0.01262  -0.01707   0.07137
   5   20630.7    484.7   0.487958397   7.78653   1.05516   2.46187  -0.78254
   6   21723.5    460.3   0.000015722   0.00024   0.00543   0.01354   0.00505
   7   24625.9    406.1   0.007826360   0.10463   0.01645   0.21707  -0.23924
   8   27515.7    363.4   0.038272183   0.45791   0.49148   0.31932   0.33821
   9   28060.0    356.4   0.482040350   5.65549  -1.76521  -0.95805  -1.27345
  10   28140.0    355.4   0.050399640   0.58963  -0.29323   0.45350  -0.54588
  11   28531.0    350.5   0.011822405   0.13642  -0.23389  -0.24814  -0.14191
  12   28746.8    347.9   0.086658758   0.99243  -0.36702  -0.92246   0.08247
  13   29093.0    343.7   0.106950064   1.21023   0.58966   0.73619   0.56618
  14   29447.0    339.6   0.012832979   0.14347   0.21278   0.28616   0.12771
  15   29505.5    338.9   0.076406414   0.85252  -0.56309  -0.73144   0.02099
  16   29624.3    337.6   0.028305675   0.31456   0.45856   0.23762   0.21868
  17   29860.0    334.9   0.261335141   2.88127  -0.93317  -1.19943  -0.75621
  18   30280.4    330.2   0.112075744   1.21850  -0.38770   0.64305  -0.80912
  19   30401.1    328.9   0.008134285   0.08809   0.02268  -0.18177  -0.23352
  20   30547.2    327.4   0.014985840   0.16150   0.13150   0.37841  -0.03189
  21   31078.8    321.8   0.004234478   0.04486   0.02048  -0.05626   0.20315
  22   31114.7    321.4   0.013276957   0.14048   0.28452   0.14867   0.19346
  23   31368.9    318.8   0.032525642   0.34135   0.07346   0.39248  -0.42651
  24   31536.5    317.1   0.008433580   0.08804  -0.05440  -0.26179   0.12863
  25   31915.9    313.3   0.239334905   2.46874  -0.91687  -1.22939  -0.34160
  26   32358.0    309.0   0.003935094   0.04004   0.05527  -0.02822  -0.19022
  27   32691.4    305.9   0.004440650   0.04472  -0.09994  -0.18614  -0.00907
  28   33714.2    296.6   0.002605703   0.02544   0.09189   0.10774   0.07342
  29   34040.2    293.8   0.142159111   1.37486  -0.14427  -0.94091   0.68464
  30   34149.7    292.8   0.413962257   3.99070   1.62303   0.21339   1.14497
  31   34275.6    291.8   0.148350257   1.42488   0.74554  -0.46134   0.81007
  32   34729.4    287.9   0.025091787   0.23785  -0.17964  -0.13293  -0.43349
  33   34828.6    287.1   0.011233041   0.10618   0.04386   0.26394  -0.18599
  34   34875.9    286.7   0.012278521   0.11590  -0.17103  -0.09615  -0.27822
  35   35117.7    284.8   0.145489477   1.36389  -0.27390  -0.91313   0.67459
  36   35405.9    282.4   0.004140112   0.03850   0.10625  -0.04941   0.15737
  37   35763.3    279.6   0.001268163   0.01167  -0.02028   0.09742  -0.04209
  38   36314.9    275.4   0.001627985   0.01476   0.05467   0.03657  -0.10214
  39   36440.7    274.4   0.049394107   0.44623  -0.26607   0.17106  -0.58837
  40   36761.1    272.0   0.222595710   1.99344  -0.00868  -0.31200   1.37696
  41   37120.8    269.4   0.005458113   0.04841  -0.10050  -0.08284   0.17732
  42   37182.0    268.9   0.006441393   0.05703   0.06313   0.10119   0.20690
  43   37580.6    266.1   0.109637159   0.96044   0.40589   0.64851  -0.61248
  44   37845.1    264.2   0.055844742   0.48579   0.32230   0.37744   0.48934
  45   38242.7    261.5   0.081670925   0.70306  -0.30543  -0.17171  -0.76177
  46   38292.9    261.1   0.069405386   0.59669   0.23367   0.13761   0.72329
  47   38517.5    259.6   0.014790689   0.12642  -0.15952  -0.04113  -0.31508
  48   38732.1    258.2   0.343773042   2.92198   0.12655  -0.51779   1.62415
  49   38998.6    256.4   0.013908700   0.11741  -0.23307  -0.19315   0.16058
  50   39375.1    254.0   0.104579081   0.87438  -0.07530  -0.13320   0.92248
  51   39487.2    253.2   0.045336452   0.37798  -0.03621  -0.19306   0.58258
  52   39713.7    251.8   0.004854683   0.04024  -0.11827  -0.14426  -0.07380
  53   39781.7    251.4   0.027944983   0.23126   0.46087   0.12205   0.06294
  54   39846.9    251.0   0.049594263   0.40974   0.48593   0.04432   0.41431
  55   39968.1    250.2   0.011055479   0.09106   0.04267   0.20847  -0.21397
  56   40075.7    249.5   0.137782997   1.13185  -0.17682  -0.96346   0.41512
  57   40205.2    248.7   0.274245963   2.24560  -0.59222  -1.19244  -0.68773

FINAL SINGLE POINT ENERGY     -6771.141842695026

DIPOLE MOMENT
-------------
                                X             Y             Z
Electronic contribution:   -106.52096    -104.40931     -36.66499
Nuclear contribution   :    106.28292     105.63115      36.18296
                        -----------------------------------------
Total Dipole Moment    :     -0.23805       1.22183      -0.48203
                        -----------------------------------------
Magnitude (a.u.)       :      1.33488
Magnitude (Debye)      :      3.39299

Rotational constants in cm-1:     0.000926     0.000562     0.000356
Rotational constants in MHz :    27.773904    16.848231    10.678023

                             ****ORCA TERMINATED NORMALLY****
TOTAL RUN TIME: 0 days 0 hours 9 minutes 53 seconds 948 msec
