                         Program Version 4.2.0 -  RELEASE  -
|  1> # ORCA input file
|  2> # SCF done       -199.775164215500          0.000751742838
|  3> ! CAM-B3LYP def2-SVP def2/J RIJCOSX Grid4 TightSCF
|  4> %maxcore 5000
|  5> %tddft
|  6>     Mode sTDDFT
|  7>     Ethresh 5.0
|  8>     maxcore 5000
|  9> end
| 10>
| 11> %pal
| 12>   nprocs 6
| 13>   end
| 14> * xyz 0 1
| 15>    C       -3.40963        -3.52032        -7.30857
| 16>    C       -2.49200        -3.35381        -8.30804
| 17>    F       -2.89889        -3.23533        -9.57956
| 18>    C       -1.11404        -3.30498        -8.01734
| 19>    F       -0.24056        -3.14224        -9.01991
| 20>    C       -0.67210        -3.42074        -6.72874
| 21>    C       -1.59263        -3.59197        -5.67734
| 22>    C       -2.98678        -3.64393        -5.97017
| 23>    C       -3.92727        -3.83016        -4.92959
| 24>    C       -3.48029        -3.95881        -3.64267
| 25>    C       -2.08643        -3.90293        -3.36006
| 26>    C       -1.15413        -3.72450        -4.34006
| 27>    C       -1.87592        -4.09646        -1.91761
| 28>    O       -0.81224        -4.08205        -1.32940
| 29>    C       -3.20962        -4.38381        -1.35357
| 30>    C       -4.19008        -4.16188        -2.38675
| 31>    C       -5.52506        -3.93231        -2.17033
| 32>    C       -6.41908        -3.50249        -3.16793
| 33>    N       -7.18339        -3.10412        -3.92696
| 34>    C       -6.10603        -3.93956        -0.88802
| 35>    N       -6.60892        -3.87643         0.14291
| 36>    C       -3.43305        -4.87486        -0.09343
| 37>    N       -2.59238        -4.72147         0.95378
| 38>    C       -1.67061        -3.71260         1.06482
| 39>    S       -0.13654        -3.99086         1.81155
| 40>    C        0.34392        -2.38287         1.38285
| 41>    N        1.65050        -1.99946         1.68902
| 42>    O        2.00148        -0.87218         1.39127
| 43>    O        2.35478        -2.84320         2.22366
| 44>    C       -0.63620        -1.67229         0.73757
| 45>    C       -1.81395        -2.41581         0.56813
| 46>    C       -3.01616        -1.94163        -0.09910
| 47>    C       -2.95819        -1.26408        -1.25184
| 48>    C       -4.05483        -0.81923        -2.08435
| 49>    C       -5.23082        -0.29477        -1.72294
| 50>    C       -5.66724        -0.08962        -0.30954
| 51>    C       -6.20999         0.16786        -2.78380
| 52>    N       -6.50454         1.58725        -2.71183
| 53>    C       -5.60976         2.56951        -2.93633
| 54>    C       -4.28950         2.35816        -3.19620
| 55>    C       -3.29256         3.33730        -3.32390
| 56>    C       -1.96170         2.98972        -3.34450
| 57>    C       -0.80559         3.80029        -3.36423
| 58>    C        0.36865         3.11746        -3.20565
| 59>    C        0.20331         1.72572        -3.05090
| 60>    S       -1.47974         1.30103        -3.18996
| 61>    C        1.12332         0.73738        -2.73186
| 62>    C        2.50306         0.81768        -2.47707
| 63>    C        3.05963        -0.35566        -2.04083
| 64>    C        2.14172        -1.41714        -1.92181
| 65>    S        0.56213        -0.90039        -2.45132
| 66>    C        2.26092        -2.69674        -1.40502
| 67>    C        3.40415        -3.24102        -0.84063
| 68>    C        3.44847        -4.41006        -0.09977
| 69>    C        4.55598        -4.61759         0.85614
| 70>    O        5.64446        -4.08673         0.84749
| 71>    C        4.03224        -5.58968         1.84435
| 72>    C        4.60607        -6.04031         2.99470
| 73>    C        3.88767        -6.94250         3.81411
| 74>    C        2.58612        -7.36199         3.41697
| 75>    C        1.87493        -8.25655         4.24025
| 76>    C        2.42933        -8.71542         5.40214
| 77>    C        3.71590        -8.30176         5.79311
| 78>    C        4.43128        -7.43370         5.01591
| 79>    F        4.23731        -8.76823         6.93977
| 80>    F        1.74493        -9.56836         6.18295
| 81>    C        2.02245        -6.88494         2.21062
| 82>    C        2.73469        -6.00990         1.43819
| 83>    C        2.42648        -5.37885         0.15550
| 84>    C        1.40751        -5.76762        -0.69505
| 85>    C        1.39039        -5.45664        -2.06633
| 86>    N        1.38747        -5.29226        -3.20431
| 87>    C        0.28586        -6.49788        -0.28211
| 88>    N       -0.70273        -6.99332         0.04157
| 89>    H       -4.46026        -3.55846        -7.55104
| 90>    H        0.38502        -3.39057        -6.51704
| 91>    H       -4.97584        -3.88621        -5.17770
| 92>    H       -0.10086        -3.71441        -4.10383
| 93>    H       -4.32587        -5.45030         0.11968
| 94>    H       -2.55033        -5.46487         1.64066
| 95>    H       -0.50547        -0.65630         0.41310
| 96>    H       -3.96106        -2.25024         0.32804
| 97>    H       -1.98227        -1.08320        -1.68362
| 98>    H       -3.82748        -0.88796        -3.14356
| 99>    H       -4.81000        -0.02515         0.35515
|100>    H       -6.29143        -0.92326         0.01532
|101>    H       -6.25474         0.82213        -0.22138
|102>    H       -7.15295        -0.36924        -2.65516
|103>    H       -5.81689        -0.07465        -3.77735
|104>    H       -7.45596         1.84998        -2.51799
|105>    H       -6.00263         3.57540        -2.86554
|106>    H       -3.94153         1.34006        -3.23891
|107>    H       -3.55745         4.38521        -3.35127
|108>    H       -0.87160         4.86914        -3.47016
|109>    H        1.33839         3.58071        -3.17095
|110>    H        3.05070         1.73566        -2.59695
|111>    H        4.09436        -0.46673        -1.77333
|112>    H        1.34119        -3.26261        -1.37195
|113>    H        4.31717        -2.65875        -0.83433
|114>    H        5.59297        -5.71168         3.28216
|115>    H        0.88855        -8.58737         3.95441
|116>    H        5.41617        -7.12528         5.32977
|117>    H        1.03516        -7.21863         1.93199
|118> *
|119>
|120>                          ****END OF INPUT****

CARTESIAN COORDINATES (ANGSTROEM)
---------------------------------
  C     -3.409630   -3.520320   -7.308570
  C     -2.492000   -3.353810   -8.308040
  F     -2.898890   -3.235330   -9.579560
  C     -1.114040   -3.304980   -8.017340
  F     -0.240560   -3.142240   -9.019910
  C     -0.672100   -3.420740   -6.728740
  C     -1.592630   -3.591970   -5.677340
  C     -2.986780   -3.643930   -5.970170
  C     -3.927270   -3.830160   -4.929590
  C     -3.480290   -3.958810   -3.642670
  C     -2.086430   -3.902930   -3.360060
  C     -1.154130   -3.724500   -4.340060
  C     -1.875920   -4.096460   -1.917610
  O     -0.812240   -4.082050   -1.329400
  C     -3.209620   -4.383810   -1.353570
  C     -4.190080   -4.161880   -2.386750
  C     -5.525060   -3.932310   -2.170330
  C     -6.419080   -3.502490   -3.167930
  N     -7.183390   -3.104120   -3.926960
  C     -6.106030   -3.939560   -0.888020
  N     -6.608920   -3.876430    0.142910
  C     -3.433050   -4.874860   -0.093430
  N     -2.592380   -4.721470    0.953780
  C     -1.670610   -3.712600    1.064820
  S     -0.136540   -3.990860    1.811550
  C      0.343920   -2.382870    1.382850
  N      1.650500   -1.999460    1.689020
  O      2.001480   -0.872180    1.391270
  O      2.354780   -2.843200    2.223660
  C     -0.636200   -1.672290    0.737570
  C     -1.813950   -2.415810    0.568130
  C     -3.016160   -1.941630   -0.099100
  C     -2.958190   -1.264080   -1.251840
  C     -4.054830   -0.819230   -2.084350
  C     -5.230820   -0.294770   -1.722940
  C     -5.667240   -0.089620   -0.309540
  C     -6.209990    0.167860   -2.783800
  N     -6.504540    1.587250   -2.711830
  C     -5.609760    2.569510   -2.936330
  C     -4.289500    2.358160   -3.196200
  C     -3.292560    3.337300   -3.323900
  C     -1.961700    2.989720   -3.344500
  C     -0.805590    3.800290   -3.364230
  C      0.368650    3.117460   -3.205650
  C      0.203310    1.725720   -3.050900
  S     -1.479740    1.301030   -3.189960
  C      1.123320    0.737380   -2.731860
  C      2.503060    0.817680   -2.477070
  C      3.059630   -0.355660   -2.040830
  C      2.141720   -1.417140   -1.921810
  S      0.562130   -0.900390   -2.451320
  C      2.260920   -2.696740   -1.405020
  C      3.404150   -3.241020   -0.840630
  C      3.448470   -4.410060   -0.099770
  C      4.555980   -4.617590    0.856140
  O      5.644460   -4.086730    0.847490
  C      4.032240   -5.589680    1.844350
  C      4.606070   -6.040310    2.994700
  C      3.887670   -6.942500    3.814110
  C      2.586120   -7.361990    3.416970
  C      1.874930   -8.256550    4.240250
  C      2.429330   -8.715420    5.402140
  C      3.715900   -8.301760    5.793110
  C      4.431280   -7.433700    5.015910
  F      4.237310   -8.768230    6.939770
  F      1.744930   -9.568360    6.182950
  C      2.022450   -6.884940    2.210620
  C      2.734690   -6.009900    1.438190
  C      2.426480   -5.378850    0.155500
  C      1.407510   -5.767620   -0.695050
  C      1.390390   -5.456640   -2.066330
  N      1.387470   -5.292260   -3.204310
  C      0.285860   -6.497880   -0.282110
  N     -0.702730   -6.993320    0.041570
  H     -4.460260   -3.558460   -7.551040
  H      0.385020   -3.390570   -6.517040
  H     -4.975840   -3.886210   -5.177700
  H     -0.100860   -3.714410   -4.103830
  H     -4.325870   -5.450300    0.119680
  H     -2.550330   -5.464870    1.640660
  H     -0.505470   -0.656300    0.413100
  H     -3.961060   -2.250240    0.328040
  H     -1.982270   -1.083200   -1.683620
  H     -3.827480   -0.887960   -3.143560
  H     -4.810000   -0.025150    0.355150
  H     -6.291430   -0.923260    0.015320
  H     -6.254740    0.822130   -0.221380
  H     -7.152950   -0.369240   -2.655160
  H     -5.816890   -0.074650   -3.777350
  H     -7.455960    1.849980   -2.517990
  H     -6.002630    3.575400   -2.865540
  H     -3.941530    1.340060   -3.238910
  H     -3.557450    4.385210   -3.351270
  H     -0.871600    4.869140   -3.470160
  H      1.338390    3.580710   -3.170950
  H      3.050700    1.735660   -2.596950
  H      4.094360   -0.466730   -1.773330
  H      1.341190   -3.262610   -1.371950
  H      4.317170   -2.658750   -0.834330
  H      5.592970   -5.711680    3.282160
  H      0.888550   -8.587370    3.954410
  H      5.416170   -7.125280    5.329770
  H      1.035160   -7.218630    1.931990

 Total Charge           Charge          ....    0
 Multiplicity           Mult            ....    1
 Number of Electrons    NEL             ....  530
 Basis Dimension        Dim             .... 1193

ORBITAL ENERGIES
----------------

  NO   OCC          E(Eh)            E(eV)
   0   2.0000     -88.979655     -2421.2595
   1   2.0000     -88.960873     -2420.7484
   2   2.0000     -88.957005     -2420.6432
   3   2.0000     -24.794068      -674.6809
   4   2.0000     -24.792559      -674.6398
   5   2.0000     -24.781453      -674.3376
   6   2.0000     -24.780943      -674.3238
   7   2.0000     -19.235585      -523.4269
   8   2.0000     -19.234315      -523.3923
   9   2.0000     -19.217326      -522.9300
  10   2.0000     -19.183123      -521.9993
  11   2.0000     -14.644946      -398.5092
  12   2.0000     -14.499756      -394.5584
  13   2.0000     -14.469585      -393.7374
  14   2.0000     -14.422674      -392.4609
  15   2.0000     -14.421787      -392.4368
  16   2.0000     -14.398901      -391.8140
  17   2.0000     -14.386783      -391.4843
  18   2.0000     -10.376583      -282.3612
  19   2.0000     -10.375497      -282.3316
  20   2.0000     -10.368760      -282.1483
  21   2.0000     -10.363814      -282.0137
  22   2.0000     -10.362252      -281.9712
  23   2.0000     -10.362162      -281.9688
  24   2.0000     -10.361740      -281.9573
  25   2.0000     -10.349474      -281.6235
  26   2.0000     -10.344610      -281.4912
  27   2.0000     -10.342026      -281.4208
  28   2.0000     -10.338110      -281.3143
  29   2.0000     -10.334354      -281.2121
  30   2.0000     -10.334043      -281.2036
  31   2.0000     -10.326735      -281.0048
  32   2.0000     -10.326669      -281.0029
  33   2.0000     -10.325821      -280.9799
  34   2.0000     -10.319623      -280.8112
  35   2.0000     -10.313922      -280.6561
  36   2.0000     -10.312659      -280.6217
  37   2.0000     -10.312209      -280.6095
  38   2.0000     -10.309905      -280.5468
  39   2.0000     -10.307557      -280.4829
  40   2.0000     -10.306334      -280.4496
  41   2.0000     -10.306334      -280.4496
  42   2.0000     -10.306233      -280.4469
  43   2.0000     -10.304239      -280.3926
  44   2.0000     -10.303432      -280.3706
  45   2.0000     -10.302353      -280.3413
  46   2.0000     -10.300880      -280.3012
  47   2.0000     -10.298303      -280.2311
  48   2.0000     -10.297336      -280.2048
  49   2.0000     -10.296562      -280.1837
  50   2.0000     -10.295693      -280.1600
  51   2.0000     -10.295063      -280.1429
  52   2.0000     -10.294689      -280.1327
  53   2.0000     -10.294145      -280.1179
  54   2.0000     -10.292923      -280.0847
  55   2.0000     -10.291666      -280.0505
  56   2.0000     -10.289831      -280.0005
  57   2.0000     -10.289056      -279.9794
  58   2.0000     -10.288096      -279.9533
  59   2.0000     -10.287395      -279.9343
  60   2.0000     -10.286209      -279.9020
  61   2.0000     -10.283345      -279.8241
  62   2.0000     -10.282778      -279.8086
  63   2.0000     -10.282241      -279.7940
  64   2.0000     -10.282221      -279.7934
  65   2.0000     -10.280799      -279.7548
  66   2.0000     -10.279470      -279.7186
  67   2.0000     -10.278316      -279.6872
  68   2.0000     -10.277410      -279.6625
  69   2.0000     -10.276717      -279.6437
  70   2.0000     -10.270897      -279.4853
  71   2.0000     -10.266938      -279.3776
  72   2.0000     -10.262848      -279.2663
  73   2.0000     -10.259581      -279.1774
  74   2.0000      -8.074201      -219.7102
  75   2.0000      -8.056772      -219.2359
  76   2.0000      -8.051891      -219.1031
  77   2.0000      -6.043892      -164.4627
  78   2.0000      -6.039521      -164.3437
  79   2.0000      -6.035719      -164.2403
  80   2.0000      -6.026390      -163.9864
  81   2.0000      -6.022395      -163.8777
  82   2.0000      -6.021529      -163.8541
  83   2.0000      -6.017949      -163.7567
  84   2.0000      -6.017394      -163.7416
  85   2.0000      -6.013394      -163.6328
  86   2.0000      -1.316192       -35.8154
  87   2.0000      -1.313848       -35.7516
  88   2.0000      -1.302788       -35.4507
  89   2.0000      -1.301274       -35.4095
  90   2.0000      -1.288142       -35.0521
  91   2.0000      -1.136606       -30.9286
  92   2.0000      -1.133292       -30.8384
  93   2.0000      -1.097837       -29.8737
  94   2.0000      -1.096598       -29.8400
  95   2.0000      -1.062879       -28.9224
  96   2.0000      -1.023983       -27.8640
  97   2.0000      -1.007576       -27.4175
  98   2.0000      -1.004676       -27.3386
  99   2.0000      -1.002186       -27.2709
 100   2.0000      -1.000260       -27.2185
 101   2.0000      -0.995693       -27.0942
 102   2.0000      -0.982983       -26.7483
 103   2.0000      -0.982366       -26.7315
 104   2.0000      -0.978994       -26.6398
 105   2.0000      -0.971892       -26.4465
 106   2.0000      -0.956868       -26.0377
 107   2.0000      -0.932559       -25.3762
 108   2.0000      -0.928503       -25.2658
 109   2.0000      -0.919461       -25.0198
 110   2.0000      -0.909598       -24.7514
 111   2.0000      -0.905234       -24.6327
 112   2.0000      -0.902372       -24.5548
 113   2.0000      -0.890425       -24.2297
 114   2.0000      -0.888091       -24.1662
 115   2.0000      -0.882287       -24.0082
 116   2.0000      -0.875022       -23.8105
 117   2.0000      -0.868490       -23.6328
 118   2.0000      -0.861623       -23.4459
 119   2.0000      -0.857138       -23.3239
 120   2.0000      -0.850404       -23.1407
 121   2.0000      -0.842541       -22.9267
 122   2.0000      -0.836611       -22.7653
 123   2.0000      -0.836219       -22.7547
 124   2.0000      -0.821659       -22.3585
 125   2.0000      -0.818325       -22.2678
 126   2.0000      -0.806858       -21.9557
 127   2.0000      -0.803443       -21.8628
 128   2.0000      -0.794705       -21.6250
 129   2.0000      -0.787736       -21.4354
 130   2.0000      -0.771692       -20.9988
 131   2.0000      -0.765324       -20.8255
 132   2.0000      -0.759267       -20.6607
 133   2.0000      -0.740873       -20.1602
 134   2.0000      -0.738194       -20.0873
 135   2.0000      -0.732823       -19.9411
 136   2.0000      -0.717298       -19.5187
 137   2.0000      -0.713936       -19.4272
 138   2.0000      -0.710766       -19.3409
 139   2.0000      -0.701796       -19.0968
 140   2.0000      -0.694546       -18.8995
 141   2.0000      -0.691358       -18.8128
 142   2.0000      -0.687713       -18.7136
 143   2.0000      -0.678106       -18.4522
 144   2.0000      -0.672654       -18.3038
 145   2.0000      -0.665324       -18.1044
 146   2.0000      -0.663497       -18.0547
 147   2.0000      -0.661675       -18.0051
 148   2.0000      -0.658696       -17.9240
 149   2.0000      -0.652435       -17.7537
 150   2.0000      -0.641482       -17.4556
 151   2.0000      -0.639641       -17.4055
 152   2.0000      -0.635574       -17.2948
 153   2.0000      -0.634220       -17.2580
 154   2.0000      -0.631169       -17.1750
 155   2.0000      -0.630875       -17.1670
 156   2.0000      -0.628081       -17.0910
 157   2.0000      -0.627030       -17.0624
 158   2.0000      -0.625193       -17.0124
 159   2.0000      -0.618369       -16.8267
 160   2.0000      -0.613954       -16.7065
 161   2.0000      -0.611062       -16.6278
 162   2.0000      -0.609656       -16.5896
 163   2.0000      -0.594954       -16.1895
 164   2.0000      -0.590478       -16.0677
 165   2.0000      -0.590031       -16.0555
 166   2.0000      -0.587685       -15.9917
 167   2.0000      -0.583957       -15.8903
 168   2.0000      -0.580721       -15.8022
 169   2.0000      -0.578804       -15.7500
 170   2.0000      -0.574224       -15.6254
 171   2.0000      -0.573516       -15.6062
 172   2.0000      -0.567965       -15.4551
 173   2.0000      -0.565489       -15.3877
 174   2.0000      -0.561289       -15.2734
 175   2.0000      -0.558218       -15.1899
 176   2.0000      -0.552888       -15.0449
 177   2.0000      -0.548373       -14.9220
 178   2.0000      -0.548087       -14.9142
 179   2.0000      -0.545648       -14.8478
 180   2.0000      -0.544133       -14.8066
 181   2.0000      -0.542473       -14.7614
 182   2.0000      -0.534873       -14.5546
 183   2.0000      -0.534262       -14.5380
 184   2.0000      -0.531850       -14.4724
 185   2.0000      -0.530237       -14.4285
 186   2.0000      -0.530144       -14.4260
 187   2.0000      -0.527170       -14.3450
 188   2.0000      -0.519429       -14.1344
 189   2.0000      -0.517625       -14.0853
 190   2.0000      -0.515171       -14.0185
 191   2.0000      -0.512560       -13.9475
 192   2.0000      -0.511661       -13.9230
 193   2.0000      -0.509321       -13.8593
 194   2.0000      -0.509091       -13.8531
 195   2.0000      -0.505621       -13.7586
 196   2.0000      -0.504912       -13.7393
 197   2.0000      -0.504129       -13.7180
 198   2.0000      -0.500472       -13.6185
 199   2.0000      -0.497232       -13.5304
 200   2.0000      -0.495004       -13.4697
 201   2.0000      -0.492335       -13.3971
 202   2.0000      -0.491904       -13.3854
 203   2.0000      -0.490299       -13.3417
 204   2.0000      -0.487572       -13.2675
 205   2.0000      -0.484399       -13.1812
 206   2.0000      -0.480173       -13.0662
 207   2.0000      -0.477566       -12.9952
 208   2.0000      -0.476558       -12.9678
 209   2.0000      -0.474173       -12.9029
 210   2.0000      -0.470907       -12.8140
 211   2.0000      -0.469839       -12.7850
 212   2.0000      -0.465725       -12.6730
 213   2.0000      -0.461307       -12.5528
 214   2.0000      -0.460515       -12.5313
 215   2.0000      -0.459187       -12.4951
 216   2.0000      -0.456977       -12.4350
 217   2.0000      -0.453984       -12.3535
 218   2.0000      -0.452717       -12.3190
 219   2.0000      -0.451703       -12.2915
 220   2.0000      -0.449249       -12.2247
 221   2.0000      -0.446682       -12.1548
 222   2.0000      -0.446104       -12.1391
 223   2.0000      -0.444428       -12.0935
 224   2.0000      -0.441861       -12.0236
 225   2.0000      -0.437295       -11.8994
 226   2.0000      -0.436683       -11.8828
 227   2.0000      -0.432979       -11.7820
 228   2.0000      -0.431872       -11.7518
 229   2.0000      -0.428214       -11.6523
 230   2.0000      -0.427208       -11.6249
 231   2.0000      -0.423377       -11.5207
 232   2.0000      -0.422342       -11.4925
 233   2.0000      -0.420553       -11.4438
 234   2.0000      -0.417370       -11.3572
 235   2.0000      -0.411034       -11.1848
 236   2.0000      -0.409753       -11.1499
 237   2.0000      -0.405139       -11.0244
 238   2.0000      -0.403798       -10.9879
 239   2.0000      -0.399010       -10.8576
 240   2.0000      -0.396010       -10.7760
 241   2.0000      -0.392798       -10.6886
 242   2.0000      -0.382685       -10.4134
 243   2.0000      -0.381924       -10.3927
 244   2.0000      -0.381479       -10.3806
 245   2.0000      -0.374223       -10.1831
 246   2.0000      -0.371368       -10.1054
 247   2.0000      -0.366125        -9.9628
 248   2.0000      -0.362704        -9.8697
 249   2.0000      -0.356294        -9.6952
 250   2.0000      -0.351213        -9.5570
 251   2.0000      -0.349460        -9.5093
 252   2.0000      -0.340778        -9.2730
 253   2.0000      -0.333349        -9.0709
 254   2.0000      -0.325936        -8.8692
 255   2.0000      -0.318579        -8.6690
 256   2.0000      -0.316224        -8.6049
 257   2.0000      -0.307524        -8.3682
 258   2.0000      -0.299479        -8.1492
 259   2.0000      -0.293943        -7.9986
 260   2.0000      -0.286998        -7.8096
 261   2.0000      -0.281596        -7.6626
 262   2.0000      -0.279396        -7.6028
 263   2.0000      -0.269979        -7.3465
 264   2.0000      -0.215464        -5.8631
 265   0.0000      -0.097750        -2.6599
 266   0.0000      -0.085310        -2.3214
 267   0.0000      -0.059894        -1.6298
 268   0.0000      -0.048558        -1.3213
 269   0.0000      -0.043855        -1.1933

MULLIKEN ATOMIC CHARGES
-----------------------
   0 C :   -0.113507
   1 C :    0.241332
   2 F :   -0.174157
   3 C :    0.238096
   4 F :   -0.172687
   5 C :   -0.098535
   6 C :    0.101200
   7 C :    0.113694
   8 C :   -0.097105
   9 C :    0.032088
  10 C :    0.024339
  11 C :   -0.067636
  12 C :    0.195030
  13 O :   -0.170247
  14 C :   -0.167344
  15 C :    0.304942
  16 C :   -0.339388
  17 C :   -0.175675
  18 N :    0.133913
  19 C :   -0.204450
  20 N :    0.136158
  21 C :    0.059087
  22 N :    0.022602
  23 C :   -0.080359
  24 S :    0.185479
  25 C :   -0.012301
  26 N :    0.288115
  27 O :   -0.248101
  28 O :   -0.264333
  29 C :    0.008645
  30 C :    0.055885
  31 C :    0.017668
  32 C :   -0.016623
  33 C :    0.022271
  34 C :   -0.221298
  35 C :    0.103642
  36 C :    0.192047
  37 N :   -0.140020
  38 C :    0.089054
  39 C :   -0.046763
  40 C :    0.057304
  41 C :   -0.059666
  42 C :    0.058931
  43 C :    0.009750
  44 C :   -0.004290
  45 S :    0.040451
  46 C :   -0.059735
  47 C :    0.037379
  48 C :    0.022739
  49 C :   -0.023432
  50 S :    0.063720
  51 C :    0.004059
  52 C :    0.045384
  53 C :   -0.142752
  54 C :    0.157935
  55 O :   -0.157724
  56 C :    0.014841
  57 C :   -0.089020
  58 C :    0.114036
  59 C :    0.120975
  60 C :   -0.113716
  61 C :    0.235208
  62 C :    0.234800
  63 C :   -0.106074
  64 F :   -0.180087
  65 F :   -0.181840
  66 C :   -0.105672
  67 C :    0.075454
  68 C :    0.246702
  69 C :   -0.340741
  70 C :   -0.174427
  71 N :    0.114179
  72 C :   -0.147288
  73 N :    0.066997
  74 H :    0.001040
  75 H :    0.011601
  76 H :   -0.007562
  77 H :   -0.011166
  78 H :    0.048932
  79 H :    0.157948
  80 H :    0.006787
  81 H :    0.011351
  82 H :    0.011237
  83 H :    0.007842
  84 H :    0.028846
  85 H :    0.040627
  86 H :   -0.002636
  87 H :    0.035912
  88 H :    0.024001
  89 H :    0.136272
  90 H :    0.011580
  91 H :   -0.019755
  92 H :   -0.008392
  93 H :   -0.004020
  94 H :   -0.009563
  95 H :   -0.008252
  96 H :   -0.000466
  97 H :    0.013698
  98 H :   -0.001887
  99 H :   -0.018150
 100 H :   -0.008965
 101 H :   -0.006259
 102 H :   -0.029741
Sum of atomic charges:   -0.0000000

LOEWDIN ATOMIC CHARGES
----------------------
   0 C :   -0.035040
   1 C :    0.066050
   2 F :   -0.051574
   3 C :    0.065333
   4 F :   -0.050065
   5 C :   -0.023854
   6 C :   -0.008308
   7 C :   -0.009074
   8 C :    0.009477
   9 C :   -0.023892
  10 C :   -0.052950
  11 C :    0.044191
  12 C :    0.096847
  13 O :   -0.136926
  14 C :   -0.130943
  15 C :    0.089453
  16 C :   -0.157196
  17 C :   -0.015818
  18 N :   -0.071277
  19 C :   -0.022254
  20 N :   -0.071482
  21 C :    0.110833
  22 N :    0.084755
  23 C :   -0.110966
  24 S :    0.494888
  25 C :   -0.203943
  26 N :    0.279738
  27 O :   -0.214609
  28 O :   -0.226505
  29 C :    0.002311
  30 C :   -0.081993
  31 C :   -0.016760
  32 C :   -0.026186
  33 C :   -0.053628
  34 C :   -0.027298
  35 C :   -0.053585
  36 C :    0.046956
  37 N :    0.024569
  38 C :    0.073873
  39 C :   -0.132953
  40 C :    0.013313
  41 C :   -0.184582
  42 C :   -0.002597
  43 C :   -0.059457
  44 C :   -0.135621
  45 S :    0.399858
  46 C :   -0.216474
  47 C :   -0.001768
  48 C :   -0.053302
  49 C :   -0.096850
  50 S :    0.422140
  51 C :   -0.095487
  52 C :    0.060485
  53 C :   -0.114794
  54 C :    0.081229
  55 O :   -0.157908
  56 C :   -0.039759
  57 C :    0.022936
  58 C :   -0.010981
  59 C :   -0.008926
  60 C :   -0.037029
  61 C :    0.061025
  62 C :    0.060691
  63 C :   -0.034012
  64 F :   -0.057589
  65 F :   -0.058611
  66 C :   -0.005627
  67 C :   -0.013717
  68 C :    0.065741
  69 C :   -0.176474
  70 C :   -0.007799
  71 N :   -0.092417
  72 C :   -0.007771
  73 N :   -0.123942
  74 H :    0.044636
  75 H :    0.050814
  76 H :    0.037542
  77 H :    0.037387
  78 H :    0.044343
  79 H :    0.103566
  80 H :    0.040906
  81 H :    0.030095
  82 H :    0.009630
  83 H :    0.025231
  84 H :    0.035814
  85 H :    0.042501
  86 H :    0.022360
  87 H :    0.039912
  88 H :    0.029715
  89 H :    0.086378
  90 H :    0.032598
  91 H :    0.017220
  92 H :    0.035845
  93 H :    0.037017
  94 H :    0.033410
  95 H :    0.035384
  96 H :    0.037377
  97 H :    0.027026
  98 H :    0.038037
  99 H :    0.037445
 100 H :    0.041189
 101 H :    0.042620
 102 H :    0.029881

  Mayer bond orders larger than 0.100000
B(  0-C ,  1-C ) :   1.4373 B(  0-C ,  5-C ) :   0.1087 B(  0-C ,  7-C ) :   1.1916
B(  0-C , 74-H ) :   1.0072 B(  1-C ,  2-F ) :   1.1321 B(  1-C ,  3-C ) :   1.1947
B(  3-C ,  4-F ) :   1.1331 B(  3-C ,  5-C ) :   1.4314 B(  5-C ,  6-C ) :   1.1995
B(  5-C , 75-H ) :   1.0101 B(  6-C ,  7-C ) :   1.2558 B(  6-C , 11-C ) :   1.1857
B(  7-C ,  8-C ) :   1.2019 B(  8-C ,  9-C ) :   1.4524 B(  8-C , 76-H ) :   0.9994
B(  9-C , 10-C ) :   1.2150 B(  9-C , 15-C ) :   0.9883 B( 10-C , 11-C ) :   1.4666
B( 10-C , 12-C ) :   0.9583 B( 11-C , 77-H ) :   1.0054 B( 12-C , 13-O ) :   2.0472
B( 12-C , 14-C ) :   0.9821 B( 14-C , 15-C ) :   1.1147 B( 14-C , 21-C ) :   1.4867
B( 15-C , 16-C ) :   1.6161 B( 16-C , 17-C ) :   1.1573 B( 16-C , 19-C ) :   1.1581
B( 17-C , 18-N ) :   2.9374 B( 19-C , 20-N ) :   2.9304 B( 21-C , 22-N ) :   1.2821
B( 21-C , 78-H ) :   0.9504 B( 22-N , 23-C ) :   1.1493 B( 22-N , 79-H ) :   0.8982
B( 23-C , 24-S ) :   1.1468 B( 23-C , 30-C ) :   1.4059 B( 24-S , 25-C ) :   1.1026
B( 25-C , 26-N ) :   0.9728 B( 25-C , 29-C ) :   1.4572 B( 26-N , 27-O ) :   1.5344
B( 26-N , 28-O ) :   1.4864 B( 27-O , 28-O ) :   0.2497 B( 29-C , 30-C ) :   1.2645
B( 29-C , 80-H ) :   1.0022 B( 30-C , 31-C ) :   1.0631 B( 31-C , 32-C ) :   1.7956
B( 31-C , 81-H ) :   0.9430 B( 32-C , 33-C ) :   1.0850 B( 32-C , 82-H ) :   0.9395
B( 33-C , 34-C ) :   1.8531 B( 33-C , 83-H ) :   0.9196 B( 34-C , 35-C ) :   1.0856
B( 34-C , 36-C ) :   1.0177 B( 35-C , 84-H ) :   0.9413 B( 35-C , 85-H ) :   0.9395
B( 35-C , 86-H ) :   0.9423 B( 36-C , 37-N ) :   0.9994 B( 36-C , 87-H ) :   0.9324
B( 36-C , 88-H ) :   0.9389 B( 37-N , 38-C ) :   1.2853 B( 37-N , 89-H ) :   0.9373
B( 38-C , 39-C ) :   1.5446 B( 38-C , 90-H ) :   0.9696 B( 39-C , 40-C ) :   1.2220
B( 39-C , 91-H ) :   0.9462 B( 40-C , 41-C ) :   1.5227 B( 40-C , 92-H ) :   0.9843
B( 41-C , 42-C ) :   1.1815 B( 41-C , 45-S ) :   1.0177 B( 42-C , 43-C ) :   1.5428
B( 42-C , 93-H ) :   0.9968 B( 43-C , 44-C ) :   1.2262 B( 43-C , 94-H ) :   0.9960
B( 44-C , 45-S ) :   1.1024 B( 44-C , 46-C ) :   1.4108 B( 46-C , 47-C ) :   1.2527
B( 46-C , 50-S ) :   1.0289 B( 47-C , 48-C ) :   1.5151 B( 47-C , 95-H ) :   0.9937
B( 48-C , 49-C ) :   1.2304 B( 48-C , 96-H ) :   0.9902 B( 49-C , 50-S ) :   1.1126
B( 49-C , 51-C ) :   1.4216 B( 51-C , 52-C ) :   1.3255 B( 51-C , 97-H ) :   0.9258
B( 52-C , 53-C ) :   1.4691 B( 52-C , 98-H ) :   0.9563 B( 53-C , 54-C ) :   0.9651
B( 53-C , 68-C ) :   1.1330 B( 54-C , 55-O ) :   2.2487 B( 54-C , 56-C ) :   0.9103
B( 56-C , 57-C ) :   1.4954 B( 56-C , 67-C ) :   1.2219 B( 57-C , 58-C ) :   1.1772
B( 57-C , 99-H ) :   1.0146 B( 58-C , 59-C ) :   1.2671 B( 58-C , 63-C ) :   1.1985
B( 59-C , 60-C ) :   1.1914 B( 59-C , 66-C ) :   1.1994 B( 60-C , 61-C ) :   1.4360
B( 60-C , 63-C ) :   0.1098 B( 60-C ,100-H ) :   1.0062 B( 61-C , 62-C ) :   1.2023
B( 61-C , 65-F ) :   1.1233 B( 62-C , 63-C ) :   1.4361 B( 62-C , 64-F ) :   1.1251
B( 63-C ,101-H ) :   1.0066 B( 66-C , 67-C ) :   1.4627 B( 66-C ,102-H ) :   0.9921
B( 67-C , 68-C ) :   1.0087 B( 68-C , 69-C ) :   1.5335 B( 69-C , 70-C ) :   1.1824
B( 69-C , 72-C ) :   1.1613 B( 70-C , 71-N ) :   2.9300 B( 72-C , 73-N ) :   2.8927

-----------------------------------------------------------------------------
         ABSORPTION SPECTRUM VIA TRANSITION ELECTRIC DIPOLE MOMENTS
-----------------------------------------------------------------------------
State   Energy  Wavelength   fosc         T2         TX        TY        TZ
        (cm-1)    (nm)                  (au**2)     (au)      (au)      (au)
-----------------------------------------------------------------------------
   0   11330.7    882.6   0.947362049  27.52553  -2.82128   4.10232  -1.65434
   1   13143.6    760.8   0.051601412   1.29247   0.76446  -0.78816   0.29474
   2   17427.2    573.8   0.005433939   0.10265  -0.25195   0.01181  -0.19757
   3   20128.4    496.8   0.042422038   0.69384  -0.73362   0.39022   0.05806
   4   21542.8    464.2   0.058010833   0.88651   0.90085   0.16117  -0.22137
   5   22716.3    440.2   0.228170736   3.30672   1.70470   0.59631  -0.21245
   6   23318.5    428.8   0.143078614   2.02000   0.80889   0.62769   0.98574
   7   23871.7    418.9   0.014840701   0.20467   0.17009   0.41919  -0.00426
   8   24500.6    408.2   0.428766736   5.76129   1.81271   0.08228   1.57118
   9   24921.9    401.3   0.120505331   1.59185   1.20219   0.29519   0.24383
  10   25364.1    394.3   0.006346017   0.08237  -0.20738  -0.05666  -0.19013
  11   25501.6    392.1   0.038621735   0.49859   0.65560  -0.07190   0.25219
  12   25836.6    387.0   0.012320614   0.15699   0.25332   0.19838  -0.23123
  13   26824.3    372.8   0.279204409   3.42664   0.42674   1.27761  -1.26974
  14   27225.6    367.3   0.089776701   1.08558  -0.20832  -0.53738  -0.86799
  15   27818.0    359.5   0.000843895   0.00999   0.09150  -0.03509   0.01958
  16   28313.2    353.2   0.060619053   0.70485   0.26358  -0.15911   0.78106
  17   28647.8    349.1   0.095666644   1.09937  -0.06645   0.11634   1.03991
  18   28915.0    345.8   0.131156702   1.49328   0.26039   0.05739   1.19255
  19   28974.6    345.1   0.011835998   0.13448  -0.36503  -0.03509  -0.00099
  20   29869.5    334.8   0.005239059   0.05774   0.06402   0.05853   0.22410
  21   29952.1    333.9   0.002054279   0.02258   0.14424   0.01595   0.03898
  22   30291.1    330.1   0.032591206   0.35421  -0.17939  -0.41930   0.38239
  23   30851.2    324.1   0.001445751   0.01543   0.03152  -0.07235   0.09592
  24   31278.6    319.7   0.054180120   0.57025  -0.50059   0.41121   0.38803
  25   31410.0    318.4   0.148950005   1.56116  -0.76356  -0.54659   0.82425
  26   31530.2    317.2   0.182562668   1.90616   0.24431  -0.22695   1.33977
  27   31855.2    313.9   0.036706164   0.37935   0.42052   0.44080  -0.09056
  28   31896.4    313.5   0.005732058   0.05916   0.01496  -0.23605   0.05675
  29   32098.9    311.5   0.011545248   0.11841  -0.03719   0.08631  -0.33102
  30   32597.9    306.8   0.055375565   0.55925  -0.13214  -0.47725   0.56038
  31   32756.6    305.3   0.012419743   0.12482   0.13451   0.22377  -0.23802
  32   33033.1    302.7   0.041768434   0.41627  -0.41183  -0.49640  -0.01583
  33   33252.1    300.7   0.058782413   0.58197  -0.07161   0.10276  -0.75252
  34   33398.1    299.4   0.091028870   0.89729  -0.17460   0.34548  -0.86455
  35   33650.5    297.2   0.262317592   2.56633  -0.94369   0.67897  -1.10217
  36   33697.3    296.8   0.027614393   0.26978  -0.14532  -0.23546   0.43957
  37   33945.6    294.6   0.010960547   0.10630   0.08037  -0.13368   0.28630
  38   34301.6    291.5   0.186730257   1.79216   0.64165   0.14286  -1.16620
  39   34428.7    290.5   0.126510981   1.20971  -0.55280   0.03192   0.95032
  40   34480.2    290.0   0.354905392   3.38858  -1.32445  -0.19432   1.26359
  41   34597.0    289.0   0.219965183   2.09311  -1.35943   0.01045   0.49491
  42   34968.0    286.0   0.063928964   0.60187  -0.58568  -0.38356   0.33426
  43   35329.4    283.1   0.028439919   0.26501   0.37596   0.01626   0.35129
  44   35668.1    280.4   0.078839685   0.72768   0.33373   0.39433  -0.67882
  45   35834.7    279.1   0.077470024   0.71171  -0.28864   0.43008  -0.66590
  46   36066.0    277.3   0.085975045   0.78478   0.81582   0.26149   0.22550
  47   36435.6    274.5   0.107507285   0.97138  -0.54725  -0.17992  -0.79970
  48   36706.7    272.4   0.054912053   0.49249   0.04665   0.67298   0.19342
  49   36773.2    271.9   0.006575767   0.05887   0.04611  -0.21244  -0.10777
  50   36916.0    270.9   0.039627826   0.35340   0.36932  -0.17808   0.43044
  51   37264.0    268.4   0.022177910   0.19593   0.23955  -0.34214   0.14659
  52   37383.0    267.5   0.046215562   0.40700  -0.00124  -0.48294   0.41685
  53   37774.9    264.7   0.037655878   0.32817  -0.49640   0.09081  -0.27113
  54   38010.7    263.1   0.123152906   1.06663  -0.82520  -0.06971  -0.61711
  55   38313.0    261.0   0.045124601   0.38774   0.53240   0.31580  -0.06753
  56   38418.1    260.3   0.070726273   0.60607  -0.49834  -0.17209  -0.57281
  57   38764.4    258.0   0.028095502   0.23860   0.32230  -0.35083  -0.10791
  58   39300.1    254.5   0.052370492   0.43870  -0.50197   0.18900  -0.38859
  59   39361.6    254.1   0.022864595   0.19123  -0.29770  -0.23548  -0.21716
  60   39423.0    253.7   0.026393565   0.22041  -0.46351  -0.00147  -0.07460
  61   39568.5    252.7   0.002912159   0.02423   0.01600   0.00209  -0.15482
  62   39814.5    251.2   0.069340841   0.57336  -0.58839  -0.19546  -0.43469
  63   39922.8    250.5   0.132735038   1.09456   0.86040  -0.39010   0.44955
  64   40141.3    249.1   0.059921410   0.49144  -0.47397   0.17324  -0.48660
  65   40288.8    248.2   0.001011477   0.00827   0.02495   0.06241  -0.06122

FINAL SINGLE POINT ENERGY     -4424.911980773436

DIPOLE MOMENT
-------------
                                X             Y             Z
Electronic contribution:     32.66189     -49.01659       6.48866
Nuclear contribution   :    -36.06809      53.39899      -7.28371
                        -----------------------------------------
Total Dipole Moment    :     -3.40621       4.38240      -0.79505
                        -----------------------------------------
Magnitude (a.u.)       :      5.60712
Magnitude (Debye)      :     14.25216

Rotational constants in cm-1:     0.001452     0.000606     0.000587
Rotational constants in MHz :    43.539925    18.182246    17.584020

                             ****ORCA TERMINATED NORMALLY****
TOTAL RUN TIME: 0 days 0 hours 30 minutes 31 seconds 375 msec
