                         Program Version 4.2.0 -  RELEASE  -
|  1> # ORCA input file
|  2> # SCF done       -182.609445367451          0.000913321553
|  3> ! CAM-B3LYP def2-SVP def2/J RIJCOSX Grid4 TightSCF
|  4> %maxcore 5000
|  5> %tddft
|  6>     Mode sTDDFT
|  7>     Ethresh 5.0
|  8>     maxcore 5000
|  9> end
| 10>
| 11> %pal
| 12>   nprocs 6
| 13>   end
| 14> * xyz 0 1
| 15>    C       -4.56252         0.27045        -0.01494
| 16>    C       -3.86323        -0.73164        -0.64101
| 17>    C       -3.80471        -2.06318        -0.18021
| 18>    N       -3.71331        -3.16348         0.13587
| 19>    C       -3.11103        -0.60224        -1.82675
| 20>    N       -2.48037        -0.59256        -2.78680
| 21>    C       -5.34825         0.11389         1.20452
| 22>    C       -5.93315         1.36407         1.53675
| 23>    C       -6.71303         1.54159         2.65496
| 24>    C       -6.92815         0.43240         3.47881
| 25>    C       -6.36120        -0.81489         3.12882
| 26>    C       -5.56881        -0.99387         2.00075
| 27>    S       -6.77371        -2.03814         4.28970
| 28>    C       -7.66848        -0.88178         5.22579
| 29>    C       -7.66941         0.35730         4.69211
| 30>    C       -5.55401         2.35359         0.51832
| 31>    O       -5.89964         3.52279         0.46882
| 32>    C       -4.67365         1.65488        -0.42801
| 33>    C       -4.03637         2.22994        -1.49976
| 34>    C       -4.09473         3.53915        -1.99031
| 35>    S       -5.07773         4.84709        -1.38937
| 36>    C       -4.49863         5.92496        -2.63101
| 37>    C       -3.56082         5.28253        -3.46035
| 38>    C       -3.33995         3.96209        -3.10793
| 39>    S       -2.24022         2.84187        -3.89775
| 40>    C       -1.46248         3.65780        -5.26281
| 41>    O       -0.66670         3.01415        -5.88773
| 42>    C       -1.74367         5.08633        -5.67371
| 43>    O       -1.19832         5.54061        -6.64192
| 44>    S       -2.82920         6.16314        -4.79178
| 45>    C       -4.93264         7.24811        -2.76343
| 46>    C       -5.88796         7.82256        -1.95770
| 47>    C       -6.35241         9.12515        -2.09759
| 48>    C       -7.35252         9.66648        -1.30543
| 49>    C       -7.92121        10.95259        -1.37969
| 50>    C       -8.92617        11.17498        -0.47371
| 51>    C       -9.18725        10.07298         0.35496
| 52>    S       -8.12170         8.74628        -0.03385
| 53>    C      -10.14120         9.91515         1.35867
| 54>    C      -11.13079        10.79761         1.82181
| 55>    C      -11.92057        10.26429         2.80680
| 56>    C      -11.58349         8.94562         3.17792
| 57>    S      -10.22139         8.40636         2.21896
| 58>    C      -12.24926         8.14783         4.09258
| 59>    C      -11.90594         6.85061         4.48078
| 60>    C      -12.73048         5.95497         5.17872
| 61>    C      -12.08558         4.71372         5.28532
| 62>    C      -10.75554         4.88875         4.68144
| 63>    C      -10.66074         6.16026         4.20981
| 64>    C       -9.70946         3.96850         4.62647
| 65>    N       -8.81013         3.25475         4.55967
| 66>    C      -12.56816         3.50933         5.78817
| 67>    C      -11.95214         2.24888         5.69353
| 68>    C      -12.76246         1.29026         6.28253
| 69>    C      -13.94102         1.96721         6.79068
| 70>    C      -13.84480         3.29244         6.49140
| 71>    C      -14.78452         4.27307         6.81571
| 72>    N      -15.57220         5.06458         7.09006
| 73>    C      -12.50547        -0.10253         6.35807
| 74>    C      -11.37904        -0.75539         5.75941
| 75>    C      -11.45435        -2.11288         6.02461
| 76>    C      -10.61295        -3.18092         5.65967
| 77>    C      -10.95830        -4.43700         6.09189
| 78>    C      -10.33481        -5.70477         5.90770
| 79>    C      -11.09334        -6.67362         6.55307
| 80>    C      -12.21128        -6.02836         7.15481
| 81>    C      -12.15073        -4.66249         6.88955
| 82>    C      -12.99452        -3.60438         7.24678
| 83>    C      -12.65071        -2.33824         6.81722
| 84>    C      -13.27430        -1.08051         6.99743
| 85>    C      -10.84930        -8.09405         6.63753
| 86>    C       -9.81363        -8.73108         6.09731
| 87>    H       -7.14729         2.49832         2.89947
| 88>    H       -5.15000        -1.96141         1.78069
| 89>    H       -8.13608        -1.21247         6.13348
| 90>    H       -8.15818         1.21408         5.11910
| 91>    H       -3.37604         1.58932        -2.07238
| 92>    H       -4.49200         7.83207        -3.56152
| 93>    H       -6.31750         7.21400        -1.17065
| 94>    H       -5.93214         9.75371        -2.87136
| 95>    H       -7.58305        11.67829        -2.09801
| 96>    H       -9.47422        12.09646        -0.39132
| 97>    H      -11.24919        11.78865         1.42202
| 98>    H      -12.73484        10.78797         3.27612
| 99>    H      -13.15760         8.55947         4.51553
|100>    H      -13.72627         6.16627         5.51774
|101>    H       -9.78290         6.58413         3.76238
|102>    H      -11.01030         2.06489         5.21774
|103>    H      -14.75435         1.49386         7.30815
|104>    H      -10.60975        -0.26530         5.19165
|105>    H       -9.73169        -3.00958         5.05778
|106>    H       -9.42656        -5.86292         5.35732
|107>    H      -12.97587        -6.52823         7.72280
|108>    H      -13.88223        -3.77908         7.83813
|109>    H      -14.18487        -0.91556         7.54254
|110>    H      -11.59139        -8.65387         7.19301
|111>    H       -9.05399        -8.21584         5.53512
|112>    H       -9.69413        -9.79568         6.19688
|113> *
|114>
|115>                          ****END OF INPUT****

CARTESIAN COORDINATES (ANGSTROEM)
---------------------------------
  C     -4.562520    0.270450   -0.014940
  C     -3.863230   -0.731640   -0.641010
  C     -3.804710   -2.063180   -0.180210
  N     -3.713310   -3.163480    0.135870
  C     -3.111030   -0.602240   -1.826750
  N     -2.480370   -0.592560   -2.786800
  C     -5.348250    0.113890    1.204520
  C     -5.933150    1.364070    1.536750
  C     -6.713030    1.541590    2.654960
  C     -6.928150    0.432400    3.478810
  C     -6.361200   -0.814890    3.128820
  C     -5.568810   -0.993870    2.000750
  S     -6.773710   -2.038140    4.289700
  C     -7.668480   -0.881780    5.225790
  C     -7.669410    0.357300    4.692110
  C     -5.554010    2.353590    0.518320
  O     -5.899640    3.522790    0.468820
  C     -4.673650    1.654880   -0.428010
  C     -4.036370    2.229940   -1.499760
  C     -4.094730    3.539150   -1.990310
  S     -5.077730    4.847090   -1.389370
  C     -4.498630    5.924960   -2.631010
  C     -3.560820    5.282530   -3.460350
  C     -3.339950    3.962090   -3.107930
  S     -2.240220    2.841870   -3.897750
  C     -1.462480    3.657800   -5.262810
  O     -0.666700    3.014150   -5.887730
  C     -1.743670    5.086330   -5.673710
  O     -1.198320    5.540610   -6.641920
  S     -2.829200    6.163140   -4.791780
  C     -4.932640    7.248110   -2.763430
  C     -5.887960    7.822560   -1.957700
  C     -6.352410    9.125150   -2.097590
  C     -7.352520    9.666480   -1.305430
  C     -7.921210   10.952590   -1.379690
  C     -8.926170   11.174980   -0.473710
  C     -9.187250   10.072980    0.354960
  S     -8.121700    8.746280   -0.033850
  C    -10.141200    9.915150    1.358670
  C    -11.130790   10.797610    1.821810
  C    -11.920570   10.264290    2.806800
  C    -11.583490    8.945620    3.177920
  S    -10.221390    8.406360    2.218960
  C    -12.249260    8.147830    4.092580
  C    -11.905940    6.850610    4.480780
  C    -12.730480    5.954970    5.178720
  C    -12.085580    4.713720    5.285320
  C    -10.755540    4.888750    4.681440
  C    -10.660740    6.160260    4.209810
  C     -9.709460    3.968500    4.626470
  N     -8.810130    3.254750    4.559670
  C    -12.568160    3.509330    5.788170
  C    -11.952140    2.248880    5.693530
  C    -12.762460    1.290260    6.282530
  C    -13.941020    1.967210    6.790680
  C    -13.844800    3.292440    6.491400
  C    -14.784520    4.273070    6.815710
  N    -15.572200    5.064580    7.090060
  C    -12.505470   -0.102530    6.358070
  C    -11.379040   -0.755390    5.759410
  C    -11.454350   -2.112880    6.024610
  C    -10.612950   -3.180920    5.659670
  C    -10.958300   -4.437000    6.091890
  C    -10.334810   -5.704770    5.907700
  C    -11.093340   -6.673620    6.553070
  C    -12.211280   -6.028360    7.154810
  C    -12.150730   -4.662490    6.889550
  C    -12.994520   -3.604380    7.246780
  C    -12.650710   -2.338240    6.817220
  C    -13.274300   -1.080510    6.997430
  C    -10.849300   -8.094050    6.637530
  C     -9.813630   -8.731080    6.097310
  H     -7.147290    2.498320    2.899470
  H     -5.150000   -1.961410    1.780690
  H     -8.136080   -1.212470    6.133480
  H     -8.158180    1.214080    5.119100
  H     -3.376040    1.589320   -2.072380
  H     -4.492000    7.832070   -3.561520
  H     -6.317500    7.214000   -1.170650
  H     -5.932140    9.753710   -2.871360
  H     -7.583050   11.678290   -2.098010
  H     -9.474220   12.096460   -0.391320
  H    -11.249190   11.788650    1.422020
  H    -12.734840   10.787970    3.276120
  H    -13.157600    8.559470    4.515530
  H    -13.726270    6.166270    5.517740
  H     -9.782900    6.584130    3.762380
  H    -11.010300    2.064890    5.217740
  H    -14.754350    1.493860    7.308150
  H    -10.609750   -0.265300    5.191650
  H     -9.731690   -3.009580    5.057780
  H     -9.426560   -5.862920    5.357320
  H    -12.975870   -6.528230    7.722800
  H    -13.882230   -3.779080    7.838130
  H    -14.184870   -0.915560    7.542540
  H    -11.591390   -8.653870    7.193010
  H     -9.053990   -8.215840    5.535120
  H     -9.694130   -9.795680    6.196880

 Total Charge           Charge          ....    0
 Multiplicity           Mult            ....    1
 Number of Electrons    NEL             ....  528
 Basis Dimension        Dim             .... 1162

ORBITAL ENERGIES
----------------

  NO   OCC          E(Eh)            E(eV)
   0   2.0000     -88.970976     -2421.0233
   1   2.0000     -88.969816     -2420.9918
   2   2.0000     -88.969256     -2420.9765
   3   2.0000     -88.965283     -2420.8684
   4   2.0000     -88.963305     -2420.8146
   5   2.0000     -88.961548     -2420.7668
   6   2.0000     -19.238806      -523.5145
   7   2.0000     -19.238311      -523.5011
   8   2.0000     -19.216244      -522.9006
   9   2.0000     -14.416228      -392.2855
  10   2.0000     -14.409657      -392.1067
  11   2.0000     -14.407385      -392.0449
  12   2.0000     -14.405498      -391.9935
  13   2.0000     -10.404041      -283.1084
  14   2.0000     -10.403683      -283.0986
  15   2.0000     -10.363909      -282.0163
  16   2.0000     -10.337696      -281.3030
  17   2.0000     -10.334501      -281.2161
  18   2.0000     -10.333877      -281.1991
  19   2.0000     -10.331239      -281.1273
  20   2.0000     -10.330098      -281.0963
  21   2.0000     -10.327853      -281.0352
  22   2.0000     -10.327628      -281.0291
  23   2.0000     -10.327581      -281.0278
  24   2.0000     -10.325026      -280.9583
  25   2.0000     -10.324092      -280.9328
  26   2.0000     -10.322358      -280.8856
  27   2.0000     -10.319620      -280.8111
  28   2.0000     -10.316834      -280.7353
  29   2.0000     -10.314142      -280.6621
  30   2.0000     -10.313955      -280.6570
  31   2.0000     -10.313331      -280.6400
  32   2.0000     -10.312165      -280.6083
  33   2.0000     -10.311090      -280.5790
  34   2.0000     -10.310904      -280.5740
  35   2.0000     -10.310691      -280.5682
  36   2.0000     -10.309950      -280.5480
  37   2.0000     -10.307441      -280.4797
  38   2.0000     -10.307335      -280.4768
  39   2.0000     -10.306448      -280.4527
  40   2.0000     -10.306033      -280.4414
  41   2.0000     -10.304085      -280.3884
  42   2.0000     -10.303624      -280.3759
  43   2.0000     -10.302807      -280.3536
  44   2.0000     -10.302168      -280.3362
  45   2.0000     -10.301858      -280.3278
  46   2.0000     -10.300453      -280.2896
  47   2.0000     -10.299082      -280.2523
  48   2.0000     -10.299043      -280.2512
  49   2.0000     -10.298987      -280.2497
  50   2.0000     -10.298041      -280.2239
  51   2.0000     -10.297435      -280.2075
  52   2.0000     -10.297188      -280.2007
  53   2.0000     -10.296386      -280.1789
  54   2.0000     -10.295381      -280.1516
  55   2.0000     -10.295258      -280.1482
  56   2.0000     -10.293610      -280.1034
  57   2.0000     -10.291304      -280.0406
  58   2.0000     -10.289496      -279.9914
  59   2.0000     -10.286707      -279.9155
  60   2.0000     -10.286076      -279.8983
  61   2.0000     -10.282249      -279.7942
  62   2.0000     -10.280413      -279.7443
  63   2.0000     -10.278931      -279.7039
  64   2.0000     -10.278746      -279.6989
  65   2.0000     -10.278321      -279.6873
  66   2.0000     -10.277880      -279.6753
  67   2.0000     -10.277482      -279.6645
  68   2.0000     -10.276818      -279.6464
  69   2.0000     -10.275180      -279.6019
  70   2.0000     -10.268353      -279.4161
  71   2.0000     -10.266052      -279.3535
  72   2.0000      -8.065907      -219.4845
  73   2.0000      -8.065792      -219.4813
  74   2.0000      -8.063993      -219.4324
  75   2.0000      -8.061664      -219.3690
  76   2.0000      -8.059875      -219.3204
  77   2.0000      -8.057338      -219.2513
  78   2.0000      -6.035806      -164.2426
  79   2.0000      -6.035619      -164.2375
  80   2.0000      -6.033500      -164.1799
  81   2.0000      -6.031325      -164.1207
  82   2.0000      -6.031067      -164.1137
  83   2.0000      -6.031042      -164.1130
  84   2.0000      -6.029504      -164.0711
  85   2.0000      -6.029159      -164.0617
  86   2.0000      -6.027159      -164.0073
  87   2.0000      -6.026854      -163.9990
  88   2.0000      -6.026816      -163.9980
  89   2.0000      -6.026755      -163.9963
  90   2.0000      -6.025805      -163.9705
  91   2.0000      -6.025458      -163.9610
  92   2.0000      -6.022757      -163.8876
  93   2.0000      -6.022612      -163.8836
  94   2.0000      -6.020907      -163.8372
  95   2.0000      -6.019065      -163.7871
  96   2.0000      -1.176829       -32.0231
  97   2.0000      -1.144239       -31.1363
  98   2.0000      -1.130917       -30.7738
  99   2.0000      -1.018800       -27.7230
 100   2.0000      -1.017284       -27.6817
 101   2.0000      -1.013215       -27.5710
 102   2.0000      -1.012728       -27.5577
 103   2.0000      -1.003421       -27.3045
 104   2.0000      -1.000785       -27.2327
 105   2.0000      -0.998547       -27.1718
 106   2.0000      -0.994797       -27.0698
 107   2.0000      -0.987191       -26.8628
 108   2.0000      -0.984765       -26.7968
 109   2.0000      -0.980006       -26.6673
 110   2.0000      -0.978383       -26.6232
 111   2.0000      -0.968878       -26.3645
 112   2.0000      -0.939766       -25.5723
 113   2.0000      -0.934137       -25.4192
 114   2.0000      -0.920118       -25.0377
 115   2.0000      -0.915325       -24.9073
 116   2.0000      -0.908864       -24.7314
 117   2.0000      -0.901184       -24.5225
 118   2.0000      -0.891858       -24.2687
 119   2.0000      -0.878044       -23.8928
 120   2.0000      -0.876960       -23.8633
 121   2.0000      -0.872099       -23.7310
 122   2.0000      -0.867968       -23.6186
 123   2.0000      -0.866520       -23.5792
 124   2.0000      -0.859546       -23.3894
 125   2.0000      -0.852704       -23.2032
 126   2.0000      -0.847591       -23.0641
 127   2.0000      -0.840847       -22.8806
 128   2.0000      -0.835971       -22.7479
 129   2.0000      -0.830746       -22.6057
 130   2.0000      -0.817962       -22.2579
 131   2.0000      -0.814600       -22.1664
 132   2.0000      -0.811697       -22.0874
 133   2.0000      -0.800867       -21.7927
 134   2.0000      -0.789808       -21.4918
 135   2.0000      -0.774694       -21.0805
 136   2.0000      -0.765233       -20.8230
 137   2.0000      -0.759488       -20.6667
 138   2.0000      -0.753246       -20.4969
 139   2.0000      -0.748952       -20.3800
 140   2.0000      -0.746300       -20.3078
 141   2.0000      -0.731124       -19.8949
 142   2.0000      -0.724031       -19.7019
 143   2.0000      -0.709975       -19.3194
 144   2.0000      -0.704655       -19.1746
 145   2.0000      -0.687720       -18.7138
 146   2.0000      -0.686223       -18.6731
 147   2.0000      -0.683408       -18.5965
 148   2.0000      -0.679565       -18.4919
 149   2.0000      -0.673315       -18.3218
 150   2.0000      -0.670650       -18.2493
 151   2.0000      -0.666766       -18.1436
 152   2.0000      -0.662558       -18.0291
 153   2.0000      -0.653634       -17.7863
 154   2.0000      -0.650897       -17.7118
 155   2.0000      -0.648420       -17.6444
 156   2.0000      -0.640083       -17.4175
 157   2.0000      -0.639596       -17.4043
 158   2.0000      -0.635474       -17.2921
 159   2.0000      -0.633387       -17.2353
 160   2.0000      -0.629528       -17.1303
 161   2.0000      -0.621918       -16.9233
 162   2.0000      -0.614258       -16.7148
 163   2.0000      -0.613272       -16.6880
 164   2.0000      -0.610183       -16.6039
 165   2.0000      -0.594166       -16.1681
 166   2.0000      -0.591722       -16.1016
 167   2.0000      -0.589389       -16.0381
 168   2.0000      -0.581902       -15.8344
 169   2.0000      -0.580141       -15.7864
 170   2.0000      -0.576624       -15.6907
 171   2.0000      -0.566868       -15.4252
 172   2.0000      -0.559909       -15.2359
 173   2.0000      -0.557572       -15.1723
 174   2.0000      -0.553317       -15.0565
 175   2.0000      -0.550176       -14.9711
 176   2.0000      -0.547121       -14.8879
 177   2.0000      -0.544923       -14.8281
 178   2.0000      -0.543619       -14.7926
 179   2.0000      -0.537907       -14.6372
 180   2.0000      -0.536312       -14.5938
 181   2.0000      -0.535616       -14.5749
 182   2.0000      -0.529415       -14.4061
 183   2.0000      -0.525007       -14.2862
 184   2.0000      -0.524231       -14.2651
 185   2.0000      -0.521895       -14.2015
 186   2.0000      -0.519474       -14.1356
 187   2.0000      -0.517470       -14.0811
 188   2.0000      -0.515598       -14.0301
 189   2.0000      -0.514125       -13.9900
 190   2.0000      -0.513112       -13.9625
 191   2.0000      -0.512555       -13.9473
 192   2.0000      -0.511462       -13.9176
 193   2.0000      -0.506862       -13.7924
 194   2.0000      -0.506494       -13.7824
 195   2.0000      -0.502515       -13.6741
 196   2.0000      -0.500964       -13.6319
 197   2.0000      -0.494569       -13.4579
 198   2.0000      -0.493345       -13.4246
 199   2.0000      -0.492647       -13.4056
 200   2.0000      -0.492016       -13.3884
 201   2.0000      -0.490798       -13.3553
 202   2.0000      -0.487610       -13.2685
 203   2.0000      -0.486723       -13.2444
 204   2.0000      -0.482848       -13.1389
 205   2.0000      -0.481958       -13.1147
 206   2.0000      -0.480509       -13.0753
 207   2.0000      -0.480037       -13.0625
 208   2.0000      -0.478612       -13.0237
 209   2.0000      -0.474077       -12.9003
 210   2.0000      -0.469331       -12.7712
 211   2.0000      -0.466983       -12.7073
 212   2.0000      -0.465013       -12.6536
 213   2.0000      -0.464791       -12.6476
 214   2.0000      -0.459995       -12.5171
 215   2.0000      -0.455667       -12.3993
 216   2.0000      -0.454937       -12.3795
 217   2.0000      -0.448165       -12.1952
 218   2.0000      -0.446943       -12.1619
 219   2.0000      -0.444228       -12.0881
 220   2.0000      -0.444104       -12.0847
 221   2.0000      -0.442740       -12.0476
 222   2.0000      -0.437249       -11.8982
 223   2.0000      -0.436485       -11.8774
 224   2.0000      -0.435377       -11.8472
 225   2.0000      -0.432732       -11.7752
 226   2.0000      -0.430984       -11.7277
 227   2.0000      -0.430597       -11.7171
 228   2.0000      -0.430287       -11.7087
 229   2.0000      -0.427877       -11.6431
 230   2.0000      -0.426229       -11.5983
 231   2.0000      -0.420665       -11.4469
 232   2.0000      -0.418707       -11.3936
 233   2.0000      -0.418524       -11.3886
 234   2.0000      -0.416703       -11.3391
 235   2.0000      -0.415238       -11.2992
 236   2.0000      -0.412607       -11.2276
 237   2.0000      -0.405853       -11.0438
 238   2.0000      -0.403301       -10.9744
 239   2.0000      -0.399591       -10.8734
 240   2.0000      -0.396135       -10.7794
 241   2.0000      -0.393103       -10.6969
 242   2.0000      -0.387668       -10.5490
 243   2.0000      -0.386374       -10.5138
 244   2.0000      -0.380162       -10.3447
 245   2.0000      -0.377707       -10.2779
 246   2.0000      -0.368923       -10.0389
 247   2.0000      -0.357867        -9.7380
 248   2.0000      -0.353313        -9.6141
 249   2.0000      -0.345712        -9.4073
 250   2.0000      -0.340977        -9.2784
 251   2.0000      -0.340068        -9.2537
 252   2.0000      -0.332055        -9.0357
 253   2.0000      -0.329172        -8.9572
 254   2.0000      -0.321050        -8.7362
 255   2.0000      -0.308690        -8.3999
 256   2.0000      -0.304404        -8.2833
 257   2.0000      -0.298821        -8.1313
 258   2.0000      -0.294696        -8.0191
 259   2.0000      -0.287342        -7.8190
 260   2.0000      -0.281031        -7.6472
 261   2.0000      -0.270132        -7.3507
 262   2.0000      -0.248170        -6.7530
 263   2.0000      -0.215265        -5.8576
 264   0.0000      -0.133641        -3.6366
 265   0.0000      -0.111033        -3.0214
 266   0.0000      -0.102556        -2.7907
 267   0.0000      -0.074028        -2.0144
 268   0.0000      -0.055511        -1.5105

MULLIKEN ATOMIC CHARGES
-----------------------
   0 C :    0.326256
   1 C :   -0.352739
   2 C :   -0.186571
   3 N :    0.144371
   4 C :   -0.195868
   5 N :    0.148765
   6 C :    0.011216
   7 C :   -0.000187
   8 C :   -0.065765
   9 C :    0.094142
  10 C :   -0.091617
  11 C :   -0.030092
  12 S :    0.120940
  13 C :   -0.068663
  14 C :    0.046124
  15 C :    0.164238
  16 O :   -0.187880
  17 C :   -0.096307
  18 C :   -0.067245
  19 C :   -0.076629
  20 S :    0.200207
  21 C :   -0.056383
  22 C :   -0.021798
  23 C :   -0.021717
  24 S :    0.094171
  25 C :    0.089135
  26 O :   -0.121405
  27 C :    0.079024
  28 O :   -0.131200
  29 S :    0.077614
  30 C :   -0.043062
  31 C :    0.015426
  32 C :   -0.003004
  33 C :   -0.016818
  34 C :    0.032701
  35 C :    0.030203
  36 C :   -0.039559
  37 S :    0.088437
  38 C :   -0.032337
  39 C :    0.034330
  40 C :    0.037060
  41 C :   -0.032211
  42 S :    0.068152
  43 C :   -0.002273
  44 C :    0.087552
  45 C :   -0.115452
  46 C :    0.126860
  47 C :   -0.126248
  48 C :   -0.021724
  49 C :   -0.128706
  50 N :    0.110575
  51 C :    0.147779
  52 C :   -0.170165
  53 C :    0.141392
  54 C :   -0.025173
  55 C :   -0.095393
  56 C :   -0.177940
  57 N :    0.129204
  58 C :    0.057447
  59 C :   -0.027195
  60 C :    0.056516
  61 C :    0.008309
  62 C :    0.045017
  63 C :   -0.011757
  64 C :    0.058715
  65 C :   -0.015287
  66 C :    0.048460
  67 C :    0.009077
  68 C :    0.055116
  69 C :   -0.038919
  70 C :    0.005643
  71 C :   -0.012664
  72 H :   -0.010743
  73 H :   -0.011037
  74 H :    0.033867
  75 H :   -0.001576
  76 H :    0.031490
  77 H :    0.005946
  78 H :    0.025204
  79 H :   -0.007516
  80 H :   -0.004584
  81 H :   -0.005871
  82 H :   -0.007017
  83 H :   -0.001198
  84 H :   -0.002383
  85 H :   -0.003396
  86 H :    0.017170
  87 H :   -0.023367
  88 H :   -0.009606
  89 H :   -0.021070
  90 H :   -0.030019
  91 H :   -0.018522
  92 H :   -0.015730
  93 H :   -0.020126
  94 H :   -0.024137
  95 H :   -0.017976
  96 H :    0.014267
  97 H :    0.025710
Sum of atomic charges:   -0.0000000

LOEWDIN ATOMIC CHARGES
----------------------
   0 C :    0.074960
   1 C :   -0.145252
   2 C :   -0.017180
   3 N :   -0.058963
   4 C :   -0.025976
   5 N :   -0.051231
   6 C :   -0.020734
   7 C :   -0.056769
   8 C :    0.034456
   9 C :   -0.031511
  10 C :   -0.145571
  11 C :   -0.012756
  12 S :    0.410549
  13 C :   -0.163859
  14 C :   -0.050184
  15 C :    0.086394
  16 O :   -0.172243
  17 C :   -0.102743
  18 C :    0.034117
  19 C :   -0.202523
  20 S :    0.518572
  21 C :   -0.167961
  22 C :   -0.228897
  23 C :   -0.185962
  24 S :    0.413926
  25 C :   -0.109726
  26 O :   -0.094739
  27 C :   -0.112503
  28 O :   -0.104524
  29 S :    0.385645
  30 C :   -0.056472
  31 C :   -0.006880
  32 C :   -0.052724
  33 C :   -0.134886
  34 C :   -0.032938
  35 C :   -0.023749
  36 C :   -0.176065
  37 S :    0.396449
  38 C :   -0.172384
  39 C :   -0.030389
  40 C :   -0.023884
  41 C :   -0.143394
  42 S :    0.409245
  43 C :   -0.030468
  44 C :   -0.031910
  45 C :   -0.028374
  46 C :    0.012299
  47 C :   -0.083646
  48 C :    0.032198
  49 C :    0.003032
  50 N :   -0.078978
  51 C :    0.039709
  52 C :   -0.066651
  53 C :    0.004246
  54 C :    0.045585
  55 C :   -0.077446
  56 C :   -0.029730
  57 N :   -0.069014
  58 C :   -0.061849
  59 C :    0.050316
  60 C :   -0.062141
  61 C :    0.080318
  62 C :   -0.057094
  63 C :    0.037313
  64 C :   -0.059195
  65 C :    0.053502
  66 C :   -0.071386
  67 C :    0.085077
  68 C :   -0.067583
  69 C :    0.030748
  70 C :   -0.027731
  71 C :   -0.037946
  72 H :    0.039793
  73 H :    0.039484
  74 H :    0.024352
  75 H :    0.030362
  76 H :    0.038953
  77 H :    0.028816
  78 H :    0.021905
  79 H :    0.036652
  80 H :    0.036690
  81 H :    0.035442
  82 H :    0.035108
  83 H :    0.037815
  84 H :    0.043071
  85 H :    0.032862
  86 H :    0.021409
  87 H :    0.025566
  88 H :    0.033102
  89 H :    0.029241
  90 H :    0.032682
  91 H :    0.027663
  92 H :    0.028247
  93 H :    0.037289
  94 H :    0.025339
  95 H :    0.028401
  96 H :    0.021061
  97 H :    0.026756

  Mayer bond orders larger than 0.100000
B(  0-C ,  1-C ) :   1.6075 B(  0-C ,  6-C ) :   0.9998 B(  0-C , 17-C ) :   1.0847
B(  1-C ,  2-C ) :   1.1500 B(  1-C ,  4-C ) :   1.1462 B(  2-C ,  3-N ) :   2.9635
B(  4-C ,  5-N ) :   2.9608 B(  6-C ,  7-C ) :   1.2641 B(  6-C , 11-C ) :   1.4182
B(  7-C ,  8-C ) :   1.3870 B(  7-C , 15-C ) :   0.9649 B(  8-C ,  9-C ) :   1.2611
B(  8-C , 72-H ) :   1.0167 B(  9-C , 10-C ) :   1.2983 B(  9-C , 14-C ) :   1.1890
B( 10-C , 11-C ) :   1.3183 B( 10-C , 12-S ) :   1.0946 B( 11-C , 73-H ) :   0.9818
B( 12-S , 13-C ) :   1.1005 B( 13-C , 14-C ) :   1.6093 B( 13-C , 74-H ) :   0.9638
B( 14-C , 75-H ) :   0.9805 B( 15-C , 16-O ) :   2.1116 B( 15-C , 17-C ) :   0.9743
B( 17-C , 18-C ) :   1.5258 B( 18-C , 19-C ) :   1.2851 B( 18-C , 76-H ) :   0.9257
B( 19-C , 20-S ) :   1.0927 B( 19-C , 23-C ) :   1.4103 B( 20-S , 21-C ) :   1.0965
B( 21-C , 22-C ) :   1.4104 B( 21-C , 30-C ) :   1.2278 B( 22-C , 23-C ) :   1.4076
B( 22-C , 29-S ) :   0.9634 B( 23-C , 24-S ) :   0.9970 B( 24-S , 25-C ) :   1.0522
B( 24-S , 26-O ) :   0.1352 B( 25-C , 26-O ) :   2.1678 B( 25-C , 27-C ) :   0.7709
B( 27-C , 28-O ) :   2.1571 B( 27-C , 29-S ) :   1.0535 B( 28-O , 29-S ) :   0.1402
B( 30-C , 31-C ) :   1.5354 B( 30-C , 77-H ) :   0.9751 B( 31-C , 32-C ) :   1.2263
B( 31-C , 78-H ) :   0.9702 B( 32-C , 33-C ) :   1.4733 B( 32-C , 79-H ) :   0.9882
B( 33-C , 34-C ) :   1.1867 B( 33-C , 37-S ) :   1.0581 B( 34-C , 35-C ) :   1.5326
B( 34-C , 80-H ) :   1.0003 B( 35-C , 36-C ) :   1.2389 B( 35-C , 81-H ) :   0.9955
B( 36-C , 37-S ) :   1.0622 B( 36-C , 38-C ) :   1.4243 B( 38-C , 39-C ) :   1.2307
B( 38-C , 42-S ) :   1.0687 B( 39-C , 40-C ) :   1.5395 B( 39-C , 82-H ) :   0.9944
B( 40-C , 41-C ) :   1.1826 B( 40-C , 83-H ) :   1.0002 B( 41-C , 42-S ) :   1.0443
B( 41-C , 43-C ) :   1.4878 B( 43-C , 44-C ) :   1.1928 B( 43-C , 84-H ) :   0.9732
B( 44-C , 45-C ) :   1.3973 B( 44-C , 48-C ) :   1.0604 B( 45-C , 46-C ) :   1.2131
B( 45-C , 85-H ) :   1.0099 B( 46-C , 47-C ) :   1.1117 B( 46-C , 51-C ) :   1.2916
B( 47-C , 48-C ) :   1.6669 B( 47-C , 49-C ) :   1.0919 B( 48-C , 86-H ) :   0.9907
B( 49-C , 50-N ) :   2.9002 B( 51-C , 52-C ) :   1.1879 B( 51-C , 55-C ) :   1.1121
B( 52-C , 53-C ) :   1.4991 B( 52-C , 87-H ) :   1.0000 B( 53-C , 54-C ) :   1.0581
B( 53-C , 58-C ) :   1.0479 B( 54-C , 55-C ) :   1.6541 B( 54-C , 88-H ) :   1.0200
B( 55-C , 56-C ) :   1.0851 B( 56-C , 57-N ) :   2.9689 B( 58-C , 59-C ) :   1.1735
B( 58-C , 69-C ) :   1.4078 B( 59-C , 60-C ) :   1.3966 B( 59-C , 89-H ) :   1.0130
B( 60-C , 61-C ) :   1.1345 B( 60-C , 68-C ) :   1.1381 B( 61-C , 62-C ) :   1.4257
B( 61-C , 90-H ) :   1.0009 B( 62-C , 63-C ) :   1.1330 B( 62-C , 66-C ) :   1.1267
B( 63-C , 64-C ) :   1.4550 B( 63-C , 91-H ) :   1.0114 B( 64-C , 65-C ) :   1.1983
B( 64-C , 70-C ) :   1.0741 B( 65-C , 66-C ) :   1.3459 B( 65-C , 92-H ) :   1.0133
B( 66-C , 67-C ) :   1.1951 B( 67-C , 68-C ) :   1.3617 B( 67-C , 93-H ) :   1.0049
B( 68-C , 69-C ) :   1.1592 B( 69-C , 94-H ) :   1.0128 B( 70-C , 71-C ) :   1.9475
B( 70-C , 95-H ) :   0.9658 B( 71-C , 96-H ) :   0.9531 B( 71-C , 97-H ) :   0.9492

-----------------------------------------------------------------------------
         ABSORPTION SPECTRUM VIA TRANSITION ELECTRIC DIPOLE MOMENTS
-----------------------------------------------------------------------------
State   Energy  Wavelength   fosc         T2         TX        TY        TZ
        (cm-1)    (nm)                  (au**2)     (au)      (au)      (au)
-----------------------------------------------------------------------------
   0    5296.6   1888.0   0.403387306  25.07257  -3.15198  -2.23326   3.18593
   1    7245.5   1380.2   0.016366947   0.74366   0.66123  -0.07237  -0.54882
   2   11026.5    906.9   0.059140277   1.76571   0.93011  -0.85969  -0.40192
   3   12304.0    812.7   0.912654911  24.41945  -1.51352   4.69986   0.20000
   4   15023.7    665.6   0.035485654   0.77759   0.03292   0.85708  -0.20476
   5   16651.7    600.5   0.136760232   2.70382  -0.55361   1.54833  -0.00147
   6   18505.9    540.4   0.060654930   1.07902  -0.05645  -0.95153   0.41282
   7   18858.6    530.3   0.492640532   8.59996  -1.12396  -1.85414   1.97455
   8   19827.2    504.4   0.143988129   2.39078   0.32245  -1.47207   0.34616
   9   20648.8    484.3   0.303109459   4.83260  -0.26051  -1.84970   1.15903
  10   20934.6    477.7   0.041793400   0.65723   0.15800   0.69830  -0.38032
  11   21334.4    468.7   0.046195470   0.71284  -0.13095  -0.72366   0.41474
  12   22144.9    451.6   0.671396493   9.98116  -0.55268  -2.67841   1.58172
  13   22697.7    440.6   0.293217023   4.25287  -1.08781   1.47842   0.94011
  14   22847.0    437.7   0.003450613   0.04972  -0.11364  -0.06161   0.18169
  15   23396.5    427.4   0.064258891   0.90418   0.29874  -0.78020  -0.45412
  16   23898.2    418.4   0.278221939   3.83268   0.14350   1.87424  -0.54709
  17   23958.3    417.4   0.027568520   0.37882  -0.18172   0.58795  -0.01060
  18   24070.4    415.4   0.049545323   0.67763  -0.43883  -0.38382   0.58116
  19   25542.5    391.5   0.072829818   0.93869   0.59074  -0.01695  -0.76774
  20   25705.7    389.0   0.007417528   0.09500   0.15478   0.16007  -0.21312
  21   25891.3    386.2   0.005539395   0.07043  -0.00085  -0.25068  -0.08715
  22   26152.6    382.4   0.039159917   0.49295   0.19349   0.49033  -0.46377
  23   26252.1    380.9   0.111655833   1.40021   0.68190   0.31935  -0.91282
  24   26692.2    374.6   0.010480756   0.12927   0.28204  -0.05523   0.21602
  25   27295.2    366.4   0.242132870   2.92040   0.51912  -1.62797  -0.02525
  26   28353.5    352.7   0.068300247   0.79303  -0.74403  -0.00922   0.48925
  27   28791.6    347.3   0.068313392   0.78112   0.37047  -0.78664  -0.15833
  28   29038.4    344.4   0.012617320   0.14304   0.06410  -0.37138   0.03178
  29   29125.8    343.3   0.006900786   0.07800   0.01905   0.27449  -0.04790
  30   29324.9    341.0   0.002852952   0.03203  -0.12452  -0.03067   0.12483
  31   29467.6    339.4   0.154244887   1.72322   0.85471  -0.54337  -0.83513
  32   29958.7    333.8   0.000352908   0.00388   0.03032  -0.05308   0.01188
  33   30003.8    333.3   0.111228443   1.22044   0.75416  -0.45652  -0.66579
  34   30081.0    332.4   0.179862964   1.96845  -0.43976   1.33167  -0.04129
  35   30181.9    331.3   0.021689661   0.23658   0.28922  -0.36383  -0.14339
  36   31034.4    322.2   0.079592602   0.84431  -0.58280  -0.36220   0.61112
  37   31504.6    317.4   0.031122224   0.32522   0.42765  -0.28885  -0.24269
  38   31639.8    316.1   0.001374608   0.01430   0.06019  -0.01615  -0.10207
  39   31718.2    315.3   0.419636664   4.35553   1.16566  -1.33600  -1.10086
  40   31750.2    315.0   0.051546303   0.53447   0.34769   0.10480  -0.63451
  41   31970.7    312.8   0.492668021   5.07316  -0.94661  -1.11208   1.71475
  42   32215.0    310.4   0.244662038   2.50025   0.53934  -1.46679  -0.24062
  43   32423.9    308.4   0.004721863   0.04794  -0.10388  -0.11931   0.15138
  44   32722.5    305.6   0.237344219   2.38785  -0.15384   1.51513  -0.26187
  45   32947.7    303.5   0.134184157   1.34076  -0.40406   1.05817   0.24035
  46   33079.6    302.3   0.056442359   0.56172  -0.36262   0.60009   0.26480
  47   33474.5    298.7   0.038466176   0.37830   0.39968  -0.22922  -0.40745
  48   33891.5    295.1   0.031859976   0.30948   0.38120  -0.01117  -0.40502
  49   34029.2    293.9   0.102205778   0.98878   0.57078   0.18349  -0.79330
  50   34134.1    293.0   0.001463848   0.01412  -0.03460   0.11057  -0.02637
  51   34192.2    292.5   0.013309114   0.12814  -0.10847  -0.28778   0.18319
  52   34265.8    291.8   0.008199550   0.07878  -0.17010  -0.03935   0.21976
  53   34435.9    290.4   0.020215417   0.19326  -0.10907  -0.16161   0.39402
  54   34519.8    289.7   0.005835306   0.05565   0.12322  -0.17896  -0.09187
  55   34713.3    288.1   0.003534166   0.03352   0.08673   0.02998  -0.15842
  56   34980.7    285.9   0.001956283   0.01841   0.02335   0.05371  -0.12240
  57   35116.3    284.8   0.004742617   0.04446  -0.03728   0.17070   0.11804
  58   35772.7    279.5   0.033776007   0.31084  -0.08352   0.54647   0.07234
  59   35859.3    278.9   0.015227436   0.13980  -0.10610   0.33378  -0.13088
  60   36087.6    277.1   0.004973345   0.04537   0.02594   0.15349  -0.14539
  61   36386.2    274.8   0.130749970   1.18299   0.30550  -0.99425   0.31799
  62   36445.2    274.4   0.030197315   0.27277  -0.44782  -0.01973   0.26803
  63   36530.9    273.7   0.246262715   2.21929  -0.63725   1.31277   0.29975
  64   36814.1    271.6   0.028543205   0.25525   0.09300   0.48330  -0.11410
  65   36891.8    271.1   0.364271540   3.25065   0.49079  -1.73082  -0.11845
  66   37151.9    269.2   0.156175378   1.38391  -0.74517   0.55046   0.72499
  67   37450.3    267.0   0.003158589   0.02777  -0.04638   0.15800   0.02550
  68   37710.8    265.2   0.012749585   0.11130   0.03678   0.31444  -0.10525
  69   37873.0    264.0   0.017187824   0.14941  -0.01453   0.38570  -0.02082
  70   37945.6    263.5   0.041082031   0.35642   0.00131  -0.59689  -0.01182
  71   38117.9    262.3   0.035115704   0.30328   0.32417   0.02202  -0.44465
  72   38567.4    259.3   0.006051806   0.05166  -0.04204   0.22334  -0.00311
  73   38569.3    259.3   0.066973863   0.57166   0.22405   0.55891  -0.45725
  74   38833.2    257.5   0.000453304   0.00384  -0.01291  -0.00755   0.06016
  75   39027.9    256.2   0.012580563   0.10612   0.14409   0.23936  -0.16754
  76   39247.0    254.8   0.000236646   0.00199   0.03436   0.02672  -0.00949
  77   39362.2    254.1   0.136856361   1.14462   0.30352   0.63757  -0.80375
  78   39505.4    253.1   0.021852899   0.18211   0.22308   0.19304  -0.30835
  79   39622.0    252.4   0.003067778   0.02549   0.11117   0.03103  -0.11031
  80   39812.0    251.2   0.015286010   0.12640   0.25285  -0.10049  -0.22885
  81   40019.6    249.9   0.077170430   0.63482   0.29908  -0.73708   0.04567
  82   40100.5    249.4   0.006031568   0.04952  -0.07648  -0.14439   0.15106
  83   40222.8    248.6   0.099813961   0.81695  -0.48608  -0.56439   0.51199

FINAL SINGLE POINT ENERGY     -5093.326193930717

DIPOLE MOMENT
-------------
                                X             Y             Z
Electronic contribution:     41.02127      22.90126     -41.47996
Nuclear contribution   :    -44.74711     -20.68489      44.13042
                        -----------------------------------------
Total Dipole Moment    :     -3.72584       2.21637       2.65046
                        -----------------------------------------
Magnitude (a.u.)       :      5.08126
Magnitude (Debye)      :     12.91553

Rotational constants in cm-1:     0.000821     0.000475     0.000306
Rotational constants in MHz :    24.627575    14.249351     9.180222

                             ****ORCA TERMINATED NORMALLY****
TOTAL RUN TIME: 0 days 0 hours 14 minutes 21 seconds 539 msec
