                         Program Version 4.2.0 -  RELEASE  -
|  1> # ORCA input file
|  2> # SCF done       -173.295181010305          0.003717685082
|  3> ! CAM-B3LYP def2-SVP def2/J RIJCOSX Grid4 TightSCF
|  4> %maxcore 5000
|  5> %tddft
|  6>     Mode sTDDFT
|  7>     Ethresh 5.0
|  8>     maxcore 5000
|  9> end
| 10>
| 11> %pal
| 12>   nprocs 6
| 13>   end
| 14> * xyz 0 1
| 15>    C      -10.66252        -1.28374        -5.14417
| 16>    C      -11.36028        -2.16411        -4.35117
| 17>    C      -11.74524        -3.45739        -4.75088
| 18>    N      -12.10453        -4.51107        -5.03303
| 19>    C      -11.80483        -1.86368        -3.05090
| 20>    N      -12.17942        -1.66902        -1.98194
| 21>    C      -10.17002        -1.55349        -6.49160
| 22>    C       -9.53326        -0.38680        -6.99154
| 23>    C       -8.98865        -0.32023        -8.25058
| 24>    C       -9.07153        -1.46079        -9.05823
| 25>    C       -9.69338        -2.62349        -8.54689
| 26>    C      -10.24503        -2.69095        -7.27125
| 27>    S       -9.68411        -3.91595        -9.70896
| 28>    C       -8.86206        -2.88684       -10.85367
| 29>    C       -8.60281        -1.64181       -10.38857
| 30>   Br       -8.42407        -3.55486       -12.54904
| 31>    C       -9.59196         0.65662        -5.96115
| 32>    O       -9.14669         1.80196        -6.03197
| 33>    C      -10.29833         0.07166        -4.82227
| 34>    C      -10.56308         0.80762        -3.68676
| 35>    N      -10.16895         2.08305        -3.61935
| 36>    C      -10.42487         2.97847        -2.63738
| 37>    S      -11.30664         2.53989        -1.20324
| 38>    C      -11.21412         4.19146        -0.67893
| 39>    N      -11.78300         4.52635         0.55023
| 40>    O      -11.77587         5.70212         0.88103
| 41>    O      -12.25217         3.61590         1.21552
| 42>    C      -10.55261         5.01398        -1.55187
| 43>    C      -10.07100         4.33692        -2.68716
| 44>    C       -9.28594         4.91835        -3.74221
| 45>    C       -9.07182         6.24255        -3.88064
| 46>    C       -8.26355         6.84540        -4.90109
| 47>    C       -8.01744         6.26900        -6.16919
| 48>    C       -7.35698         7.09688        -7.02930
| 49>    S       -6.92409         6.69663        -8.67040
| 50>    C       -6.08173         8.21454        -9.19571
| 51>    S       -6.99718         8.63564        -6.30146
| 52>    C       -7.72960         8.13837        -4.79304
| 53>    C       -7.67295         8.99369        -3.67631
| 54>    C       -7.79141         8.54500        -2.38588
| 55>    C       -7.95443         9.32339        -1.23922
| 56>    C       -8.21033         8.74389        -0.01099
| 57>    C       -8.58265         9.36008         1.20154
| 58>    C       -8.93755         8.48513         2.19309
| 59>    C       -8.84169         7.13359         1.82074
| 60>    S       -8.24410         7.00002         0.18310
| 61>    C       -9.19566         5.98748         2.51346
| 62>    C       -9.83931         5.84923         3.75801
| 63>    C      -10.15727         4.55986         4.07068
| 64>    C       -9.78110         3.60208         3.09734
| 65>    S       -8.94457         4.42138         1.78597
| 66>    C      -10.07686         2.26292         3.12500
| 67>    C       -9.81220         1.28267         2.14761
| 68>    C      -10.26058        -0.04511         2.21816
| 69>    C       -9.87305        -0.72529         1.04244
| 70>    C      -10.07180        -2.02292         0.61532
| 71>    C       -9.57028        -2.37888        -0.64431
| 72>    C       -9.63701        -3.56660        -1.36164
| 73>    C       -9.00060        -3.38210        -2.62758
| 74>    C       -8.52839        -2.07989        -2.68395
| 75>    C       -8.86114        -1.41508        -1.46843
| 76>    C       -8.64492        -0.13061        -1.04179
| 77>    C       -9.14869         0.22981         0.22247
| 78>    C       -9.10946         1.43136         0.90631
| 79>    C       -8.87060        -4.35366        -3.68561
| 80>    C       -9.29438        -5.61428        -3.63625
| 81>    H       -8.51679         0.58219        -8.60741
| 82>    H      -10.70969        -3.59917        -6.92546
| 83>    H       -8.10442        -0.87988       -10.95978
| 84>    H      -11.09355         0.39988        -2.83678
| 85>    H       -9.67203         2.40429        -4.47265
| 86>    H      -10.41055         6.05847        -1.34716
| 87>    H       -8.80986         4.23549        -4.43159
| 88>    H       -9.54881         6.92990        -3.19738
| 89>    H       -8.34973         5.28896        -6.45853
| 90>    H       -5.76720         8.05071       -10.22153
| 91>    H       -5.21781         8.39023        -8.56052
| 92>    H       -6.77274         9.05141        -9.14263
| 93>    H       -7.50367        10.04622        -3.86340
| 94>    H       -7.77756         7.47439        -2.22622
| 95>    H       -7.96900        10.40184        -1.31320
| 96>    H       -8.60954        10.43107         1.30134
| 97>    H       -9.27564         8.78255         3.16977
| 98>    H      -10.08237         6.70079         4.36760
| 99>    H      -10.68225         4.26562         4.96233
|100>    H      -10.62707         1.92350         3.99399
|101>    H      -10.82364        -0.47079         3.02798
|102>    H      -10.60527        -2.74274         1.21845
|103>    H      -10.10657        -4.47370        -1.03084
|104>    H       -8.00001        -1.63380        -3.50807
|105>    H       -8.11670         0.59288        -1.64863
|106>    H       -8.61877         2.32285         0.56292
|107>    H       -8.38157        -3.98740        -4.58129
|108>    H       -9.78652        -6.02018        -2.77058
|109>    H       -9.17335        -6.28019        -4.47106
|110> *
|111>
|112>                          ****END OF INPUT****

CARTESIAN COORDINATES (ANGSTROEM)
---------------------------------
  C    -10.662520   -1.283740   -5.144170
  C    -11.360280   -2.164110   -4.351170
  C    -11.745240   -3.457390   -4.750880
  N    -12.104530   -4.511070   -5.033030
  C    -11.804830   -1.863680   -3.050900
  N    -12.179420   -1.669020   -1.981940
  C    -10.170020   -1.553490   -6.491600
  C     -9.533260   -0.386800   -6.991540
  C     -8.988650   -0.320230   -8.250580
  C     -9.071530   -1.460790   -9.058230
  C     -9.693380   -2.623490   -8.546890
  C    -10.245030   -2.690950   -7.271250
  S     -9.684110   -3.915950   -9.708960
  C     -8.862060   -2.886840  -10.853670
  C     -8.602810   -1.641810  -10.388570
  Br    -8.424070   -3.554860  -12.549040
  C     -9.591960    0.656620   -5.961150
  O     -9.146690    1.801960   -6.031970
  C    -10.298330    0.071660   -4.822270
  C    -10.563080    0.807620   -3.686760
  N    -10.168950    2.083050   -3.619350
  C    -10.424870    2.978470   -2.637380
  S    -11.306640    2.539890   -1.203240
  C    -11.214120    4.191460   -0.678930
  N    -11.783000    4.526350    0.550230
  O    -11.775870    5.702120    0.881030
  O    -12.252170    3.615900    1.215520
  C    -10.552610    5.013980   -1.551870
  C    -10.071000    4.336920   -2.687160
  C     -9.285940    4.918350   -3.742210
  C     -9.071820    6.242550   -3.880640
  C     -8.263550    6.845400   -4.901090
  C     -8.017440    6.269000   -6.169190
  C     -7.356980    7.096880   -7.029300
  S     -6.924090    6.696630   -8.670400
  C     -6.081730    8.214540   -9.195710
  S     -6.997180    8.635640   -6.301460
  C     -7.729600    8.138370   -4.793040
  C     -7.672950    8.993690   -3.676310
  C     -7.791410    8.545000   -2.385880
  C     -7.954430    9.323390   -1.239220
  C     -8.210330    8.743890   -0.010990
  C     -8.582650    9.360080    1.201540
  C     -8.937550    8.485130    2.193090
  C     -8.841690    7.133590    1.820740
  S     -8.244100    7.000020    0.183100
  C     -9.195660    5.987480    2.513460
  C     -9.839310    5.849230    3.758010
  C    -10.157270    4.559860    4.070680
  C     -9.781100    3.602080    3.097340
  S     -8.944570    4.421380    1.785970
  C    -10.076860    2.262920    3.125000
  C     -9.812200    1.282670    2.147610
  C    -10.260580   -0.045110    2.218160
  C     -9.873050   -0.725290    1.042440
  C    -10.071800   -2.022920    0.615320
  C     -9.570280   -2.378880   -0.644310
  C     -9.637010   -3.566600   -1.361640
  C     -9.000600   -3.382100   -2.627580
  C     -8.528390   -2.079890   -2.683950
  C     -8.861140   -1.415080   -1.468430
  C     -8.644920   -0.130610   -1.041790
  C     -9.148690    0.229810    0.222470
  C     -9.109460    1.431360    0.906310
  C     -8.870600   -4.353660   -3.685610
  C     -9.294380   -5.614280   -3.636250
  H     -8.516790    0.582190   -8.607410
  H    -10.709690   -3.599170   -6.925460
  H     -8.104420   -0.879880  -10.959780
  H    -11.093550    0.399880   -2.836780
  H     -9.672030    2.404290   -4.472650
  H    -10.410550    6.058470   -1.347160
  H     -8.809860    4.235490   -4.431590
  H     -9.548810    6.929900   -3.197380
  H     -8.349730    5.288960   -6.458530
  H     -5.767200    8.050710  -10.221530
  H     -5.217810    8.390230   -8.560520
  H     -6.772740    9.051410   -9.142630
  H     -7.503670   10.046220   -3.863400
  H     -7.777560    7.474390   -2.226220
  H     -7.969000   10.401840   -1.313200
  H     -8.609540   10.431070    1.301340
  H     -9.275640    8.782550    3.169770
  H    -10.082370    6.700790    4.367600
  H    -10.682250    4.265620    4.962330
  H    -10.627070    1.923500    3.993990
  H    -10.823640   -0.470790    3.027980
  H    -10.605270   -2.742740    1.218450
  H    -10.106570   -4.473700   -1.030840
  H     -8.000010   -1.633800   -3.508070
  H     -8.116700    0.592880   -1.648630
  H     -8.618770    2.322850    0.562920
  H     -8.381570   -3.987400   -4.581290
  H     -9.786520   -6.020180   -2.770580
  H     -9.173350   -6.280190   -4.471060

 Total Charge           Charge          ....    0
 Multiplicity           Mult            ....    1
 Number of Electrons    NEL             ....  524
 Basis Dimension        Dim             .... 1111

ORBITAL ENERGIES
----------------

  NO   OCC          E(Eh)            E(eV)
   0   2.0000    -482.886245    -13140.0028
   1   2.0000     -88.979643     -2421.2592
   2   2.0000     -88.976802     -2421.1819
   3   2.0000     -88.952827     -2420.5295
   4   2.0000     -88.937921     -2420.1239
   5   2.0000     -88.935934     -2420.0698
   6   2.0000     -88.932840     -2419.9856
   7   2.0000     -62.563963     -1702.4520
   8   2.0000     -56.397910     -1534.6651
   9   2.0000     -56.395198     -1534.5914
  10   2.0000     -56.395163     -1534.5904
  11   2.0000     -19.231222      -523.3082
  12   2.0000     -19.229075      -523.2497
  13   2.0000     -19.229035      -523.2486
  14   2.0000     -14.640132      -398.3783
  15   2.0000     -14.490450      -394.3052
  16   2.0000     -14.414455      -392.2373
  17   2.0000     -14.409058      -392.0904
  18   2.0000     -10.375582      -282.3339
  19   2.0000     -10.363388      -282.0021
  20   2.0000     -10.359257      -281.8897
  21   2.0000     -10.358627      -281.8726
  22   2.0000     -10.338120      -281.3145
  23   2.0000     -10.336678      -281.2753
  24   2.0000     -10.335578      -281.2454
  25   2.0000     -10.326570      -281.0003
  26   2.0000     -10.316548      -280.7275
  27   2.0000     -10.314581      -280.6740
  28   2.0000     -10.312787      -280.6252
  29   2.0000     -10.308777      -280.5161
  30   2.0000     -10.307887      -280.4919
  31   2.0000     -10.305745      -280.4336
  32   2.0000     -10.304080      -280.3883
  33   2.0000     -10.302715      -280.3511
  34   2.0000     -10.299153      -280.2542
  35   2.0000     -10.298591      -280.2389
  36   2.0000     -10.298380      -280.2332
  37   2.0000     -10.297757      -280.2162
  38   2.0000     -10.297684      -280.2142
  39   2.0000     -10.297341      -280.2049
  40   2.0000     -10.296979      -280.1950
  41   2.0000     -10.296371      -280.1785
  42   2.0000     -10.295284      -280.1489
  43   2.0000     -10.294863      -280.1375
  44   2.0000     -10.293640      -280.1042
  45   2.0000     -10.292614      -280.0763
  46   2.0000     -10.281805      -279.7821
  47   2.0000     -10.280935      -279.7585
  48   2.0000     -10.280143      -279.7369
  49   2.0000     -10.279074      -279.7078
  50   2.0000     -10.278404      -279.6896
  51   2.0000     -10.276339      -279.6334
  52   2.0000     -10.276117      -279.6274
  53   2.0000     -10.274945      -279.5955
  54   2.0000     -10.273879      -279.5665
  55   2.0000     -10.273605      -279.5590
  56   2.0000     -10.273590      -279.5586
  57   2.0000     -10.273556      -279.5577
  58   2.0000     -10.273153      -279.5467
  59   2.0000     -10.269425      -279.4453
  60   2.0000     -10.267333      -279.3883
  61   2.0000     -10.267055      -279.3808
  62   2.0000     -10.266551      -279.3671
  63   2.0000     -10.265203      -279.3304
  64   2.0000     -10.264632      -279.3148
  65   2.0000     -10.263303      -279.2787
  66   2.0000     -10.261514      -279.2300
  67   2.0000     -10.261013      -279.2164
  68   2.0000     -10.260765      -279.2096
  69   2.0000     -10.254809      -279.0475
  70   2.0000      -8.793413      -239.2809
  71   2.0000      -8.073905      -219.7021
  72   2.0000      -8.072596      -219.6665
  73   2.0000      -8.048289      -219.0051
  74   2.0000      -8.033278      -218.5966
  75   2.0000      -8.031828      -218.5571
  76   2.0000      -8.028442      -218.4650
  77   2.0000      -6.629693      -180.4031
  78   2.0000      -6.615153      -180.0075
  79   2.0000      -6.614964      -180.0023
  80   2.0000      -6.043562      -164.4537
  81   2.0000      -6.042292      -164.4191
  82   2.0000      -6.039285      -164.3373
  83   2.0000      -6.038002      -164.3024
  84   2.0000      -6.035410      -164.2319
  85   2.0000      -6.033885      -164.1904
  86   2.0000      -6.017829      -163.7535
  87   2.0000      -6.013606      -163.6385
  88   2.0000      -6.010032      -163.5413
  89   2.0000      -6.003060      -163.3516
  90   2.0000      -6.001501      -163.3091
  91   2.0000      -5.999002      -163.2411
  92   2.0000      -5.998879      -163.2378
  93   2.0000      -5.997588      -163.2027
  94   2.0000      -5.994838      -163.1278
  95   2.0000      -5.994286      -163.1128
  96   2.0000      -5.992839      -163.0734
  97   2.0000      -5.988045      -162.9430
  98   2.0000      -2.745589       -74.7113
  99   2.0000      -2.741467       -74.5991
 100   2.0000      -2.741347       -74.5958
 101   2.0000      -2.729766       -74.2807
 102   2.0000      -2.729764       -74.2807
 103   2.0000      -1.308388       -35.6030
 104   2.0000      -1.142868       -31.0990
 105   2.0000      -1.126632       -30.6572
 106   2.0000      -1.096815       -29.8458
 107   2.0000      -1.022799       -27.8318
 108   2.0000      -1.011631       -27.5279
 109   2.0000      -0.999823       -27.2066
 110   2.0000      -0.991810       -26.9885
 111   2.0000      -0.987903       -26.8822
 112   2.0000      -0.987210       -26.8634
 113   2.0000      -0.983590       -26.7649
 114   2.0000      -0.982775       -26.7427
 115   2.0000      -0.965265       -26.2662
 116   2.0000      -0.956816       -26.0363
 117   2.0000      -0.941520       -25.6201
 118   2.0000      -0.917882       -24.9768
 119   2.0000      -0.908966       -24.7342
 120   2.0000      -0.908353       -24.7175
 121   2.0000      -0.898901       -24.4603
 122   2.0000      -0.894254       -24.3339
 123   2.0000      -0.888368       -24.1737
 124   2.0000      -0.886159       -24.1136
 125   2.0000      -0.876224       -23.8433
 126   2.0000      -0.868240       -23.6260
 127   2.0000      -0.861818       -23.4513
 128   2.0000      -0.852531       -23.1986
 129   2.0000      -0.850124       -23.1331
 130   2.0000      -0.846044       -23.0220
 131   2.0000      -0.839773       -22.8514
 132   2.0000      -0.834199       -22.6997
 133   2.0000      -0.830156       -22.5897
 134   2.0000      -0.811980       -22.0951
 135   2.0000      -0.810535       -22.0558
 136   2.0000      -0.800206       -21.7747
 137   2.0000      -0.795511       -21.6469
 138   2.0000      -0.790049       -21.4983
 139   2.0000      -0.780817       -21.2471
 140   2.0000      -0.761199       -20.7133
 141   2.0000      -0.759553       -20.6685
 142   2.0000      -0.748264       -20.3613
 143   2.0000      -0.743800       -20.2398
 144   2.0000      -0.736067       -20.0294
 145   2.0000      -0.728439       -19.8218
 146   2.0000      -0.720097       -19.5948
 147   2.0000      -0.709367       -19.3029
 148   2.0000      -0.699171       -19.0254
 149   2.0000      -0.689258       -18.7557
 150   2.0000      -0.684501       -18.6262
 151   2.0000      -0.675718       -18.3872
 152   2.0000      -0.667331       -18.1590
 153   2.0000      -0.665966       -18.1218
 154   2.0000      -0.657759       -17.8985
 155   2.0000      -0.649405       -17.6712
 156   2.0000      -0.646810       -17.6006
 157   2.0000      -0.640051       -17.4167
 158   2.0000      -0.639028       -17.3888
 159   2.0000      -0.631898       -17.1948
 160   2.0000      -0.627252       -17.0684
 161   2.0000      -0.625122       -17.0104
 162   2.0000      -0.621567       -16.9137
 163   2.0000      -0.618259       -16.8237
 164   2.0000      -0.615080       -16.7372
 165   2.0000      -0.614617       -16.7246
 166   2.0000      -0.608271       -16.5519
 167   2.0000      -0.600518       -16.3409
 168   2.0000      -0.599940       -16.3252
 169   2.0000      -0.589668       -16.0457
 170   2.0000      -0.587698       -15.9921
 171   2.0000      -0.586790       -15.9674
 172   2.0000      -0.578317       -15.7368
 173   2.0000      -0.577060       -15.7026
 174   2.0000      -0.572599       -15.5812
 175   2.0000      -0.566733       -15.4216
 176   2.0000      -0.561416       -15.2769
 177   2.0000      -0.555771       -15.1233
 178   2.0000      -0.553764       -15.0687
 179   2.0000      -0.548351       -14.9214
 180   2.0000      -0.546291       -14.8653
 181   2.0000      -0.537608       -14.6291
 182   2.0000      -0.536168       -14.5899
 183   2.0000      -0.535176       -14.5629
 184   2.0000      -0.532001       -14.4765
 185   2.0000      -0.528452       -14.3799
 186   2.0000      -0.524261       -14.2659
 187   2.0000      -0.521245       -14.1838
 188   2.0000      -0.518836       -14.1182
 189   2.0000      -0.518305       -14.1038
 190   2.0000      -0.517125       -14.0717
 191   2.0000      -0.513695       -13.9783
 192   2.0000      -0.512015       -13.9326
 193   2.0000      -0.504750       -13.7350
 194   2.0000      -0.503791       -13.7089
 195   2.0000      -0.499104       -13.5813
 196   2.0000      -0.497614       -13.5408
 197   2.0000      -0.489199       -13.3118
 198   2.0000      -0.489161       -13.3107
 199   2.0000      -0.487956       -13.2779
 200   2.0000      -0.485220       -13.2035
 201   2.0000      -0.482682       -13.1344
 202   2.0000      -0.478379       -13.0174
 203   2.0000      -0.476602       -12.9690
 204   2.0000      -0.475548       -12.9403
 205   2.0000      -0.471579       -12.8323
 206   2.0000      -0.469355       -12.7718
 207   2.0000      -0.468398       -12.7458
 208   2.0000      -0.463886       -12.6230
 209   2.0000      -0.461225       -12.5506
 210   2.0000      -0.460677       -12.5357
 211   2.0000      -0.459577       -12.5057
 212   2.0000      -0.458557       -12.4780
 213   2.0000      -0.454728       -12.3738
 214   2.0000      -0.449146       -12.2219
 215   2.0000      -0.448219       -12.1967
 216   2.0000      -0.447171       -12.1681
 217   2.0000      -0.445376       -12.1193
 218   2.0000      -0.444615       -12.0986
 219   2.0000      -0.440845       -11.9960
 220   2.0000      -0.439367       -11.9558
 221   2.0000      -0.438850       -11.9417
 222   2.0000      -0.434959       -11.8358
 223   2.0000      -0.432254       -11.7622
 224   2.0000      -0.424851       -11.5608
 225   2.0000      -0.424061       -11.5393
 226   2.0000      -0.421366       -11.4660
 227   2.0000      -0.419495       -11.4150
 228   2.0000      -0.418113       -11.3774
 229   2.0000      -0.414577       -11.2812
 230   2.0000      -0.410606       -11.1731
 231   2.0000      -0.407308       -11.0834
 232   2.0000      -0.404660       -11.0114
 233   2.0000      -0.401703       -10.9309
 234   2.0000      -0.395316       -10.7571
 235   2.0000      -0.392050       -10.6682
 236   2.0000      -0.389204       -10.5908
 237   2.0000      -0.388908       -10.5827
 238   2.0000      -0.383936       -10.4474
 239   2.0000      -0.378172       -10.2906
 240   2.0000      -0.375652       -10.2220
 241   2.0000      -0.372752       -10.1431
 242   2.0000      -0.371510       -10.1093
 243   2.0000      -0.362761        -9.8712
 244   2.0000      -0.361013        -9.8237
 245   2.0000      -0.357875        -9.7383
 246   2.0000      -0.351915        -9.5761
 247   2.0000      -0.348741        -9.4897
 248   2.0000      -0.336082        -9.1452
 249   2.0000      -0.334705        -9.1078
 250   2.0000      -0.326744        -8.8912
 251   2.0000      -0.318793        -8.6748
 252   2.0000      -0.318103        -8.6560
 253   2.0000      -0.314740        -8.5645
 254   2.0000      -0.297758        -8.1024
 255   2.0000      -0.296088        -8.0570
 256   2.0000      -0.288500        -7.8505
 257   2.0000      -0.263776        -7.1777
 258   2.0000      -0.262680        -7.1479
 259   2.0000      -0.258044        -7.0217
 260   2.0000      -0.233024        -6.3409
 261   2.0000      -0.190944        -5.1959
 262   0.0000      -0.095951        -2.6110
 263   0.0000      -0.083331        -2.2675
 264   0.0000      -0.072906        -1.9839
 265   0.0000      -0.065518        -1.7828
 266   0.0000      -0.034811        -0.9473

MULLIKEN ATOMIC CHARGES
-----------------------
   0 C :    0.333240
   1 C :   -0.349930
   2 C :   -0.182339
   3 N :    0.153479
   4 C :   -0.192260
   5 N :    0.150506
   6 C :    0.003964
   7 C :   -0.000204
   8 C :   -0.075452
   9 C :    0.115433
  10 C :   -0.093258
  11 C :   -0.025183
  12 S :    0.186737
  13 C :   -0.125711
  14 C :    0.040714
  15 Br:    0.023641
  16 C :    0.162142
  17 O :   -0.230965
  18 C :   -0.134871
  19 C :    0.013712
  20 N :    0.000366
  21 C :   -0.146352
  22 S :    0.172454
  23 C :    0.001820
  24 N :    0.273311
  25 O :   -0.245023
  26 O :   -0.254863
  27 C :    0.014396
  28 C :    0.150094
  29 C :   -0.064821
  30 C :   -0.040061
  31 C :    0.108468
  32 C :   -0.004312
  33 C :   -0.133516
  34 S :   -0.000586
  35 C :   -0.096455
  36 S :    0.095385
  37 C :   -0.113160
  38 C :    0.024854
  39 C :   -0.041570
  40 C :   -0.007583
  41 C :   -0.020132
  42 C :    0.025747
  43 C :    0.037576
  44 C :   -0.036983
  45 S :    0.026986
  46 C :   -0.005176
  47 C :    0.031319
  48 C :    0.052488
  49 C :   -0.034969
  50 S :    0.002396
  51 C :    0.027745
  52 C :    0.049890
  53 C :   -0.023251
  54 C :    0.070056
  55 C :    0.016154
  56 C :    0.060741
  57 C :   -0.004454
  58 C :    0.046493
  59 C :   -0.037347
  60 C :    0.051245
  61 C :   -0.033584
  62 C :    0.041844
  63 C :   -0.022001
  64 C :    0.000187
  65 C :    0.000906
  66 H :   -0.010733
  67 H :   -0.007261
  68 H :   -0.003022
  69 H :    0.057278
  70 H :    0.182399
  71 H :    0.012458
  72 H :   -0.005995
  73 H :    0.015936
  74 H :   -0.013702
  75 H :    0.066040
  76 H :    0.071748
  77 H :    0.071669
  78 H :   -0.016399
  79 H :    0.029833
  80 H :   -0.021776
  81 H :   -0.016261
  82 H :   -0.015927
  83 H :   -0.017971
  84 H :   -0.014516
  85 H :   -0.024065
  86 H :   -0.025423
  87 H :   -0.023471
  88 H :   -0.022563
  89 H :   -0.031185
  90 H :   -0.025559
  91 H :   -0.006059
  92 H :   -0.026111
  93 H :    0.010420
  94 H :    0.020102
Sum of atomic charges:   -0.0000000

LOEWDIN ATOMIC CHARGES
----------------------
   0 C :    0.072122
   1 C :   -0.143781
   2 C :   -0.015636
   3 N :   -0.059469
   4 C :   -0.012607
   5 N :   -0.055660
   6 C :   -0.016802
   7 C :   -0.052502
   8 C :    0.023047
   9 C :   -0.036441
  10 C :   -0.144165
  11 C :   -0.011085
  12 S :    0.432781
  13 C :   -0.273248
  14 C :   -0.069954
  15 Br:    0.136993
  16 C :    0.094371
  17 O :   -0.184853
  18 C :   -0.151466
  19 C :    0.110930
  20 N :    0.085577
  21 C :   -0.130692
  22 S :    0.485460
  23 C :   -0.207247
  24 N :    0.274673
  25 O :   -0.214808
  26 O :   -0.223569
  27 C :    0.001398
  28 C :   -0.076930
  29 C :   -0.049842
  30 C :   -0.001477
  31 C :   -0.059444
  32 C :   -0.088899
  33 C :   -0.314402
  34 S :    0.292944
  35 C :   -0.162272
  36 S :    0.408903
  37 C :   -0.168576
  38 C :   -0.057678
  39 C :   -0.033622
  40 C :   -0.074655
  41 C :   -0.136849
  42 C :   -0.047712
  43 C :   -0.023054
  44 C :   -0.187891
  45 S :    0.377870
  46 C :   -0.162075
  47 C :   -0.041727
  48 C :   -0.016034
  49 C :   -0.160725
  50 S :    0.377720
  51 C :   -0.026428
  52 C :   -0.069052
  53 C :    0.031276
  54 C :   -0.062541
  55 C :    0.089885
  56 C :   -0.059932
  57 C :    0.052688
  58 C :   -0.063808
  59 C :    0.009094
  60 C :   -0.065367
  61 C :    0.059004
  62 C :   -0.071882
  63 C :    0.025421
  64 C :   -0.033074
  65 C :   -0.035013
  66 H :    0.041147
  67 H :    0.041232
  68 H :    0.038853
  69 H :    0.036396
  70 H :    0.084788
  71 H :    0.032628
  72 H :    0.026654
  73 H :    0.033708
  74 H :    0.029579
  75 H :    0.035134
  76 H :    0.024748
  77 H :    0.024364
  78 H :    0.026340
  79 H :    0.021308
  80 H :    0.029570
  81 H :    0.031651
  82 H :    0.032069
  83 H :    0.031364
  84 H :    0.033542
  85 H :    0.036358
  86 H :    0.025635
  87 H :    0.036595
  88 H :    0.026494
  89 H :    0.020967
  90 H :    0.031681
  91 H :    0.009985
  92 H :    0.024985
  93 H :    0.019726
  94 H :    0.025289

  Mayer bond orders larger than 0.100000
B(  0-C ,  1-C ) :   1.6291 B(  0-C ,  6-C ) :   1.0006 B(  0-C , 18-C ) :   1.1071
B(  1-C ,  2-C ) :   1.1557 B(  1-C ,  4-C ) :   1.1579 B(  2-C ,  3-N ) :   2.9295
B(  4-C ,  5-N ) :   2.9115 B(  6-C ,  7-C ) :   1.2700 B(  6-C , 11-C ) :   1.4285
B(  7-C ,  8-C ) :   1.4211 B(  7-C , 16-C ) :   0.9810 B(  8-C ,  9-C ) :   1.2387
B(  8-C , 66-H ) :   1.0180 B(  9-C , 10-C ) :   1.3155 B(  9-C , 14-C ) :   1.1632
B( 10-C , 11-C ) :   1.3109 B( 10-C , 12-S ) :   1.0887 B( 11-C , 67-H ) :   0.9814
B( 12-S , 13-C ) :   1.0861 B( 13-C , 14-C ) :   1.6185 B( 13-C , 15-Br) :   1.0189
B( 14-C , 68-H ) :   0.9992 B( 16-C , 17-O ) :   2.0157 B( 16-C , 18-C ) :   1.0127
B( 17-O , 70-H ) :   0.1483 B( 18-C , 19-C ) :   1.4189 B( 19-C , 20-N ) :   1.3624
B( 19-C , 69-H ) :   0.9268 B( 20-N , 21-C ) :   1.1864 B( 20-N , 70-H ) :   0.8177
B( 21-C , 22-S ) :   1.1317 B( 21-C , 28-C ) :   1.3636 B( 22-S , 23-C ) :   1.0907
B( 23-C , 24-N ) :   0.9685 B( 23-C , 27-C ) :   1.4891 B( 24-N , 25-O ) :   1.5254
B( 24-N , 26-O ) :   1.5049 B( 25-O , 26-O ) :   0.2526 B( 27-C , 28-C ) :   1.2246
B( 27-C , 71-H ) :   0.9855 B( 28-C , 29-C ) :   1.0667 B( 29-C , 30-C ) :   1.7244
B( 29-C , 72-H ) :   0.9679 B( 30-C , 31-C ) :   1.0902 B( 30-C , 73-H ) :   0.9646
B( 31-C , 32-C ) :   1.2550 B( 31-C , 37-C ) :   1.4209 B( 32-C , 33-C ) :   1.5667
B( 32-C , 74-H ) :   0.9900 B( 33-C , 34-S ) :   1.0211 B( 33-C , 36-S ) :   1.1004
B( 34-S , 35-C ) :   1.0145 B( 35-C , 75-H ) :   0.9730 B( 35-C , 76-H ) :   0.9651
B( 35-C , 77-H ) :   0.9653 B( 36-S , 37-C ) :   1.0796 B( 37-C , 38-C ) :   1.1734
B( 38-C , 39-C ) :   1.5934 B( 38-C , 78-H ) :   0.9636 B( 39-C , 40-C ) :   1.1914
B( 39-C , 79-H ) :   0.9636 B( 40-C , 41-C ) :   1.5205 B( 40-C , 80-H ) :   0.9869
B( 41-C , 42-C ) :   1.1656 B( 41-C , 45-S ) :   1.0421 B( 42-C , 43-C ) :   1.5579
B( 42-C , 81-H ) :   0.9982 B( 43-C , 44-C ) :   1.2191 B( 43-C , 82-H ) :   0.9932
B( 44-C , 45-S ) :   1.0294 B( 44-C , 46-C ) :   1.4808 B( 46-C , 47-C ) :   1.2018
B( 46-C , 50-S ) :   1.0428 B( 47-C , 48-C ) :   1.5802 B( 47-C , 83-H ) :   0.9914
B( 48-C , 49-C ) :   1.1508 B( 48-C , 84-H ) :   0.9966 B( 49-C , 50-S ) :   1.0114
B( 49-C , 51-C ) :   1.5698 B( 51-C , 52-C ) :   1.1422 B( 51-C , 85-H ) :   0.9662
B( 52-C , 53-C ) :   1.4013 B( 52-C , 63-C ) :   1.1518 B( 53-C , 54-C ) :   1.1368
B( 53-C , 86-H ) :   1.0182 B( 54-C , 55-C ) :   1.3971 B( 54-C , 62-C ) :   1.1417
B( 55-C , 56-C ) :   1.1586 B( 55-C , 87-H ) :   1.0023 B( 56-C , 57-C ) :   1.3929
B( 56-C , 60-C ) :   1.1378 B( 57-C , 58-C ) :   1.1761 B( 57-C , 88-H ) :   1.0129
B( 58-C , 59-C ) :   1.4610 B( 58-C , 64-C ) :   1.0877 B( 59-C , 60-C ) :   1.0996
B( 59-C , 89-H ) :   1.0151 B( 60-C , 61-C ) :   1.4217 B( 61-C , 62-C ) :   1.1445
B( 61-C , 90-H ) :   1.0025 B( 62-C , 63-C ) :   1.4065 B( 63-C , 91-H ) :   0.9915
B( 64-C , 65-C ) :   1.9322 B( 64-C , 92-H ) :   0.9653 B( 65-C , 93-H ) :   0.9496
B( 65-C , 94-H ) :   0.9476

-----------------------------------------------------------------------------
         ABSORPTION SPECTRUM VIA TRANSITION ELECTRIC DIPOLE MOMENTS
-----------------------------------------------------------------------------
State   Energy  Wavelength   fosc         T2         TX        TY        TZ
        (cm-1)    (nm)                  (au**2)     (au)      (au)      (au)
-----------------------------------------------------------------------------
   0    4761.2   2100.3   0.003825262   0.26450   0.10930   0.43086  -0.25866
   1    9082.9   1101.0   0.057182619   2.07259  -0.47378  -0.96076  -0.96180
   2   11233.9    890.2   0.452541112  13.26182   0.45865   2.74364  -2.35030
   3   12088.3    827.2   0.010559866   0.28759  -0.14637  -0.31888   0.40556
   4   13936.3    717.6   0.011133230   0.26300   0.13094   0.33994   0.36096
   5   17095.1    585.0   0.084500398   1.62728   0.15493   1.23219  -0.29152
   6   18149.2    551.0   0.309180429   5.60830   0.35386   2.27889  -0.53827
   7   19420.7    514.9   0.012541823   0.21260   0.13045   0.39694  -0.19501
   8   20256.3    493.7   0.318369257   5.17425  -0.28230  -2.07270  -0.89357
   9   20963.1    477.0   0.183644675   2.88403  -0.23108   0.97999   1.36757
  10   21148.1    472.9   0.088842860   1.38302   0.07232   1.14682   0.25016
  11   21579.6    463.4   0.009074622   0.13844  -0.05786  -0.35731   0.08615
  12   22312.3    448.2   0.037078064   0.54708   0.13195   0.43067   0.58667
  13   22490.7    444.6   0.024897818   0.36445   0.06689  -0.48074  -0.35897
  14   23767.0    420.8   1.355712603  18.77888   0.40156   3.73341   2.16316
  15   24436.7    409.2   0.315231076   4.24680   0.12765   1.79927   0.99656
  16   25304.3    395.2   0.097977927   1.27470  -0.18337  -1.11384   0.02111
  17   25851.0    386.8   0.015310181   0.19497   0.28283   0.14488  -0.30658
  18   26116.5    382.9   0.009551638   0.12040   0.06590   0.33389  -0.06769
  19   26778.5    373.4   0.017707865   0.21770  -0.05003  -0.39702   0.23994
  20   26982.5    370.6   0.149918268   1.82914   0.28997  -0.33144  -1.27875
  21   27506.3    363.6   0.217575179   2.60407   0.31998  -0.96554  -1.25276
  22   27811.8    359.6   0.154393102   1.82757   0.51198   0.78475  -0.97448
  23   28161.6    355.1   0.099023185   1.15759  -0.39268  -0.26816   0.96514
  24   28432.6    351.7   0.626422970   7.25316   0.55317  -1.16814  -2.36275
  25   28493.6    351.0   0.020986236   0.24247   0.11298  -0.16238  -0.45093
  26   29657.3    337.2   0.114117674   1.26677   0.66106   0.05278  -0.90938
  27   30131.3    331.9   0.051218735   0.55961  -0.29893   0.19137   0.65851
  28   30341.0    329.6   0.111723852   1.21225  -0.26853   0.21142   1.04663
  29   30639.7    326.4   0.043736731   0.46993  -0.23841  -0.22227   0.60307
  30   30945.1    323.2   0.267619704   2.84709   0.54669  -0.28840  -1.57004
  31   31543.6    317.0   0.036563501   0.38160  -0.20446   0.05072   0.58071
  32   31729.9    315.2   0.000166024   0.00172  -0.03971  -0.00700  -0.00984
  33   31816.6    314.3   0.079206674   0.81957   0.21796  -0.08942  -0.87411
  34   32235.0    310.2   0.056606197   0.57811   0.27996   0.57774  -0.40736
  35   32546.8    307.2   0.148804017   1.50516   0.57769   0.18209  -1.06690
  36   32621.5    306.5   0.209731199   2.11658   0.42178  -0.45784  -1.31494
  37   32922.1    303.7   0.029972762   0.29972   0.06360  -0.45487  -0.29795
  38   33004.2    303.0   0.096526683   0.96284  -0.40876   0.22216   0.86395
  39   33048.1    302.6   0.141796899   1.41252   0.15088  -0.65012  -0.98341
  40   33236.8    300.9   0.151377753   1.49940  -0.35100  -0.02169   1.17292
  41   33560.0    298.0   0.059989254   0.58847   0.07618  -0.38223  -0.66073
  42   33851.2    295.4   0.106553807   1.03626   0.36199  -0.24192  -0.92016
  43   33910.5    294.9   0.022513918   0.21857   0.15700  -0.00159  -0.44036
  44   33990.2    294.2   0.005688019   0.05509  -0.01870  -0.23393   0.00448
  45   34223.4    292.2   0.002541439   0.02445   0.07425  -0.10253  -0.09177
  46   34619.9    288.9   0.362423404   3.44640  -0.90507  -0.55550   1.52272
  47   34816.1    287.2   0.046399188   0.43874  -0.27431   0.34345   0.49551
  48   35408.4    282.4   0.010406553   0.09676  -0.10896  -0.04692   0.28755
  49   35577.6    281.1   0.060155495   0.55664   0.15525  -0.07248  -0.72614
  50   35690.1    280.2   0.005531660   0.05103  -0.05389   0.21933  -0.00376
  51   35857.2    278.9   0.033533659   0.30788  -0.28685  -0.46406   0.10122
  52   36090.4    277.1   0.010691430   0.09753  -0.15044  -0.02419   0.27260
  53   36173.5    276.4   0.008201613   0.07464   0.01750   0.26455   0.06593
  54   36207.8    276.2   0.001055385   0.00960   0.00219   0.08680   0.04535
  55   36354.8    275.1   0.098364175   0.89074   0.35337   0.81230  -0.32563
  56   37011.7    270.2   0.028254588   0.25132   0.11274   0.48848  -0.00021
  57   37209.6    268.7   0.023866066   0.21115  -0.14045   0.19863   0.38984
  58   37332.8    267.9   0.033787874   0.29795  -0.10648  -0.26230  -0.46670
  59   37669.3    265.5   0.302104269   2.64025  -0.48942  -1.47377   0.47825
  60   37810.0    264.5   0.017773806   0.15476  -0.05174  -0.38997   0.00130
  61   38023.4    263.0   0.034950971   0.30261   0.16842   0.50620  -0.13419
  62   38185.5    261.9   0.013787618   0.11887  -0.00320   0.25939  -0.22710
  63   38490.7    259.8   0.066191742   0.56614   0.27003   0.69565   0.09645
  64   38608.2    259.0   0.097233693   0.82911   0.29245   0.85259  -0.12913
  65   38723.7    258.2   0.060766604   0.51661   0.13155  -0.21450  -0.67327
  66   38787.8    257.8   0.015952767   0.13540   0.00677  -0.36100   0.07092
  67   38918.4    256.9   0.079680813   0.67402   0.23729  -0.26075  -0.74143
  68   39171.4    255.3   0.007021672   0.05901   0.06416   0.16506   0.16629
  69   39379.5    253.9   0.004882284   0.04082   0.02987   0.13402  -0.14819
  70   39659.9    252.1   0.035331939   0.29329  -0.01895  -0.43196  -0.32609
  71   39800.5    251.3   0.013974556   0.11559   0.18423   0.09171  -0.27063
  72   39906.3    250.6   0.140845502   1.16192   0.47333   0.81094  -0.52939
  73   40058.4    249.6   0.168425628   1.38417   0.39065  -0.09990  -1.10525

FINAL SINGLE POINT ENERGY     -7402.681219819965

DIPOLE MOMENT
-------------
                                X             Y             Z
Electronic contribution:     -1.13716     -75.17658    -108.50207
Nuclear contribution   :      2.47075      76.16354     107.17964
                        -----------------------------------------
Total Dipole Moment    :      1.33359       0.98697      -1.32243
                        -----------------------------------------
Magnitude (a.u.)       :      2.12165
Magnitude (Debye)      :      5.39280

Rotational constants in cm-1:     0.001154     0.000556     0.000393
Rotational constants in MHz :    34.610085    16.654663    11.771220

                             ****ORCA TERMINATED NORMALLY****
TOTAL RUN TIME: 0 days 0 hours 16 minutes 18 seconds 742 msec
