                         Program Version 4.2.0 -  RELEASE  -
|  1> # ORCA input file
|  2> # SCF done       -197.089583047334          0.000773264675
|  3> ! CAM-B3LYP def2-SVP def2/J RIJCOSX Grid4 TightSCF
|  4> %maxcore 5000
|  5> %tddft
|  6>     Mode sTDDFT
|  7>     Ethresh 5.0
|  8>     maxcore 5000
|  9> end
| 10>
| 11> %pal
| 12>   nprocs 6
| 13>   end
| 14> * xyz 0 1
| 15>    C       -3.64693        -3.27273        -1.60476
| 16>    C       -2.79841        -2.77618        -2.56503
| 17>    C       -1.76682        -3.52100        -3.17035
| 18>    N       -0.92615        -4.07521        -3.72332
| 19>    C       -2.80875        -1.46002        -3.06586
| 20>    N       -2.72841        -0.40538        -3.51666
| 21>    C       -3.54927        -4.59832        -0.99848
| 22>    C       -4.52740        -4.70013         0.02093
| 23>    C       -4.68527        -5.82672         0.78869
| 24>    C       -3.83796        -6.91143         0.53490
| 25>    C       -2.86585        -6.80260        -0.48628
| 26>    C       -2.70373        -5.65875        -1.25996
| 27>    S       -1.92879        -8.25887        -0.63400
| 28>    C       -2.84358        -8.98322         0.66137
| 29>    C       -3.80130        -8.17835         1.17931
| 30>   Br       -2.44859       -10.73409         1.20728
| 31>    C       -5.28755        -3.43668         0.08535
| 32>    O       -6.18433        -3.17648         0.87084
| 33>    C       -4.75565        -2.58937        -0.98077
| 34>    C       -5.31458        -1.41038        -1.42656
| 35>    C       -6.37005        -0.66369        -0.90740
| 36>    S       -7.00110        -0.84464         0.71631
| 37>    C       -7.89124         0.58568         0.59059
| 38>    C       -7.80502         1.19115        -0.65367
| 39>    C       -6.96115         0.45969        -1.54237
| 40>    C       -6.80265         0.88203        -2.88278
| 41>    C       -7.41719         2.08438        -3.25492
| 42>    C       -8.20352         2.82576        -2.34675
| 43>    C       -8.42072         2.38719        -1.07528
| 44>    O       -7.35956         2.57414        -4.50709
| 45>    C       -6.13225         0.05329        -3.87139
| 46>    C       -5.25137         0.49103        -4.80313
| 47>    C       -4.64328        -0.34777        -5.76633
| 48>    C       -3.73778         0.09352        -6.68985
| 49>    C       -3.04306        -0.68248        -7.65463
| 50>    C       -2.21306         0.03521        -8.45708
| 51>    C       -2.20727         1.42376        -8.18369
| 52>    S       -3.27923         1.78235        -6.84949
| 53>    C       -1.50591         2.41762        -8.83333
| 54>    C       -0.61653         2.29616        -9.92525
| 55>    C       -0.09803         3.48109       -10.34634
| 56>    C       -0.54555         4.61187        -9.61439
| 57>    S       -1.65472         4.09811        -8.35681
| 58>    C       -0.18579         5.91256        -9.86252
| 59>    C       -0.57023         7.06128        -9.15034
| 60>    S       -1.36588         6.93493        -7.59832
| 61>    C       -1.22760         8.60403        -7.30532
| 62>    C       -0.61395         9.27058        -8.34708
| 63>    C       -0.27877         8.40658        -9.43903
| 64>    C        0.26700         8.95426       -10.64159
| 65>    C        0.67003        10.30030       -10.60245
| 66>    C        0.36107        11.12404        -9.49797
| 67>    C       -0.30047        10.64486        -8.40817
| 68>    O        1.31690        10.83326       -11.65409
| 69>    C        0.20987         8.21624       -11.86521
| 70>    C        0.84898         8.47927       -13.03769
| 71>    C        0.59301         7.71507       -14.19334
| 72>    C        1.08153         7.91337       -15.45623
| 73>    C        1.78845         9.01904       -16.05298
| 74>    C        1.70267        10.34526       -15.70458
| 75>    C        2.40981        11.37524       -16.35696
| 76>    N        2.97519        12.25444       -16.83333
| 77>    C        0.82275        10.87715       -14.74310
| 78>    N        0.10405        11.40661       -14.01958
| 79>    C        2.44346         8.51637       -17.25966
| 80>    C        1.97361         7.20428       -17.51748
| 81>    C        1.05509         6.79805       -16.43244
| 82>    O        0.44551         5.75555       -16.33246
| 83>    C        2.37102         6.48027       -18.61433
| 84>    C        3.28501         7.07327       -19.49261
| 85>    C        3.76053         8.37636       -19.21717
| 86>    C        3.35147         9.11352       -18.11202
| 87>    S        4.89136         8.91268       -20.42296
| 88>    C        4.70778         7.40080       -21.27211
| 89>    C        3.84710         6.53714       -20.68409
| 90>   Br        5.67223         7.10551       -22.85411
| 91>    H       -5.43767        -5.87211         1.56033
| 92>    H       -1.94790        -5.62567        -2.02675
| 93>    H       -4.45617        -8.46429         1.98205
| 94>    H       -4.87820        -0.98362        -2.32164
| 95>    H       -8.47203         0.93660         1.42240
| 96>    H       -8.65076         3.73447        -2.71674
| 97>    H       -9.05051         2.93410        -0.39188
| 98>    H       -6.86239         1.97230        -5.08314
| 99>    H       -6.39687        -0.99837        -3.85532
|100>    H       -4.90541         1.51801        -4.78699
|101>    H       -4.89347        -1.40056        -5.76395
|102>    H       -3.17811        -1.74812        -7.71402
|103>    H       -1.60790        -0.38997        -9.23765
|104>    H       -0.38800         1.34367       -10.36845
|105>    H        0.59130         3.58630       -11.16570
|106>    H        0.51337         6.06166       -10.67417
|107>    H       -1.58280         9.02056        -6.38419
|108>    H        0.63859        12.16841        -9.55203
|109>    H       -0.57284        11.29065        -7.58820
|110>    H        1.29827        11.79915       -11.61925
|111>    H       -0.51913         7.41474       -11.87333
|112>    H        1.59120         9.25726       -13.08985
|113>    H        0.00729         6.80865       -14.07183
|114>    H        1.98947         5.48693       -18.79140
|115>    H        3.74537        10.10183       -17.94250
|116>    H        3.61651         5.56186       -21.07228
|117> *
|118>
|119>                          ****END OF INPUT****

CARTESIAN COORDINATES (ANGSTROEM)
---------------------------------
  C     -3.646930   -3.272730   -1.604760
  C     -2.798410   -2.776180   -2.565030
  C     -1.766820   -3.521000   -3.170350
  N     -0.926150   -4.075210   -3.723320
  C     -2.808750   -1.460020   -3.065860
  N     -2.728410   -0.405380   -3.516660
  C     -3.549270   -4.598320   -0.998480
  C     -4.527400   -4.700130    0.020930
  C     -4.685270   -5.826720    0.788690
  C     -3.837960   -6.911430    0.534900
  C     -2.865850   -6.802600   -0.486280
  C     -2.703730   -5.658750   -1.259960
  S     -1.928790   -8.258870   -0.634000
  C     -2.843580   -8.983220    0.661370
  C     -3.801300   -8.178350    1.179310
  Br    -2.448590  -10.734090    1.207280
  C     -5.287550   -3.436680    0.085350
  O     -6.184330   -3.176480    0.870840
  C     -4.755650   -2.589370   -0.980770
  C     -5.314580   -1.410380   -1.426560
  C     -6.370050   -0.663690   -0.907400
  S     -7.001100   -0.844640    0.716310
  C     -7.891240    0.585680    0.590590
  C     -7.805020    1.191150   -0.653670
  C     -6.961150    0.459690   -1.542370
  C     -6.802650    0.882030   -2.882780
  C     -7.417190    2.084380   -3.254920
  C     -8.203520    2.825760   -2.346750
  C     -8.420720    2.387190   -1.075280
  O     -7.359560    2.574140   -4.507090
  C     -6.132250    0.053290   -3.871390
  C     -5.251370    0.491030   -4.803130
  C     -4.643280   -0.347770   -5.766330
  C     -3.737780    0.093520   -6.689850
  C     -3.043060   -0.682480   -7.654630
  C     -2.213060    0.035210   -8.457080
  C     -2.207270    1.423760   -8.183690
  S     -3.279230    1.782350   -6.849490
  C     -1.505910    2.417620   -8.833330
  C     -0.616530    2.296160   -9.925250
  C     -0.098030    3.481090  -10.346340
  C     -0.545550    4.611870   -9.614390
  S     -1.654720    4.098110   -8.356810
  C     -0.185790    5.912560   -9.862520
  C     -0.570230    7.061280   -9.150340
  S     -1.365880    6.934930   -7.598320
  C     -1.227600    8.604030   -7.305320
  C     -0.613950    9.270580   -8.347080
  C     -0.278770    8.406580   -9.439030
  C      0.267000    8.954260  -10.641590
  C      0.670030   10.300300  -10.602450
  C      0.361070   11.124040   -9.497970
  C     -0.300470   10.644860   -8.408170
  O      1.316900   10.833260  -11.654090
  C      0.209870    8.216240  -11.865210
  C      0.848980    8.479270  -13.037690
  C      0.593010    7.715070  -14.193340
  C      1.081530    7.913370  -15.456230
  C      1.788450    9.019040  -16.052980
  C      1.702670   10.345260  -15.704580
  C      2.409810   11.375240  -16.356960
  N      2.975190   12.254440  -16.833330
  C      0.822750   10.877150  -14.743100
  N      0.104050   11.406610  -14.019580
  C      2.443460    8.516370  -17.259660
  C      1.973610    7.204280  -17.517480
  C      1.055090    6.798050  -16.432440
  O      0.445510    5.755550  -16.332460
  C      2.371020    6.480270  -18.614330
  C      3.285010    7.073270  -19.492610
  C      3.760530    8.376360  -19.217170
  C      3.351470    9.113520  -18.112020
  S      4.891360    8.912680  -20.422960
  C      4.707780    7.400800  -21.272110
  C      3.847100    6.537140  -20.684090
  Br     5.672230    7.105510  -22.854110
  H     -5.437670   -5.872110    1.560330
  H     -1.947900   -5.625670   -2.026750
  H     -4.456170   -8.464290    1.982050
  H     -4.878200   -0.983620   -2.321640
  H     -8.472030    0.936600    1.422400
  H     -8.650760    3.734470   -2.716740
  H     -9.050510    2.934100   -0.391880
  H     -6.862390    1.972300   -5.083140
  H     -6.396870   -0.998370   -3.855320
  H     -4.905410    1.518010   -4.786990
  H     -4.893470   -1.400560   -5.763950
  H     -3.178110   -1.748120   -7.714020
  H     -1.607900   -0.389970   -9.237650
  H     -0.388000    1.343670  -10.368450
  H      0.591300    3.586300  -11.165700
  H      0.513370    6.061660  -10.674170
  H     -1.582800    9.020560   -6.384190
  H      0.638590   12.168410   -9.552030
  H     -0.572840   11.290650   -7.588200
  H      1.298270   11.799150  -11.619250
  H     -0.519130    7.414740  -11.873330
  H      1.591200    9.257260  -13.089850
  H      0.007290    6.808650  -14.071830
  H      1.989470    5.486930  -18.791400
  H      3.745370   10.101830  -17.942500
  H      3.616510    5.561860  -21.072280

 Total Charge           Charge          ....    0
 Multiplicity           Mult            ....    1
 Number of Electrons    NEL             ....  612
 Basis Dimension        Dim             .... 1254

ORBITAL ENERGIES
----------------

  NO   OCC          E(Eh)            E(eV)
   0   2.0000    -482.882156    -13139.8915
   1   2.0000    -482.880094    -13139.8354
   2   2.0000     -88.973797     -2421.1001
   3   2.0000     -88.970692     -2421.0156
   4   2.0000     -88.968640     -2420.9598
   5   2.0000     -88.966015     -2420.8883
   6   2.0000     -88.942677     -2420.2533
   7   2.0000     -88.938668     -2420.1442
   8   2.0000     -62.559837     -1702.3397
   9   2.0000     -62.557787     -1702.2839
  10   2.0000     -56.393782     -1534.5528
  11   2.0000     -56.391734     -1534.4971
  12   2.0000     -56.391081     -1534.4793
  13   2.0000     -56.391043     -1534.4783
  14   2.0000     -56.389029     -1534.4235
  15   2.0000     -56.388993     -1534.4225
  16   2.0000     -19.264593      -524.2162
  17   2.0000     -19.254398      -523.9388
  18   2.0000     -19.211401      -522.7688
  19   2.0000     -19.202990      -522.5399
  20   2.0000     -14.407728      -392.0542
  21   2.0000     -14.407395      -392.0451
  22   2.0000     -14.406148      -392.0112
  23   2.0000     -14.404614      -391.9695
  24   2.0000     -10.360216      -281.9158
  25   2.0000     -10.355588      -281.7899
  26   2.0000     -10.354228      -281.7529
  27   2.0000     -10.353780      -281.7407
  28   2.0000     -10.351998      -281.6922
  29   2.0000     -10.351976      -281.6916
  30   2.0000     -10.332268      -281.1553
  31   2.0000     -10.332021      -281.1486
  32   2.0000     -10.331007      -281.1210
  33   2.0000     -10.329851      -281.0895
  34   2.0000     -10.319616      -280.8110
  35   2.0000     -10.317893      -280.7641
  36   2.0000     -10.315880      -280.7094
  37   2.0000     -10.313544      -280.6458
  38   2.0000     -10.310749      -280.5697
  39   2.0000     -10.310577      -280.5651
  40   2.0000     -10.310381      -280.5597
  41   2.0000     -10.308442      -280.5070
  42   2.0000     -10.307946      -280.4935
  43   2.0000     -10.306290      -280.4484
  44   2.0000     -10.305585      -280.4292
  45   2.0000     -10.303587      -280.3749
  46   2.0000     -10.303511      -280.3728
  47   2.0000     -10.302714      -280.3511
  48   2.0000     -10.301687      -280.3231
  49   2.0000     -10.301683      -280.3230
  50   2.0000     -10.300777      -280.2984
  51   2.0000     -10.299996      -280.2771
  52   2.0000     -10.299625      -280.2671
  53   2.0000     -10.299438      -280.2620
  54   2.0000     -10.299406      -280.2611
  55   2.0000     -10.299295      -280.2581
  56   2.0000     -10.297011      -280.1959
  57   2.0000     -10.296462      -280.1810
  58   2.0000     -10.295339      -280.1504
  59   2.0000     -10.295008      -280.1414
  60   2.0000     -10.293280      -280.0944
  61   2.0000     -10.292973      -280.0860
  62   2.0000     -10.292423      -280.0711
  63   2.0000     -10.290214      -280.0110
  64   2.0000     -10.288750      -279.9711
  65   2.0000     -10.287348      -279.9330
  66   2.0000     -10.286981      -279.9230
  67   2.0000     -10.286812      -279.9184
  68   2.0000     -10.286390      -279.9069
  69   2.0000     -10.285527      -279.8834
  70   2.0000     -10.284720      -279.8615
  71   2.0000     -10.284232      -279.8482
  72   2.0000     -10.284009      -279.8421
  73   2.0000     -10.283716      -279.8341
  74   2.0000     -10.283280      -279.8223
  75   2.0000     -10.282918      -279.8124
  76   2.0000     -10.282841      -279.8103
  77   2.0000     -10.281519      -279.7743
  78   2.0000     -10.280793      -279.7546
  79   2.0000     -10.280730      -279.7529
  80   2.0000     -10.280228      -279.7392
  81   2.0000     -10.280053      -279.7345
  82   2.0000     -10.274392      -279.5804
  83   2.0000     -10.271965      -279.5144
  84   2.0000      -8.789246      -239.1676
  85   2.0000      -8.787193      -239.1117
  86   2.0000      -8.067526      -219.5285
  87   2.0000      -8.066757      -219.5076
  88   2.0000      -8.064669      -219.4508
  89   2.0000      -8.061180      -219.3559
  90   2.0000      -8.038821      -218.7474
  91   2.0000      -8.035093      -218.6460
  92   2.0000      -6.625497      -180.2889
  93   2.0000      -6.623475      -180.2339
  94   2.0000      -6.610991      -179.8942
  95   2.0000      -6.610821      -179.8896
  96   2.0000      -6.608934      -179.8382
  97   2.0000      -6.608744      -179.8331
  98   2.0000      -6.036557      -164.2631
  99   2.0000      -6.036449      -164.2601
 100   2.0000      -6.034362      -164.2033
 101   2.0000      -6.032177      -164.1439
 102   2.0000      -6.031897      -164.1363
 103   2.0000      -6.030631      -164.1018
 104   2.0000      -6.030165      -164.0891
 105   2.0000      -6.030095      -164.0872
 106   2.0000      -6.027956      -164.0290
 107   2.0000      -6.025876      -163.9724
 108   2.0000      -6.025813      -163.9707
 109   2.0000      -6.024151      -163.9255
 110   2.0000      -6.008576      -163.5017
 111   2.0000      -6.004833      -163.3998
 112   2.0000      -6.004483      -163.3903
 113   2.0000      -6.000878      -163.2922
 114   2.0000      -5.999720      -163.2607
 115   2.0000      -5.995897      -163.1566
 116   2.0000      -2.741408       -74.5975
 117   2.0000      -2.739327       -74.5409
 118   2.0000      -2.737296       -74.4856
 119   2.0000      -2.737153       -74.4817
 120   2.0000      -2.735257       -74.4301
 121   2.0000      -2.735154       -74.4273
 122   2.0000      -2.725627       -74.1681
 123   2.0000      -2.725620       -74.1679
 124   2.0000      -2.723573       -74.1122
 125   2.0000      -2.723561       -74.1119
 126   2.0000      -1.163194       -31.6521
 127   2.0000      -1.154013       -31.4023
 128   2.0000      -1.126435       -30.6519
 129   2.0000      -1.117333       -30.4042
 130   2.0000      -1.016549       -27.6617
 131   2.0000      -1.014400       -27.6032
 132   2.0000      -1.007116       -27.4050
 133   2.0000      -1.004660       -27.3382
 134   2.0000      -1.004141       -27.3241
 135   2.0000      -0.999280       -27.1918
 136   2.0000      -0.989684       -26.9307
 137   2.0000      -0.986153       -26.8346
 138   2.0000      -0.984465       -26.7887
 139   2.0000      -0.982545       -26.7364
 140   2.0000      -0.980064       -26.6689
 141   2.0000      -0.968752       -26.3611
 142   2.0000      -0.940062       -25.5804
 143   2.0000      -0.938499       -25.5379
 144   2.0000      -0.934766       -25.4363
 145   2.0000      -0.933766       -25.4091
 146   2.0000      -0.916556       -24.9408
 147   2.0000      -0.914009       -24.8714
 148   2.0000      -0.902344       -24.5540
 149   2.0000      -0.900120       -24.4935
 150   2.0000      -0.897292       -24.4166
 151   2.0000      -0.890534       -24.2327
 152   2.0000      -0.881066       -23.9750
 153   2.0000      -0.879788       -23.9403
 154   2.0000      -0.877839       -23.8872
 155   2.0000      -0.872626       -23.7454
 156   2.0000      -0.860855       -23.4251
 157   2.0000      -0.854663       -23.2566
 158   2.0000      -0.846004       -23.0209
 159   2.0000      -0.834971       -22.7207
 160   2.0000      -0.830593       -22.6016
 161   2.0000      -0.828934       -22.5564
 162   2.0000      -0.823615       -22.4117
 163   2.0000      -0.822166       -22.3723
 164   2.0000      -0.819605       -22.3026
 165   2.0000      -0.814979       -22.1767
 166   2.0000      -0.804041       -21.8791
 167   2.0000      -0.794419       -21.6172
 168   2.0000      -0.772425       -21.0188
 169   2.0000      -0.762864       -20.7586
 170   2.0000      -0.756880       -20.5958
 171   2.0000      -0.750935       -20.4340
 172   2.0000      -0.749055       -20.3828
 173   2.0000      -0.740107       -20.1393
 174   2.0000      -0.721903       -19.6440
 175   2.0000      -0.720511       -19.6061
 176   2.0000      -0.709815       -19.3151
 177   2.0000      -0.705575       -19.1997
 178   2.0000      -0.696543       -18.9539
 179   2.0000      -0.694014       -18.8851
 180   2.0000      -0.686020       -18.6676
 181   2.0000      -0.682536       -18.5727
 182   2.0000      -0.679179       -18.4814
 183   2.0000      -0.674659       -18.3584
 184   2.0000      -0.673331       -18.3223
 185   2.0000      -0.662026       -18.0147
 186   2.0000      -0.659299       -17.9405
 187   2.0000      -0.651884       -17.7387
 188   2.0000      -0.651070       -17.7165
 189   2.0000      -0.643110       -17.4999
 190   2.0000      -0.638428       -17.3725
 191   2.0000      -0.635473       -17.2921
 192   2.0000      -0.629188       -17.1211
 193   2.0000      -0.619996       -16.8709
 194   2.0000      -0.615490       -16.7483
 195   2.0000      -0.614528       -16.7222
 196   2.0000      -0.613546       -16.6954
 197   2.0000      -0.609920       -16.5968
 198   2.0000      -0.606388       -16.5006
 199   2.0000      -0.601015       -16.3544
 200   2.0000      -0.595715       -16.2102
 201   2.0000      -0.592639       -16.1265
 202   2.0000      -0.590001       -16.0547
 203   2.0000      -0.585370       -15.9287
 204   2.0000      -0.582074       -15.8391
 205   2.0000      -0.572390       -15.5755
 206   2.0000      -0.563762       -15.3408
 207   2.0000      -0.559061       -15.2128
 208   2.0000      -0.556576       -15.1452
 209   2.0000      -0.551933       -15.0189
 210   2.0000      -0.548041       -14.9130
 211   2.0000      -0.541769       -14.7423
 212   2.0000      -0.541389       -14.7319
 213   2.0000      -0.537889       -14.6367
 214   2.0000      -0.535551       -14.5731
 215   2.0000      -0.534872       -14.5546
 216   2.0000      -0.532399       -14.4873
 217   2.0000      -0.529861       -14.4183
 218   2.0000      -0.527919       -14.3654
 219   2.0000      -0.526228       -14.3194
 220   2.0000      -0.525353       -14.2956
 221   2.0000      -0.521769       -14.1981
 222   2.0000      -0.515763       -14.0346
 223   2.0000      -0.515121       -14.0171
 224   2.0000      -0.510972       -13.9043
 225   2.0000      -0.507255       -13.8031
 226   2.0000      -0.505225       -13.7479
 227   2.0000      -0.503394       -13.6980
 228   2.0000      -0.502620       -13.6770
 229   2.0000      -0.499650       -13.5962
 230   2.0000      -0.499252       -13.5853
 231   2.0000      -0.495470       -13.4824
 232   2.0000      -0.494891       -13.4667
 233   2.0000      -0.491609       -13.3774
 234   2.0000      -0.491139       -13.3646
 235   2.0000      -0.489641       -13.3238
 236   2.0000      -0.488566       -13.2945
 237   2.0000      -0.487630       -13.2691
 238   2.0000      -0.484389       -13.1809
 239   2.0000      -0.483703       -13.1622
 240   2.0000      -0.481118       -13.0919
 241   2.0000      -0.479606       -13.0508
 242   2.0000      -0.476785       -12.9740
 243   2.0000      -0.472778       -12.8649
 244   2.0000      -0.469763       -12.7829
 245   2.0000      -0.467766       -12.7285
 246   2.0000      -0.465537       -12.6679
 247   2.0000      -0.464204       -12.6316
 248   2.0000      -0.461227       -12.5506
 249   2.0000      -0.459928       -12.5153
 250   2.0000      -0.458660       -12.4808
 251   2.0000      -0.453994       -12.3538
 252   2.0000      -0.451909       -12.2971
 253   2.0000      -0.446773       -12.1573
 254   2.0000      -0.443810       -12.0767
 255   2.0000      -0.442895       -12.0518
 256   2.0000      -0.441587       -12.0162
 257   2.0000      -0.438756       -11.9392
 258   2.0000      -0.437886       -11.9155
 259   2.0000      -0.435826       -11.8594
 260   2.0000      -0.435689       -11.8557
 261   2.0000      -0.434525       -11.8240
 262   2.0000      -0.431862       -11.7516
 263   2.0000      -0.428802       -11.6683
 264   2.0000      -0.427623       -11.6362
 265   2.0000      -0.425224       -11.5709
 266   2.0000      -0.423170       -11.5150
 267   2.0000      -0.420667       -11.4469
 268   2.0000      -0.419112       -11.4046
 269   2.0000      -0.415176       -11.2975
 270   2.0000      -0.414688       -11.2842
 271   2.0000      -0.412725       -11.2308
 272   2.0000      -0.409451       -11.1417
 273   2.0000      -0.407669       -11.0932
 274   2.0000      -0.404567       -11.0088
 275   2.0000      -0.401513       -10.9257
 276   2.0000      -0.400079       -10.8867
 277   2.0000      -0.399658       -10.8752
 278   2.0000      -0.396331       -10.7847
 279   2.0000      -0.392180       -10.6718
 280   2.0000      -0.386901       -10.5281
 281   2.0000      -0.383064       -10.4237
 282   2.0000      -0.380579       -10.3561
 283   2.0000      -0.379059       -10.3147
 284   2.0000      -0.373679       -10.1683
 285   2.0000      -0.371542       -10.1102
 286   2.0000      -0.369659       -10.0589
 287   2.0000      -0.364814        -9.9271
 288   2.0000      -0.357112        -9.7175
 289   2.0000      -0.344939        -9.3863
 290   2.0000      -0.334897        -9.1130
 291   2.0000      -0.333215        -9.0672
 292   2.0000      -0.329714        -8.9720
 293   2.0000      -0.326019        -8.8714
 294   2.0000      -0.319982        -8.7072
 295   2.0000      -0.314641        -8.5618
 296   2.0000      -0.310606        -8.4520
 297   2.0000      -0.307818        -8.3761
 298   2.0000      -0.305199        -8.3049
 299   2.0000      -0.301826        -8.2131
 300   2.0000      -0.288602        -7.8533
 301   2.0000      -0.286983        -7.8092
 302   2.0000      -0.284090        -7.7305
 303   2.0000      -0.262466        -7.1421
 304   2.0000      -0.248338        -6.7576
 305   2.0000      -0.203247        -5.5306
 306   0.0000      -0.085308        -2.3213
 307   0.0000      -0.082889        -2.2555
 308   0.0000      -0.076075        -2.0701
 309   0.0000      -0.055335        -1.5057
 310   0.0000      -0.052146        -1.4190

MULLIKEN ATOMIC CHARGES
-----------------------
   0 C :    0.317549
   1 C :   -0.365963
   2 C :   -0.190727
   3 N :    0.139770
   4 C :   -0.184427
   5 N :    0.142630
   6 C :    0.013771
   7 C :   -0.010091
   8 C :   -0.080064
   9 C :    0.118697
  10 C :   -0.088237
  11 C :   -0.029860
  12 S :    0.181228
  13 C :   -0.122501
  14 C :    0.035366
  15 Br:    0.018199
  16 C :    0.152632
  17 O :   -0.189646
  18 C :   -0.109274
  19 C :   -0.052758
  20 C :   -0.165657
  21 S :    0.241429
  22 C :   -0.075112
  23 C :    0.070793
  24 C :    0.135868
  25 C :    0.034718
  26 C :    0.093822
  27 C :   -0.011609
  28 C :    0.012201
  29 O :   -0.164559
  30 C :   -0.104976
  31 C :   -0.028484
  32 C :   -0.010017
  33 C :    0.000460
  34 C :    0.038530
  35 C :    0.029043
  36 C :   -0.045040
  37 S :    0.067010
  38 C :   -0.037872
  39 C :    0.030264
  40 C :    0.029388
  41 C :   -0.044271
  42 S :    0.061644
  43 C :   -0.033009
  44 C :   -0.168407
  45 S :    0.147733
  46 C :   -0.104298
  47 C :    0.076720
  48 C :    0.125661
  49 C :    0.049410
  50 C :    0.112046
  51 C :   -0.033390
  52 C :    0.020922
  53 O :   -0.147659
  54 C :   -0.070227
  55 C :    0.014342
  56 C :    0.017876
  57 C :   -0.112532
  58 C :    0.287638
  59 C :   -0.340501
  60 C :   -0.189596
  61 N :    0.143620
  62 C :   -0.197524
  63 N :    0.142226
  64 C :    0.005407
  65 C :   -0.004506
  66 C :    0.137940
  67 O :   -0.152967
  68 C :   -0.072520
  69 C :    0.112079
  70 C :   -0.089127
  71 C :   -0.022209
  72 S :    0.179637
  73 C :   -0.126451
  74 C :    0.042765
  75 Br:    0.017322
  76 H :   -0.012568
  77 H :   -0.007350
  78 H :   -0.005309
  79 H :    0.026026
  80 H :    0.027892
  81 H :   -0.008557
  82 H :   -0.016203
  83 H :    0.179597
  84 H :    0.020663
  85 H :    0.022847
  86 H :   -0.018824
  87 H :   -0.009644
  88 H :   -0.011369
  89 H :   -0.013838
  90 H :   -0.009296
  91 H :    0.001362
  92 H :    0.020348
  93 H :   -0.025385
  94 H :   -0.014024
  95 H :    0.193874
  96 H :    0.022591
  97 H :    0.031481
  98 H :    0.009624
  99 H :   -0.012966
 100 H :   -0.007418
 101 H :   -0.005839
Sum of atomic charges:   -0.0000000

LOEWDIN ATOMIC CHARGES
----------------------
   0 C :    0.077490
   1 C :   -0.158292
   2 C :   -0.019652
   3 N :   -0.067319
   4 C :   -0.022656
   5 N :   -0.051425
   6 C :   -0.019904
   7 C :   -0.048904
   8 C :    0.018435
   9 C :   -0.035306
  10 C :   -0.145944
  11 C :   -0.012137
  12 S :    0.429285
  13 C :   -0.273946
  14 C :   -0.070733
  15 Br:    0.132633
  16 C :    0.080163
  17 O :   -0.179747
  18 C :   -0.130878
  19 C :    0.052500
  20 C :   -0.207685
  21 S :    0.561419
  22 C :   -0.146694
  23 C :   -0.075916
  24 C :   -0.001274
  25 C :   -0.082906
  26 C :    0.083017
  27 C :   -0.041946
  28 C :    0.009324
  29 O :   -0.029535
  30 C :   -0.036310
  31 C :   -0.040148
  32 C :   -0.059317
  33 C :   -0.131983
  34 C :   -0.030149
  35 C :   -0.026581
  36 C :   -0.176127
  37 S :    0.368573
  38 C :   -0.177124
  39 C :   -0.037864
  40 C :   -0.030517
  41 C :   -0.158701
  42 S :    0.362235
  43 C :   -0.078915
  44 C :   -0.188211
  45 S :    0.485721
  46 C :   -0.189301
  47 C :   -0.066107
  48 C :   -0.033041
  49 C :   -0.075696
  50 C :    0.088017
  51 C :   -0.068296
  52 C :    0.024661
  53 O :   -0.000823
  54 C :    0.037485
  55 C :   -0.044971
  56 C :    0.071717
  57 C :   -0.108391
  58 C :    0.071494
  59 C :   -0.147250
  60 C :   -0.019373
  61 N :   -0.062537
  62 C :   -0.017657
  63 N :   -0.066990
  64 C :   -0.016858
  65 C :   -0.051704
  66 C :    0.081412
  67 O :   -0.152829
  68 C :    0.020247
  69 C :   -0.035791
  70 C :   -0.144298
  71 C :   -0.015074
  72 S :    0.428044
  73 C :   -0.273954
  74 C :   -0.070174
  75 Br:    0.131952
  76 H :    0.039641
  77 H :    0.040419
  78 H :    0.037973
  79 H :    0.051539
  80 H :    0.029537
  81 H :    0.037877
  82 H :    0.034422
  83 H :    0.084801
  84 H :    0.031990
  85 H :    0.025531
  86 H :    0.030500
  87 H :    0.034914
  88 H :    0.032950
  89 H :    0.032159
  90 H :    0.034283
  91 H :    0.041027
  92 H :    0.025228
  93 H :    0.030715
  94 H :    0.036035
  95 H :    0.101241
  96 H :    0.038578
  97 H :    0.029924
  98 H :    0.040998
  99 H :    0.040000
 100 H :    0.039813
 101 H :    0.037944

  Mayer bond orders larger than 0.100000
B(  0-C ,  1-C ) :   1.5935 B(  0-C ,  6-C ) :   0.9937 B(  0-C , 18-C ) :   1.1072
B(  1-C ,  2-C ) :   1.1453 B(  1-C ,  4-C ) :   1.1598 B(  2-C ,  3-N ) :   2.9678
B(  4-C ,  5-N ) :   2.9137 B(  6-C ,  7-C ) :   1.2757 B(  6-C , 11-C ) :   1.4195
B(  7-C ,  8-C ) :   1.4287 B(  7-C , 16-C ) :   0.9503 B(  8-C ,  9-C ) :   1.2374
B(  8-C , 76-H ) :   1.0180 B(  9-C , 10-C ) :   1.3145 B(  9-C , 14-C ) :   1.1611
B( 10-C , 11-C ) :   1.3180 B( 10-C , 12-S ) :   1.0836 B( 11-C , 77-H ) :   0.9815
B( 12-S , 13-C ) :   1.0864 B( 13-C , 14-C ) :   1.6191 B( 13-C , 15-Br) :   1.0159
B( 14-C , 78-H ) :   1.0012 B( 16-C , 17-O ) :   2.1321 B( 16-C , 18-C ) :   0.9904
B( 18-C , 19-C ) :   1.4566 B( 19-C , 20-C ) :   1.3328 B( 19-C , 79-H ) :   0.9256
B( 20-C , 21-S ) :   1.0957 B( 20-C , 24-C ) :   1.2467 B( 21-S , 22-C ) :   1.2807
B( 22-C , 23-C ) :   1.3489 B( 22-C , 80-H ) :   0.9658 B( 23-C , 24-C ) :   1.2176
B( 23-C , 28-C ) :   1.1659 B( 24-C , 25-C ) :   1.2713 B( 25-C , 26-C ) :   1.3589
B( 25-C , 30-C ) :   1.0002 B( 26-C , 27-C ) :   1.2328 B( 26-C , 29-O ) :   1.2776
B( 27-C , 28-C ) :   1.5090 B( 27-C , 81-H ) :   0.9925 B( 28-C , 82-H ) :   1.0052
B( 29-O , 83-H ) :   0.9383 B( 30-C , 31-C ) :   1.6889 B( 30-C , 84-H ) :   0.9579
B( 31-C , 32-C ) :   1.1257 B( 31-C , 85-H ) :   0.9606 B( 32-C , 33-C ) :   1.6016
B( 32-C , 86-H ) :   0.9829 B( 33-C , 34-C ) :   1.1335 B( 33-C , 37-S ) :   1.0290
B( 34-C , 35-C ) :   1.6003 B( 34-C , 87-H ) :   0.9993 B( 35-C , 36-C ) :   1.1811
B( 35-C , 88-H ) :   0.9937 B( 36-C , 37-S ) :   1.0449 B( 36-C , 38-C ) :   1.5223
B( 38-C , 39-C ) :   1.1823 B( 38-C , 42-S ) :   1.0372 B( 39-C , 40-C ) :   1.5930
B( 39-C , 89-H ) :   0.9929 B( 40-C , 41-C ) :   1.1445 B( 40-C , 90-H ) :   1.0001
B( 41-C , 42-S ) :   1.0321 B( 41-C , 43-C ) :   1.5757 B( 43-C , 44-C ) :   1.1813
B( 43-C , 91-H ) :   0.9613 B( 44-C , 45-S ) :   1.1265 B( 44-C , 48-C ) :   1.3714
B( 45-S , 46-C ) :   1.2141 B( 46-C , 47-C ) :   1.4037 B( 46-C , 92-H ) :   0.9703
B( 47-C , 48-C ) :   1.2100 B( 47-C , 52-C ) :   1.1635 B( 48-C , 49-C ) :   1.1602
B( 49-C , 50-C ) :   1.3841 B( 49-C , 54-C ) :   1.1164 B( 50-C , 51-C ) :   1.1950
B( 50-C , 53-O ) :   1.2476 B( 51-C , 52-C ) :   1.5332 B( 51-C , 93-H ) :   0.9782
B( 52-C , 94-H ) :   0.9990 B( 53-O , 95-H ) :   0.9372 B( 54-C , 55-C ) :   1.6059
B( 54-C , 96-H ) :   0.9757 B( 55-C , 56-C ) :   1.1585 B( 55-C , 97-H ) :   0.9593
B( 56-C , 57-C ) :   1.5494 B( 56-C , 98-H ) :   0.9557 B( 57-C , 58-C ) :   1.0654
B( 57-C , 66-C ) :   0.9543 B( 58-C , 59-C ) :   1.6139 B( 58-C , 64-C ) :   1.0100
B( 59-C , 60-C ) :   1.1314 B( 59-C , 62-C ) :   1.1762 B( 60-C , 61-N ) :   2.9821
B( 62-C , 63-N ) :   2.9599 B( 64-C , 65-C ) :   1.2768 B( 64-C , 71-C ) :   1.4178
B( 65-C , 66-C ) :   0.9198 B( 65-C , 68-C ) :   1.4309 B( 66-C , 67-O ) :   2.2549
B( 68-C , 69-C ) :   1.2481 B( 68-C , 99-H ) :   1.0156 B( 69-C , 70-C ) :   1.3139
B( 69-C , 74-C ) :   1.1610 B( 70-C , 71-C ) :   1.3246 B( 70-C , 72-S ) :   1.0816
B( 71-C ,100-H ) :   0.9811 B( 72-S , 73-C ) :   1.0861 B( 73-C , 74-C ) :   1.6212
B( 73-C , 75-Br) :   1.0148 B( 74-C ,101-H ) :   1.0002

-----------------------------------------------------------------------------
         ABSORPTION SPECTRUM VIA TRANSITION ELECTRIC DIPOLE MOMENTS
-----------------------------------------------------------------------------
State   Energy  Wavelength   fosc         T2         TX        TY        TZ
        (cm-1)    (nm)                  (au**2)     (au)      (au)      (au)
-----------------------------------------------------------------------------
   0   12910.3    774.6   0.108935848   2.77787  -1.33207  -0.22687   0.97570
   1   13285.4    752.7   0.239025154   5.92304  -0.77019  -0.47234   2.25981
   2   14213.1    703.6   1.484003184  34.37330  -2.39981  -4.52591   2.85137
   3   20402.1    490.1   0.070320057   1.13470   0.90002  -0.46078  -0.33515
   4   20702.2    483.0   0.405761819   6.45254  -1.54361   2.01332  -0.12789
   5   21051.1    475.0   0.136899557   2.14094  -1.13437   0.88957  -0.25063
   6   22043.2    453.7   0.466809543   6.97172  -0.64715   0.14422   2.55580
   7   22737.1    439.8   0.043081343   0.62378   0.19695  -0.11664  -0.75590
   8   24166.6    413.8   0.373357078   5.08609   0.98944  -1.21755  -1.62008
   9   25867.8    386.6   0.006984168   0.08889   0.12574  -0.25656   0.08515
  10   26248.7    381.0   0.017664654   0.22155  -0.27412   0.38145   0.03012
  11   26778.0    373.4   0.135259682   1.66290  -0.86763   0.84757   0.43787
  12   27550.9    363.0   0.097957383   1.17052   0.34108   0.94240  -0.40750
  13   27953.3    357.7   0.112326801   1.32290  -0.89755   0.09134   0.71341
  14   28256.6    353.9   0.054775919   0.63818   0.11132   0.74310  -0.27127
  15   28921.5    345.8   0.411920882   4.68888   0.32393  -1.86614   1.04952
  16   29100.3    343.6   0.061137730   0.69165  -0.03472  -0.81085   0.18158
  17   29347.8    340.7   0.103599913   1.16214  -0.11708   0.67358   0.83350
  18   29827.1    335.3   0.330824482   3.65142  -0.61745   0.49682   1.73878
  19   30139.1    331.8   0.024226552   0.26463   0.10726   0.38886   0.31924
  20   30585.0    327.0   0.013984575   0.15053  -0.06366  -0.03173  -0.38140
  21   30990.8    322.7   0.024026390   0.25523   0.06445  -0.49173  -0.09631
  22   31377.2    318.7   0.067950613   0.71294  -0.37104   0.55198   0.52019
  23   31472.7    317.7   0.000800256   0.00837  -0.07303   0.05511  -0.00097
  24   31682.2    315.6   0.114409861   1.18884   0.08114  -1.08647  -0.04286
  25   31940.4    313.1   0.071604362   0.73803   0.53106  -0.18059  -0.65069
  26   32257.3    310.0   0.026523049   0.27069   0.14905   0.49250  -0.07695
  27   32319.2    309.4   0.048708915   0.49616  -0.13717   0.67030   0.16746
  28   32619.2    306.6   0.027986239   0.28245   0.08304  -0.12756  -0.50920
  29   32972.2    303.3   0.004597599   0.04590   0.12880  -0.01435  -0.17062
  30   33133.6    301.8   0.349015220   3.46778  -0.82277   0.41764   1.61753
  31   33269.3    300.6   0.057611787   0.57009   0.57218  -0.06018  -0.48895
  32   33604.0    297.6   0.079782735   0.78162   0.33392  -0.51745   0.63432
  33   33902.1    295.0   0.332961336   3.23327   0.23755  -1.77785  -0.12681
  34   34035.1    293.8   0.243500389   2.35531  -0.56260   0.67256   1.25954
  35   34223.0    292.2   0.577263326   5.55304  -1.06868   0.02143   2.10012
  36   34504.0    289.8   0.082969663   0.79164   0.12332  -0.84922   0.23506
  37   34696.5    288.2   0.075735198   0.71860  -0.01936  -0.84689  -0.03155
  38   34919.3    286.4   0.053379050   0.50325  -0.08107  -0.65986   0.24750
  39   35565.7    281.2   0.037395260   0.34615  -0.23109   0.34707   0.41507
  40   35750.5    279.7   0.136754325   1.25932  -0.10951   0.99932  -0.49868
  41   36143.6    276.7   0.039215008   0.35719   0.01855   0.04986  -0.59528
  42   36398.2    274.7   0.066261174   0.59932  -0.46542   0.19524   0.58701
  43   36979.2    270.4   0.094641255   0.84256  -0.55088  -0.04382   0.73291
  44   37196.3    268.8   0.013482874   0.11933   0.10044   0.31137  -0.11088
  45   37648.5    265.6   0.013992548   0.12236  -0.18743  -0.08621   0.28248
  46   37742.4    265.0   0.040946768   0.35716   0.41535  -0.19701  -0.38188
  47   37990.1    263.2   0.028859184   0.25009  -0.03716  -0.49644  -0.04749
  48   38452.0    260.1   0.063806878   0.54629  -0.51177   0.20717   0.49139
  49   38519.7    259.6   0.006080818   0.05197   0.19754   0.05166  -0.10139
  50   38665.4    258.6   0.014457463   0.12310  -0.16989  -0.29228   0.09384
  51   38881.4    257.2   0.005247608   0.04443   0.12882   0.13224  -0.10174
  52   39032.0    256.2   0.035075158   0.29584   0.35235  -0.38682  -0.14854
  53   39050.5    256.1   0.117226336   0.98827   0.86581  -0.04587  -0.48634
  54   39250.5    254.8   0.080662772   0.67656  -0.33151  -0.70989   0.25044
  55   39405.1    253.8   0.031806325   0.26573   0.26772  -0.15990  -0.41047
  56   39920.0    250.5   0.028237431   0.23287   0.24947  -0.17019  -0.37639
  57   40063.0    249.6   0.006906661   0.05675  -0.08036   0.21065  -0.07695
  58   40215.1    248.7   0.009250758   0.07573  -0.23886   0.11453  -0.07455

FINAL SINGLE POINT ENERGY    -10354.575410600513

DIPOLE MOMENT
-------------
                                X             Y             Z
Electronic contribution:     76.71684    -101.34604     -56.20278
Nuclear contribution   :    -78.11738     100.59338      58.44761
                        -----------------------------------------
Total Dipole Moment    :     -1.40054      -0.75266       2.24483
                        -----------------------------------------
Magnitude (a.u.)       :      2.75087
Magnitude (Debye)      :      6.99215

Rotational constants in cm-1:     0.000983     0.000137     0.000123
Rotational constants in MHz :    29.463525     4.095103     3.695810

                             ****ORCA TERMINATED NORMALLY****
TOTAL RUN TIME: 0 days 0 hours 12 minutes 1 seconds 579 msec
