                         Program Version 4.2.0 -  RELEASE  -
|  1> # ORCA input file
|  2> # SCF done       -166.967178292764          0.002638490845
|  3> ! CAM-B3LYP def2-SVP def2/J RIJCOSX Grid4 TightSCF
|  4> %maxcore 5000
|  5> %tddft
|  6>     Mode sTDDFT
|  7>     Ethresh 5.0
|  8>     maxcore 5000
|  9> end
| 10>
| 11> %pal
| 12>   nprocs 6
| 13>   end
| 14> * xyz 0 1
| 15>    C      -11.94150        -6.44721        -8.03536
| 16>    C      -10.96156        -6.86011        -7.14761
| 17>    C      -10.15792        -8.00044        -7.33249
| 18>    N       -9.47746        -8.92328        -7.40608
| 19>    C      -10.62476        -6.22821        -5.94799
| 20>    N      -10.25473        -5.78024        -4.95219
| 21>    C      -12.23039        -7.09306        -9.31578
| 22>    C      -13.30895        -6.41082        -9.92955
| 23>    C      -13.80218        -6.76158       -11.15979
| 24>    C      -13.19819        -7.83829       -11.82355
| 25>    C      -12.12078        -8.51074       -11.20472
| 26>    C      -11.62343        -8.15640        -9.95465
| 27>    S      -11.51214        -9.79860       -12.20214
| 28>    C      -12.70027        -9.41948       -13.42043
| 29>    C      -13.51156        -8.38408       -13.09923
| 30>   Br      -12.75190       -10.41955       -15.00606
| 31>    C      -13.74415        -5.30317        -9.04622
| 32>    O      -14.65754        -4.52900        -9.26232
| 33>    C      -12.84051        -5.34660        -7.88684
| 34>    C      -12.85437        -4.43543        -6.83944
| 35>    C      -13.71155        -3.36099        -6.70409
| 36>    C      -13.59674        -2.45469        -5.65551
| 37>    C      -14.36481        -1.29368        -5.44456
| 38>    C      -13.97153        -0.55376        -4.36117
| 39>    C      -12.88156        -1.10693        -3.66753
| 40>    S      -12.38116        -2.60653        -4.41398
| 41>    C      -12.18746        -0.59242        -2.57966
| 42>    C      -12.34688         0.67213        -1.96774
| 43>    C      -11.43228         0.92020        -0.99089
| 44>    C      -10.50577        -0.13531        -0.77184
| 45>    S      -10.88443        -1.47809        -1.84433
| 46>    C       -9.54033        -0.13639         0.19905
| 47>    C       -8.58264        -1.14810         0.51060
| 48>    C       -7.90289        -1.91107        -0.49671
| 49>    C       -7.89060        -1.72560        -1.85932
| 50>    S       -6.89376        -2.84863        -2.66260
| 51>    F       -9.61260        -4.38948        -2.94480
| 52>    C       -6.41872        -3.57577        -1.20252
| 53>    C       -7.00407        -2.97049        -0.11360
| 54>    C       -6.74119        -3.21230         1.25293
| 55>    C       -7.30099        -2.40044         2.18891
| 56>    C       -8.22228        -1.37612         1.84813
| 57>    C       -8.80408        -0.62628         2.93581
| 58>    C      -10.08773        -0.15960         3.10351
| 59>    C      -10.23671         0.55144         4.29863
| 60>    C       -9.06618         0.64660         5.05905
| 61>    S       -7.76807        -0.19836         4.29458
| 62>    C       -9.19961         1.37694         6.23772
| 63>    C      -10.48731         1.85417         6.40729
| 64>    S      -11.54094         1.37366         5.07788
| 65>    C      -11.02775         2.63451         7.45331
| 66>    C      -10.30957         3.19030         8.47221
| 67>    C      -10.88971         3.95934         9.49238
| 68>    C      -10.18822         4.59543        10.48500
| 69>    C      -10.72710         5.38883        11.52938
| 70>    C       -9.79869         5.93422        12.35824
| 71>    C       -8.46203         5.60892        12.01887
| 72>    S       -8.43576         4.56382        10.60994
| 73>    C       -7.30808         6.02937        12.63680
| 74>    C       -7.19450         6.89445        13.76175
| 75>    C       -5.92341         7.15729        14.13757
| 76>    C       -4.92249         6.51546        13.33407
| 77>    S       -5.71781         5.54803        12.08161
| 78>    C       -3.59125         6.59815        13.45981
| 79>    H      -14.62516        -6.22337       -11.60314
| 80>    H      -10.79615        -8.69869        -9.52785
| 81>    H      -14.29658        -8.01635       -13.73486
| 82>    H      -12.11100        -4.55868        -6.06207
| 83>    H      -14.48059        -3.19482        -7.44340
| 84>    H      -15.17346        -1.02799        -6.10167
| 85>    H      -14.43906         0.36538        -4.05585
| 86>    H      -13.10976         1.36380        -2.27627
| 87>    H      -11.38325         1.83215        -0.42170
| 88>    H       -9.55233         0.72148         0.86285
| 89>    H       -8.39297        -0.97995        -2.43953
| 90>    H       -9.85061        -4.94942        -3.69375
| 91>    H       -5.71828        -4.38667        -1.19943
| 92>    H       -6.07765        -4.01582         1.53335
| 93>    H       -7.08473        -2.55351         3.23606
| 94>    H      -10.89259        -0.37121         2.42379
| 95>    H       -8.40402         1.54479         6.93871
| 96>    H      -12.09549         2.80887         7.41522
| 97>    H       -9.23676         3.05651         8.50742
| 98>    H      -11.96583         4.07420         9.49596
| 99>    H      -11.78895         5.52988        11.62868
|100>    H      -10.03289         6.56238        13.19854
|101>    H       -8.06526         7.29482        14.24958
|102>    H       -5.64250         7.79054        14.96077
|103>    H       -3.14731         7.20131        14.23079
|104>    H       -2.92809         6.07273        12.79807
|105> *
|106>
|107>                          ****END OF INPUT****

CARTESIAN COORDINATES (ANGSTROEM)
---------------------------------
  C    -11.941500   -6.447210   -8.035360
  C    -10.961560   -6.860110   -7.147610
  C    -10.157920   -8.000440   -7.332490
  N     -9.477460   -8.923280   -7.406080
  C    -10.624760   -6.228210   -5.947990
  N    -10.254730   -5.780240   -4.952190
  C    -12.230390   -7.093060   -9.315780
  C    -13.308950   -6.410820   -9.929550
  C    -13.802180   -6.761580  -11.159790
  C    -13.198190   -7.838290  -11.823550
  C    -12.120780   -8.510740  -11.204720
  C    -11.623430   -8.156400   -9.954650
  S    -11.512140   -9.798600  -12.202140
  C    -12.700270   -9.419480  -13.420430
  C    -13.511560   -8.384080  -13.099230
  Br   -12.751900  -10.419550  -15.006060
  C    -13.744150   -5.303170   -9.046220
  O    -14.657540   -4.529000   -9.262320
  C    -12.840510   -5.346600   -7.886840
  C    -12.854370   -4.435430   -6.839440
  C    -13.711550   -3.360990   -6.704090
  C    -13.596740   -2.454690   -5.655510
  C    -14.364810   -1.293680   -5.444560
  C    -13.971530   -0.553760   -4.361170
  C    -12.881560   -1.106930   -3.667530
  S    -12.381160   -2.606530   -4.413980
  C    -12.187460   -0.592420   -2.579660
  C    -12.346880    0.672130   -1.967740
  C    -11.432280    0.920200   -0.990890
  C    -10.505770   -0.135310   -0.771840
  S    -10.884430   -1.478090   -1.844330
  C     -9.540330   -0.136390    0.199050
  C     -8.582640   -1.148100    0.510600
  C     -7.902890   -1.911070   -0.496710
  C     -7.890600   -1.725600   -1.859320
  S     -6.893760   -2.848630   -2.662600
  F     -9.612600   -4.389480   -2.944800
  C     -6.418720   -3.575770   -1.202520
  C     -7.004070   -2.970490   -0.113600
  C     -6.741190   -3.212300    1.252930
  C     -7.300990   -2.400440    2.188910
  C     -8.222280   -1.376120    1.848130
  C     -8.804080   -0.626280    2.935810
  C    -10.087730   -0.159600    3.103510
  C    -10.236710    0.551440    4.298630
  C     -9.066180    0.646600    5.059050
  S     -7.768070   -0.198360    4.294580
  C     -9.199610    1.376940    6.237720
  C    -10.487310    1.854170    6.407290
  S    -11.540940    1.373660    5.077880
  C    -11.027750    2.634510    7.453310
  C    -10.309570    3.190300    8.472210
  C    -10.889710    3.959340    9.492380
  C    -10.188220    4.595430   10.485000
  C    -10.727100    5.388830   11.529380
  C     -9.798690    5.934220   12.358240
  C     -8.462030    5.608920   12.018870
  S     -8.435760    4.563820   10.609940
  C     -7.308080    6.029370   12.636800
  C     -7.194500    6.894450   13.761750
  C     -5.923410    7.157290   14.137570
  C     -4.922490    6.515460   13.334070
  S     -5.717810    5.548030   12.081610
  C     -3.591250    6.598150   13.459810
  H    -14.625160   -6.223370  -11.603140
  H    -10.796150   -8.698690   -9.527850
  H    -14.296580   -8.016350  -13.734860
  H    -12.111000   -4.558680   -6.062070
  H    -14.480590   -3.194820   -7.443400
  H    -15.173460   -1.027990   -6.101670
  H    -14.439060    0.365380   -4.055850
  H    -13.109760    1.363800   -2.276270
  H    -11.383250    1.832150   -0.421700
  H     -9.552330    0.721480    0.862850
  H     -8.392970   -0.979950   -2.439530
  H     -9.850610   -4.949420   -3.693750
  H     -5.718280   -4.386670   -1.199430
  H     -6.077650   -4.015820    1.533350
  H     -7.084730   -2.553510    3.236060
  H    -10.892590   -0.371210    2.423790
  H     -8.404020    1.544790    6.938710
  H    -12.095490    2.808870    7.415220
  H     -9.236760    3.056510    8.507420
  H    -11.965830    4.074200    9.495960
  H    -11.788950    5.529880   11.628680
  H    -10.032890    6.562380   13.198540
  H     -8.065260    7.294820   14.249580
  H     -5.642500    7.790540   14.960770
  H     -3.147310    7.201310   14.230790
  H     -2.928090    6.072730   12.798070

 Total Charge           Charge          ....    0
 Multiplicity           Mult            ....    1
 Number of Electrons    NEL             ....  526
 Basis Dimension        Dim             .... 1076

ORBITAL ENERGIES
----------------

  NO   OCC          E(Eh)            E(eV)
   0   2.0000    -482.874506    -13139.6833
   1   2.0000     -88.961638     -2420.7692
   2   2.0000     -88.958815     -2420.6924
   3   2.0000     -88.957875     -2420.6669
   4   2.0000     -88.957794     -2420.6646
   5   2.0000     -88.957165     -2420.6475
   6   2.0000     -88.955713     -2420.6080
   7   2.0000     -88.942729     -2420.2547
   8   2.0000     -88.939101     -2420.1560
   9   2.0000     -62.552221     -1702.1325
  10   2.0000     -56.386153     -1534.3452
  11   2.0000     -56.383470     -1534.2722
  12   2.0000     -56.383431     -1534.2712
  13   2.0000     -24.647208      -670.6846
  14   2.0000     -19.194206      -522.3009
  15   2.0000     -14.417028      -392.3073
  16   2.0000     -14.393496      -391.6669
  17   2.0000     -10.345285      -281.5095
  18   2.0000     -10.344321      -281.4833
  19   2.0000     -10.336805      -281.2788
  20   2.0000     -10.329511      -281.0803
  21   2.0000     -10.323168      -280.9077
  22   2.0000     -10.322739      -280.8960
  23   2.0000     -10.317813      -280.7620
  24   2.0000     -10.315710      -280.7047
  25   2.0000     -10.314880      -280.6822
  26   2.0000     -10.310690      -280.5681
  27   2.0000     -10.309633      -280.5394
  28   2.0000     -10.309160      -280.5265
  29   2.0000     -10.308997      -280.5221
  30   2.0000     -10.307658      -280.4856
  31   2.0000     -10.307571      -280.4833
  32   2.0000     -10.307028      -280.4685
  33   2.0000     -10.306902      -280.4651
  34   2.0000     -10.306552      -280.4555
  35   2.0000     -10.303046      -280.3601
  36   2.0000     -10.300938      -280.3028
  37   2.0000     -10.299469      -280.2628
  38   2.0000     -10.299392      -280.2607
  39   2.0000     -10.298949      -280.2486
  40   2.0000     -10.298532      -280.2373
  41   2.0000     -10.293342      -280.0961
  42   2.0000     -10.292597      -280.0758
  43   2.0000     -10.291575      -280.0480
  44   2.0000     -10.290181      -280.0101
  45   2.0000     -10.289882      -280.0019
  46   2.0000     -10.288717      -279.9702
  47   2.0000     -10.288607      -279.9672
  48   2.0000     -10.287663      -279.9416
  49   2.0000     -10.285633      -279.8863
  50   2.0000     -10.285401      -279.8800
  51   2.0000     -10.285356      -279.8788
  52   2.0000     -10.284323      -279.8506
  53   2.0000     -10.283808      -279.8366
  54   2.0000     -10.283724      -279.8344
  55   2.0000     -10.283152      -279.8188
  56   2.0000     -10.282992      -279.8144
  57   2.0000     -10.281274      -279.7677
  58   2.0000     -10.281259      -279.7673
  59   2.0000     -10.280243      -279.7396
  60   2.0000     -10.278018      -279.6791
  61   2.0000     -10.277709      -279.6707
  62   2.0000     -10.273808      -279.5645
  63   2.0000     -10.273479      -279.5556
  64   2.0000     -10.273112      -279.5456
  65   2.0000     -10.270656      -279.4788
  66   2.0000     -10.267152      -279.3834
  67   2.0000     -10.266298      -279.3602
  68   2.0000      -8.781646      -238.9607
  69   2.0000      -8.057658      -219.2600
  70   2.0000      -8.054655      -219.1783
  71   2.0000      -8.053333      -219.1423
  72   2.0000      -8.053137      -219.1370
  73   2.0000      -8.052599      -219.1224
  74   2.0000      -8.051550      -219.0938
  75   2.0000      -8.039023      -218.7529
  76   2.0000      -8.035714      -218.6629
  77   2.0000      -6.617881      -180.0817
  78   2.0000      -6.603402      -179.6877
  79   2.0000      -6.603240      -179.6833
  80   2.0000      -6.027353      -164.0126
  81   2.0000      -6.024276      -163.9289
  82   2.0000      -6.023086      -163.8965
  83   2.0000      -6.022624      -163.8839
  84   2.0000      -6.022117      -163.8701
  85   2.0000      -6.022074      -163.8690
  86   2.0000      -6.021059      -163.8413
  87   2.0000      -6.020053      -163.8140
  88   2.0000      -6.018868      -163.7817
  89   2.0000      -6.018648      -163.7757
  90   2.0000      -6.018180      -163.7630
  91   2.0000      -6.017666      -163.7490
  92   2.0000      -6.016966      -163.7300
  93   2.0000      -6.016852      -163.7269
  94   2.0000      -6.015736      -163.6965
  95   2.0000      -6.014698      -163.6682
  96   2.0000      -6.014152      -163.6534
  97   2.0000      -6.012976      -163.6214
  98   2.0000      -6.008772      -163.5070
  99   2.0000      -6.005552      -163.4194
 100   2.0000      -6.004876      -163.4010
 101   2.0000      -6.001629      -163.3126
 102   2.0000      -5.999795      -163.2627
 103   2.0000      -5.996263      -163.1666
 104   2.0000      -2.733764       -74.3895
 105   2.0000      -2.729680       -74.2784
 106   2.0000      -2.729592       -74.2760
 107   2.0000      -2.718080       -73.9627
 108   2.0000      -2.718053       -73.9620
 109   2.0000      -1.146262       -31.1914
 110   2.0000      -1.106999       -30.1230
 111   2.0000      -1.011607       -27.5272
 112   2.0000      -1.010248       -27.4902
 113   2.0000      -1.007685       -27.4205
 114   2.0000      -1.003691       -27.3118
 115   2.0000      -0.992494       -27.0071
 116   2.0000      -0.991050       -26.9678
 117   2.0000      -0.983897       -26.7732
 118   2.0000      -0.982888       -26.7458
 119   2.0000      -0.970950       -26.4209
 120   2.0000      -0.969754       -26.3883
 121   2.0000      -0.957542       -26.0560
 122   2.0000      -0.931389       -25.3444
 123   2.0000      -0.927709       -25.2443
 124   2.0000      -0.908840       -24.7308
 125   2.0000      -0.904454       -24.6114
 126   2.0000      -0.894709       -24.3463
 127   2.0000      -0.892946       -24.2983
 128   2.0000      -0.875929       -23.8352
 129   2.0000      -0.872006       -23.7285
 130   2.0000      -0.870111       -23.6769
 131   2.0000      -0.860410       -23.4129
 132   2.0000      -0.859566       -23.3900
 133   2.0000      -0.854093       -23.2411
 134   2.0000      -0.845131       -22.9972
 135   2.0000      -0.844426       -22.9780
 136   2.0000      -0.833931       -22.6924
 137   2.0000      -0.832899       -22.6643
 138   2.0000      -0.824414       -22.4334
 139   2.0000      -0.818360       -22.2687
 140   2.0000      -0.813911       -22.1476
 141   2.0000      -0.802479       -21.8366
 142   2.0000      -0.798989       -21.7416
 143   2.0000      -0.792779       -21.5726
 144   2.0000      -0.782485       -21.2925
 145   2.0000      -0.765713       -20.8361
 146   2.0000      -0.754439       -20.5293
 147   2.0000      -0.742451       -20.2031
 148   2.0000      -0.734155       -19.9774
 149   2.0000      -0.722665       -19.6647
 150   2.0000      -0.705712       -19.2034
 151   2.0000      -0.696393       -18.9498
 152   2.0000      -0.689671       -18.7669
 153   2.0000      -0.680266       -18.5110
 154   2.0000      -0.678718       -18.4688
 155   2.0000      -0.674456       -18.3529
 156   2.0000      -0.666913       -18.1476
 157   2.0000      -0.660503       -17.9732
 158   2.0000      -0.656222       -17.8567
 159   2.0000      -0.645972       -17.5778
 160   2.0000      -0.643448       -17.5091
 161   2.0000      -0.639840       -17.4109
 162   2.0000      -0.635803       -17.3011
 163   2.0000      -0.629694       -17.1348
 164   2.0000      -0.628195       -17.0941
 165   2.0000      -0.623493       -16.9661
 166   2.0000      -0.621067       -16.9001
 167   2.0000      -0.615134       -16.7386
 168   2.0000      -0.609884       -16.5958
 169   2.0000      -0.606861       -16.5135
 170   2.0000      -0.600610       -16.3434
 171   2.0000      -0.597946       -16.2709
 172   2.0000      -0.584789       -15.9129
 173   2.0000      -0.583544       -15.8790
 174   2.0000      -0.577895       -15.7253
 175   2.0000      -0.574667       -15.6375
 176   2.0000      -0.568748       -15.4764
 177   2.0000      -0.563919       -15.3450
 178   2.0000      -0.560666       -15.2565
 179   2.0000      -0.557632       -15.1739
 180   2.0000      -0.551455       -15.0059
 181   2.0000      -0.541926       -14.7466
 182   2.0000      -0.536278       -14.5929
 183   2.0000      -0.529588       -14.4108
 184   2.0000      -0.527751       -14.3608
 185   2.0000      -0.522195       -14.2097
 186   2.0000      -0.521958       -14.2032
 187   2.0000      -0.518541       -14.1102
 188   2.0000      -0.515182       -14.0188
 189   2.0000      -0.512484       -13.9454
 190   2.0000      -0.510968       -13.9042
 191   2.0000      -0.509399       -13.8615
 192   2.0000      -0.506327       -13.7778
 193   2.0000      -0.504320       -13.7232
 194   2.0000      -0.500836       -13.6284
 195   2.0000      -0.496432       -13.5086
 196   2.0000      -0.495223       -13.4757
 197   2.0000      -0.494988       -13.4693
 198   2.0000      -0.493142       -13.4191
 199   2.0000      -0.491429       -13.3725
 200   2.0000      -0.487707       -13.2712
 201   2.0000      -0.486374       -13.2349
 202   2.0000      -0.482160       -13.1202
 203   2.0000      -0.480841       -13.0843
 204   2.0000      -0.479039       -13.0353
 205   2.0000      -0.478128       -13.0105
 206   2.0000      -0.476601       -12.9690
 207   2.0000      -0.476194       -12.9579
 208   2.0000      -0.471387       -12.8271
 209   2.0000      -0.468306       -12.7432
 210   2.0000      -0.463972       -12.6253
 211   2.0000      -0.462185       -12.5767
 212   2.0000      -0.457919       -12.4606
 213   2.0000      -0.455203       -12.3867
 214   2.0000      -0.454086       -12.3563
 215   2.0000      -0.448167       -12.1952
 216   2.0000      -0.445676       -12.1275
 217   2.0000      -0.443315       -12.0632
 218   2.0000      -0.441510       -12.0141
 219   2.0000      -0.438769       -11.9395
 220   2.0000      -0.433494       -11.7960
 221   2.0000      -0.431942       -11.7537
 222   2.0000      -0.430488       -11.7142
 223   2.0000      -0.427948       -11.6451
 224   2.0000      -0.427770       -11.6402
 225   2.0000      -0.425228       -11.5710
 226   2.0000      -0.424590       -11.5537
 227   2.0000      -0.420183       -11.4338
 228   2.0000      -0.419454       -11.4139
 229   2.0000      -0.418781       -11.3956
 230   2.0000      -0.416583       -11.3358
 231   2.0000      -0.414246       -11.2722
 232   2.0000      -0.410483       -11.1698
 233   2.0000      -0.406749       -11.0682
 234   2.0000      -0.405683       -11.0392
 235   2.0000      -0.400699       -10.9036
 236   2.0000      -0.396843       -10.7986
 237   2.0000      -0.395384       -10.7590
 238   2.0000      -0.394154       -10.7255
 239   2.0000      -0.384232       -10.4555
 240   2.0000      -0.382318       -10.4034
 241   2.0000      -0.377571       -10.2742
 242   2.0000      -0.370408       -10.0793
 243   2.0000      -0.369351       -10.0505
 244   2.0000      -0.364167        -9.9095
 245   2.0000      -0.358544        -9.7565
 246   2.0000      -0.355531        -9.6745
 247   2.0000      -0.347616        -9.4591
 248   2.0000      -0.340750        -9.2723
 249   2.0000      -0.337838        -9.1930
 250   2.0000      -0.331565        -9.0223
 251   2.0000      -0.328552        -8.9404
 252   2.0000      -0.319178        -8.6853
 253   2.0000      -0.315140        -8.5754
 254   2.0000      -0.301511        -8.2045
 255   2.0000      -0.300408        -8.1745
 256   2.0000      -0.296243        -8.0612
 257   2.0000      -0.294860        -8.0235
 258   2.0000      -0.280358        -7.6289
 259   2.0000      -0.269501        -7.3335
 260   2.0000      -0.256423        -6.9776
 261   2.0000      -0.224694        -6.1142
 262   2.0000      -0.210693        -5.7332
 263   0.0000      -0.106095        -2.8870
 264   0.0000      -0.074830        -2.0362
 265   0.0000      -0.057118        -1.5543
 266   0.0000      -0.041455        -1.1281
 267   0.0000      -0.021336        -0.5806

MULLIKEN ATOMIC CHARGES
-----------------------
   0 C :    0.334768
   1 C :   -0.391225
   2 C :   -0.198387
   3 N :    0.135066
   4 C :   -0.121039
   5 N :    0.093447
   6 C :    0.008138
   7 C :   -0.004557
   8 C :   -0.079216
   9 C :    0.115753
  10 C :   -0.091379
  11 C :   -0.025626
  12 S :    0.177487
  13 C :   -0.123431
  14 C :    0.035784
  15 Br:    0.012006
  16 C :    0.135362
  17 O :   -0.167018
  18 C :   -0.095825
  19 C :   -0.038377
  20 C :   -0.021311
  21 C :    0.003397
  22 C :    0.015102
  23 C :    0.049396
  24 C :   -0.064019
  25 S :    0.115577
  26 C :   -0.032263
  27 C :    0.018874
  28 C :    0.054908
  29 C :   -0.062797
  30 S :    0.177759
  31 C :   -0.091548
  32 C :    0.091152
  33 C :    0.056550
  34 C :   -0.153243
  35 S :    0.200370
  36 F :   -0.331233
  37 C :   -0.127368
  38 C :    0.092705
  39 C :    0.023926
  40 C :   -0.030129
  41 C :    0.081456
  42 C :   -0.140598
  43 C :   -0.033748
  44 C :   -0.027847
  45 C :   -0.020607
  46 S :    0.137880
  47 C :   -0.027786
  48 C :   -0.074789
  49 S :    0.126250
  50 C :    0.038678
  51 C :    0.009140
  52 C :   -0.020508
  53 C :   -0.016934
  54 C :    0.035630
  55 C :    0.028264
  56 C :   -0.046748
  57 S :    0.066399
  58 C :   -0.067943
  59 C :    0.030830
  60 C :    0.050464
  61 C :   -0.064358
  62 S :    0.079436
  63 C :   -0.028587
  64 H :   -0.017273
  65 H :   -0.009969
  66 H :   -0.007699
  67 H :    0.003045
  68 H :    0.013186
  69 H :   -0.004245
  70 H :   -0.006935
  71 H :   -0.008470
  72 H :    0.001116
  73 H :    0.034649
  74 H :    0.028050
  75 H :    0.231986
  76 H :    0.018375
  77 H :   -0.018557
  78 H :   -0.012046
  79 H :    0.000288
  80 H :   -0.014673
  81 H :   -0.018590
  82 H :    0.001418
  83 H :   -0.017344
  84 H :   -0.013400
  85 H :   -0.014261
  86 H :   -0.012075
  87 H :   -0.010928
  88 H :    0.020641
  89 H :    0.022204
Sum of atomic charges:   -0.0000000

LOEWDIN ATOMIC CHARGES
----------------------
   0 C :    0.083708
   1 C :   -0.185015
   2 C :   -0.022572
   3 N :   -0.076089
   4 C :    0.053099
   5 N :   -0.036934
   6 C :   -0.019479
   7 C :   -0.045882
   8 C :    0.015306
   9 C :   -0.036157
  10 C :   -0.147806
  11 C :   -0.013233
  12 S :    0.425821
  13 C :   -0.276074
  14 C :   -0.071089
  15 Br:    0.128330
  16 C :    0.081529
  17 O :   -0.161417
  18 C :   -0.125635
  19 C :    0.045504
  20 C :   -0.083485
  21 C :   -0.098477
  22 C :   -0.055929
  23 C :   -0.002185
  24 C :   -0.209273
  25 S :    0.429550
  26 C :   -0.133703
  27 C :   -0.052027
  28 C :    0.002411
  29 C :   -0.176450
  30 S :    0.464373
  31 C :    0.008275
  32 C :   -0.033887
  33 C :   -0.055803
  34 C :   -0.207356
  35 S :    0.538091
  36 F :   -0.189205
  37 C :   -0.191955
  38 C :   -0.055817
  39 C :    0.016250
  40 C :   -0.044385
  41 C :   -0.020113
  42 C :   -0.153330
  43 C :   -0.067201
  44 C :   -0.209827
  45 C :   -0.195782
  46 S :    0.423390
  47 C :   -0.070461
  48 C :   -0.152653
  49 S :    0.410236
  50 C :   -0.048569
  51 C :   -0.020225
  52 C :   -0.061947
  53 C :   -0.142098
  54 C :   -0.036078
  55 C :   -0.029748
  56 C :   -0.180936
  57 S :    0.361477
  58 C :   -0.176632
  59 C :   -0.026833
  60 C :   -0.031085
  61 C :   -0.139428
  62 S :    0.351472
  63 C :   -0.075162
  64 H :    0.038124
  65 H :    0.039948
  66 H :    0.037074
  67 H :    0.026412
  68 H :    0.037766
  69 H :    0.036807
  70 H :    0.034613
  71 H :    0.033466
  72 H :    0.038244
  73 H :    0.044477
  74 H :    0.012781
  75 H :    0.008956
  76 H :    0.024522
  77 H :    0.034216
  78 H :    0.023486
  79 H :    0.035488
  80 H :    0.032275
  81 H :    0.027504
  82 H :    0.022733
  83 H :    0.032210
  84 H :    0.033117
  85 H :    0.031355
  86 H :    0.032121
  87 H :    0.033626
  88 H :    0.028812
  89 H :    0.026478

  Mayer bond orders larger than 0.100000
B(  0-C ,  1-C ) :   1.4961 B(  0-C ,  6-C ) :   0.9845 B(  0-C , 18-C ) :   1.1832
B(  1-C ,  2-C ) :   1.1514 B(  1-C ,  4-C ) :   1.1999 B(  2-C ,  3-N ) :   2.9642
B(  4-C ,  5-N ) :   2.8119 B(  5-N , 75-H ) :   0.1973 B(  6-C ,  7-C ) :   1.2796
B(  6-C , 11-C ) :   1.4254 B(  7-C ,  8-C ) :   1.4399 B(  7-C , 16-C ) :   0.9276
B(  8-C ,  9-C ) :   1.2303 B(  8-C , 64-H ) :   1.0168 B(  9-C , 10-C ) :   1.3261
B(  9-C , 14-C ) :   1.1599 B( 10-C , 11-C ) :   1.3124 B( 10-C , 12-S ) :   1.0809
B( 11-C , 65-H ) :   0.9801 B( 12-S , 13-C ) :   1.0874 B( 13-C , 14-C ) :   1.6180
B( 13-C , 15-Br) :   1.0118 B( 14-C , 66-H ) :   1.0008 B( 16-C , 17-O ) :   2.1933
B( 16-C , 18-C ) :   0.9738 B( 18-C , 19-C ) :   1.3880 B( 19-C , 20-C ) :   1.3542
B( 19-C , 67-H ) :   0.9412 B( 20-C , 21-C ) :   1.3293 B( 20-C , 68-H ) :   0.9827
B( 21-C , 22-C ) :   1.2233 B( 21-C , 25-S ) :   1.1128 B( 22-C , 23-C ) :   1.4929
B( 22-C , 69-H ) :   1.0027 B( 23-C , 24-C ) :   1.2549 B( 23-C , 70-H ) :   0.9948
B( 24-C , 25-S ) :   1.0504 B( 24-C , 26-C ) :   1.4136 B( 26-C , 27-C ) :   1.1942
B( 26-C , 30-S ) :   1.1165 B( 27-C , 28-C ) :   1.5759 B( 27-C , 71-H ) :   0.9955
B( 28-C , 29-C ) :   1.1365 B( 28-C , 72-H ) :   0.9997 B( 29-C , 30-S ) :   1.0196
B( 29-C , 31-C ) :   1.6048 B( 31-C , 32-C ) :   1.1051 B( 31-C , 73-H ) :   0.9465
B( 32-C , 33-C ) :   1.1335 B( 32-C , 41-C ) :   1.4699 B( 33-C , 34-C ) :   1.4663
B( 33-C , 38-C ) :   1.2042 B( 34-C , 35-S ) :   1.2312 B( 34-C , 74-H ) :   0.9503
B( 35-S , 37-C ) :   1.2518 B( 36-F , 75-H ) :   0.8802 B( 37-C , 38-C ) :   1.4235
B( 37-C , 76-H ) :   0.9691 B( 38-C , 39-C ) :   1.1638 B( 39-C , 40-C ) :   1.5476
B( 39-C , 77-H ) :   0.9998 B( 40-C , 41-C ) :   1.1873 B( 40-C , 78-H ) :   0.9831
B( 41-C , 42-C ) :   1.0579 B( 42-C , 43-C ) :   1.5168 B( 42-C , 46-S ) :   1.1028
B( 43-C , 44-C ) :   1.2302 B( 43-C , 79-H ) :   1.0050 B( 44-C , 45-C ) :   1.4198
B( 44-C , 49-S ) :   1.0654 B( 45-C , 46-S ) :   1.0662 B( 45-C , 47-C ) :   1.2683
B( 47-C , 48-C ) :   1.5007 B( 47-C , 80-H ) :   0.9968 B( 48-C , 49-S ) :   1.0901
B( 48-C , 50-C ) :   1.1287 B( 50-C , 51-C ) :   1.6485 B( 50-C , 81-H ) :   0.9682
B( 51-C , 52-C ) :   1.1696 B( 51-C , 82-H ) :   0.9684 B( 52-C , 53-C ) :   1.5600
B( 52-C , 83-H ) :   0.9832 B( 53-C , 54-C ) :   1.1377 B( 53-C , 57-S ) :   1.0315
B( 54-C , 55-C ) :   1.6024 B( 54-C , 84-H ) :   0.9991 B( 55-C , 56-C ) :   1.1746
B( 55-C , 85-H ) :   0.9931 B( 56-C , 57-S ) :   1.0354 B( 56-C , 58-C ) :   1.5534
B( 58-C , 59-C ) :   1.1519 B( 58-C , 62-S ) :   1.0463 B( 59-C , 60-C ) :   1.6616
B( 59-C , 86-H ) :   0.9922 B( 60-C , 61-C ) :   1.0794 B( 60-C , 87-H ) :   0.9933
B( 61-C , 62-S ) :   1.0071 B( 61-C , 63-C ) :   1.8649 B( 63-C , 88-H ) :   0.9508
B( 63-C , 89-H ) :   0.9416

-----------------------------------------------------------------------------
         ABSORPTION SPECTRUM VIA TRANSITION ELECTRIC DIPOLE MOMENTS
-----------------------------------------------------------------------------
State   Energy  Wavelength   fosc         T2         TX        TY        TZ
        (cm-1)    (nm)                  (au**2)     (au)      (au)      (au)
-----------------------------------------------------------------------------
   0   10489.1    953.4   1.564929725  49.11718  -1.94489  -3.36542  -5.83169
   1   14409.1    694.0   0.047500471   1.08527  -0.45818   0.03224  -0.93504
   2   17211.6    581.0   1.273237205  24.35368   1.74054   2.76844   3.69594
   3   18162.1    550.6   0.172143890   3.12033  -1.42275   1.00572  -0.29092
   4   20949.4    477.3   0.127470713   2.00315  -0.76715   1.12322  -0.39114
   5   22980.8    435.1   0.081716639   1.17063   0.12712  -0.51408  -0.94350
   6   23074.0    433.4   0.056525807   0.80649  -0.78910  -0.39706   0.16172
   7   24370.1    410.3   0.031778858   0.42930  -0.42001  -0.50009  -0.05289
   8   25403.2    393.7   0.234067960   3.03340  -0.75137  -0.15119  -1.56396
   9   26179.6    382.0   0.155390584   1.95405  -1.38115   0.01797  -0.21485
  10   26641.9    375.3   0.121616616   1.50281   0.90375  -0.57293  -0.59815
  11   27157.6    368.2   0.135594881   1.64372   0.87793  -0.88330  -0.30453
  12   27486.9    363.8   0.113009477   1.35352   0.98929  -0.61212   0.01158
  13   27764.0    360.2   0.010699242   0.12687   0.29076  -0.20412   0.02568
  14   28802.0    347.2   0.143458487   1.63976   0.80822  -0.20974  -0.97085
  15   28894.4    346.1   0.010218092   0.11642  -0.24232   0.23050  -0.06761
  16   29141.2    343.2   0.465217449   5.25563  -1.62545   1.24509   1.03117
  17   29702.9    336.7   0.004706711   0.05217  -0.06074   0.07947  -0.20533
  18   30060.8    332.7   0.037331910   0.40884  -0.03551  -0.08283  -0.63302
  19   30696.8    325.8   0.308568629   3.30929   1.50157  -0.78881  -0.65755
  20   30794.0    324.7   0.001546373   0.01653   0.08558  -0.09465  -0.01584
  21   30864.4    324.0   0.171510729   1.82940   0.93212  -0.89990  -0.38824
  22   31927.6    313.2   0.103496994   1.06718  -0.60547  -0.32432  -0.77162
  23   32147.1    311.1   0.468319636   4.79596  -0.35130  -0.85926  -1.98349
  24   33166.9    301.5   0.016311635   0.16191  -0.35801   0.04729   0.17748
  25   33370.6    299.7   0.009516990   0.09389  -0.05215  -0.09024   0.28814
  26   33829.9    295.6   0.022753236   0.22142  -0.43878   0.05656  -0.16030
  27   33925.9    294.8   0.010957696   0.10633  -0.29367   0.04948  -0.13283
  28   34139.2    292.9   0.022998731   0.22178   0.16045   0.14895   0.41696
  29   34413.2    290.6   0.109110992   1.04380   0.35917   0.22244   0.93023
  30   34506.8    289.8   0.049192080   0.46932   0.16125  -0.52093  -0.41467
  31   35082.7    285.0   0.027721177   0.26013  -0.39692   0.10508   0.30256
  32   35421.7    282.3   0.186595749   1.73424   0.35252   0.41063   1.20056
  33   35649.0    280.5   0.171975971   1.58817   0.89433  -0.86513   0.19971
  34   36038.4    277.5   0.013347465   0.12193   0.12336  -0.21786   0.24342
  35   36465.6    274.2   0.041975089   0.37895  -0.31847  -0.16006  -0.50191
  36   36661.4    272.8   0.013181811   0.11837   0.08325  -0.23285  -0.23921
  37   37173.9    269.0   0.101261280   0.89677  -0.81346   0.40341  -0.26892
  38   37480.8    266.8   0.032788627   0.28800  -0.39959   0.32167  -0.15765
  39   38033.2    262.9   0.013516224   0.11700  -0.34002  -0.02087  -0.03071
  40   38214.1    261.7   0.022033808   0.18982   0.42712  -0.03108   0.08011
  41   38911.4    257.0   0.048511466   0.41043  -0.45045   0.41923  -0.17827
  42   39066.0    256.0   0.062886991   0.52995  -0.68621   0.04484  -0.23886
  43   39246.0    254.8   0.082055204   0.68831  -0.01863  -0.41785  -0.71649
  44   39530.8    253.0   0.005935430   0.04943   0.07219  -0.16199  -0.13409
  45   39748.4    251.6   0.058031189   0.48064  -0.28256  -0.29411  -0.56062
  46   39842.8    251.0   0.009860605   0.08148   0.13385  -0.24308  -0.06686

FINAL SINGLE POINT ENERGY     -7999.194270873848

DIPOLE MOMENT
-------------
                                X             Y             Z
Electronic contribution:    -29.17389    -131.99430    -204.63865
Nuclear contribution   :     28.48634     136.19808     207.73749
                        -----------------------------------------
Total Dipole Moment    :     -0.68755       4.20378       3.09884
                        -----------------------------------------
Magnitude (a.u.)       :      5.26757
Magnitude (Debye)      :     13.38910

Rotational constants in cm-1:     0.003370     0.000158     0.000152
Rotational constants in MHz :   101.038021     4.722275     4.570572

                             ****ORCA TERMINATED NORMALLY****
TOTAL RUN TIME: 0 days 0 hours 9 minutes 11 seconds 755 msec
