                         Program Version 4.2.0 -  RELEASE  -
|  1> # ORCA input file
|  2> # SCF done       -201.477336195817          0.000708278752
|  3> ! CAM-B3LYP def2-SVP def2/J RIJCOSX Grid4 TightSCF
|  4> %maxcore 5000
|  5> %tddft
|  6>     Mode sTDDFT
|  7>     Ethresh 5.0
|  8>     maxcore 5000
|  9> end
| 10>
| 11> %pal
| 12>   nprocs 6
| 13>   end
| 14> * xyz 0 1
| 15>    C       -4.92171         4.50437         5.01316
| 16>    C       -5.59858         4.58050         3.83220
| 17>    C       -6.18182         5.77300         3.35450
| 18>    N       -6.66329         6.72815         2.93988
| 19>    C       -5.86287         3.45868         3.01506
| 20>    N       -6.13242         2.58101         2.32785
| 21>    C       -4.75037         5.55647         5.99852
| 22>    C       -4.42081         4.95817         7.24299
| 23>    C       -4.21834         5.70256         8.38021
| 24>    C       -4.30598         7.09409         8.27303
| 25>    C       -4.59697         7.68054         7.01698
| 26>    C       -4.83383         6.92944         5.87359
| 27>    S       -4.60181         9.41257         7.10563
| 28>    C       -4.26636         9.33117         8.81148
| 29>    C       -4.11923         8.07104         9.28740
| 30>   Br       -4.17388        10.91427         9.81243
| 31>    C       -4.27769         3.49958         7.06921
| 32>    O       -4.09513         2.66795         7.92656
| 33>    C       -4.36272         3.28670         5.59174
| 34>    C       -3.81961         2.26537         4.90788
| 35>    C       -3.19617         1.09246         5.52913
| 36>    S       -1.31348         1.11284         5.48342
| 37>    C       -1.80490        -0.29801         4.57887
| 38>    C       -3.13734        -0.15149         4.68128
| 39>    C       -4.28022        -0.84791         4.09393
| 40>    O       -4.27474        -1.97419         3.66358
| 41>    O       -5.33596        -0.02112         4.08913
| 42>    C       -6.59393        -0.55281         3.65776
| 43>    C       -7.33024        -1.07845         4.84774
| 44>    C       -7.58612        -0.31077         5.92297
| 45>    C       -8.18596        -0.71717         7.15962
| 46>    C       -8.34813         0.28071         8.05392
| 47>    C       -7.91551         1.55748         7.59188
| 48>    S       -7.22117         1.41877         5.98497
| 49>    C       -8.06444         2.75449         8.24005
| 50>    C       -8.62304         2.97702         9.52609
| 51>    C       -8.75807         4.28283         9.85164
| 52>    C       -8.32352         5.20591         8.85048
| 53>    S       -7.66698         4.29297         7.48868
| 54>    C       -8.42458         6.55565         8.99569
| 55>    C       -8.09988         7.61957         8.08637
| 56>    C       -7.96994         8.97245         8.48108
| 57>    N       -8.04897         9.59541         9.71893
| 58>    C       -8.04907         8.96169        11.01788
| 59>    C       -6.79592         8.12428        11.26570
| 60>    C       -7.85625        10.95193         9.54667
| 61>    C       -7.59784        11.21382         8.18314
| 62>    C       -7.71689         9.96075         7.50028
| 63>    C       -7.61286         9.65851         6.14947
| 64>    C       -7.74538         8.33941         5.76530
| 65>    C       -7.96468         7.35801         6.71578
| 66>    C       -7.25027        12.48039         7.73889
| 67>    C       -7.15356        13.49637         8.67061
| 68>    C       -7.45534        13.26167        10.00177
| 69>    C       -7.85940        12.00849        10.47422
| 70>    C       -8.35397        11.92578        11.83329
| 71>    C       -7.77151        12.53231        12.89118
| 72>    C       -8.24260        12.45945        14.23118
| 73>    C       -9.49644        12.23392        14.71341
| 74>    C      -10.81424        12.27327        14.11321
| 75>    C      -11.21310        13.05819        13.06205
| 76>    C      -12.53786        13.12007        12.58608
| 77>    N      -13.59807        13.18682        12.15087
| 78>    C      -10.36012        13.95928        12.39436
| 79>    N       -9.71887        14.73933        11.84966
| 80>    C      -11.71715        11.54226        14.99799
| 81>    C      -11.04169        11.27349        16.21481
| 82>    C       -9.65143        11.76249        16.11613
| 83>    O       -8.79689        11.74091        16.97258
| 84>    C      -11.64973        10.63981        17.27114
| 85>    C      -12.98120        10.24041        17.11416
| 86>    C      -13.64036        10.49599        15.88789
| 87>    C      -13.02926        11.14607        14.82261
| 88>    S      -15.27431         9.90535        15.90513
| 89>    C      -15.05558         9.33687        17.53950
| 90>    C      -13.82257         9.57332        18.04653
| 91>   Br      -16.47424         8.48054        18.41826
| 92>    H       -3.98193         5.22844         9.32002
| 93>    H       -5.04917         7.41140         4.93461
| 94>    H       -3.88351         7.83512        10.30886
| 95>    H       -3.78827         2.29833         3.82616
| 96>    H       -3.51417         0.94008         6.55941
| 97>    H       -1.16625        -1.01075         4.09629
| 98>    H       -6.42084        -1.33826         2.91816
| 99>    H       -7.10920         0.29878         3.20126
|100>    H       -7.58167        -2.12712         4.87265
|101>    H       -8.46878        -1.74212         7.32061
|102>    H       -8.78642         0.15577         9.02789
|103>    H       -8.91042         2.16149        10.16468
|104>    H       -9.17252         4.63490        10.78045
|105>    H       -8.86378         6.84832         9.93638
|106>    H       -8.95875         8.36715        11.14919
|107>    H       -8.06395         9.75220        11.76771
|108>    H       -6.64267         7.38593        10.48276
|109>    H       -6.88593         7.60916        12.21863
|110>    H       -5.93021         8.77981        11.30936
|111>    H       -7.44067        10.44067         5.42740
|112>    H       -7.68760         8.06418         4.72358
|113>    H       -8.09150         6.34342         6.37571
|114>    H       -7.05178        12.65745         6.69341
|115>    H       -6.86986        14.49002         8.36134
|116>    H       -7.45681        14.08690        10.69585
|117>    H       -9.26980        11.36506        11.98625
|118>    H       -6.80930        13.00557        12.75048
|119>    H       -7.47709        12.50781        15.00074
|120>    H      -11.11610        10.45859        18.19088
|121>    H      -13.56958        11.31656        13.90605
|122>    H      -13.51676         9.29037        19.03717
|123> *
|124>
|125>                          ****END OF INPUT****

CARTESIAN COORDINATES (ANGSTROEM)
---------------------------------
  C     -4.921710    4.504370    5.013160
  C     -5.598580    4.580500    3.832200
  C     -6.181820    5.773000    3.354500
  N     -6.663290    6.728150    2.939880
  C     -5.862870    3.458680    3.015060
  N     -6.132420    2.581010    2.327850
  C     -4.750370    5.556470    5.998520
  C     -4.420810    4.958170    7.242990
  C     -4.218340    5.702560    8.380210
  C     -4.305980    7.094090    8.273030
  C     -4.596970    7.680540    7.016980
  C     -4.833830    6.929440    5.873590
  S     -4.601810    9.412570    7.105630
  C     -4.266360    9.331170    8.811480
  C     -4.119230    8.071040    9.287400
  Br    -4.173880   10.914270    9.812430
  C     -4.277690    3.499580    7.069210
  O     -4.095130    2.667950    7.926560
  C     -4.362720    3.286700    5.591740
  C     -3.819610    2.265370    4.907880
  C     -3.196170    1.092460    5.529130
  S     -1.313480    1.112840    5.483420
  C     -1.804900   -0.298010    4.578870
  C     -3.137340   -0.151490    4.681280
  C     -4.280220   -0.847910    4.093930
  O     -4.274740   -1.974190    3.663580
  O     -5.335960   -0.021120    4.089130
  C     -6.593930   -0.552810    3.657760
  C     -7.330240   -1.078450    4.847740
  C     -7.586120   -0.310770    5.922970
  C     -8.185960   -0.717170    7.159620
  C     -8.348130    0.280710    8.053920
  C     -7.915510    1.557480    7.591880
  S     -7.221170    1.418770    5.984970
  C     -8.064440    2.754490    8.240050
  C     -8.623040    2.977020    9.526090
  C     -8.758070    4.282830    9.851640
  C     -8.323520    5.205910    8.850480
  S     -7.666980    4.292970    7.488680
  C     -8.424580    6.555650    8.995690
  C     -8.099880    7.619570    8.086370
  C     -7.969940    8.972450    8.481080
  N     -8.048970    9.595410    9.718930
  C     -8.049070    8.961690   11.017880
  C     -6.795920    8.124280   11.265700
  C     -7.856250   10.951930    9.546670
  C     -7.597840   11.213820    8.183140
  C     -7.716890    9.960750    7.500280
  C     -7.612860    9.658510    6.149470
  C     -7.745380    8.339410    5.765300
  C     -7.964680    7.358010    6.715780
  C     -7.250270   12.480390    7.738890
  C     -7.153560   13.496370    8.670610
  C     -7.455340   13.261670   10.001770
  C     -7.859400   12.008490   10.474220
  C     -8.353970   11.925780   11.833290
  C     -7.771510   12.532310   12.891180
  C     -8.242600   12.459450   14.231180
  C     -9.496440   12.233920   14.713410
  C    -10.814240   12.273270   14.113210
  C    -11.213100   13.058190   13.062050
  C    -12.537860   13.120070   12.586080
  N    -13.598070   13.186820   12.150870
  C    -10.360120   13.959280   12.394360
  N     -9.718870   14.739330   11.849660
  C    -11.717150   11.542260   14.997990
  C    -11.041690   11.273490   16.214810
  C     -9.651430   11.762490   16.116130
  O     -8.796890   11.740910   16.972580
  C    -11.649730   10.639810   17.271140
  C    -12.981200   10.240410   17.114160
  C    -13.640360   10.495990   15.887890
  C    -13.029260   11.146070   14.822610
  S    -15.274310    9.905350   15.905130
  C    -15.055580    9.336870   17.539500
  C    -13.822570    9.573320   18.046530
  Br   -16.474240    8.480540   18.418260
  H     -3.981930    5.228440    9.320020
  H     -5.049170    7.411400    4.934610
  H     -3.883510    7.835120   10.308860
  H     -3.788270    2.298330    3.826160
  H     -3.514170    0.940080    6.559410
  H     -1.166250   -1.010750    4.096290
  H     -6.420840   -1.338260    2.918160
  H     -7.109200    0.298780    3.201260
  H     -7.581670   -2.127120    4.872650
  H     -8.468780   -1.742120    7.320610
  H     -8.786420    0.155770    9.027890
  H     -8.910420    2.161490   10.164680
  H     -9.172520    4.634900   10.780450
  H     -8.863780    6.848320    9.936380
  H     -8.958750    8.367150   11.149190
  H     -8.063950    9.752200   11.767710
  H     -6.642670    7.385930   10.482760
  H     -6.885930    7.609160   12.218630
  H     -5.930210    8.779810   11.309360
  H     -7.440670   10.440670    5.427400
  H     -7.687600    8.064180    4.723580
  H     -8.091500    6.343420    6.375710
  H     -7.051780   12.657450    6.693410
  H     -6.869860   14.490020    8.361340
  H     -7.456810   14.086900   10.695850
  H     -9.269800   11.365060   11.986250
  H     -6.809300   13.005570   12.750480
  H     -7.477090   12.507810   15.000740
  H    -11.116100   10.458590   18.190880
  H    -13.569580   11.316560   13.906050
  H    -13.516760    9.290370   19.037170

 Total Charge           Charge          ....    0
 Multiplicity           Mult            ....    1
 Number of Electrons    NEL             ....  614
 Basis Dimension        Dim             .... 1289

ORBITAL ENERGIES
----------------

  NO   OCC          E(Eh)            E(eV)
   0   2.0000    -482.888868    -13140.0741
   1   2.0000    -482.887667    -13140.0414
   2   2.0000     -88.979128     -2421.2452
   3   2.0000     -88.975495     -2421.1463
   4   2.0000     -88.950125     -2420.4560
   5   2.0000     -88.943794     -2420.2837
   6   2.0000     -88.942483     -2420.2480
   7   2.0000     -62.566586     -1702.5234
   8   2.0000     -62.564856     -1702.4763
   9   2.0000     -56.400541     -1534.7368
  10   2.0000     -56.398858     -1534.6909
  11   2.0000     -56.397816     -1534.6626
  12   2.0000     -56.397787     -1534.6618
  13   2.0000     -56.396091     -1534.6157
  14   2.0000     -56.396065     -1534.6150
  15   2.0000     -19.255989      -523.9821
  16   2.0000     -19.221862      -523.0535
  17   2.0000     -19.217227      -522.9273
  18   2.0000     -19.197090      -522.3794
  19   2.0000     -14.461523      -393.5181
  20   2.0000     -14.421793      -392.4369
  21   2.0000     -14.418438      -392.3456
  22   2.0000     -14.418039      -392.3348
  23   2.0000     -14.417306      -392.3148
  24   2.0000     -10.397120      -282.9200
  25   2.0000     -10.372638      -282.2538
  26   2.0000     -10.368321      -282.1364
  27   2.0000     -10.362476      -281.9773
  28   2.0000     -10.358265      -281.8627
  29   2.0000     -10.346488      -281.5422
  30   2.0000     -10.346244      -281.5356
  31   2.0000     -10.345499      -281.5153
  32   2.0000     -10.343650      -281.4650
  33   2.0000     -10.329811      -281.0885
  34   2.0000     -10.324592      -280.9464
  35   2.0000     -10.324558      -280.9455
  36   2.0000     -10.321089      -280.8511
  37   2.0000     -10.320870      -280.8452
  38   2.0000     -10.320759      -280.8421
  39   2.0000     -10.320203      -280.8270
  40   2.0000     -10.319576      -280.8099
  41   2.0000     -10.318324      -280.7759
  42   2.0000     -10.317901      -280.7644
  43   2.0000     -10.317888      -280.7640
  44   2.0000     -10.317332      -280.7489
  45   2.0000     -10.313375      -280.6412
  46   2.0000     -10.312811      -280.6259
  47   2.0000     -10.311756      -280.5971
  48   2.0000     -10.311410      -280.5877
  49   2.0000     -10.310902      -280.5739
  50   2.0000     -10.310599      -280.5657
  51   2.0000     -10.310126      -280.5528
  52   2.0000     -10.309883      -280.5462
  53   2.0000     -10.308092      -280.4974
  54   2.0000     -10.307367      -280.4777
  55   2.0000     -10.307251      -280.4746
  56   2.0000     -10.306848      -280.4636
  57   2.0000     -10.306427      -280.4521
  58   2.0000     -10.305284      -280.4210
  59   2.0000     -10.301261      -280.3116
  60   2.0000     -10.300373      -280.2874
  61   2.0000     -10.300222      -280.2833
  62   2.0000     -10.298712      -280.2422
  63   2.0000     -10.296591      -280.1845
  64   2.0000     -10.296223      -280.1745
  65   2.0000     -10.294291      -280.1219
  66   2.0000     -10.290615      -280.0219
  67   2.0000     -10.289184      -279.9829
  68   2.0000     -10.288305      -279.9590
  69   2.0000     -10.288185      -279.9557
  70   2.0000     -10.287083      -279.9257
  71   2.0000     -10.285856      -279.8924
  72   2.0000     -10.285374      -279.8793
  73   2.0000     -10.285024      -279.8697
  74   2.0000     -10.283614      -279.8314
  75   2.0000     -10.275207      -279.6026
  76   2.0000     -10.273534      -279.5571
  77   2.0000     -10.271503      -279.5018
  78   2.0000     -10.270349      -279.4704
  79   2.0000     -10.269415      -279.4450
  80   2.0000     -10.267630      -279.3964
  81   2.0000     -10.267022      -279.3799
  82   2.0000     -10.266859      -279.3754
  83   2.0000     -10.263404      -279.2814
  84   2.0000     -10.258233      -279.1407
  85   2.0000      -8.796018      -239.3518
  86   2.0000      -8.794102      -239.2997
  87   2.0000      -8.075189      -219.7371
  88   2.0000      -8.070249      -219.6026
  89   2.0000      -8.044917      -218.9133
  90   2.0000      -8.039684      -218.7709
  91   2.0000      -8.038074      -218.7271
  92   2.0000      -6.632343      -180.4752
  93   2.0000      -6.630334      -180.4206
  94   2.0000      -6.617748      -180.0781
  95   2.0000      -6.617523      -180.0720
  96   2.0000      -6.615929      -180.0286
  97   2.0000      -6.615605      -180.0198
  98   2.0000      -6.044859      -164.4890
  99   2.0000      -6.040612      -164.3734
 100   2.0000      -6.040017      -164.3572
 101   2.0000      -6.036394      -164.2586
 102   2.0000      -6.035666      -164.2388
 103   2.0000      -6.031590      -164.1279
 104   2.0000      -6.014796      -163.6709
 105   2.0000      -6.010766      -163.5613
 106   2.0000      -6.009450      -163.5254
 107   2.0000      -6.007938      -163.4843
 108   2.0000      -6.006416      -163.4429
 109   2.0000      -6.005788      -163.4258
 110   2.0000      -6.003946      -163.3757
 111   2.0000      -5.999478      -163.2541
 112   2.0000      -5.998745      -163.2342
 113   2.0000      -2.748221       -74.7829
 114   2.0000      -2.746216       -74.7283
 115   2.0000      -2.744091       -74.6705
 116   2.0000      -2.743968       -74.6672
 117   2.0000      -2.742243       -74.6202
 118   2.0000      -2.741946       -74.6122
 119   2.0000      -2.732357       -74.3512
 120   2.0000      -2.732344       -74.3509
 121   2.0000      -2.730517       -74.3011
 122   2.0000      -2.730506       -74.3008
 123   2.0000      -1.185492       -32.2589
 124   2.0000      -1.136902       -30.9367
 125   2.0000      -1.132354       -30.8129
 126   2.0000      -1.092325       -29.7237
 127   2.0000      -1.086460       -29.5641
 128   2.0000      -1.026602       -27.9353
 129   2.0000      -1.024985       -27.8913
 130   2.0000      -1.016327       -27.6557
 131   2.0000      -1.015152       -27.6237
 132   2.0000      -0.998646       -27.1746
 133   2.0000      -0.996887       -27.1267
 134   2.0000      -0.994261       -27.0552
 135   2.0000      -0.993872       -27.0446
 136   2.0000      -0.992761       -27.0144
 137   2.0000      -0.987890       -26.8819
 138   2.0000      -0.971817       -26.4445
 139   2.0000      -0.955137       -25.9906
 140   2.0000      -0.949041       -25.8247
 141   2.0000      -0.946308       -25.7504
 142   2.0000      -0.943479       -25.6734
 143   2.0000      -0.923431       -25.1278
 144   2.0000      -0.911797       -24.8113
 145   2.0000      -0.910715       -24.7818
 146   2.0000      -0.903690       -24.5907
 147   2.0000      -0.898643       -24.4533
 148   2.0000      -0.892065       -24.2743
 149   2.0000      -0.889721       -24.2105
 150   2.0000      -0.886748       -24.1296
 151   2.0000      -0.882728       -24.0202
 152   2.0000      -0.873308       -23.7639
 153   2.0000      -0.860767       -23.4227
 154   2.0000      -0.859750       -23.3950
 155   2.0000      -0.853918       -23.2363
 156   2.0000      -0.840171       -22.8622
 157   2.0000      -0.833637       -22.6844
 158   2.0000      -0.829901       -22.5827
 159   2.0000      -0.829211       -22.5640
 160   2.0000      -0.827400       -22.5147
 161   2.0000      -0.821162       -22.3450
 162   2.0000      -0.807772       -21.9806
 163   2.0000      -0.803652       -21.8685
 164   2.0000      -0.793391       -21.5893
 165   2.0000      -0.786793       -21.4097
 166   2.0000      -0.775653       -21.1066
 167   2.0000      -0.763083       -20.7645
 168   2.0000      -0.760500       -20.6943
 169   2.0000      -0.759521       -20.6676
 170   2.0000      -0.745257       -20.2795
 171   2.0000      -0.742090       -20.1933
 172   2.0000      -0.722989       -19.6735
 173   2.0000      -0.717412       -19.5218
 174   2.0000      -0.709595       -19.3090
 175   2.0000      -0.699682       -19.0393
 176   2.0000      -0.698894       -19.0179
 177   2.0000      -0.696273       -18.9465
 178   2.0000      -0.693135       -18.8612
 179   2.0000      -0.690783       -18.7971
 180   2.0000      -0.685304       -18.6481
 181   2.0000      -0.673951       -18.3391
 182   2.0000      -0.667985       -18.1768
 183   2.0000      -0.665132       -18.0991
 184   2.0000      -0.663895       -18.0655
 185   2.0000      -0.657665       -17.8960
 186   2.0000      -0.653314       -17.7776
 187   2.0000      -0.644507       -17.5379
 188   2.0000      -0.633487       -17.2381
 189   2.0000      -0.629204       -17.1215
 190   2.0000      -0.626923       -17.0594
 191   2.0000      -0.626286       -17.0421
 192   2.0000      -0.624133       -16.9835
 193   2.0000      -0.619335       -16.8530
 194   2.0000      -0.616228       -16.7684
 195   2.0000      -0.606669       -16.5083
 196   2.0000      -0.605039       -16.4640
 197   2.0000      -0.601997       -16.3812
 198   2.0000      -0.598909       -16.2971
 199   2.0000      -0.597477       -16.2582
 200   2.0000      -0.593727       -16.1561
 201   2.0000      -0.586561       -15.9611
 202   2.0000      -0.585490       -15.9320
 203   2.0000      -0.576159       -15.6781
 204   2.0000      -0.570545       -15.5253
 205   2.0000      -0.565697       -15.3934
 206   2.0000      -0.561066       -15.2674
 207   2.0000      -0.557161       -15.1611
 208   2.0000      -0.556139       -15.1333
 209   2.0000      -0.552589       -15.0367
 210   2.0000      -0.548983       -14.9386
 211   2.0000      -0.546083       -14.8597
 212   2.0000      -0.544653       -14.8208
 213   2.0000      -0.542560       -14.7638
 214   2.0000      -0.541199       -14.7268
 215   2.0000      -0.538121       -14.6430
 216   2.0000      -0.534709       -14.5502
 217   2.0000      -0.533069       -14.5056
 218   2.0000      -0.532520       -14.4906
 219   2.0000      -0.529422       -14.4063
 220   2.0000      -0.526031       -14.3140
 221   2.0000      -0.521858       -14.2005
 222   2.0000      -0.518330       -14.1045
 223   2.0000      -0.517749       -14.0887
 224   2.0000      -0.516184       -14.0461
 225   2.0000      -0.511293       -13.9130
 226   2.0000      -0.510690       -13.8966
 227   2.0000      -0.509348       -13.8601
 228   2.0000      -0.505176       -13.7465
 229   2.0000      -0.504269       -13.7219
 230   2.0000      -0.503080       -13.6895
 231   2.0000      -0.502261       -13.6672
 232   2.0000      -0.499212       -13.5842
 233   2.0000      -0.497591       -13.5401
 234   2.0000      -0.495488       -13.4829
 235   2.0000      -0.492495       -13.4015
 236   2.0000      -0.490749       -13.3540
 237   2.0000      -0.489700       -13.3254
 238   2.0000      -0.486639       -13.2421
 239   2.0000      -0.485668       -13.2157
 240   2.0000      -0.479669       -13.0525
 241   2.0000      -0.477281       -12.9875
 242   2.0000      -0.477016       -12.9803
 243   2.0000      -0.475620       -12.9423
 244   2.0000      -0.470202       -12.7948
 245   2.0000      -0.468070       -12.7368
 246   2.0000      -0.463479       -12.6119
 247   2.0000      -0.462231       -12.5779
 248   2.0000      -0.460912       -12.5421
 249   2.0000      -0.458544       -12.4776
 250   2.0000      -0.456285       -12.4161
 251   2.0000      -0.454076       -12.3560
 252   2.0000      -0.452528       -12.3139
 253   2.0000      -0.450071       -12.2471
 254   2.0000      -0.449311       -12.2264
 255   2.0000      -0.448922       -12.2158
 256   2.0000      -0.446869       -12.1599
 257   2.0000      -0.443590       -12.0707
 258   2.0000      -0.443188       -12.0598
 259   2.0000      -0.442600       -12.0438
 260   2.0000      -0.439062       -11.9475
 261   2.0000      -0.437618       -11.9082
 262   2.0000      -0.436983       -11.8909
 263   2.0000      -0.435249       -11.8437
 264   2.0000      -0.433497       -11.7961
 265   2.0000      -0.430257       -11.7079
 266   2.0000      -0.428627       -11.6635
 267   2.0000      -0.427845       -11.6422
 268   2.0000      -0.426071       -11.5940
 269   2.0000      -0.424764       -11.5584
 270   2.0000      -0.421694       -11.4749
 271   2.0000      -0.419272       -11.4090
 272   2.0000      -0.416473       -11.3328
 273   2.0000      -0.415521       -11.3069
 274   2.0000      -0.413155       -11.2425
 275   2.0000      -0.411302       -11.1921
 276   2.0000      -0.407100       -11.0778
 277   2.0000      -0.403231       -10.9725
 278   2.0000      -0.398353       -10.8397
 279   2.0000      -0.396567       -10.7911
 280   2.0000      -0.394509       -10.7351
 281   2.0000      -0.393672       -10.7124
 282   2.0000      -0.387451       -10.5431
 283   2.0000      -0.378238       -10.2924
 284   2.0000      -0.376770       -10.2524
 285   2.0000      -0.374890       -10.2013
 286   2.0000      -0.372606       -10.1391
 287   2.0000      -0.367871       -10.0103
 288   2.0000      -0.363369        -9.8878
 289   2.0000      -0.358741        -9.7618
 290   2.0000      -0.347470        -9.4551
 291   2.0000      -0.343795        -9.3551
 292   2.0000      -0.341178        -9.2839
 293   2.0000      -0.337907        -9.1949
 294   2.0000      -0.335992        -9.1428
 295   2.0000      -0.330102        -8.9825
 296   2.0000      -0.324179        -8.8214
 297   2.0000      -0.319098        -8.6831
 298   2.0000      -0.313933        -8.5425
 299   2.0000      -0.309791        -8.4299
 300   2.0000      -0.300442        -8.1754
 301   2.0000      -0.296349        -8.0641
 302   2.0000      -0.294211        -8.0059
 303   2.0000      -0.290716        -7.9108
 304   2.0000      -0.274934        -7.4813
 305   2.0000      -0.265207        -7.2166
 306   2.0000      -0.222204        -6.0465
 307   0.0000      -0.093853        -2.5539
 308   0.0000      -0.082897        -2.2557
 309   0.0000      -0.064174        -1.7463
 310   0.0000      -0.060114        -1.6358
 311   0.0000      -0.054364        -1.4793

MULLIKEN ATOMIC CHARGES
-----------------------
   0 C :    0.259390
   1 C :   -0.327163
   2 C :   -0.161082
   3 N :    0.147850
   4 C :   -0.182192
   5 N :    0.159542
   6 C :    0.010939
   7 C :    0.024939
   8 C :   -0.083570
   9 C :    0.121876
  10 C :   -0.077824
  11 C :   -0.011599
  12 S :    0.192375
  13 C :   -0.128774
  14 C :    0.036988
  15 Br:    0.031919
  16 C :    0.138498
  17 O :   -0.139871
  18 C :   -0.058437
  19 C :    0.055272
  20 C :   -0.118571
  21 S :    0.052929
  22 C :   -0.023937
  23 C :   -0.035408
  24 C :    0.213592
  25 O :   -0.198078
  26 O :   -0.317218
  27 C :    0.284104
  28 C :   -0.166581
  29 C :    0.011190
  30 C :    0.051119
  31 C :    0.031485
  32 C :   -0.044220
  33 S :    0.076316
  34 C :   -0.051669
  35 C :    0.039277
  36 C :    0.026597
  37 C :   -0.020735
  38 S :    0.055638
  39 C :   -0.074388
  40 C :    0.066148
  41 C :    0.097188
  42 N :   -0.194690
  43 C :    0.093022
  44 C :   -0.005063
  45 C :    0.109044
  46 C :    0.043928
  47 C :    0.083308
  48 C :   -0.055574
  49 C :    0.005894
  50 C :   -0.046260
  51 C :   -0.042048
  52 C :    0.033095
  53 C :   -0.020137
  54 C :   -0.010633
  55 C :   -0.016105
  56 C :   -0.010190
  57 C :    0.042160
  58 C :   -0.123001
  59 C :    0.257663
  60 C :   -0.331191
  61 C :   -0.178583
  62 N :    0.155942
  63 C :   -0.188740
  64 N :    0.172035
  65 C :   -0.001336
  66 C :    0.006626
  67 C :    0.132114
  68 O :   -0.143267
  69 C :   -0.076320
  70 C :    0.115643
  71 C :   -0.087883
  72 C :   -0.024636
  73 S :    0.187006
  74 C :   -0.125661
  75 C :    0.041004
  76 Br:    0.025734
  77 H :   -0.013364
  78 H :   -0.006534
  79 H :   -0.002941
  80 H :    0.027483
  81 H :    0.095514
  82 H :    0.032145
  83 H :    0.033132
  84 H :    0.050812
  85 H :    0.004875
  86 H :   -0.009486
  87 H :   -0.013698
  88 H :   -0.014857
  89 H :   -0.017950
  90 H :   -0.036888
  91 H :    0.031267
  92 H :    0.019373
  93 H :    0.052767
  94 H :    0.016305
  95 H :    0.016951
  96 H :   -0.030012
  97 H :   -0.011772
  98 H :   -0.019871
  99 H :   -0.028733
 100 H :   -0.018222
 101 H :   -0.002806
 102 H :    0.038053
 103 H :    0.007203
 104 H :    0.029835
 105 H :   -0.008995
 106 H :   -0.003038
 107 H :   -0.003307
Sum of atomic charges:   -0.0000000

LOEWDIN ATOMIC CHARGES
----------------------
   0 C :    0.080251
   1 C :   -0.136972
   2 C :   -0.008624
   3 N :   -0.051769
   4 C :   -0.016735
   5 N :   -0.047960
   6 C :   -0.026120
   7 C :   -0.052985
   8 C :    0.021245
   9 C :   -0.031239
  10 C :   -0.139311
  11 C :   -0.001525
  12 S :    0.471754
  13 C :   -0.273381
  14 C :   -0.071718
  15 Br:    0.149452
  16 C :    0.083256
  17 O :   -0.131587
  18 C :   -0.080647
  19 C :    0.062030
  20 C :   -0.069432
  21 S :    0.291174
  22 C :   -0.077369
  23 C :   -0.125434
  24 C :    0.077105
  25 O :   -0.176293
  26 O :   -0.086570
  27 C :    0.082536
  28 C :   -0.080498
  29 C :   -0.131299
  30 C :   -0.027347
  31 C :   -0.026535
  32 C :   -0.174691
  33 S :    0.369321
  34 C :   -0.179045
  35 C :   -0.034346
  36 C :   -0.032621
  37 C :   -0.143872
  38 S :    0.382885
  39 C :   -0.056910
  40 C :   -0.058111
  41 C :    0.031654
  42 N :    0.019849
  43 C :    0.039222
  44 C :   -0.063319
  45 C :    0.038184
  46 C :   -0.048715
  47 C :   -0.048378
  48 C :   -0.020812
  49 C :   -0.042010
  50 C :   -0.019893
  51 C :   -0.000786
  52 C :   -0.041997
  53 C :    0.004924
  54 C :   -0.069996
  55 C :    0.038005
  56 C :   -0.047841
  57 C :    0.070323
  58 C :   -0.097723
  59 C :    0.065297
  60 C :   -0.140854
  61 C :   -0.020926
  62 N :   -0.050749
  63 C :   -0.011655
  64 N :   -0.040544
  65 C :   -0.019538
  66 C :   -0.053120
  67 C :    0.082332
  68 O :   -0.144054
  69 C :    0.022313
  70 C :   -0.033438
  71 C :   -0.143300
  72 C :   -0.012912
  73 S :    0.432610
  74 C :   -0.271284
  75 C :   -0.070120
  76 Br:    0.138031
  77 H :    0.039986
  78 H :    0.039206
  79 H :    0.035883
  80 H :    0.042339
  81 H :    0.045064
  82 H :    0.027376
  83 H :    0.029711
  84 H :    0.032066
  85 H :    0.032352
  86 H :    0.034858
  87 H :    0.031926
  88 H :    0.031951
  89 H :    0.030977
  90 H :    0.029058
  91 H :    0.019828
  92 H :    0.034464
  93 H :    0.028062
  94 H :    0.030173
  95 H :    0.022227
  96 H :    0.027160
  97 H :    0.028279
  98 H :    0.010349
  99 H :    0.029275
 100 H :    0.029368
 101 H :    0.031376
 102 H :    0.032589
 103 H :    0.036068
 104 H :    0.047633
 105 H :    0.041565
 106 H :    0.040990
 107 H :    0.039001

  Mayer bond orders larger than 0.100000
B(  0-C ,  1-C ) :   1.6887 B(  0-C ,  6-C ) :   1.0112 B(  0-C , 18-C ) :   1.0063
B(  1-C ,  2-C ) :   1.1363 B(  1-C ,  4-C ) :   1.1421 B(  2-C ,  3-N ) :   2.9356
B(  4-C ,  5-N ) :   2.9739 B(  6-C ,  7-C ) :   1.2676 B(  6-C , 11-C ) :   1.4131
B(  7-C ,  8-C ) :   1.4200 B(  7-C , 16-C ) :   0.9330 B(  8-C ,  9-C ) :   1.2439
B(  8-C , 77-H ) :   1.0163 B(  9-C , 10-C ) :   1.3037 B(  9-C , 14-C ) :   1.1703
B( 10-C , 11-C ) :   1.3189 B( 10-C , 12-S ) :   1.0976 B( 11-C , 78-H ) :   0.9866
B( 12-S , 13-C ) :   1.1070 B( 13-C , 14-C ) :   1.6001 B( 13-C , 15-Br) :   1.0260
B( 14-C , 79-H ) :   0.9960 B( 16-C , 17-O ) :   2.2250 B( 16-C , 18-C ) :   0.9191
B( 18-C , 19-C ) :   1.7422 B( 19-C , 20-C ) :   0.9731 B( 19-C , 80-H ) :   0.9567
B( 20-C , 21-S ) :   0.9878 B( 20-C , 23-C ) :   0.9512 B( 20-C , 81-H ) :   0.9078
B( 21-S , 22-C ) :   1.0784 B( 22-C , 23-C ) :   1.7087 B( 22-C , 82-H ) :   1.0078
B( 23-C , 24-C ) :   0.9635 B( 24-C , 25-O ) :   2.1571 B( 24-C , 26-O ) :   1.1906
B( 26-O , 27-C ) :   0.8985 B( 27-C , 28-C ) :   1.0680 B( 27-C , 83-H ) :   0.9248
B( 27-C , 84-H ) :   0.9301 B( 28-C , 29-C ) :   1.7598 B( 28-C , 85-H ) :   0.9666
B( 29-C , 30-C ) :   1.0933 B( 29-C , 33-S ) :   1.0240 B( 30-C , 31-C ) :   1.6600
B( 30-C , 86-H ) :   0.9960 B( 31-C , 32-C ) :   1.1463 B( 31-C , 87-H ) :   0.9907
B( 32-C , 33-S ) :   1.0309 B( 32-C , 34-C ) :   1.5790 B( 34-C , 35-C ) :   1.1514
B( 34-C , 38-S ) :   1.0257 B( 35-C , 36-C ) :   1.6296 B( 35-C , 88-H ) :   0.9903
B( 36-C , 37-C ) :   1.1117 B( 36-C , 89-H ) :   0.9959 B( 37-C , 38-S ) :   1.0241
B( 37-C , 39-C ) :   1.6473 B( 39-C , 40-C ) :   1.0546 B( 39-C , 90-H ) :   0.9619
B( 40-C , 41-C ) :   1.2701 B( 40-C , 50-C ) :   1.3675 B( 41-C , 42-N ) :   1.1243
B( 41-C , 47-C ) :   1.3140 B( 42-N , 43-C ) :   0.9569 B( 42-N , 45-C ) :   1.1495
B( 43-C , 44-C ) :   1.1097 B( 43-C , 91-H ) :   0.9435 B( 43-C , 92-H ) :   0.9277
B( 44-C , 93-H ) :   0.9588 B( 44-C , 94-H ) :   0.9567 B( 44-C , 95-H ) :   0.9546
B( 45-C , 46-C ) :   1.2846 B( 45-C , 54-C ) :   1.2712 B( 46-C , 47-C ) :   1.0737
B( 46-C , 51-C ) :   1.3433 B( 47-C , 48-C ) :   1.3003 B( 48-C , 49-C ) :   1.3740
B( 48-C , 96-H ) :   1.0117 B( 49-C , 50-C ) :   1.3463 B( 49-C , 97-H ) :   0.9787
B( 50-C , 98-H ) :   0.9748 B( 51-C , 52-C ) :   1.3671 B( 51-C , 99-H ) :   1.0019
B( 52-C , 53-C ) :   1.3576 B( 52-C ,100-H ) :   0.9857 B( 53-C , 54-C ) :   1.3992
B( 53-C ,101-H ) :   0.9808 B( 54-C , 55-C ) :   1.0581 B( 55-C , 56-C ) :   1.6921
B( 55-C ,102-H ) :   0.9456 B( 56-C , 57-C ) :   1.1381 B( 56-C ,103-H ) :   0.9610
B( 57-C , 58-C ) :   1.6693 B( 57-C ,104-H ) :   0.9312 B( 58-C , 59-C ) :   1.0300
B( 58-C , 67-C ) :   0.9471 B( 59-C , 60-C ) :   1.6527 B( 59-C , 65-C ) :   1.0118
B( 60-C , 61-C ) :   1.1270 B( 60-C , 63-C ) :   1.1642 B( 61-C , 62-N ) :   2.9877
B( 63-C , 64-N ) :   2.9926 B( 65-C , 66-C ) :   1.2752 B( 65-C , 72-C ) :   1.4121
B( 66-C , 67-C ) :   0.9185 B( 66-C , 69-C ) :   1.4236 B( 67-C , 68-O ) :   2.2667
B( 69-C , 70-C ) :   1.2513 B( 69-C ,105-H ) :   1.0167 B( 70-C , 71-C ) :   1.3059
B( 70-C , 75-C ) :   1.1619 B( 71-C , 72-C ) :   1.3285 B( 71-C , 73-S ) :   1.0851
B( 72-C ,106-H ) :   0.9841 B( 73-S , 74-C ) :   1.0871 B( 74-C , 75-C ) :   1.6198
B( 74-C , 76-Br) :   1.0204 B( 75-C ,107-H ) :   1.0005

-----------------------------------------------------------------------------
         ABSORPTION SPECTRUM VIA TRANSITION ELECTRIC DIPOLE MOMENTS
-----------------------------------------------------------------------------
State   Energy  Wavelength   fosc         T2         TX        TY        TZ
        (cm-1)    (nm)                  (au**2)     (au)      (au)      (au)
-----------------------------------------------------------------------------
   0   13404.4    746.0   0.006534202   0.16048   0.05406   0.39152  -0.06534
   1   16651.7    600.5   0.181688471   3.59207   0.75005  -1.12103  -1.33146
   2   18682.8    535.3   0.012776017   0.22513   0.44705   0.04286  -0.15310
   3   19917.1    502.1   1.145659237  18.93670  -0.58406   4.05917   1.45558
   4   21153.4    472.7   0.196180108   3.05317   1.15773   0.59455  -1.16590
   5   24492.5    408.3   0.010034971   0.13488  -0.02157  -0.17285  -0.32333
   6   24853.1    402.4   0.014224093   0.18842   0.05435  -0.33123  -0.27523
   7   25053.5    399.1   0.014033776   0.18441   0.03062   0.03891   0.42656
   8   25575.0    391.0   0.082309192   1.05952  -0.25727   0.91587   0.39309
   9   26631.2    375.5   0.139336722   1.72246   0.59836  -1.15013  -0.20402
  10   27455.2    364.2   0.193661717   2.32217  -0.73577  -1.05570   0.81627
  11   28263.2    353.8   0.071583383   0.83381   0.84151  -0.32704   0.13683
  12   28759.3    347.7   0.040605465   0.46482   0.20228   0.44555   0.47475
  13   28954.9    345.4   0.146192895   1.66219  -0.37138  -0.88630  -0.85950
  14   29084.0    343.8   0.147754870   1.67249   0.20134   0.68883   1.07586
  15   29525.7    338.7   0.138073643   1.53952   0.95696   0.26128  -0.74532
  16   30470.8    328.2   0.050482654   0.54542   0.33065   0.22123  -0.62221
  17   30531.8    327.5   0.372662437   4.01827  -0.87096  -0.26754   1.78553
  18   30752.1    325.2   0.029168904   0.31226  -0.13136   0.13690   0.52561
  19   30803.7    324.6   0.013793015   0.14741   0.03336  -0.07478  -0.37511
  20   31045.6    322.1   0.012095877   0.12827  -0.27948   0.22388   0.00577
  21   31102.7    321.5   0.019739409   0.20894  -0.32000  -0.22948   0.23211
  22   31622.6    316.2   0.009956345   0.10365   0.11055  -0.05892  -0.29658
  23   31940.8    313.1   0.135570174   1.39732  -0.10984  -0.95590  -0.68666
  24   32047.0    312.0   0.021550787   0.22139   0.04817  -0.30685  -0.35342
  25   32357.2    309.1   0.122577835   1.24714   0.30771   0.68806   0.82403
  26   32571.2    307.0   0.143069425   1.44607   0.07965  -0.75158  -0.93534
  27   32974.4    303.3   0.052663809   0.52579   0.32000  -0.18576  -0.62361
  28   33229.0    300.9   0.016138212   0.15989  -0.23322   0.31828  -0.06474
  29   33438.2    299.1   0.011841856   0.11659   0.12934  -0.15000   0.27814
  30   33727.5    296.5   0.498445807   4.86530   0.77038   1.20663  -1.67805
  31   33997.5    294.1   0.076199835   0.73787  -0.06913   0.15122  -0.84275
  32   34325.8    291.3   0.126952256   1.21757   0.49824   0.96427   0.19880
  33   34464.0    290.2   0.053474344   0.51081   0.17028  -0.14638  -0.67851
  34   34553.9    289.4   0.111087907   1.05839  -0.16535  -0.52781  -0.86745
  35   34773.0    287.6   0.018802281   0.17801  -0.06635  -0.13516   0.39413
  36   34969.4    286.0   0.021288889   0.20042   0.08529  -0.03623   0.43799
  37   35284.8    283.4   0.101292186   0.94507   0.43818  -0.18410   0.84804
  38   35527.7    281.5   0.036508850   0.33830   0.51263  -0.19671  -0.19189
  39   35551.4    281.3   0.084281543   0.78046  -0.40371   0.53833  -0.57243
  40   35625.0    280.7   0.015155461   0.14005  -0.32252   0.03862  -0.18585
  41   35822.3    279.2   0.035242574   0.32388  -0.03974   0.08943  -0.56063
  42   36252.6    275.8   0.057843227   0.52528  -0.48601  -0.16154   0.51281
  43   36657.7    272.8   0.078324499   0.70341   0.11296   0.09724  -0.82535
  44   36977.2    270.4   0.047887405   0.42635   0.59259  -0.01150  -0.27396
  45   37293.2    268.1   0.064853161   0.57250  -0.16702  -0.73105   0.10084
  46   37655.1    265.6   0.033885188   0.29625  -0.24981  -0.48351   0.00785
  47   37740.1    265.0   0.061313521   0.53485   0.13067   0.70695  -0.13414
  48   38040.7    262.9   0.132711632   1.14851  -0.17983   0.96436   0.43150
  49   38560.6    259.3   0.034711249   0.29635   0.27420  -0.37692   0.28123
  50   38760.9    258.0   0.006235228   0.05296  -0.15775  -0.14500  -0.08396
  51   38961.1    256.7   0.009982049   0.08435  -0.15221   0.11650  -0.21819
  52   39405.1    253.8   0.019457319   0.16256   0.39613  -0.07201  -0.02134
  53   39498.5    253.2   0.050457708   0.42056   0.04034  -0.62490  -0.16862
  54   39595.7    252.6   0.088533967   0.73610   0.65033   0.37970   0.41111
  55   39723.1    251.7   0.174794532   1.44864   0.36885  -1.14531   0.02942
  56   40034.8    249.8   0.131879172   1.08446   0.15034  -0.98082  -0.31601
  57   40204.6    248.7   0.062310940   0.51023   0.18920  -0.37474   0.57793

FINAL SINGLE POINT ENERGY    -10052.246171552528

DIPOLE MOMENT
-------------
                                X             Y             Z
Electronic contribution:    -59.12953      59.99218      97.05268
Nuclear contribution   :     59.73431     -61.05356     -94.25956
                        -----------------------------------------
Total Dipole Moment    :      0.60479      -1.06138       2.79312
                        -----------------------------------------
Magnitude (a.u.)       :      3.04857
Magnitude (Debye)      :      7.74886

Rotational constants in cm-1:     0.001040     0.000312     0.000263
Rotational constants in MHz :    31.169299     9.353852     7.874845

                             ****ORCA TERMINATED NORMALLY****
TOTAL RUN TIME: 0 days 0 hours 15 minutes 4 seconds 423 msec
