                         Program Version 4.2.0 -  RELEASE  -
|  1> # ORCA input file
|  2> # SCF done       -160.119176069038          0.000518971613
|  3> ! CAM-B3LYP def2-SVP def2/J RIJCOSX Grid4 TightSCF
|  4> %maxcore 5000
|  5> %tddft
|  6>     Mode sTDDFT
|  7>     Ethresh 5.0
|  8>     maxcore 5000
|  9> end
| 10>
| 11> %pal
| 12>   nprocs 6
| 13>   end
| 14> * xyz 0 1
| 15>    C        1.38615        -3.33382        -0.69880
| 16>    C        2.15541        -3.78162         0.29341
| 17>    C        3.28823        -3.06741         0.81008
| 18>    C        4.06427        -3.52019         1.81524
| 19>    C        5.19122        -2.81292         2.33247
| 20>    C        5.95371        -3.28046         3.34147
| 21>    C        7.10544        -2.64559         3.93564
| 22>    C        7.74964        -3.29566         5.00168
| 23>    C        8.84590        -2.72150         5.59444
| 24>    C        9.33470        -1.48285         5.14272
| 25>    C        8.71005        -0.82923         4.08884
| 26>    C        7.60822        -1.41164         3.49813
| 27>    C       10.48371        -1.12232         5.94079
| 28>    C       10.70924        -2.13952         6.88748
| 29>    C        9.67977        -3.23633         6.74413
| 30>    C       10.33873        -4.58569         6.40352
| 31>    C       11.19791        -4.52314         5.14649
| 32>    C        8.83717        -3.38356         8.02510
| 33>    C        8.14590        -2.08752         8.43128
| 34>    C       11.74712        -2.05422         7.77903
| 35>    C       12.59615        -0.93326         7.75181
| 36>    C       12.35121         0.07580         6.80469
| 37>    C       11.31248        -0.00837         5.90254
| 38>    C       13.70104        -0.76623         8.65586
| 39>    C       14.11922        -1.66770         9.57489
| 40>    C       15.20633        -1.48828        10.47832
| 41>    C       15.53595        -2.53395        11.37806
| 42>    C       16.61212        -2.41683        12.33119
| 43>    N       16.86646        -3.42655        13.18760
| 44>    C       16.13491        -4.51171        13.12496
| 45>    C       15.08591        -4.64105        12.15791
| 46>    N       14.81157        -3.66232        11.32660
| 47>    C       14.32412        -5.83148        12.09085
| 48>    N       13.72273        -6.80693        12.05769
| 49>    C       16.39029        -5.56868        14.03273
| 50>    N       16.57040        -6.44102        14.75407
| 51>    C       17.43544        -1.27866        12.39438
| 52>    C       17.09609        -0.22548        11.52876
| 53>    C       15.99751        -0.32250        10.58766
| 54>    N       15.83858         0.81178         9.90390
| 55>    S       16.92400         1.88865        10.40016
| 56>    N       17.66610         0.98356        11.50056
| 57>    C       18.48998        -1.21654        13.38355
| 58>    C       19.71582        -0.70056        13.24097
| 59>    C       20.27210        -0.13892        11.97147
| 60>    C       20.61832        -0.59504        14.44753
| 61>    N       20.59994         0.76675        14.94553
| 62>    C       19.58993         1.23861        15.70212
| 63>    C       19.32094         2.55828        15.90174
| 64>    C       18.29017         2.99207        16.75415
| 65>    C       17.93860         4.29574        16.99243
| 66>    C       18.49658         5.49630        16.48710
| 67>    C       17.89041         6.62914        16.93193
| 68>    C       16.80902         6.39944        17.81832
| 69>    S       16.59633         4.68102        18.06951
| 70>    C       16.00196         7.33570        18.42462
| 71>    C       16.07199         8.74902        18.30133
| 72>    C       15.13877         9.41985        19.01488
| 73>    C       14.25029         8.58094        19.76479
| 74>    S       14.68926         6.88651        19.49808
| 75>    C       13.23438         8.95717        20.55511
| 76>    H        0.54181        -3.89243        -1.06346
| 77>    H        1.57899        -2.38751        -1.17717
| 78>    H        1.93775        -4.73574         0.75700
| 79>    H        3.51158        -2.11288         0.35014
| 80>    H        3.83519        -4.47573         2.27134
| 81>    H        5.41081        -1.86105         1.86898
| 82>    H        5.68771        -4.23913         3.77233
| 83>    H        7.37078        -4.24752         5.34688
| 84>    H        9.08028         0.12185         3.73524
| 85>    H        7.12445        -0.90294         2.67882
| 86>    H        9.55442        -5.33362         6.26939
| 87>    H       10.95540        -4.89756         7.24888
| 88>    H       10.59940        -4.23263         4.28565
| 89>    H       11.63920        -5.49682         4.94664
| 90>    H       12.00113        -3.79925         5.26570
| 91>    H        9.48847        -3.71652         8.83577
| 92>    H        8.08567        -4.15880         7.86132
| 93>    H        8.87708        -1.30446         8.62010
| 94>    H        7.56541        -2.24187         9.33794
| 95>    H        7.47415        -1.74723         7.64604
| 96>    H       11.90845        -2.83824         8.50223
| 97>    H       13.00391         0.93712         6.78937
| 98>    H       11.14545         0.77816         5.18157
| 99>    H       14.23656         0.17020         8.58030
|100>    H       13.62768        -2.62471         9.67426
|101>    H       18.23598        -1.70628        14.31540
|102>    H       21.34758        -0.30429        11.92451
|103>    H       20.07889         0.93126        11.90296
|104>    H       19.80842        -0.60899        11.10881
|105>    H       21.65070        -0.85056        14.19438
|106>    H       20.27621        -1.25584        15.24663
|107>    H       21.08423         1.44502        14.37330
|108>    H       19.00042         0.48414        16.20460
|109>    H       19.91542         3.29770        15.38435
|110>    H       17.71524         2.22586        17.25692
|111>    H       19.33146         5.49165        15.80935
|112>    H       18.18710         7.62327        16.64885
|113>    H       16.81588         9.22098        17.68389
|114>    H       15.03760        10.49025        19.04373
|115>    H       13.00064         9.99842        20.68962
|116>    H       12.62634         8.23965        21.07445
|117> *
|118>
|119>                          ****END OF INPUT****

CARTESIAN COORDINATES (ANGSTROEM)
---------------------------------
  C      1.386150   -3.333820   -0.698800
  C      2.155410   -3.781620    0.293410
  C      3.288230   -3.067410    0.810080
  C      4.064270   -3.520190    1.815240
  C      5.191220   -2.812920    2.332470
  C      5.953710   -3.280460    3.341470
  C      7.105440   -2.645590    3.935640
  C      7.749640   -3.295660    5.001680
  C      8.845900   -2.721500    5.594440
  C      9.334700   -1.482850    5.142720
  C      8.710050   -0.829230    4.088840
  C      7.608220   -1.411640    3.498130
  C     10.483710   -1.122320    5.940790
  C     10.709240   -2.139520    6.887480
  C      9.679770   -3.236330    6.744130
  C     10.338730   -4.585690    6.403520
  C     11.197910   -4.523140    5.146490
  C      8.837170   -3.383560    8.025100
  C      8.145900   -2.087520    8.431280
  C     11.747120   -2.054220    7.779030
  C     12.596150   -0.933260    7.751810
  C     12.351210    0.075800    6.804690
  C     11.312480   -0.008370    5.902540
  C     13.701040   -0.766230    8.655860
  C     14.119220   -1.667700    9.574890
  C     15.206330   -1.488280   10.478320
  C     15.535950   -2.533950   11.378060
  C     16.612120   -2.416830   12.331190
  N     16.866460   -3.426550   13.187600
  C     16.134910   -4.511710   13.124960
  C     15.085910   -4.641050   12.157910
  N     14.811570   -3.662320   11.326600
  C     14.324120   -5.831480   12.090850
  N     13.722730   -6.806930   12.057690
  C     16.390290   -5.568680   14.032730
  N     16.570400   -6.441020   14.754070
  C     17.435440   -1.278660   12.394380
  C     17.096090   -0.225480   11.528760
  C     15.997510   -0.322500   10.587660
  N     15.838580    0.811780    9.903900
  S     16.924000    1.888650   10.400160
  N     17.666100    0.983560   11.500560
  C     18.489980   -1.216540   13.383550
  C     19.715820   -0.700560   13.240970
  C     20.272100   -0.138920   11.971470
  C     20.618320   -0.595040   14.447530
  N     20.599940    0.766750   14.945530
  C     19.589930    1.238610   15.702120
  C     19.320940    2.558280   15.901740
  C     18.290170    2.992070   16.754150
  C     17.938600    4.295740   16.992430
  C     18.496580    5.496300   16.487100
  C     17.890410    6.629140   16.931930
  C     16.809020    6.399440   17.818320
  S     16.596330    4.681020   18.069510
  C     16.001960    7.335700   18.424620
  C     16.071990    8.749020   18.301330
  C     15.138770    9.419850   19.014880
  C     14.250290    8.580940   19.764790
  S     14.689260    6.886510   19.498080
  C     13.234380    8.957170   20.555110
  H      0.541810   -3.892430   -1.063460
  H      1.578990   -2.387510   -1.177170
  H      1.937750   -4.735740    0.757000
  H      3.511580   -2.112880    0.350140
  H      3.835190   -4.475730    2.271340
  H      5.410810   -1.861050    1.868980
  H      5.687710   -4.239130    3.772330
  H      7.370780   -4.247520    5.346880
  H      9.080280    0.121850    3.735240
  H      7.124450   -0.902940    2.678820
  H      9.554420   -5.333620    6.269390
  H     10.955400   -4.897560    7.248880
  H     10.599400   -4.232630    4.285650
  H     11.639200   -5.496820    4.946640
  H     12.001130   -3.799250    5.265700
  H      9.488470   -3.716520    8.835770
  H      8.085670   -4.158800    7.861320
  H      8.877080   -1.304460    8.620100
  H      7.565410   -2.241870    9.337940
  H      7.474150   -1.747230    7.646040
  H     11.908450   -2.838240    8.502230
  H     13.003910    0.937120    6.789370
  H     11.145450    0.778160    5.181570
  H     14.236560    0.170200    8.580300
  H     13.627680   -2.624710    9.674260
  H     18.235980   -1.706280   14.315400
  H     21.347580   -0.304290   11.924510
  H     20.078890    0.931260   11.902960
  H     19.808420   -0.608990   11.108810
  H     21.650700   -0.850560   14.194380
  H     20.276210   -1.255840   15.246630
  H     21.084230    1.445020   14.373300
  H     19.000420    0.484140   16.204600
  H     19.915420    3.297700   15.384350
  H     17.715240    2.225860   17.256920
  H     19.331460    5.491650   15.809350
  H     18.187100    7.623270   16.648850
  H     16.815880    9.220980   17.683890
  H     15.037600   10.490250   19.043730
  H     13.000640    9.998420   20.689620
  H     12.626340    8.239650   21.074450

 Total Charge           Charge          ....    0
 Multiplicity           Mult            ....    1
 Number of Electrons    NEL             ....  444
 Basis Dimension        Dim             .... 1071

ORBITAL ENERGIES
----------------

  NO   OCC          E(Eh)            E(eV)
   0   2.0000     -89.047927     -2423.1173
   1   2.0000     -88.919305     -2419.6173
   2   2.0000     -88.915637     -2419.5175
   3   2.0000     -14.461870      -393.5275
   4   2.0000     -14.459578      -393.4651
   5   2.0000     -14.456888      -393.3919
   6   2.0000     -14.454293      -393.3213
   7   2.0000     -14.435168      -392.8009
   8   2.0000     -14.428857      -392.6292
   9   2.0000     -14.427159      -392.5830
  10   2.0000     -10.380279      -282.4617
  11   2.0000     -10.377508      -282.3863
  12   2.0000     -10.344172      -281.4792
  13   2.0000     -10.343490      -281.4607
  14   2.0000     -10.343055      -281.4488
  15   2.0000     -10.342268      -281.4274
  16   2.0000     -10.322017      -280.8764
  17   2.0000     -10.320982      -280.8482
  18   2.0000     -10.317457      -280.7523
  19   2.0000     -10.314675      -280.6766
  20   2.0000     -10.310389      -280.5600
  21   2.0000     -10.308239      -280.5014
  22   2.0000     -10.289393      -279.9886
  23   2.0000     -10.288292      -279.9587
  24   2.0000     -10.285297      -279.8772
  25   2.0000     -10.283746      -279.8349
  26   2.0000     -10.282519      -279.8016
  27   2.0000     -10.281050      -279.7616
  28   2.0000     -10.279414      -279.7171
  29   2.0000     -10.278195      -279.6839
  30   2.0000     -10.277834      -279.6741
  31   2.0000     -10.277415      -279.6627
  32   2.0000     -10.276504      -279.6379
  33   2.0000     -10.275932      -279.6223
  34   2.0000     -10.275809      -279.6190
  35   2.0000     -10.274215      -279.5756
  36   2.0000     -10.273836      -279.5653
  37   2.0000     -10.272913      -279.5402
  38   2.0000     -10.270588      -279.4769
  39   2.0000     -10.270536      -279.4755
  40   2.0000     -10.270312      -279.4694
  41   2.0000     -10.269831      -279.4563
  42   2.0000     -10.269664      -279.4518
  43   2.0000     -10.269298      -279.4418
  44   2.0000     -10.269109      -279.4367
  45   2.0000     -10.268916      -279.4314
  46   2.0000     -10.268657      -279.4244
  47   2.0000     -10.268568      -279.4220
  48   2.0000     -10.268308      -279.4149
  49   2.0000     -10.268041      -279.4076
  50   2.0000     -10.267706      -279.3985
  51   2.0000     -10.267601      -279.3956
  52   2.0000     -10.267533      -279.3938
  53   2.0000     -10.261907      -279.2407
  54   2.0000     -10.261871      -279.2397
  55   2.0000     -10.260825      -279.2113
  56   2.0000     -10.259876      -279.1854
  57   2.0000     -10.253015      -278.9987
  58   2.0000     -10.245952      -278.8065
  59   2.0000     -10.245252      -278.7875
  60   2.0000     -10.244913      -278.7783
  61   2.0000      -8.139220      -221.4794
  62   2.0000      -8.015869      -218.1229
  63   2.0000      -8.012340      -218.0269
  64   2.0000      -6.110241      -166.2681
  65   2.0000      -6.102416      -166.0552
  66   2.0000      -6.102170      -166.0485
  67   2.0000      -5.985687      -162.8788
  68   2.0000      -5.982195      -162.7838
  69   2.0000      -5.981779      -162.7725
  70   2.0000      -5.978322      -162.6784
  71   2.0000      -5.976487      -162.6285
  72   2.0000      -5.972807      -162.5283
  73   2.0000      -1.142139       -31.0792
  74   2.0000      -1.117439       -30.4071
  75   2.0000      -1.044449       -28.4209
  76   2.0000      -1.038080       -28.2476
  77   2.0000      -1.012020       -27.5385
  78   2.0000      -1.002184       -27.2708
  79   2.0000      -0.996836       -27.1253
  80   2.0000      -0.989055       -26.9136
  81   2.0000      -0.976703       -26.5775
  82   2.0000      -0.969979       -26.3945
  83   2.0000      -0.948373       -25.8065
  84   2.0000      -0.947113       -25.7723
  85   2.0000      -0.924851       -25.1665
  86   2.0000      -0.917855       -24.9761
  87   2.0000      -0.907113       -24.6838
  88   2.0000      -0.905326       -24.6352
  89   2.0000      -0.897287       -24.4164
  90   2.0000      -0.885571       -24.0976
  91   2.0000      -0.878943       -23.9173
  92   2.0000      -0.867861       -23.6157
  93   2.0000      -0.850649       -23.1473
  94   2.0000      -0.845951       -23.0195
  95   2.0000      -0.835966       -22.7478
  96   2.0000      -0.835432       -22.7333
  97   2.0000      -0.832481       -22.6530
  98   2.0000      -0.831820       -22.6350
  99   2.0000      -0.822980       -22.3944
 100   2.0000      -0.819621       -22.3030
 101   2.0000      -0.815157       -22.1816
 102   2.0000      -0.801023       -21.7969
 103   2.0000      -0.795994       -21.6601
 104   2.0000      -0.790958       -21.5231
 105   2.0000      -0.781006       -21.2523
 106   2.0000      -0.769126       -20.9290
 107   2.0000      -0.760544       -20.6954
 108   2.0000      -0.747696       -20.3459
 109   2.0000      -0.736318       -20.0362
 110   2.0000      -0.734533       -19.9877
 111   2.0000      -0.718339       -19.5470
 112   2.0000      -0.711246       -19.3540
 113   2.0000      -0.705439       -19.1960
 114   2.0000      -0.698989       -19.0205
 115   2.0000      -0.688022       -18.7220
 116   2.0000      -0.681155       -18.5352
 117   2.0000      -0.678526       -18.4636
 118   2.0000      -0.672995       -18.3131
 119   2.0000      -0.672809       -18.3081
 120   2.0000      -0.663778       -18.0623
 121   2.0000      -0.660300       -17.9677
 122   2.0000      -0.656193       -17.8559
 123   2.0000      -0.645972       -17.5778
 124   2.0000      -0.640432       -17.4270
 125   2.0000      -0.636980       -17.3331
 126   2.0000      -0.625274       -17.0146
 127   2.0000      -0.619489       -16.8571
 128   2.0000      -0.616001       -16.7622
 129   2.0000      -0.612616       -16.6701
 130   2.0000      -0.603436       -16.4203
 131   2.0000      -0.597426       -16.2568
 132   2.0000      -0.593760       -16.1570
 133   2.0000      -0.593328       -16.1453
 134   2.0000      -0.586345       -15.9553
 135   2.0000      -0.580891       -15.8069
 136   2.0000      -0.579100       -15.7581
 137   2.0000      -0.575488       -15.6598
 138   2.0000      -0.566909       -15.4264
 139   2.0000      -0.559228       -15.2174
 140   2.0000      -0.557312       -15.1652
 141   2.0000      -0.552880       -15.0446
 142   2.0000      -0.549966       -14.9653
 143   2.0000      -0.546686       -14.8761
 144   2.0000      -0.543523       -14.7900
 145   2.0000      -0.542434       -14.7604
 146   2.0000      -0.536134       -14.5889
 147   2.0000      -0.530108       -14.4250
 148   2.0000      -0.528388       -14.3782
 149   2.0000      -0.523318       -14.2402
 150   2.0000      -0.518720       -14.1151
 151   2.0000      -0.518036       -14.0965
 152   2.0000      -0.516303       -14.0493
 153   2.0000      -0.512403       -13.9432
 154   2.0000      -0.507587       -13.8122
 155   2.0000      -0.498064       -13.5530
 156   2.0000      -0.495463       -13.4822
 157   2.0000      -0.489704       -13.3255
 158   2.0000      -0.489127       -13.3098
 159   2.0000      -0.485178       -13.2024
 160   2.0000      -0.484100       -13.1730
 161   2.0000      -0.482743       -13.1361
 162   2.0000      -0.481215       -13.0945
 163   2.0000      -0.477442       -12.9918
 164   2.0000      -0.476556       -12.9678
 165   2.0000      -0.473830       -12.8936
 166   2.0000      -0.472254       -12.8507
 167   2.0000      -0.471557       -12.8317
 168   2.0000      -0.468826       -12.7574
 169   2.0000      -0.468421       -12.7464
 170   2.0000      -0.465889       -12.6775
 171   2.0000      -0.462513       -12.5856
 172   2.0000      -0.461321       -12.5532
 173   2.0000      -0.459167       -12.4946
 174   2.0000      -0.455886       -12.4053
 175   2.0000      -0.454412       -12.3652
 176   2.0000      -0.452203       -12.3051
 177   2.0000      -0.451419       -12.2837
 178   2.0000      -0.448413       -12.2019
 179   2.0000      -0.445625       -12.1261
 180   2.0000      -0.443176       -12.0594
 181   2.0000      -0.442115       -12.0306
 182   2.0000      -0.439829       -11.9684
 183   2.0000      -0.438671       -11.9368
 184   2.0000      -0.434611       -11.8264
 185   2.0000      -0.433425       -11.7941
 186   2.0000      -0.429551       -11.6887
 187   2.0000      -0.423617       -11.5272
 188   2.0000      -0.423383       -11.5208
 189   2.0000      -0.422819       -11.5055
 190   2.0000      -0.420237       -11.4352
 191   2.0000      -0.418707       -11.3936
 192   2.0000      -0.416825       -11.3424
 193   2.0000      -0.414702       -11.2846
 194   2.0000      -0.412292       -11.2190
 195   2.0000      -0.409572       -11.1450
 196   2.0000      -0.405701       -11.0397
 197   2.0000      -0.405372       -11.0307
 198   2.0000      -0.404679       -11.0119
 199   2.0000      -0.400822       -10.9069
 200   2.0000      -0.398755       -10.8507
 201   2.0000      -0.388373       -10.5682
 202   2.0000      -0.387969       -10.5572
 203   2.0000      -0.382510       -10.4086
 204   2.0000      -0.378091       -10.2884
 205   2.0000      -0.377414       -10.2700
 206   2.0000      -0.371961       -10.1216
 207   2.0000      -0.370121       -10.0715
 208   2.0000      -0.357512        -9.7284
 209   2.0000      -0.349977        -9.5234
 210   2.0000      -0.347365        -9.4523
 211   2.0000      -0.333529        -9.0758
 212   2.0000      -0.326227        -8.8771
 213   2.0000      -0.323049        -8.7906
 214   2.0000      -0.316922        -8.6239
 215   2.0000      -0.315664        -8.5897
 216   2.0000      -0.302719        -8.2374
 217   2.0000      -0.299877        -8.1601
 218   2.0000      -0.265748        -7.2314
 219   2.0000      -0.260614        -7.0917
 220   2.0000      -0.239538        -6.5182
 221   2.0000      -0.189271        -5.1503
 222   0.0000      -0.119895        -3.2625
 223   0.0000      -0.051381        -1.3981
 224   0.0000      -0.044125        -1.2007
 225   0.0000      -0.039595        -1.0774
 226   0.0000      -0.035595        -0.9686

MULLIKEN ATOMIC CHARGES
-----------------------
   0 C :   -0.016934
   1 C :    0.006193
   2 C :    0.007919
   3 C :    0.016419
   4 C :    0.032993
   5 C :   -0.006537
   6 C :    0.129039
   7 C :   -0.109169
   8 C :    0.026286
   9 C :    0.097092
  10 C :   -0.039007
  11 C :   -0.015497
  12 C :    0.113368
  13 C :    0.009454
  14 C :   -0.142232
  15 C :    0.065151
  16 C :    0.027576
  17 C :    0.067639
  18 C :    0.024572
  19 C :   -0.077288
  20 C :    0.115338
  21 C :   -0.013702
  22 C :   -0.044791
  23 C :    0.013476
  24 C :   -0.077484
  25 C :    0.113450
  26 C :   -0.055445
  27 C :   -0.040719
  28 N :    0.056336
  29 C :   -0.138777
  30 C :   -0.137516
  31 N :    0.050949
  32 C :   -0.210133
  33 N :    0.232822
  34 C :   -0.207355
  35 N :    0.235200
  36 C :    0.025926
  37 C :    0.018081
  38 C :    0.018128
  39 N :   -0.289149
  40 S :    0.545878
  41 N :   -0.281161
  42 C :   -0.047672
  43 C :   -0.179180
  44 C :    0.122581
  45 C :    0.185801
  46 N :   -0.148254
  47 C :    0.061339
  48 C :   -0.020252
  49 C :    0.031549
  50 C :   -0.068076
  51 C :    0.028081
  52 C :    0.010990
  53 C :   -0.044579
  54 S :    0.065989
  55 C :   -0.076513
  56 C :    0.030542
  57 C :    0.037341
  58 C :   -0.057673
  59 S :    0.061011
  60 C :   -0.043853
  61 H :    0.021243
  62 H :    0.012219
  63 H :   -0.011021
  64 H :   -0.018191
  65 H :   -0.017653
  66 H :   -0.016275
  67 H :   -0.028385
  68 H :   -0.041230
  69 H :   -0.037837
  70 H :   -0.031836
  71 H :   -0.000489
  72 H :    0.002001
  73 H :    0.021004
  74 H :    0.009459
  75 H :    0.019335
  76 H :    0.000683
  77 H :   -0.000487
  78 H :    0.019941
  79 H :    0.010414
  80 H :    0.022516
  81 H :   -0.034868
  82 H :   -0.024725
  83 H :   -0.034291
  84 H :   -0.003146
  85 H :   -0.005701
  86 H :   -0.002286
  87 H :    0.004884
  88 H :    0.036738
  89 H :    0.015524
  90 H :    0.014301
  91 H :    0.019177
  92 H :    0.116361
  93 H :   -0.002159
  94 H :   -0.035038
  95 H :   -0.025308
  96 H :   -0.024745
  97 H :   -0.025702
  98 H :   -0.020923
  99 H :   -0.020926
 100 H :    0.009425
 101 H :    0.012435
Sum of atomic charges:   -0.0000000

LOEWDIN ATOMIC CHARGES
----------------------
   0 C :   -0.045650
   1 C :   -0.026768
   2 C :   -0.024407
   3 C :   -0.023623
   4 C :   -0.019252
   5 C :   -0.022309
   6 C :   -0.019268
   7 C :   -0.021807
   8 C :    0.006147
   9 C :   -0.023779
  10 C :   -0.014280
  11 C :   -0.015132
  12 C :   -0.004139
  13 C :    0.004404
  14 C :   -0.035921
  15 C :   -0.011488
  16 C :   -0.057673
  17 C :   -0.011132
  18 C :   -0.057932
  19 C :   -0.006667
  20 C :   -0.033518
  21 C :   -0.007428
  22 C :   -0.022943
  23 C :    0.026546
  24 C :   -0.037520
  25 C :   -0.004103
  26 C :   -0.014202
  27 C :   -0.007122
  28 N :    0.000533
  29 C :   -0.027062
  30 C :   -0.037002
  31 N :    0.006459
  32 C :   -0.037247
  33 N :   -0.010877
  34 C :   -0.035022
  35 N :   -0.006441
  36 C :   -0.031859
  37 C :   -0.041673
  38 C :   -0.040551
  39 N :   -0.276408
  40 S :    0.675823
  41 N :   -0.271740
  42 C :   -0.043069
  43 C :   -0.017102
  44 C :   -0.057096
  45 C :    0.047544
  46 N :   -0.001769
  47 C :    0.042907
  48 C :   -0.113056
  49 C :   -0.035841
  50 C :   -0.180309
  51 C :   -0.037296
  52 C :   -0.043734
  53 C :   -0.175615
  54 S :    0.350336
  55 C :   -0.198755
  56 C :   -0.027206
  57 C :   -0.049590
  58 C :   -0.136992
  59 S :    0.337242
  60 C :   -0.100326
  61 H :    0.023962
  62 H :    0.020920
  63 H :    0.027798
  64 H :    0.025392
  65 H :    0.026437
  66 H :    0.024828
  67 H :    0.025738
  68 H :    0.023802
  69 H :    0.026473
  70 H :    0.025271
  71 H :    0.020698
  72 H :    0.021356
  73 H :    0.025405
  74 H :    0.024444
  75 H :    0.024508
  76 H :    0.020973
  77 H :    0.020661
  78 H :    0.024786
  79 H :    0.024719
  80 H :    0.025701
  81 H :    0.026859
  82 H :    0.027802
  83 H :    0.027433
  84 H :    0.027392
  85 H :    0.028056
  86 H :    0.030682
  87 H :    0.025093
  88 H :    0.033787
  89 H :    0.031880
  90 H :    0.026155
  91 H :    0.031384
  92 H :    0.076047
  93 H :    0.026731
  94 H :    0.017638
  95 H :    0.026513
  96 H :    0.026519
  97 H :    0.026938
  98 H :    0.028575
  99 H :    0.028848
 100 H :    0.023776
 101 H :    0.021782

  Mayer bond orders larger than 0.100000
B(  0-C ,  1-C ) :   1.9037 B(  0-C , 61-H ) :   0.9527 B(  0-C , 62-H ) :   0.9588
B(  1-C ,  2-C ) :   1.1044 B(  1-C , 63-H ) :   0.9734 B(  2-C ,  3-C ) :   1.6893
B(  2-C , 64-H ) :   0.9777 B(  3-C ,  4-C ) :   1.1163 B(  3-C , 65-H ) :   0.9879
B(  4-C ,  5-C ) :   1.6835 B(  4-C , 66-H ) :   0.9730 B(  5-C ,  6-C ) :   1.0607
B(  5-C , 67-H ) :   0.9855 B(  6-C ,  7-C ) :   1.2885 B(  6-C , 11-C ) :   1.3412
B(  7-C ,  8-C ) :   1.3780 B(  7-C , 68-H ) :   1.0130 B(  8-C ,  9-C ) :   1.3687
B(  8-C , 14-C ) :   0.9133 B(  9-C , 10-C ) :   1.3259 B(  9-C , 12-C ) :   1.0024
B( 10-C , 11-C ) :   1.4075 B( 10-C , 69-H ) :   0.9886 B( 11-C , 70-H ) :   0.9839
B( 12-C , 13-C ) :   1.3471 B( 12-C , 22-C ) :   1.3384 B( 13-C , 14-C ) :   0.9163
B( 13-C , 19-C ) :   1.4171 B( 14-C , 15-C ) :   1.0382 B( 14-C , 17-C ) :   1.0379
B( 15-C , 16-C ) :   1.1018 B( 15-C , 71-H ) :   0.9391 B( 15-C , 72-H ) :   0.9396
B( 16-C , 73-H ) :   0.9641 B( 16-C , 74-H ) :   0.9637 B( 16-C , 75-H ) :   0.9640
B( 17-C , 18-C ) :   1.1007 B( 17-C , 76-H ) :   0.9397 B( 17-C , 77-H ) :   0.9390
B( 18-C , 78-H ) :   0.9644 B( 18-C , 79-H ) :   0.9639 B( 18-C , 80-H ) :   0.9642
B( 19-C , 20-C ) :   1.2832 B( 19-C , 81-H ) :   1.0016 B( 20-C , 21-C ) :   1.3263
B( 20-C , 23-C ) :   1.0693 B( 21-C , 22-C ) :   1.3760 B( 21-C , 82-H ) :   0.9937
B( 22-C , 83-H ) :   0.9906 B( 23-C , 24-C ) :   1.5754 B( 23-C , 84-H ) :   0.9708
B( 24-C , 25-C ) :   1.2093 B( 24-C , 85-H ) :   0.9524 B( 25-C , 26-C ) :   1.2317
B( 25-C , 36-C ) :   0.1334 B( 25-C , 38-C ) :   1.1735 B( 26-C , 27-C ) :   1.0998
B( 26-C , 31-N ) :   1.4422 B( 27-C , 28-N ) :   1.4424 B( 27-C , 36-C ) :   1.3083
B( 28-N , 29-C ) :   1.7537 B( 29-C , 30-C ) :   1.1984 B( 29-C , 34-C ) :   1.1574
B( 30-C , 31-N ) :   1.7398 B( 30-C , 32-C ) :   1.1523 B( 32-C , 33-N ) :   3.0468
B( 34-C , 35-N ) :   3.0477 B( 36-C , 37-C ) :   1.2348 B( 36-C , 42-C ) :   1.0668
B( 37-C , 38-C ) :   1.1074 B( 37-C , 41-N ) :   1.4897 B( 38-C , 39-N ) :   1.4966
B( 39-N , 40-S ) :   1.2821 B( 39-N , 41-N ) :   0.1566 B( 40-S , 41-N ) :   1.2870
B( 42-C , 43-C ) :   1.8189 B( 42-C , 86-H ) :   0.9426 B( 43-C , 44-C ) :   1.0892
B( 43-C , 45-C ) :   1.0287 B( 44-C , 87-H ) :   0.9456 B( 44-C , 88-H ) :   0.9313
B( 44-C , 89-H ) :   0.9440 B( 45-C , 46-N ) :   1.0256 B( 45-C , 90-H ) :   0.9417
B( 45-C , 91-H ) :   0.9385 B( 46-N , 47-C ) :   1.2064 B( 46-N , 92-H ) :   0.9407
B( 47-C , 48-C ) :   1.6121 B( 47-C , 93-H ) :   0.9683 B( 48-C , 49-C ) :   1.2050
B( 48-C , 94-H ) :   0.9613 B( 49-C , 50-C ) :   1.5751 B( 49-C , 95-H ) :   0.9631
B( 50-C , 51-C ) :   1.1506 B( 50-C , 54-S ) :   1.0051 B( 51-C , 52-C ) :   1.6187
B( 51-C , 96-H ) :   0.9887 B( 52-C , 53-C ) :   1.1759 B( 52-C , 97-H ) :   0.9915
B( 53-C , 54-S ) :   1.0523 B( 53-C , 55-C ) :   1.5426 B( 55-C , 56-C ) :   1.1650
B( 55-C , 59-S ) :   1.0285 B( 56-C , 57-C ) :   1.6496 B( 56-C , 98-H ) :   0.9906
B( 57-C , 58-C ) :   1.0851 B( 57-C , 99-H ) :   0.9925 B( 58-C , 59-S ) :   1.0117
B( 58-C , 60-C ) :   1.8574 B( 60-C ,100-H ) :   0.9500 B( 60-C ,101-H ) :   0.9413

-----------------------------------------------------------------------------
         ABSORPTION SPECTRUM VIA TRANSITION ELECTRIC DIPOLE MOMENTS
-----------------------------------------------------------------------------
State   Energy  Wavelength   fosc         T2         TX        TY        TZ
        (cm-1)    (nm)                  (au**2)     (au)      (au)      (au)
-----------------------------------------------------------------------------
   0    3635.2   2750.9   0.026711301   2.41906   0.38480   1.00018   1.12723
   1   11960.4    836.1   0.522754817  14.38895   2.65065   0.35216   2.69053
   2   18519.3    540.0   0.224504055   3.99093  -1.26451   1.52511   0.25686
   3   19513.7    512.5   0.340011430   5.73626   0.42148  -1.82209  -1.49620
   4   19721.2    507.1   0.989141215  16.51205   2.21093  -3.03470  -1.55384
   5   20123.5    496.9   0.004514617   0.07386   0.09014   0.03279   0.25428
   6   21343.2    468.5   0.011842686   0.18267   0.33057  -0.25238   0.09850
   7   23961.9    417.3   0.037182329   0.51085   0.62893   0.03858   0.33734
   8   25341.6    394.6   0.044532615   0.57852   0.19609  -0.40744   0.61161
   9   26106.1    383.1   0.360866543   4.55073   1.53227  -0.14606   1.47700
  10   26775.7    373.5   0.016699166   0.20532   0.40371  -0.15743   0.13248
  11   26871.5    372.1   0.253713173   3.10833  -1.49199  -0.42064  -0.83986
  12   28400.7    352.1   0.009249299   0.10722  -0.24959  -0.19039  -0.09312
  13   28761.9    347.7   1.512681154  17.31434  -3.23951  -0.17346  -2.60572
  14   29002.9    344.8   0.000351683   0.00399  -0.05525  -0.01375  -0.02739
  15   29170.5    342.8   0.000633847   0.00715   0.04996  -0.04129  -0.05433
  16   30157.3    331.6   0.014229908   0.15534  -0.29962  -0.17134   0.19030
  17   30348.4    329.5   0.056379593   0.61159   0.61445   0.45904   0.15270
  18   31376.4    318.7   0.002516924   0.02641   0.12252   0.10671   0.00299
  19   32022.6    312.3   0.025313325   0.26024  -0.33431   0.14183  -0.35827
  20   32344.2    309.2   0.727716671   7.40699  -1.05731  -2.46978   0.43506
  21   32524.3    307.5   0.000068332   0.00069   0.01458   0.01932   0.01028
  22   33059.8    302.5   0.001181497   0.01177   0.04227  -0.09345  -0.03531
  23   33446.3    299.0   0.012997810   0.12794  -0.06942  -0.34760  -0.04786
  24   33841.7    295.5   0.218822578   2.12871   0.55256   1.31064  -0.32499
  25   34333.4    291.3   0.022563376   0.21635  -0.18519  -0.41141   0.11314
  26   34528.0    289.6   0.011910868   0.11357  -0.13752   0.06484   0.30075
  27   34820.8    287.2   0.033384698   0.31563  -0.14021   0.48383  -0.24876
  28   35173.9    284.3   0.041281855   0.38638   0.14920   0.53347  -0.28202
  29   35417.5    282.3   0.058471487   0.54350  -0.08259  -0.65218   0.33368
  30   35635.8    280.6   0.040006961   0.36959   0.24013   0.55686  -0.04280
  31   36194.8    276.3   0.222941131   2.02778   0.40099   1.30930  -0.39079
  32   36932.5    270.8   0.173608048   1.54752   0.20486   1.12599  -0.48754
  33   37449.6    267.0   0.072291994   0.63550  -0.05377   0.68524  -0.40381
  34   37988.1    263.2   0.032043882   0.27770  -0.22193   0.20695  -0.43083
  35   38054.4    262.8   0.029567351   0.25579   0.31880  -0.31572  -0.23341
  36   38373.2    260.6   0.002752694   0.02362   0.14106  -0.05278   0.03054
  37   38504.3    259.7   0.009717274   0.08308  -0.18659  -0.06602  -0.20955
  38   38838.9    257.5   0.000403922   0.00342  -0.05425  -0.00052  -0.02191
  39   39785.8    251.3   0.008397130   0.06948   0.16100  -0.20739  -0.02350
  40   39906.3    250.6   0.001052439   0.00868  -0.04541  -0.07652   0.02766
  41   40251.8    248.4   0.002911212   0.02381   0.02562  -0.12420  -0.08791

FINAL SINGLE POINT ENERGY     -3542.393367164463

DIPOLE MOMENT
-------------
                                X             Y             Z
Electronic contribution:     57.32969      13.73398      63.49204
Nuclear contribution   :    -56.13457     -12.22361     -66.82740
                        -----------------------------------------
Total Dipole Moment    :      1.19511       1.51037      -3.33536
                        -----------------------------------------
Magnitude (a.u.)       :      3.85151
Magnitude (Debye)      :      9.78977

Rotational constants in cm-1:     0.001362     0.000340     0.000295
Rotational constants in MHz :    40.828012    10.187587     8.853715

                             ****ORCA TERMINATED NORMALLY****
TOTAL RUN TIME: 0 days 0 hours 8 minutes 22 seconds 86 msec
