                         Program Version 4.2.0 -  RELEASE  -
|  1> # ORCA input file
|  2> # SCF done       -190.897254681531          0.000923954430
|  3> ! CAM-B3LYP def2-SVP def2/J RIJCOSX Grid4 TightSCF
|  4> %maxcore 5000
|  5> %tddft
|  6>     Mode sTDDFT
|  7>     Ethresh 5.0
|  8>     maxcore 5000
|  9> end
| 10>
| 11> %pal
| 12>   nprocs 6
| 13>   end
| 14> * xyz 0 1
| 15>    C       -5.58634        -3.32897        -6.91538
| 16>    C       -5.44972        -4.64083        -6.54142
| 17>    C       -4.99370        -5.66575        -7.39465
| 18>    N       -4.63358        -6.54076        -8.04466
| 19>    C       -5.77368        -5.12810        -5.25926
| 20>    N       -6.03033        -5.56358        -4.22839
| 21>    C       -5.28462        -2.77504        -8.23253
| 22>    C       -5.63708        -1.39983        -8.24448
| 23>    C       -5.44596        -0.59378        -9.34083
| 24>    C       -4.86210        -1.16575       -10.47344
| 25>    C       -4.51760        -2.53831       -10.45680
| 26>    C       -4.72417        -3.35799        -9.35229
| 27>    S       -3.80355        -3.02926       -11.96072
| 28>    C       -3.96573        -1.40311       -12.57535
| 29>    C       -4.53138        -0.53584       -11.70384
| 30>   Br       -3.37324        -1.01407       -14.30925
| 31>    C       -6.14695        -1.03251        -6.92524
| 32>    O       -6.54875         0.07346        -6.56360
| 33>    C       -6.06365        -2.23881        -6.09538
| 34>    C       -6.33346        -2.20315        -4.74763
| 35>    N       -6.68446        -1.03931        -4.18885
| 36>    C       -6.91573        -0.73725        -2.89148
| 37>    S       -7.13718        -1.93745        -1.66265
| 38>    C       -7.38531        -0.66562        -0.50414
| 39>    N       -7.64188        -1.03316         0.82303
| 40>    O       -7.82093        -0.14085         1.63131
| 41>    O       -7.67067        -2.22629         1.06838
| 42>    C       -7.29360         0.59404        -1.03189
| 43>    C       -7.01711         0.58330        -2.41320
| 44>    C       -6.79579         1.70857        -3.26406
| 45>    C       -6.89104         3.01744        -2.92993
| 46>    C       -6.62978         4.07963        -3.84275
| 47>    C       -6.00405         3.93265        -5.10479
| 48>    C       -5.98715         4.99890        -6.07759
| 49>    N       -5.63274         4.73217        -7.32981
| 50>    C       -5.16519         3.53876        -7.64487
| 51>    C       -4.88808         2.59758        -6.60625
| 52>    N       -5.34411         2.80194        -5.39514
| 53>    C       -4.10116         1.45224        -6.87190
| 54>    N       -3.46106         0.53700        -7.13201
| 55>    C       -4.93896         3.18248        -8.98934
| 56>    N       -4.76774         2.80101       -10.05862
| 57>    C       -6.37372         6.34460        -5.74760
| 58>    C       -6.86338         6.51077        -4.42266
| 59>    C       -7.01575         5.40038        -3.51389
| 60>    N       -7.54491         5.77853        -2.35251
| 61>    S       -7.81362         7.36589        -2.38021
| 62>    N       -7.27885         7.64532        -3.88024
| 63>    C       -6.26433         7.32647        -6.72665
| 64>    C       -6.50027         8.69550        -6.69964
| 65>    C       -6.30872         9.52002        -7.82795
| 66>    C       -6.54182        10.85234        -7.60806
| 67>    C       -6.92365        11.12560        -6.28870
| 68>    S       -7.00236         9.66032        -5.33949
| 69>    C       -7.21579        12.35766        -5.70161
| 70>    C       -7.20774        13.63726        -6.28005
| 71>    C       -7.53211        14.63707        -5.40290
| 72>    C       -7.81115        14.19618        -4.09177
| 73>    S       -7.64784        12.45016        -4.02054
| 74>    C       -8.15422        15.00861        -3.03010
| 75>    C       -8.44124        14.65294        -1.70567
| 76>    C       -8.45588        13.35513        -1.10612
| 77>    C       -8.79833        13.48642         0.23133
| 78>    C       -8.95132        12.52516         1.24382
| 79>    C       -9.30869        12.96924         2.49613
| 80>    C       -9.54327        12.27974         3.71182
| 81>    C       -9.88695        13.20449         4.70069
| 82>    C       -9.87219        14.49482         4.12011
| 83>    C       -9.52080        14.38270         2.76766
| 84>    C       -9.36906        15.33951         1.77149
| 85>    C       -9.00871        14.89961         0.50099
| 86>    C       -8.78363        15.58704        -0.69682
| 87>    C      -10.19763        12.86110         6.06791
| 88>    C      -10.53563        13.72318         7.02315
| 89>    H       -5.71738         0.44941        -9.33074
| 90>    H       -4.43763        -4.39611        -9.38485
| 91>    H       -4.69772         0.50776       -11.90051
| 92>    H       -6.24565        -3.06833        -4.10319
| 93>    H       -6.72485        -0.26200        -4.87746
| 94>    H       -7.41490         1.47912        -0.43510
| 95>    H       -6.49900         1.48962        -4.27792
| 96>    H       -7.23247         3.32758        -1.95253
| 97>    H       -5.91603         6.95029        -7.68226
| 98>    H       -6.00030         9.11019        -8.77365
| 99>    H       -6.44105        11.61535        -8.35906
|100>    H       -6.96577        13.79570        -7.31534
|101>    H       -7.57590        15.67948        -5.66570
|102>    H       -8.20669        16.06748        -3.25618
|103>    H       -8.23912        12.42887        -1.60270
|104>    H       -8.79269        11.47665         1.03588
|105>    H       -9.46862        11.21600         3.84704
|106>    H      -10.09373        15.41470         4.62863
|107>    H       -9.52646        16.38911         1.97564
|108>    H       -8.85677        16.64996        -0.83765
|109>    H      -10.14096        11.80417         6.29623
|110>    H      -10.60577        14.78223         6.84326
|111>    H      -10.75528        13.39526         8.02411
|112> *
|113>
|114>                          ****END OF INPUT****

CARTESIAN COORDINATES (ANGSTROEM)
---------------------------------
  C     -5.586340   -3.328970   -6.915380
  C     -5.449720   -4.640830   -6.541420
  C     -4.993700   -5.665750   -7.394650
  N     -4.633580   -6.540760   -8.044660
  C     -5.773680   -5.128100   -5.259260
  N     -6.030330   -5.563580   -4.228390
  C     -5.284620   -2.775040   -8.232530
  C     -5.637080   -1.399830   -8.244480
  C     -5.445960   -0.593780   -9.340830
  C     -4.862100   -1.165750  -10.473440
  C     -4.517600   -2.538310  -10.456800
  C     -4.724170   -3.357990   -9.352290
  S     -3.803550   -3.029260  -11.960720
  C     -3.965730   -1.403110  -12.575350
  C     -4.531380   -0.535840  -11.703840
  Br    -3.373240   -1.014070  -14.309250
  C     -6.146950   -1.032510   -6.925240
  O     -6.548750    0.073460   -6.563600
  C     -6.063650   -2.238810   -6.095380
  C     -6.333460   -2.203150   -4.747630
  N     -6.684460   -1.039310   -4.188850
  C     -6.915730   -0.737250   -2.891480
  S     -7.137180   -1.937450   -1.662650
  C     -7.385310   -0.665620   -0.504140
  N     -7.641880   -1.033160    0.823030
  O     -7.820930   -0.140850    1.631310
  O     -7.670670   -2.226290    1.068380
  C     -7.293600    0.594040   -1.031890
  C     -7.017110    0.583300   -2.413200
  C     -6.795790    1.708570   -3.264060
  C     -6.891040    3.017440   -2.929930
  C     -6.629780    4.079630   -3.842750
  C     -6.004050    3.932650   -5.104790
  C     -5.987150    4.998900   -6.077590
  N     -5.632740    4.732170   -7.329810
  C     -5.165190    3.538760   -7.644870
  C     -4.888080    2.597580   -6.606250
  N     -5.344110    2.801940   -5.395140
  C     -4.101160    1.452240   -6.871900
  N     -3.461060    0.537000   -7.132010
  C     -4.938960    3.182480   -8.989340
  N     -4.767740    2.801010  -10.058620
  C     -6.373720    6.344600   -5.747600
  C     -6.863380    6.510770   -4.422660
  C     -7.015750    5.400380   -3.513890
  N     -7.544910    5.778530   -2.352510
  S     -7.813620    7.365890   -2.380210
  N     -7.278850    7.645320   -3.880240
  C     -6.264330    7.326470   -6.726650
  C     -6.500270    8.695500   -6.699640
  C     -6.308720    9.520020   -7.827950
  C     -6.541820   10.852340   -7.608060
  C     -6.923650   11.125600   -6.288700
  S     -7.002360    9.660320   -5.339490
  C     -7.215790   12.357660   -5.701610
  C     -7.207740   13.637260   -6.280050
  C     -7.532110   14.637070   -5.402900
  C     -7.811150   14.196180   -4.091770
  S     -7.647840   12.450160   -4.020540
  C     -8.154220   15.008610   -3.030100
  C     -8.441240   14.652940   -1.705670
  C     -8.455880   13.355130   -1.106120
  C     -8.798330   13.486420    0.231330
  C     -8.951320   12.525160    1.243820
  C     -9.308690   12.969240    2.496130
  C     -9.543270   12.279740    3.711820
  C     -9.886950   13.204490    4.700690
  C     -9.872190   14.494820    4.120110
  C     -9.520800   14.382700    2.767660
  C     -9.369060   15.339510    1.771490
  C     -9.008710   14.899610    0.500990
  C     -8.783630   15.587040   -0.696820
  C    -10.197630   12.861100    6.067910
  C    -10.535630   13.723180    7.023150
  H     -5.717380    0.449410   -9.330740
  H     -4.437630   -4.396110   -9.384850
  H     -4.697720    0.507760  -11.900510
  H     -6.245650   -3.068330   -4.103190
  H     -6.724850   -0.262000   -4.877460
  H     -7.414900    1.479120   -0.435100
  H     -6.499000    1.489620   -4.277920
  H     -7.232470    3.327580   -1.952530
  H     -5.916030    6.950290   -7.682260
  H     -6.000300    9.110190   -8.773650
  H     -6.441050   11.615350   -8.359060
  H     -6.965770   13.795700   -7.315340
  H     -7.575900   15.679480   -5.665700
  H     -8.206690   16.067480   -3.256180
  H     -8.239120   12.428870   -1.602700
  H     -8.792690   11.476650    1.035880
  H     -9.468620   11.216000    3.847040
  H    -10.093730   15.414700    4.628630
  H     -9.526460   16.389110    1.975640
  H     -8.856770   16.649960   -0.837650
  H    -10.140960   11.804170    6.296230
  H    -10.605770   14.782230    6.843260
  H    -10.755280   13.395260    8.024110

 Total Charge           Charge          ....    0
 Multiplicity           Mult            ....    1
 Number of Electrons    NEL             ....  562
 Basis Dimension        Dim             .... 1189

ORBITAL ENERGIES
----------------

  NO   OCC          E(Eh)            E(eV)
   0   2.0000    -482.871271    -13139.5953
   1   2.0000     -89.024805     -2422.4881
   2   2.0000     -88.977799     -2421.2090
   3   2.0000     -88.971137     -2421.0277
   4   2.0000     -88.961047     -2420.7531
   5   2.0000     -88.960015     -2420.7251
   6   2.0000     -62.548975     -1702.0441
   7   2.0000     -56.382906     -1534.2569
   8   2.0000     -56.380224     -1534.1839
   9   2.0000     -56.380188     -1534.1829
  10   2.0000     -19.228660      -523.2384
  11   2.0000     -19.227822      -523.2156
  12   2.0000     -19.221575      -523.0456
  13   2.0000     -14.640056      -398.3762
  14   2.0000     -14.480551      -394.0358
  15   2.0000     -14.445954      -393.0944
  16   2.0000     -14.445649      -393.0861
  17   2.0000     -14.436735      -392.8435
  18   2.0000     -14.432437      -392.7266
  19   2.0000     -14.420162      -392.3926
  20   2.0000     -14.417801      -392.3283
  21   2.0000     -14.407033      -392.0353
  22   2.0000     -14.402448      -391.9105
  23   2.0000     -10.366737      -282.0932
  24   2.0000     -10.362321      -281.9731
  25   2.0000     -10.357567      -281.8437
  26   2.0000     -10.357074      -281.8303
  27   2.0000     -10.354466      -281.7593
  28   2.0000     -10.342643      -281.4376
  29   2.0000     -10.339140      -281.3423
  30   2.0000     -10.335891      -281.2539
  31   2.0000     -10.333106      -281.1781
  32   2.0000     -10.332899      -281.1725
  33   2.0000     -10.332345      -281.1574
  34   2.0000     -10.330365      -281.1035
  35   2.0000     -10.329090      -281.0688
  36   2.0000     -10.328599      -281.0555
  37   2.0000     -10.328414      -281.0504
  38   2.0000     -10.325270      -280.9649
  39   2.0000     -10.325152      -280.9617
  40   2.0000     -10.324813      -280.9525
  41   2.0000     -10.317301      -280.7480
  42   2.0000     -10.316926      -280.7378
  43   2.0000     -10.314561      -280.6735
  44   2.0000     -10.313260      -280.6381
  45   2.0000     -10.311509      -280.5904
  46   2.0000     -10.311477      -280.5896
  47   2.0000     -10.310679      -280.5679
  48   2.0000     -10.309805      -280.5441
  49   2.0000     -10.309351      -280.5317
  50   2.0000     -10.308539      -280.5096
  51   2.0000     -10.308024      -280.4956
  52   2.0000     -10.306414      -280.4518
  53   2.0000     -10.305984      -280.4401
  54   2.0000     -10.302803      -280.3535
  55   2.0000     -10.299305      -280.2583
  56   2.0000     -10.298714      -280.2423
  57   2.0000     -10.297171      -280.2003
  58   2.0000     -10.295655      -280.1590
  59   2.0000     -10.293399      -280.0976
  60   2.0000     -10.292287      -280.0674
  61   2.0000     -10.291856      -280.0556
  62   2.0000     -10.291758      -280.0530
  63   2.0000     -10.291036      -280.0333
  64   2.0000     -10.290281      -280.0128
  65   2.0000     -10.290097      -280.0078
  66   2.0000     -10.289720      -279.9975
  67   2.0000     -10.289462      -279.9905
  68   2.0000     -10.287417      -279.9348
  69   2.0000     -10.287253      -279.9304
  70   2.0000     -10.286639      -279.9137
  71   2.0000     -10.286181      -279.9012
  72   2.0000     -10.280275      -279.7405
  73   2.0000     -10.279478      -279.7188
  74   2.0000     -10.278636      -279.6959
  75   2.0000     -10.276396      -279.6350
  76   2.0000     -10.271734      -279.5081
  77   2.0000     -10.268202      -279.4120
  78   2.0000      -8.778404      -238.8725
  79   2.0000      -8.116476      -220.8605
  80   2.0000      -8.073019      -219.6780
  81   2.0000      -8.067026      -219.5149
  82   2.0000      -8.057058      -219.2437
  83   2.0000      -8.054230      -219.1667
  84   2.0000      -6.614622      -179.9930
  85   2.0000      -6.600185      -179.6002
  86   2.0000      -6.599987      -179.5948
  87   2.0000      -6.087866      -165.6593
  88   2.0000      -6.080212      -165.4510
  89   2.0000      -6.078469      -165.4036
  90   2.0000      -6.042621      -164.4281
  91   2.0000      -6.038330      -164.3113
  92   2.0000      -6.036643      -164.2654
  93   2.0000      -6.034528      -164.2079
  94   2.0000      -6.032507      -164.1529
  95   2.0000      -6.028327      -164.0391
  96   2.0000      -6.026732      -163.9957
  97   2.0000      -6.023890      -163.9184
  98   2.0000      -6.022476      -163.8799
  99   2.0000      -6.019454      -163.7977
 100   2.0000      -6.018301      -163.7663
 101   2.0000      -6.015728      -163.6963
 102   2.0000      -2.730539       -74.3017
 103   2.0000      -2.726450       -74.1905
 104   2.0000      -2.726305       -74.1865
 105   2.0000      -2.714816       -73.8739
 106   2.0000      -2.714811       -73.8738
 107   2.0000      -1.309681       -35.6382
 108   2.0000      -1.136542       -30.9269
 109   2.0000      -1.128578       -30.7102
 110   2.0000      -1.126044       -30.6412
 111   2.0000      -1.101344       -29.9691
 112   2.0000      -1.089358       -29.6429
 113   2.0000      -1.026717       -27.9384
 114   2.0000      -1.016274       -27.6542
 115   2.0000      -1.012208       -27.5436
 116   2.0000      -1.010790       -27.5050
 117   2.0000      -1.004007       -27.3204
 118   2.0000      -1.000891       -27.2356
 119   2.0000      -0.997347       -27.1392
 120   2.0000      -0.994497       -27.0617
 121   2.0000      -0.992098       -26.9963
 122   2.0000      -0.986649       -26.8481
 123   2.0000      -0.984025       -26.7767
 124   2.0000      -0.979717       -26.6594
 125   2.0000      -0.977713       -26.6049
 126   2.0000      -0.960118       -26.1261
 127   2.0000      -0.929207       -25.2850
 128   2.0000      -0.927207       -25.2306
 129   2.0000      -0.911540       -24.8043
 130   2.0000      -0.904202       -24.6046
 131   2.0000      -0.897073       -24.4106
 132   2.0000      -0.893563       -24.3151
 133   2.0000      -0.891704       -24.2645
 134   2.0000      -0.891627       -24.2624
 135   2.0000      -0.881918       -23.9982
 136   2.0000      -0.872475       -23.7413
 137   2.0000      -0.871722       -23.7208
 138   2.0000      -0.866575       -23.5807
 139   2.0000      -0.861974       -23.4555
 140   2.0000      -0.853539       -23.2260
 141   2.0000      -0.838292       -22.8111
 142   2.0000      -0.837567       -22.7914
 143   2.0000      -0.832364       -22.6498
 144   2.0000      -0.825203       -22.4549
 145   2.0000      -0.815413       -22.1885
 146   2.0000      -0.811746       -22.0887
 147   2.0000      -0.810951       -22.0671
 148   2.0000      -0.788325       -21.4514
 149   2.0000      -0.784446       -21.3459
 150   2.0000      -0.775452       -21.1011
 151   2.0000      -0.772447       -21.0194
 152   2.0000      -0.757452       -20.6113
 153   2.0000      -0.750545       -20.4234
 154   2.0000      -0.739470       -20.1220
 155   2.0000      -0.727897       -19.8071
 156   2.0000      -0.718632       -19.5550
 157   2.0000      -0.717335       -19.5197
 158   2.0000      -0.705728       -19.2038
 159   2.0000      -0.697373       -18.9765
 160   2.0000      -0.693842       -18.8804
 161   2.0000      -0.688658       -18.7393
 162   2.0000      -0.682720       -18.5777
 163   2.0000      -0.679437       -18.4884
 164   2.0000      -0.676394       -18.4056
 165   2.0000      -0.669591       -18.2205
 166   2.0000      -0.666671       -18.1411
 167   2.0000      -0.663675       -18.0595
 168   2.0000      -0.651726       -17.7344
 169   2.0000      -0.647884       -17.6298
 170   2.0000      -0.644002       -17.5242
 171   2.0000      -0.640998       -17.4424
 172   2.0000      -0.638377       -17.3711
 173   2.0000      -0.635377       -17.2895
 174   2.0000      -0.624993       -17.0069
 175   2.0000      -0.621315       -16.9068
 176   2.0000      -0.620582       -16.8869
 177   2.0000      -0.617212       -16.7952
 178   2.0000      -0.615088       -16.7374
 179   2.0000      -0.610110       -16.6019
 180   2.0000      -0.609383       -16.5822
 181   2.0000      -0.606726       -16.5099
 182   2.0000      -0.605443       -16.4749
 183   2.0000      -0.600020       -16.3274
 184   2.0000      -0.591476       -16.0949
 185   2.0000      -0.582187       -15.8421
 186   2.0000      -0.580913       -15.8075
 187   2.0000      -0.575466       -15.6592
 188   2.0000      -0.568562       -15.4714
 189   2.0000      -0.565489       -15.3877
 190   2.0000      -0.562954       -15.3188
 191   2.0000      -0.555989       -15.1292
 192   2.0000      -0.552285       -15.0284
 193   2.0000      -0.548153       -14.9160
 194   2.0000      -0.547700       -14.9037
 195   2.0000      -0.547322       -14.8934
 196   2.0000      -0.542280       -14.7562
 197   2.0000      -0.536370       -14.5954
 198   2.0000      -0.534100       -14.5336
 199   2.0000      -0.529671       -14.4131
 200   2.0000      -0.527961       -14.3665
 201   2.0000      -0.525069       -14.2879
 202   2.0000      -0.524442       -14.2708
 203   2.0000      -0.522283       -14.2121
 204   2.0000      -0.519681       -14.1412
 205   2.0000      -0.516585       -14.0570
 206   2.0000      -0.513465       -13.9721
 207   2.0000      -0.513187       -13.9645
 208   2.0000      -0.509264       -13.8578
 209   2.0000      -0.506593       -13.7851
 210   2.0000      -0.504547       -13.7294
 211   2.0000      -0.500065       -13.6075
 212   2.0000      -0.496624       -13.5138
 213   2.0000      -0.494721       -13.4620
 214   2.0000      -0.491498       -13.3743
 215   2.0000      -0.489608       -13.3229
 216   2.0000      -0.487809       -13.2740
 217   2.0000      -0.486798       -13.2464
 218   2.0000      -0.483983       -13.1699
 219   2.0000      -0.481190       -13.0939
 220   2.0000      -0.475866       -12.9490
 221   2.0000      -0.475241       -12.9320
 222   2.0000      -0.471409       -12.8277
 223   2.0000      -0.470014       -12.7897
 224   2.0000      -0.467701       -12.7268
 225   2.0000      -0.465163       -12.6577
 226   2.0000      -0.464554       -12.6411
 227   2.0000      -0.463351       -12.6084
 228   2.0000      -0.456247       -12.4151
 229   2.0000      -0.454666       -12.3721
 230   2.0000      -0.453972       -12.3532
 231   2.0000      -0.451037       -12.2733
 232   2.0000      -0.447130       -12.1670
 233   2.0000      -0.444100       -12.0846
 234   2.0000      -0.442718       -12.0470
 235   2.0000      -0.441623       -12.0172
 236   2.0000      -0.441299       -12.0084
 237   2.0000      -0.439189       -11.9509
 238   2.0000      -0.438069       -11.9205
 239   2.0000      -0.436308       -11.8725
 240   2.0000      -0.433206       -11.7881
 241   2.0000      -0.432197       -11.7607
 242   2.0000      -0.430233       -11.7072
 243   2.0000      -0.425676       -11.5832
 244   2.0000      -0.424691       -11.5564
 245   2.0000      -0.422560       -11.4984
 246   2.0000      -0.421259       -11.4631
 247   2.0000      -0.417210       -11.3529
 248   2.0000      -0.414711       -11.2849
 249   2.0000      -0.410548       -11.1716
 250   2.0000      -0.402049       -10.9403
 251   2.0000      -0.399742       -10.8775
 252   2.0000      -0.397689       -10.8217
 253   2.0000      -0.393377       -10.7043
 254   2.0000      -0.392960       -10.6930
 255   2.0000      -0.392321       -10.6756
 256   2.0000      -0.389487       -10.5985
 257   2.0000      -0.382863       -10.4182
 258   2.0000      -0.376003       -10.2316
 259   2.0000      -0.372573       -10.1382
 260   2.0000      -0.368116       -10.0170
 261   2.0000      -0.362575        -9.8662
 262   2.0000      -0.360790        -9.8176
 263   2.0000      -0.357699        -9.7335
 264   2.0000      -0.357106        -9.7173
 265   2.0000      -0.353163        -9.6101
 266   2.0000      -0.350148        -9.5280
 267   2.0000      -0.345131        -9.3915
 268   2.0000      -0.339677        -9.2431
 269   2.0000      -0.336315        -9.1516
 270   2.0000      -0.334755        -9.1092
 271   2.0000      -0.332277        -9.0417
 272   2.0000      -0.328478        -8.9383
 273   2.0000      -0.315147        -8.5756
 274   2.0000      -0.303197        -8.2504
 275   2.0000      -0.294076        -8.0022
 276   2.0000      -0.291155        -7.9227
 277   2.0000      -0.279852        -7.6152
 278   2.0000      -0.271167        -7.3788
 279   2.0000      -0.253261        -6.8916
 280   2.0000      -0.205849        -5.6014
 281   0.0000      -0.126370        -3.4387
 282   0.0000      -0.120868        -3.2890
 283   0.0000      -0.074449        -2.0259
 284   0.0000      -0.071750        -1.9524
 285   0.0000      -0.057930        -1.5763

MULLIKEN ATOMIC CHARGES
-----------------------
   0 C :    0.322306
   1 C :   -0.348013
   2 C :   -0.186363
   3 N :    0.147225
   4 C :   -0.197391
   5 N :    0.142565
   6 C :    0.006602
   7 C :    0.032467
   8 C :   -0.040505
   9 C :    0.102959
  10 C :   -0.087714
  11 C :   -0.023830
  12 S :    0.179283
  13 C :   -0.125133
  14 C :    0.048004
  15 Br:    0.015914
  16 C :    0.175081
  17 O :   -0.242350
  18 C :   -0.128234
  19 C :    0.037276
  20 N :   -0.008074
  21 C :   -0.120481
  22 S :    0.182406
  23 C :   -0.004277
  24 N :    0.275041
  25 O :   -0.252942
  26 O :   -0.260999
  27 C :    0.002981
  28 C :    0.149413
  29 C :   -0.030200
  30 C :   -0.048668
  31 C :    0.046800
  32 C :   -0.044186
  33 C :   -0.055097
  34 N :    0.046267
  35 C :   -0.159893
  36 C :   -0.115216
  37 N :   -0.006180
  38 C :   -0.175518
  39 N :    0.187044
  40 C :   -0.157611
  41 N :    0.163972
  42 C :    0.120598
  43 C :    0.049930
  44 C :    0.015700
  45 N :   -0.295641
  46 S :    0.494872
  47 N :   -0.330768
  48 C :   -0.134570
  49 C :    0.024254
  50 C :    0.010509
  51 C :    0.041897
  52 C :   -0.040145
  53 S :    0.135026
  54 C :   -0.015576
  55 C :    0.018859
  56 C :    0.049169
  57 C :   -0.044378
  58 S :    0.071051
  59 C :    0.018396
  60 C :    0.037267
  61 C :   -0.016327
  62 C :    0.035268
  63 C :    0.016163
  64 C :    0.054902
  65 C :   -0.007885
  66 C :    0.053127
  67 C :    0.001952
  68 C :    0.038295
  69 C :    0.018976
  70 C :    0.055413
  71 C :   -0.018595
  72 C :    0.009986
  73 C :   -0.018908
  74 H :   -0.034854
  75 H :   -0.008885
  76 H :    0.007836
  77 H :    0.041368
  78 H :    0.188356
  79 H :    0.013207
  80 H :   -0.002586
  81 H :   -0.017396
  82 H :    0.001091
  83 H :   -0.004850
  84 H :   -0.012071
  85 H :   -0.007561
  86 H :   -0.003074
  87 H :   -0.010371
  88 H :   -0.001807
  89 H :   -0.013923
  90 H :   -0.011628
  91 H :   -0.013312
  92 H :   -0.014050
  93 H :   -0.016638
  94 H :   -0.012006
  95 H :    0.011304
  96 H :    0.028300
Sum of atomic charges:   -0.0000000

LOEWDIN ATOMIC CHARGES
----------------------
   0 C :    0.083024
   1 C :   -0.152081
   2 C :   -0.019320
   3 N :   -0.058439
   4 C :   -0.019818
   5 N :   -0.059497
   6 C :   -0.015511
   7 C :   -0.049359
   8 C :    0.035934
   9 C :   -0.029643
  10 C :   -0.142076
  11 C :   -0.010033
  12 S :    0.427944
  13 C :   -0.274796
  14 C :   -0.059872
  15 Br:    0.131477
  16 C :    0.105475
  17 O :   -0.180858
  18 C :   -0.141546
  19 C :    0.112611
  20 N :    0.081560
  21 C :   -0.116702
  22 S :    0.466281
  23 C :   -0.202323
  24 N :    0.273186
  25 O :   -0.219014
  26 O :   -0.227175
  27 C :    0.004765
  28 C :   -0.080250
  29 C :   -0.031165
  30 C :   -0.006778
  31 C :   -0.077314
  32 C :    0.006676
  33 C :   -0.012038
  34 N :   -0.002227
  35 C :   -0.064549
  36 C :   -0.022034
  37 N :   -0.011595
  38 C :   -0.026854
  39 N :   -0.030397
  40 C :   -0.022641
  41 N :   -0.049154
  42 C :   -0.026958
  43 C :   -0.043269
  44 C :   -0.034175
  45 N :   -0.301184
  46 S :    0.617389
  47 N :   -0.292912
  48 C :   -0.043980
  49 C :   -0.127109
  50 C :   -0.043025
  51 C :   -0.020718
  52 C :   -0.214100
  53 S :    0.457544
  54 C :   -0.140857
  55 C :   -0.051544
  56 C :   -0.004933
  57 C :   -0.174849
  58 S :    0.406911
  59 C :    0.000602
  60 C :   -0.081483
  61 C :    0.035618
  62 C :   -0.066601
  63 C :    0.089789
  64 C :   -0.065808
  65 C :    0.047190
  66 C :   -0.059858
  67 C :    0.069023
  68 C :   -0.069387
  69 C :    0.096967
  70 C :   -0.072929
  71 C :    0.046090
  72 C :   -0.024344
  73 C :   -0.042522
  74 H :    0.036266
  75 H :    0.040554
  76 H :    0.043176
  77 H :    0.037515
  78 H :    0.083443
  79 H :    0.045902
  80 H :    0.023400
  81 H :    0.029035
  82 H :    0.040456
  83 H :    0.035455
  84 H :    0.031553
  85 H :    0.034699
  86 H :    0.037115
  87 H :    0.040652
  88 H :    0.015515
  89 H :    0.039582
  90 H :    0.030634
  91 H :    0.029796
  92 H :    0.039350
  93 H :    0.028387
  94 H :    0.031701
  95 H :    0.019151
  96 H :    0.028207

  Mayer bond orders larger than 0.100000
B(  0-C ,  1-C ) :   1.6251 B(  0-C ,  6-C ) :   1.0082 B(  0-C , 18-C ) :   1.0943
B(  1-C ,  2-C ) :   1.1439 B(  1-C ,  4-C ) :   1.1462 B(  2-C ,  3-N ) :   2.9716
B(  4-C ,  5-N ) :   2.9624 B(  6-C ,  7-C ) :   1.2667 B(  6-C , 11-C ) :   1.4247
B(  7-C ,  8-C ) :   1.3981 B(  7-C , 16-C ) :   0.9989 B(  8-C ,  9-C ) :   1.2660
B(  8-C , 74-H ) :   1.0116 B(  9-C , 10-C ) :   1.3062 B(  9-C , 14-C ) :   1.1702
B( 10-C , 11-C ) :   1.3159 B( 10-C , 12-S ) :   1.0891 B( 11-C , 75-H ) :   0.9805
B( 12-S , 13-C ) :   1.0799 B( 13-C , 14-C ) :   1.6110 B( 13-C , 15-Br) :   1.0152
B( 14-C , 76-H ) :   0.9975 B( 16-C , 17-O ) :   1.9550 B( 16-C , 18-C ) :   1.0153
B( 17-O , 78-H ) :   0.1511 B( 18-C , 19-C ) :   1.4502 B( 19-C , 20-N ) :   1.3399
B( 19-C , 77-H ) :   0.9356 B( 20-N , 21-C ) :   1.1962 B( 20-N , 78-H ) :   0.8151
B( 21-C , 22-S ) :   1.1294 B( 21-C , 28-C ) :   1.3524 B( 22-S , 23-C ) :   1.0811
B( 23-C , 24-N ) :   0.9675 B( 23-C , 27-C ) :   1.4927 B( 24-N , 25-O ) :   1.5334
B( 24-N , 26-O ) :   1.5145 B( 25-O , 26-O ) :   0.2587 B( 27-C , 28-C ) :   1.2147
B( 27-C , 79-H ) :   1.0033 B( 28-C , 29-C ) :   1.0938 B( 29-C , 30-C ) :   1.6456
B( 29-C , 80-H ) :   0.9416 B( 30-C , 31-C ) :   1.1862 B( 30-C , 81-H ) :   0.9669
B( 31-C , 32-C ) :   1.2415 B( 31-C , 44-C ) :   1.1635 B( 32-C , 33-C ) :   1.1101
B( 32-C , 37-N ) :   1.3943 B( 33-C , 34-N ) :   1.5348 B( 33-C , 42-C ) :   1.1333
B( 34-N , 35-C ) :   1.6464 B( 35-C , 36-C ) :   1.2309 B( 35-C , 40-C ) :   1.1370
B( 36-C , 37-N ) :   1.6991 B( 36-C , 38-C ) :   1.1279 B( 38-C , 39-N ) :   3.0011
B( 40-C , 41-N ) :   2.9875 B( 42-C , 43-C ) :   1.1221 B( 42-C , 48-C ) :   1.3899
B( 43-C , 44-C ) :   1.1188 B( 43-C , 47-N ) :   1.5062 B( 44-C , 45-N ) :   1.5582
B( 45-N , 46-S ) :   1.2318 B( 45-N , 47-N ) :   0.1334 B( 46-S , 47-N ) :   1.2277
B( 48-C , 49-C ) :   1.3382 B( 48-C , 82-H ) :   0.9431 B( 49-C , 50-C ) :   1.2280
B( 49-C , 53-S ) :   1.1058 B( 50-C , 51-C ) :   1.4887 B( 50-C , 83-H ) :   1.0033
B( 51-C , 52-C ) :   1.2598 B( 51-C , 84-H ) :   0.9949 B( 52-C , 53-S ) :   1.0238
B( 52-C , 54-C ) :   1.3822 B( 54-C , 55-C ) :   1.2473 B( 54-C , 58-S ) :   1.0965
B( 55-C , 56-C ) :   1.5216 B( 55-C , 85-H ) :   0.9947 B( 56-C , 57-C ) :   1.1885
B( 56-C , 86-H ) :   0.9997 B( 57-C , 58-S ) :   1.0231 B( 57-C , 59-C ) :   1.5026
B( 59-C , 60-C ) :   1.1843 B( 59-C , 87-H ) :   0.9709 B( 60-C , 61-C ) :   1.1877
B( 60-C , 71-C ) :   1.3081 B( 61-C , 62-C ) :   1.3938 B( 61-C , 88-H ) :   0.9898
B( 62-C , 63-C ) :   1.1701 B( 62-C , 70-C ) :   1.1430 B( 63-C , 64-C ) :   1.3931
B( 63-C , 89-H ) :   1.0048 B( 64-C , 65-C ) :   1.1467 B( 64-C , 68-C ) :   1.1274
B( 65-C , 66-C ) :   1.4024 B( 65-C , 90-H ) :   1.0170 B( 66-C , 67-C ) :   1.2460
B( 66-C , 72-C ) :   1.0778 B( 67-C , 68-C ) :   1.3048 B( 67-C , 91-H ) :   1.0090
B( 68-C , 69-C ) :   1.2442 B( 69-C , 70-C ) :   1.2982 B( 69-C , 92-H ) :   1.0051
B( 70-C , 71-C ) :   1.2217 B( 71-C , 93-H ) :   1.0184 B( 72-C , 73-C ) :   1.9416
B( 72-C , 94-H ) :   0.9671 B( 73-C , 95-H ) :   0.9541 B( 73-C , 96-H ) :   0.9489

-----------------------------------------------------------------------------
         ABSORPTION SPECTRUM VIA TRANSITION ELECTRIC DIPOLE MOMENTS
-----------------------------------------------------------------------------
State   Energy  Wavelength   fosc         T2         TX        TY        TZ
        (cm-1)    (nm)                  (au**2)     (au)      (au)      (au)
-----------------------------------------------------------------------------
   0    3828.0   2612.3   0.007345314   0.63170   0.16511  -0.69297  -0.35246
   1    5056.9   1977.5   0.440907328  28.70353   0.91123  -5.10606  -1.34212
   2   11022.0    907.3   0.008110897   0.24226   0.00425  -0.46393   0.16434
   3   15063.3    663.9   0.602201343  13.16126  -1.00601   2.04120   2.82537
   4   15246.7    655.9   0.171894227   3.71160   0.58645  -0.42995  -1.78405
   5   15986.4    625.5   0.110765290   2.28102  -0.05835   1.40688   0.54617
   6   19006.7    526.1   0.004570507   0.07916  -0.08682   0.04448  -0.26391
   7   19915.9    502.1   0.073569559   1.21611  -0.14450   0.10955   1.08776
   8   20480.4    488.3   0.058381913   0.93846  -0.13273   0.73125   0.62138
   9   21038.1    475.3   0.104466598   1.63473  -0.34906  -0.52200   1.11373
  10   21639.3    462.1   0.214401344   3.26181  -0.43289   0.29020   1.72922
  11   22419.4    446.0   0.265792281   3.90296   0.60658  -0.08141  -1.87840
  12   23383.3    427.7   0.045117242   0.63520  -0.20636   0.60609   0.47463
  13   24231.2    412.7   0.271104148   3.68329  -0.38187  -0.91535   1.64305
  14   24548.7    407.4   0.231367598   3.10277   0.08741   1.34890  -1.12942
  15   25019.8    399.7   0.096900555   1.27502  -0.28373   0.87437   0.65575
  16   25179.9    397.1   0.502761472   6.57329   0.65811  -0.65647  -2.38940
  17   25435.4    393.2   0.014042438   0.18175  -0.11210   0.07694   0.40406
  18   26242.1    381.1   0.043497666   0.54569   0.11831  -0.67571   0.27405
  19   26474.2    377.7   0.854541392  10.62639   0.46552   1.15199  -3.01373
  20   27069.8    369.4   0.043458155   0.52852  -0.19968  -0.45012   0.53483
  21   27280.7    366.6   0.048830908   0.58927   0.11570   0.62913  -0.42435
  22   28129.8    355.5   0.051746824   0.60561  -0.25774  -0.20990   0.70365
  23   28306.6    353.3   0.017246802   0.20058   0.14387  -0.14704  -0.39782
  24   28707.0    348.3   0.246944700   2.83196   0.26666   0.96271  -1.35427
  25   29122.8    343.4   0.029099091   0.32894  -0.15887   0.47142   0.28543
  26   29190.5    342.6   0.147227853   1.66044  -0.32167   0.08690   1.24476
  27   29480.2    339.2   0.205318415   2.29283   0.46494   0.10699  -1.43709
  28   30073.2    332.5   0.027503376   0.30108  -0.18697  -0.06920   0.51121
  29   30228.8    330.8   0.034437349   0.37505   0.08329  -0.53102  -0.29347
  30   30378.2    329.2   0.022318972   0.24187   0.32253  -0.35019  -0.12333
  31   30912.7    323.5   0.096822804   1.03114   0.03647  -0.87627   0.51182
  32   31148.2    321.0   0.173836212   1.83731   0.21593  -1.33545  -0.08516
  33   31363.3    318.8   0.771669793   8.10000  -0.87335  -0.06031   2.70807
  34   31964.8    312.8   0.000469481   0.00484  -0.06130   0.02013   0.02593
  35   31985.8    312.6   0.168458201   1.73385  -0.56825   0.82533   0.85426
  36   32638.2    306.4   0.016985970   0.17133   0.12677   0.33477  -0.20783
  37   33003.0    303.0   0.103472727   1.03216  -0.03065   0.92439  -0.42039
  38   33241.7    300.8   0.093921518   0.93016  -0.14900   0.94969   0.07775
  39   33343.8    299.9   0.049256096   0.48632   0.20352  -0.44444  -0.49736
  40   33362.0    299.7   0.076108510   0.75103   0.05207  -0.67263   0.54395
  41   33811.2    295.8   0.190164260   1.85158   0.47269  -0.64355  -1.10181
  42   33966.1    294.4   0.276580496   2.68072  -0.35135  -0.72687   1.42441
  43   34091.5    293.3   0.427625564   4.12945  -0.42127  -1.14153   1.62754
  44   34341.0    291.2   0.007866806   0.07542  -0.07335  -0.14297   0.22270
  45   34699.4    288.2   0.018593524   0.17641  -0.09022   0.36204   0.19285
  46   34795.4    287.4   0.000151280   0.00143   0.02348   0.02772   0.01056
  47   35079.2    285.1   0.055147964   0.51755  -0.20694   0.60680   0.32638
  48   35263.0    283.6   0.103053102   0.96209   0.36567  -0.39203  -0.82139
  49   35403.8    282.5   0.003879964   0.03608   0.04677  -0.16183  -0.08776
  50   35462.3    282.0   0.014431966   0.13398  -0.07495   0.01406   0.35800
  51   35565.0    281.2   0.022392329   0.20728   0.20470  -0.04256  -0.40443
  52   35792.1    279.4   0.148738566   1.36808  -0.33727  -0.33900   1.06743
  53   35908.1    278.5   0.029988143   0.27494   0.17462  -0.28326  -0.40523
  54   36000.2    277.8   0.002551885   0.02334   0.07096  -0.05880  -0.12183
  55   36415.2    274.6   0.022725784   0.20545   0.14026  -0.39701  -0.16783
  56   36510.8    273.9   0.062083752   0.55980   0.26045  -0.53392  -0.45485
  57   36682.7    272.6   0.007040047   0.06318  -0.11150   0.18772  -0.12454
  58   36729.7    272.3   0.022540643   0.20203  -0.05151   0.24418   0.37384
  59   36871.0    271.2   0.032930853   0.29403   0.13659  -0.50282  -0.15016
  60   36953.0    270.6   0.192881452   1.71837   0.46845  -1.13104  -0.46868
  61   36990.2    270.3   0.015765508   0.14031   0.08762  -0.24554  -0.26897
  62   37260.6    268.4   0.039316094   0.34737  -0.17472  -0.15471   0.54121
  63   37381.3    267.5   0.058402458   0.51434  -0.26605   0.47275   0.46911
  64   38054.4    262.8   0.000461195   0.00399   0.00293   0.06278  -0.00636
  65   38264.4    261.3   0.014086016   0.12119  -0.04444  -0.25922   0.22808
  66   38497.5    259.8   0.004691688   0.04012  -0.09176   0.11077   0.13940
  67   38630.4    258.9   0.000332744   0.00284  -0.00941   0.03277   0.04091
  68   38681.4    258.5   0.000598970   0.00510  -0.05621   0.01130   0.04255
  69   39205.9    255.1   0.058146694   0.48826  -0.07005  -0.29359   0.63020
  70   39411.0    253.7   0.026623271   0.22239  -0.05879   0.43693  -0.16742
  71   39446.3    253.5   0.075762068   0.63230  -0.08775   0.79028  -0.00725
  72   39840.0    251.0   0.017255714   0.14259  -0.01376  -0.28037   0.25257
  73   39944.5    250.3   0.059888792   0.49359   0.12088   0.53351  -0.44084
  74   40068.9    249.6   0.018814023   0.15458  -0.05975   0.00225   0.38859
  75   40295.2    248.2   0.048779897   0.39853  -0.02344   0.49977  -0.38499

FINAL SINGLE POINT ENERGY     -7443.269909664633

DIPOLE MOMENT
-------------
                                X             Y             Z
Electronic contribution:     51.93617    -128.30597    -138.86184
Nuclear contribution   :    -53.92827     139.51169     140.24846
                        -----------------------------------------
Total Dipole Moment    :     -1.99209      11.20572       1.38662
                        -----------------------------------------
Magnitude (a.u.)       :     11.46557
Magnitude (Debye)      :     29.14317

Rotational constants in cm-1:     0.001035     0.000268     0.000214
Rotational constants in MHz :    31.037718     8.038221     6.411742

                             ****ORCA TERMINATED NORMALLY****
TOTAL RUN TIME: 0 days 0 hours 17 minutes 32 seconds 912 msec
