                         Program Version 4.2.0 -  RELEASE  -
|  1> # ORCA input file
|  2> # SCF done       -193.528899458715          0.000697482448
|  3> ! CAM-B3LYP def2-SVP def2/J RIJCOSX Grid4 TightSCF
|  4> %maxcore 5000
|  5> %tddft
|  6>     Mode sTDDFT
|  7>     Ethresh 5.0
|  8>     maxcore 5000
|  9> end
| 10>
| 11> %pal
| 12>   nprocs 6
| 13>   end
| 14> * xyz 0 1
| 15>    C       -1.42977         0.57913        -0.94193
| 16>    C       -1.19595        -0.33250         0.05627
| 17>    C       -0.05983        -1.16337         0.12198
| 18>    N        0.84560        -1.86163         0.22761
| 19>    C       -2.06298        -0.54676         1.14640
| 20>    N       -2.73967        -0.75043         2.05132
| 21>    C       -0.55232         0.84409        -2.08041
| 22>    C       -1.12800         1.86776        -2.87732
| 23>    C       -0.53501         2.33515        -4.02495
| 24>    C        0.68385         1.76496        -4.40825
| 25>    C        1.25012         0.74479        -3.60829
| 26>    C        0.65067         0.27306        -2.44536
| 27>    S        2.75515         0.17921        -4.26448
| 28>    C        2.60516         1.30362        -5.58856
| 29>    C        1.48682         2.06622        -5.54199
| 30>   Br        3.93981         1.36798        -6.90456
| 31>    C       -2.39811         2.28111        -2.26864
| 32>    O       -3.17583         3.14259        -2.67357
| 33>    C       -2.56783         1.45601        -1.07195
| 34>    C       -3.68960         1.56025        -0.28100
| 35>    N       -4.64698         2.43844        -0.59500
| 36>    C       -5.82822         2.63289         0.03850
| 37>    S       -6.27153         1.71432         1.44412
| 38>    C       -7.79156         2.54940         1.47532
| 39>    N       -8.69283         2.22289         2.49974
| 40>    O       -9.75914         2.80706         2.52133
| 41>    O       -8.33389         1.37291         3.29468
| 42>    C       -7.94326         3.46627         0.47328
| 43>    C       -6.81629         3.54331        -0.37520
| 44>    C       -6.67061         4.42557        -1.48865
| 45>    C       -7.67416         5.17936        -2.01353
| 46>    C       -7.49725         6.06568        -3.09069
| 47>    C       -8.51533         6.77427        -3.67474
| 48>    C       -8.40467         7.70265        -4.74351
| 49>    C       -9.58609         8.24459        -5.13900
| 50>    C      -10.70747         7.76856        -4.41513
| 51>    S      -10.19671         6.62401        -3.19156
| 52>    C      -12.03423         8.07820        -4.60545
| 53>    C      -12.58847         8.98180        -5.55347
| 54>    C      -13.93944         9.04326        -5.53500
| 55>    C      -14.55284         8.18245        -4.56892
| 56>    S      -13.30264         7.31806        -3.67105
| 57>    C      -15.87259         7.99234        -4.36863
| 58>    C      -16.41915         7.04940        -3.37236
| 59>    S      -17.62775         7.90105        -2.23886
| 60>    C      -18.93765         6.65878        -2.52368
| 61>    C      -18.18358         5.38426        -2.93486
| 62>    C      -17.20987         5.90700        -3.99781
| 63>    C      -19.17048         4.36265        -3.53964
| 64>    O      -19.10253         3.99931        -4.68812
| 65>    N      -20.15584         3.97714        -2.70309
| 66>    N      -17.54434         4.87450        -1.73209
| 67>    C      -17.55406         3.62107        -1.25110
| 68>    C      -17.66706         2.44437        -1.93912
| 69>    C      -17.29710         2.08897        -3.28625
| 70>    C      -16.21202         2.60612        -3.94816
| 71>    C      -15.78470         2.18368        -5.21970
| 72>    N      -15.40858         1.88363        -6.26198
| 73>    C      -15.36445         3.53731        -3.31624
| 74>    N      -14.65486         4.25613        -2.76840
| 75>    C      -18.00013         0.86119        -3.62892
| 76>    C      -18.59546         0.34940        -2.44839
| 77>    C      -18.35433         1.28695        -1.32800
| 78>    O      -18.72741         1.17758        -0.17932
| 79>    C      -19.28490        -0.83825        -2.43396
| 80>    C      -19.39965        -1.54076        -3.63922
| 81>    C      -18.81205        -1.01037        -4.81245
| 82>    C      -18.10287         0.18508        -4.82689
| 83>    S      -19.08694        -2.03830        -6.18560
| 84>    C      -19.96918        -3.15512        -5.17826
| 85>    C      -20.05782        -2.77816        -3.88093
| 86>   Br      -20.69333        -4.71116        -5.93489
| 87>    H       -0.99652         3.11392        -4.61158
| 88>    H        1.12148        -0.50713        -1.87109
| 89>    H        1.23727         2.81011        -6.27635
| 90>    H       -3.84334         0.94564         0.59622
| 91>    H       -4.44000         2.98936        -1.44853
| 92>    H       -8.83162         4.06231         0.37483
| 93>    H       -5.69285         4.49313        -1.94679
| 94>    H       -8.67429         5.10467        -1.60916
| 95>    H       -6.50019         6.19936        -3.48888
| 96>    H       -7.45014         7.93569        -5.18152
| 97>    H       -9.68753         8.96216        -5.93331
| 98>    H      -11.96454         9.55485        -6.21589
| 99>    H      -14.53623         9.66506        -6.17808
|100>    H      -16.58354         8.54544        -4.96579
|101>    H      -15.61780         6.65517        -2.74133
|102>    H      -19.59625         6.99903        -3.32287
|103>    H      -19.51162         6.55287        -1.60454
|104>    H      -17.79905         6.26315        -4.84517
|105>    H      -16.53364         5.14257        -4.36757
|106>    H      -20.16700         4.20420        -1.72464
|107>    H      -20.82171         3.29865        -3.03681
|108>    H      -17.29559         5.61082        -1.08186
|109>    H      -17.56902         3.54700        -0.16631
|110>    H      -19.71843        -1.21877        -1.52239
|111>    H      -17.67285         0.56384        -5.73950
|112>    H      -20.56487        -3.34765        -3.12358
|113> *
|114>
|115>                          ****END OF INPUT****

CARTESIAN COORDINATES (ANGSTROEM)
---------------------------------
  C     -1.429770    0.579130   -0.941930
  C     -1.195950   -0.332500    0.056270
  C     -0.059830   -1.163370    0.121980
  N      0.845600   -1.861630    0.227610
  C     -2.062980   -0.546760    1.146400
  N     -2.739670   -0.750430    2.051320
  C     -0.552320    0.844090   -2.080410
  C     -1.128000    1.867760   -2.877320
  C     -0.535010    2.335150   -4.024950
  C      0.683850    1.764960   -4.408250
  C      1.250120    0.744790   -3.608290
  C      0.650670    0.273060   -2.445360
  S      2.755150    0.179210   -4.264480
  C      2.605160    1.303620   -5.588560
  C      1.486820    2.066220   -5.541990
  Br     3.939810    1.367980   -6.904560
  C     -2.398110    2.281110   -2.268640
  O     -3.175830    3.142590   -2.673570
  C     -2.567830    1.456010   -1.071950
  C     -3.689600    1.560250   -0.281000
  N     -4.646980    2.438440   -0.595000
  C     -5.828220    2.632890    0.038500
  S     -6.271530    1.714320    1.444120
  C     -7.791560    2.549400    1.475320
  N     -8.692830    2.222890    2.499740
  O     -9.759140    2.807060    2.521330
  O     -8.333890    1.372910    3.294680
  C     -7.943260    3.466270    0.473280
  C     -6.816290    3.543310   -0.375200
  C     -6.670610    4.425570   -1.488650
  C     -7.674160    5.179360   -2.013530
  C     -7.497250    6.065680   -3.090690
  C     -8.515330    6.774270   -3.674740
  C     -8.404670    7.702650   -4.743510
  C     -9.586090    8.244590   -5.139000
  C    -10.707470    7.768560   -4.415130
  S    -10.196710    6.624010   -3.191560
  C    -12.034230    8.078200   -4.605450
  C    -12.588470    8.981800   -5.553470
  C    -13.939440    9.043260   -5.535000
  C    -14.552840    8.182450   -4.568920
  S    -13.302640    7.318060   -3.671050
  C    -15.872590    7.992340   -4.368630
  C    -16.419150    7.049400   -3.372360
  S    -17.627750    7.901050   -2.238860
  C    -18.937650    6.658780   -2.523680
  C    -18.183580    5.384260   -2.934860
  C    -17.209870    5.907000   -3.997810
  C    -19.170480    4.362650   -3.539640
  O    -19.102530    3.999310   -4.688120
  N    -20.155840    3.977140   -2.703090
  N    -17.544340    4.874500   -1.732090
  C    -17.554060    3.621070   -1.251100
  C    -17.667060    2.444370   -1.939120
  C    -17.297100    2.088970   -3.286250
  C    -16.212020    2.606120   -3.948160
  C    -15.784700    2.183680   -5.219700
  N    -15.408580    1.883630   -6.261980
  C    -15.364450    3.537310   -3.316240
  N    -14.654860    4.256130   -2.768400
  C    -18.000130    0.861190   -3.628920
  C    -18.595460    0.349400   -2.448390
  C    -18.354330    1.286950   -1.328000
  O    -18.727410    1.177580   -0.179320
  C    -19.284900   -0.838250   -2.433960
  C    -19.399650   -1.540760   -3.639220
  C    -18.812050   -1.010370   -4.812450
  C    -18.102870    0.185080   -4.826890
  S    -19.086940   -2.038300   -6.185600
  C    -19.969180   -3.155120   -5.178260
  C    -20.057820   -2.778160   -3.880930
  Br   -20.693330   -4.711160   -5.934890
  H     -0.996520    3.113920   -4.611580
  H      1.121480   -0.507130   -1.871090
  H      1.237270    2.810110   -6.276350
  H     -3.843340    0.945640    0.596220
  H     -4.440000    2.989360   -1.448530
  H     -8.831620    4.062310    0.374830
  H     -5.692850    4.493130   -1.946790
  H     -8.674290    5.104670   -1.609160
  H     -6.500190    6.199360   -3.488880
  H     -7.450140    7.935690   -5.181520
  H     -9.687530    8.962160   -5.933310
  H    -11.964540    9.554850   -6.215890
  H    -14.536230    9.665060   -6.178080
  H    -16.583540    8.545440   -4.965790
  H    -15.617800    6.655170   -2.741330
  H    -19.596250    6.999030   -3.322870
  H    -19.511620    6.552870   -1.604540
  H    -17.799050    6.263150   -4.845170
  H    -16.533640    5.142570   -4.367570
  H    -20.167000    4.204200   -1.724640
  H    -20.821710    3.298650   -3.036810
  H    -17.295590    5.610820   -1.081860
  H    -17.569020    3.547000   -0.166310
  H    -19.718430   -1.218770   -1.522390
  H    -17.672850    0.563840   -5.739500
  H    -20.564870   -3.347650   -3.123580

 Total Charge           Charge          ....    0
 Multiplicity           Mult            ....    1
 Number of Electrons    NEL             ....  594
 Basis Dimension        Dim             .... 1198

ORBITAL ENERGIES
----------------

  NO   OCC          E(Eh)            E(eV)
   0   2.0000    -482.887856    -13140.0466
   1   2.0000    -482.881749    -13139.8804
   2   2.0000     -88.984655     -2421.3956
   3   2.0000     -88.978743     -2421.2347
   4   2.0000     -88.970709     -2421.0161
   5   2.0000     -88.941887     -2420.2318
   6   2.0000     -88.939865     -2420.1768
   7   2.0000     -88.929176     -2419.8859
   8   2.0000     -62.565547     -1702.4951
   9   2.0000     -62.559473     -1702.3298
  10   2.0000     -56.399500     -1534.7084
  11   2.0000     -56.396780     -1534.6344
  12   2.0000     -56.396747     -1534.6335
  13   2.0000     -56.393418     -1534.5429
  14   2.0000     -56.390716     -1534.4694
  15   2.0000     -56.390675     -1534.4683
  16   2.0000     -19.235152      -523.4151
  17   2.0000     -19.234434      -523.3956
  18   2.0000     -19.232248      -523.3361
  19   2.0000     -19.206811      -522.6439
  20   2.0000     -19.205236      -522.6010
  21   2.0000     -14.646551      -398.5529
  22   2.0000     -14.494239      -394.4083
  23   2.0000     -14.478875      -393.9902
  24   2.0000     -14.451921      -393.2568
  25   2.0000     -14.417987      -392.3334
  26   2.0000     -14.414079      -392.2270
  27   2.0000     -14.409721      -392.1084
  28   2.0000     -14.404833      -391.9754
  29   2.0000     -10.397015      -282.9172
  30   2.0000     -10.378936      -282.4252
  31   2.0000     -10.367988      -282.1273
  32   2.0000     -10.365247      -282.0527
  33   2.0000     -10.361807      -281.9591
  34   2.0000     -10.361467      -281.9499
  35   2.0000     -10.359799      -281.9045
  36   2.0000     -10.354398      -281.7575
  37   2.0000     -10.353878      -281.7434
  38   2.0000     -10.345480      -281.5148
  39   2.0000     -10.343605      -281.4638
  40   2.0000     -10.340937      -281.3912
  41   2.0000     -10.334610      -281.2190
  42   2.0000     -10.328801      -281.0610
  43   2.0000     -10.328581      -281.0550
  44   2.0000     -10.321738      -280.8688
  45   2.0000     -10.320402      -280.8324
  46   2.0000     -10.320147      -280.8255
  47   2.0000     -10.317441      -280.7518
  48   2.0000     -10.312837      -280.6266
  49   2.0000     -10.311767      -280.5974
  50   2.0000     -10.311400      -280.5874
  51   2.0000     -10.310669      -280.5676
  52   2.0000     -10.310517      -280.5634
  53   2.0000     -10.308624      -280.5119
  54   2.0000     -10.308176      -280.4997
  55   2.0000     -10.308153      -280.4991
  56   2.0000     -10.308099      -280.4976
  57   2.0000     -10.307452      -280.4800
  58   2.0000     -10.306579      -280.4563
  59   2.0000     -10.306478      -280.4535
  60   2.0000     -10.302957      -280.3577
  61   2.0000     -10.301810      -280.3265
  62   2.0000     -10.300926      -280.3024
  63   2.0000     -10.299535      -280.2646
  64   2.0000     -10.299367      -280.2600
  65   2.0000     -10.298253      -280.2297
  66   2.0000     -10.297417      -280.2070
  67   2.0000     -10.296394      -280.1791
  68   2.0000     -10.292308      -280.0679
  69   2.0000     -10.290158      -280.0094
  70   2.0000     -10.289645      -279.9955
  71   2.0000     -10.287299      -279.9316
  72   2.0000     -10.286826      -279.9188
  73   2.0000     -10.285089      -279.8715
  74   2.0000     -10.284421      -279.8533
  75   2.0000     -10.283882      -279.8387
  76   2.0000     -10.283646      -279.8322
  77   2.0000     -10.281566      -279.7756
  78   2.0000     -10.281511      -279.7741
  79   2.0000     -10.276445      -279.6363
  80   2.0000      -8.794979      -239.3236
  81   2.0000      -8.788903      -239.1582
  82   2.0000      -8.079875      -219.8646
  83   2.0000      -8.074653      -219.7225
  84   2.0000      -8.066693      -219.5059
  85   2.0000      -8.038241      -218.7317
  86   2.0000      -8.036109      -218.6736
  87   2.0000      -8.024910      -218.3689
  88   2.0000      -6.631262      -180.4458
  89   2.0000      -6.625170      -180.2801
  90   2.0000      -6.616714      -180.0499
  91   2.0000      -6.616517      -180.0446
  92   2.0000      -6.610636      -179.8846
  93   2.0000      -6.610475      -179.8802
  94   2.0000      -6.049530      -164.6161
  95   2.0000      -6.045210      -164.4985
  96   2.0000      -6.044327      -164.4745
  97   2.0000      -6.041284      -164.3917
  98   2.0000      -6.040046      -164.3580
  99   2.0000      -6.036382      -164.2583
 100   2.0000      -6.035941      -164.2463
 101   2.0000      -6.032111      -164.1421
 102   2.0000      -6.027930      -164.0283
 103   2.0000      -6.007989      -163.4857
 104   2.0000      -6.005941      -163.4300
 105   2.0000      -6.004036      -163.3781
 106   2.0000      -6.001898      -163.3200
 107   2.0000      -5.999012      -163.2414
 108   2.0000      -5.996716      -163.1789
 109   2.0000      -5.995482      -163.1454
 110   2.0000      -5.991401      -163.0343
 111   2.0000      -5.984219      -162.8389
 112   2.0000      -2.747181       -74.7546
 113   2.0000      -2.743029       -74.6416
 114   2.0000      -2.742893       -74.6379
 115   2.0000      -2.741065       -74.5882
 116   2.0000      -2.736973       -74.4768
 117   2.0000      -2.736818       -74.4726
 118   2.0000      -2.731313       -74.3228
 119   2.0000      -2.731308       -74.3227
 120   2.0000      -2.725292       -74.1590
 121   2.0000      -2.725266       -74.1583
 122   2.0000      -1.316618       -35.8270
 123   2.0000      -1.147741       -31.2316
 124   2.0000      -1.146462       -31.1968
 125   2.0000      -1.135672       -30.9032
 126   2.0000      -1.122649       -30.5488
 127   2.0000      -1.101182       -29.9647
 128   2.0000      -1.080143       -29.3922
 129   2.0000      -1.025916       -27.9166
 130   2.0000      -1.016570       -27.6623
 131   2.0000      -1.015110       -27.6226
 132   2.0000      -1.009565       -27.4717
 133   2.0000      -1.005775       -27.3685
 134   2.0000      -1.005562       -27.3627
 135   2.0000      -0.995483       -27.0885
 136   2.0000      -0.994104       -27.0509
 137   2.0000      -0.991825       -26.9889
 138   2.0000      -0.987052       -26.8591
 139   2.0000      -0.982825       -26.7440
 140   2.0000      -0.973650       -26.4944
 141   2.0000      -0.961268       -26.1574
 142   2.0000      -0.944664       -25.7056
 143   2.0000      -0.934550       -25.4304
 144   2.0000      -0.922680       -25.1074
 145   2.0000      -0.911537       -24.8042
 146   2.0000      -0.905432       -24.6381
 147   2.0000      -0.902122       -24.5480
 148   2.0000      -0.896841       -24.4043
 149   2.0000      -0.889159       -24.1953
 150   2.0000      -0.885487       -24.0953
 151   2.0000      -0.880459       -23.9585
 152   2.0000      -0.878489       -23.9049
 153   2.0000      -0.871022       -23.7017
 154   2.0000      -0.854168       -23.2431
 155   2.0000      -0.850033       -23.1306
 156   2.0000      -0.843917       -22.9642
 157   2.0000      -0.836082       -22.7510
 158   2.0000      -0.832821       -22.6622
 159   2.0000      -0.829987       -22.5851
 160   2.0000      -0.825283       -22.4571
 161   2.0000      -0.822522       -22.3820
 162   2.0000      -0.814361       -22.1599
 163   2.0000      -0.796234       -21.6666
 164   2.0000      -0.779097       -21.2003
 165   2.0000      -0.766313       -20.8524
 166   2.0000      -0.764931       -20.8148
 167   2.0000      -0.753468       -20.5029
 168   2.0000      -0.749046       -20.3826
 169   2.0000      -0.738151       -20.0861
 170   2.0000      -0.730980       -19.8910
 171   2.0000      -0.723949       -19.6996
 172   2.0000      -0.712071       -19.3764
 173   2.0000      -0.707725       -19.2582
 174   2.0000      -0.695387       -18.9225
 175   2.0000      -0.692535       -18.8448
 176   2.0000      -0.690140       -18.7797
 177   2.0000      -0.683605       -18.6018
 178   2.0000      -0.679861       -18.4999
 179   2.0000      -0.673466       -18.3259
 180   2.0000      -0.662188       -18.0191
 181   2.0000      -0.662048       -18.0152
 182   2.0000      -0.655311       -17.8319
 183   2.0000      -0.654777       -17.8174
 184   2.0000      -0.650028       -17.6882
 185   2.0000      -0.644419       -17.5355
 186   2.0000      -0.635743       -17.2995
 187   2.0000      -0.632567       -17.2130
 188   2.0000      -0.631181       -17.1753
 189   2.0000      -0.627946       -17.0873
 190   2.0000      -0.627734       -17.0815
 191   2.0000      -0.620703       -16.8902
 192   2.0000      -0.618355       -16.8263
 193   2.0000      -0.616154       -16.7664
 194   2.0000      -0.614856       -16.7311
 195   2.0000      -0.610470       -16.6117
 196   2.0000      -0.605372       -16.4730
 197   2.0000      -0.601555       -16.3691
 198   2.0000      -0.593217       -16.1423
 199   2.0000      -0.588624       -16.0173
 200   2.0000      -0.581517       -15.8239
 201   2.0000      -0.580060       -15.7842
 202   2.0000      -0.576639       -15.6912
 203   2.0000      -0.568215       -15.4619
 204   2.0000      -0.562651       -15.3105
 205   2.0000      -0.557608       -15.1733
 206   2.0000      -0.557335       -15.1659
 207   2.0000      -0.552841       -15.0436
 208   2.0000      -0.550133       -14.9699
 209   2.0000      -0.545968       -14.8565
 210   2.0000      -0.541316       -14.7300
 211   2.0000      -0.540390       -14.7047
 212   2.0000      -0.538913       -14.6646
 213   2.0000      -0.538105       -14.6426
 214   2.0000      -0.533970       -14.5301
 215   2.0000      -0.528413       -14.3788
 216   2.0000      -0.527473       -14.3533
 217   2.0000      -0.525987       -14.3128
 218   2.0000      -0.523203       -14.2371
 219   2.0000      -0.520448       -14.1621
 220   2.0000      -0.516899       -14.0655
 221   2.0000      -0.514524       -14.0009
 222   2.0000      -0.511012       -13.9054
 223   2.0000      -0.508487       -13.8366
 224   2.0000      -0.507816       -13.8184
 225   2.0000      -0.501989       -13.6598
 226   2.0000      -0.500872       -13.6294
 227   2.0000      -0.498915       -13.5762
 228   2.0000      -0.498734       -13.5712
 229   2.0000      -0.497149       -13.5281
 230   2.0000      -0.494736       -13.4624
 231   2.0000      -0.493348       -13.4247
 232   2.0000      -0.489787       -13.3278
 233   2.0000      -0.485192       -13.2027
 234   2.0000      -0.482652       -13.1336
 235   2.0000      -0.479488       -13.0475
 236   2.0000      -0.477143       -12.9837
 237   2.0000      -0.473934       -12.8964
 238   2.0000      -0.467938       -12.7332
 239   2.0000      -0.467363       -12.7176
 240   2.0000      -0.464194       -12.6314
 241   2.0000      -0.462224       -12.5778
 242   2.0000      -0.458813       -12.4849
 243   2.0000      -0.458045       -12.4640
 244   2.0000      -0.454097       -12.3566
 245   2.0000      -0.453493       -12.3402
 246   2.0000      -0.451313       -12.2809
 247   2.0000      -0.450650       -12.2628
 248   2.0000      -0.449130       -12.2214
 249   2.0000      -0.445618       -12.1259
 250   2.0000      -0.444273       -12.0893
 251   2.0000      -0.441890       -12.0244
 252   2.0000      -0.440424       -11.9845
 253   2.0000      -0.438469       -11.9313
 254   2.0000      -0.434109       -11.8127
 255   2.0000      -0.433195       -11.7878
 256   2.0000      -0.430985       -11.7277
 257   2.0000      -0.428196       -11.6518
 258   2.0000      -0.427804       -11.6411
 259   2.0000      -0.427310       -11.6277
 260   2.0000      -0.419005       -11.4017
 261   2.0000      -0.417232       -11.3535
 262   2.0000      -0.416256       -11.3269
 263   2.0000      -0.414040       -11.2666
 264   2.0000      -0.413409       -11.2494
 265   2.0000      -0.411025       -11.1846
 266   2.0000      -0.404339       -11.0026
 267   2.0000      -0.403012       -10.9665
 268   2.0000      -0.395119       -10.7517
 269   2.0000      -0.392496       -10.6804
 270   2.0000      -0.391383       -10.6501
 271   2.0000      -0.382251       -10.4016
 272   2.0000      -0.381983       -10.3943
 273   2.0000      -0.379427       -10.3247
 274   2.0000      -0.377194       -10.2640
 275   2.0000      -0.374060       -10.1787
 276   2.0000      -0.372034       -10.1236
 277   2.0000      -0.371285       -10.1032
 278   2.0000      -0.366922        -9.9844
 279   2.0000      -0.363741        -9.8979
 280   2.0000      -0.355829        -9.6826
 281   2.0000      -0.355309        -9.6685
 282   2.0000      -0.349142        -9.5006
 283   2.0000      -0.343939        -9.3591
 284   2.0000      -0.338871        -9.2211
 285   2.0000      -0.336900        -9.1675
 286   2.0000      -0.331555        -9.0221
 287   2.0000      -0.322935        -8.7875
 288   2.0000      -0.320658        -8.7256
 289   2.0000      -0.313928        -8.5424
 290   2.0000      -0.309875        -8.4321
 291   2.0000      -0.300671        -8.1817
 292   2.0000      -0.295305        -8.0356
 293   2.0000      -0.291444        -7.9306
 294   2.0000      -0.284347        -7.7375
 295   2.0000      -0.271474        -7.3872
 296   2.0000      -0.215018        -5.8509
 297   0.0000      -0.089274        -2.4293
 298   0.0000      -0.072406        -1.9703
 299   0.0000      -0.068761        -1.8711
 300   0.0000      -0.064716        -1.7610
 301   0.0000      -0.043433        -1.1819

MULLIKEN ATOMIC CHARGES
-----------------------
   0 C :    0.326662
   1 C :   -0.345896
   2 C :   -0.184369
   3 N :    0.150444
   4 C :   -0.198124
   5 N :    0.145743
   6 C :    0.010699
   7 C :   -0.004820
   8 C :   -0.069129
   9 C :    0.115219
  10 C :   -0.091999
  11 C :   -0.020630
  12 S :    0.190725
  13 C :   -0.123260
  14 C :    0.037967
  15 Br:    0.025860
  16 C :    0.168911
  17 O :   -0.227859
  18 C :   -0.134029
  19 C :    0.027118
  20 N :   -0.000684
  21 C :   -0.128696
  22 S :    0.171945
  23 C :    0.008932
  24 N :    0.273661
  25 O :   -0.245816
  26 O :   -0.256599
  27 C :    0.002571
  28 C :    0.151354
  29 C :   -0.063914
  30 C :    0.013455
  31 C :   -0.024717
  32 C :   -0.010728
  33 C :    0.033565
  34 C :    0.030534
  35 C :   -0.049738
  36 S :    0.076917
  37 C :   -0.053220
  38 C :    0.034037
  39 C :    0.047389
  40 C :   -0.016641
  41 S :    0.094393
  42 C :    0.001794
  43 C :   -0.165753
  44 S :   -0.055127
  45 C :    0.020779
  46 C :   -0.229032
  47 C :    0.213393
  48 C :    0.049224
  49 O :   -0.185366
  50 N :   -0.043370
  51 N :   -0.042711
  52 C :    0.020785
  53 C :   -0.184556
  54 C :    0.291590
  55 C :   -0.353320
  56 C :   -0.159679
  57 N :    0.157028
  58 C :   -0.216339
  59 N :    0.145754
  60 C :    0.001652
  61 C :   -0.008216
  62 C :    0.140849
  63 O :   -0.159512
  64 C :   -0.086791
  65 C :    0.112048
  66 C :   -0.086857
  67 C :   -0.014784
  68 S :    0.182584
  69 C :   -0.127710
  70 C :    0.041677
  71 Br:    0.018297
  72 H :   -0.011136
  73 H :   -0.004747
  74 H :   -0.002818
  75 H :    0.046714
  76 H :    0.182525
  77 H :    0.016105
  78 H :   -0.009032
  79 H :    0.004361
  80 H :   -0.015383
  81 H :   -0.013745
  82 H :   -0.011515
  83 H :   -0.012374
  84 H :   -0.010498
  85 H :   -0.006435
  86 H :    0.066818
  87 H :    0.067470
  88 H :    0.043559
  89 H :    0.018415
  90 H :    0.051476
  91 H :    0.127374
  92 H :    0.138976
  93 H :    0.144591
  94 H :    0.042050
  95 H :   -0.013424
  96 H :    0.000404
  97 H :   -0.005297
Sum of atomic charges:   -0.0000000

LOEWDIN ATOMIC CHARGES
----------------------
   0 C :    0.078572
   1 C :   -0.150203
   2 C :   -0.019855
   3 N :   -0.055625
   4 C :   -0.020945
   5 N :   -0.053549
   6 C :   -0.017434
   7 C :   -0.050887
   8 C :    0.023145
   9 C :   -0.034489
  10 C :   -0.144023
  11 C :   -0.007847
  12 S :    0.437083
  13 C :   -0.271759
  14 C :   -0.070405
  15 Br:    0.138241
  16 C :    0.095928
  17 O :   -0.180859
  18 C :   -0.148792
  19 C :    0.110609
  20 N :    0.085183
  21 C :   -0.121861
  22 S :    0.466913
  23 C :   -0.197605
  24 N :    0.273183
  25 O :   -0.212007
  26 O :   -0.223407
  27 C :    0.004123
  28 C :   -0.078721
  29 C :   -0.043786
  30 C :   -0.013457
  31 C :   -0.067480
  32 C :   -0.135428
  33 C :   -0.037501
  34 C :   -0.025011
  35 C :   -0.182549
  36 S :    0.371508
  37 C :   -0.173779
  38 C :   -0.026854
  39 C :   -0.027917
  40 C :   -0.140820
  41 S :    0.381570
  42 C :   -0.071138
  43 C :   -0.115538
  44 S :    0.220416
  45 C :   -0.120279
  46 C :   -0.033966
  47 C :   -0.013886
  48 C :    0.057266
  49 O :   -0.182965
  50 N :    0.013487
  51 N :    0.051005
  52 C :    0.107505
  53 C :   -0.166577
  54 C :    0.077682
  55 C :   -0.156466
  56 C :   -0.021090
  57 N :   -0.059016
  58 C :   -0.019710
  59 N :   -0.070787
  60 C :   -0.015956
  61 C :   -0.055324
  62 C :    0.079463
  63 O :   -0.167421
  64 C :    0.017518
  65 C :   -0.037190
  66 C :   -0.144934
  67 C :   -0.006900
  68 S :    0.430477
  69 C :   -0.274621
  70 C :   -0.071034
  71 Br:    0.132668
  72 H :    0.040951
  73 H :    0.042035
  74 H :    0.038871
  75 H :    0.036089
  76 H :    0.085937
  77 H :    0.046705
  78 H :    0.029196
  79 H :    0.023216
  80 H :    0.032957
  81 H :    0.033100
  82 H :    0.032155
  83 H :    0.032033
  84 H :    0.033922
  85 H :    0.026987
  86 H :    0.017846
  87 H :    0.031870
  88 H :    0.018993
  89 H :    0.036294
  90 H :    0.041076
  91 H :    0.076594
  92 H :    0.087992
  93 H :    0.078651
  94 H :    0.042286
  95 H :    0.039520
  96 H :    0.042962
  97 H :    0.037866

  Mayer bond orders larger than 0.100000
B(  0-C ,  1-C ) :   1.6226 B(  0-C ,  6-C ) :   1.0010 B(  0-C , 18-C ) :   1.1062
B(  1-C ,  2-C ) :   1.1444 B(  1-C ,  4-C ) :   1.1490 B(  2-C ,  3-N ) :   2.9676
B(  4-C ,  5-N ) :   2.9551 B(  6-C ,  7-C ) :   1.2739 B(  6-C , 11-C ) :   1.4280
B(  7-C ,  8-C ) :   1.4258 B(  7-C , 16-C ) :   0.9796 B(  8-C ,  9-C ) :   1.2407
B(  8-C , 72-H ) :   1.0179 B(  9-C , 10-C ) :   1.3128 B(  9-C , 14-C ) :   1.1627
B( 10-C , 11-C ) :   1.3167 B( 10-C , 12-S ) :   1.0898 B( 11-C , 73-H ) :   0.9799
B( 12-S , 13-C ) :   1.0879 B( 13-C , 14-C ) :   1.6176 B( 13-C , 15-Br) :   1.0207
B( 14-C , 74-H ) :   1.0001 B( 16-C , 17-O ) :   2.0281 B( 16-C , 18-C ) :   1.0104
B( 17-O , 76-H ) :   0.1423 B( 18-C , 19-C ) :   1.4347 B( 19-C , 20-N ) :   1.3543
B( 19-C , 75-H ) :   0.9313 B( 20-N , 21-C ) :   1.1920 B( 20-N , 76-H ) :   0.8237
B( 21-C , 22-S ) :   1.1266 B( 21-C , 28-C ) :   1.3647 B( 22-S , 23-C ) :   1.0817
B( 23-C , 24-N ) :   0.9612 B( 23-C , 27-C ) :   1.5109 B( 24-N , 25-O ) :   1.5368
B( 24-N , 26-O ) :   1.5172 B( 25-O , 26-O ) :   0.2627 B( 27-C , 28-C ) :   1.2100
B( 27-C , 77-H ) :   0.9992 B( 28-C , 29-C ) :   1.0705 B( 29-C , 30-C ) :   1.6667
B( 29-C , 78-H ) :   0.9785 B( 30-C , 31-C ) :   1.1484 B( 30-C , 79-H ) :   0.9713
B( 31-C , 32-C ) :   1.5647 B( 31-C , 80-H ) :   0.9867 B( 32-C , 33-C ) :   1.1322
B( 32-C , 36-S ) :   1.0377 B( 33-C , 34-C ) :   1.6041 B( 33-C , 81-H ) :   0.9997
B( 34-C , 35-C ) :   1.1737 B( 34-C , 82-H ) :   0.9936 B( 35-C , 36-S ) :   1.0371
B( 35-C , 37-C ) :   1.5451 B( 37-C , 38-C ) :   1.1547 B( 37-C , 41-S ) :   1.0475
B( 38-C , 39-C ) :   1.6493 B( 38-C , 83-H ) :   0.9922 B( 39-C , 40-C ) :   1.0890
B( 39-C , 84-H ) :   0.9971 B( 40-C , 41-S ) :   1.0238 B( 40-C , 42-C ) :   1.7531
B( 42-C , 43-C ) :   0.9782 B( 42-C , 85-H ) :   0.9612 B( 43-C , 44-S ) :   0.9596
B( 43-C , 47-C ) :   0.9876 B( 43-C , 86-H ) :   0.9033 B( 44-S , 45-C ) :   0.9932
B( 45-C , 46-C ) :   1.0003 B( 45-C , 87-H ) :   0.9461 B( 45-C , 88-H ) :   0.9413
B( 46-C , 47-C ) :   1.0109 B( 46-C , 48-C ) :   0.8622 B( 46-C , 51-N ) :   0.9547
B( 47-C , 89-H ) :   0.9285 B( 47-C , 90-H ) :   0.9122 B( 48-C , 49-O ) :   2.1735
B( 48-C , 50-N ) :   1.2756 B( 50-N , 91-H ) :   0.9425 B( 50-N , 92-H ) :   0.9350
B( 51-N , 52-C ) :   1.3625 B( 51-N , 93-H ) :   0.8959 B( 52-C , 53-C ) :   1.5229
B( 52-C , 94-H ) :   0.9346 B( 53-C , 54-C ) :   1.0642 B( 53-C , 62-C ) :   0.9828
B( 54-C , 55-C ) :   1.6319 B( 54-C , 60-C ) :   1.0051 B( 55-C , 56-C ) :   1.1242
B( 55-C , 58-C ) :   1.1863 B( 56-C , 57-N ) :   3.0000 B( 58-C , 59-N ) :   2.9466
B( 60-C , 61-C ) :   1.2820 B( 60-C , 67-C ) :   1.4303 B( 61-C , 62-C ) :   0.9174
B( 61-C , 64-C ) :   1.4230 B( 62-C , 63-O ) :   2.2679 B( 64-C , 65-C ) :   1.2467
B( 64-C , 95-H ) :   1.0189 B( 65-C , 66-C ) :   1.3154 B( 65-C , 70-C ) :   1.1617
B( 66-C , 67-C ) :   1.3113 B( 66-C , 68-S ) :   1.0810 B( 67-C , 96-H ) :   0.9879
B( 68-S , 69-C ) :   1.0882 B( 69-C , 70-C ) :   1.6204 B( 69-C , 71-Br) :   1.0161
B( 70-C , 97-H ) :   1.0001

-----------------------------------------------------------------------------
         ABSORPTION SPECTRUM VIA TRANSITION ELECTRIC DIPOLE MOMENTS
-----------------------------------------------------------------------------
State   Energy  Wavelength   fosc         T2         TX        TY        TZ
        (cm-1)    (nm)                  (au**2)     (au)      (au)      (au)
-----------------------------------------------------------------------------
   0   14899.3    671.2   1.100575559  24.31809   4.37337  -2.13611   0.79292
   1   18716.6    534.3   0.588892016  10.35820  -2.79926   1.03729  -1.20266
   2   19377.2    516.1   0.121245140   2.05992   0.91802  -0.64313   0.89640
   3   19590.5    510.5   0.088236100   1.48278  -0.90289   0.67643  -0.45827
   4   24470.2    408.7   0.464699954   6.25188  -2.17427   0.93491   0.80645
   5   25361.6    394.3   0.036632790   0.47552  -0.60678  -0.27696  -0.17501
   6   26585.5    376.1   0.002505107   0.03102   0.10763  -0.09955   0.09760
   7   27374.7    365.3   0.007738730   0.09307  -0.17866  -0.00122   0.24728
   8   27716.6    360.8   0.172352706   2.04717   0.66919  -0.76952  -1.00359
   9   28682.0    348.7   0.102014391   1.17092   0.87257   0.23621  -0.59476
  10   29628.0    337.5   0.598877224   6.65443   1.55846   0.44893  -2.00601
  11   30263.2    330.4   0.312325106   3.39756   1.17178   1.36565   0.39936
  12   30693.1    325.8   0.220732548   2.36756  -0.93642  -0.77452   0.94382
  13   31073.2    321.8   0.037966570   0.40225  -0.14948  -0.58442   0.19585
  14   31508.6    317.4   0.043002791   0.44931  -0.04488   0.57817   0.33618
  15   32220.8    310.4   0.506267048   5.17272   1.34615   0.89322  -1.60087
  16   32538.5    307.3   0.031792570   0.32167  -0.36621   0.05899   0.42905
  17   32998.1    303.0   0.059996198   0.59856  -0.50040  -0.45948   0.37020
  18   33233.1    300.9   0.030648836   0.30361   0.29208   0.45736  -0.09553
  19   33974.9    294.3   0.286342284   2.77462  -0.42068  -1.44913  -0.70546
  20   34068.6    293.5   0.162671603   1.57193   0.54854   0.96487  -0.58315
  21   34131.2    293.0   0.296282421   2.85779   0.25726   0.88172  -1.41922
  22   34335.6    291.2   0.020565830   0.19719  -0.08371  -0.27371   0.33950
  23   34621.7    288.8   0.000074091   0.00070   0.02280  -0.01357  -0.00080
  24   34967.3    286.0   0.259444131   2.44263   0.28066   1.46127   0.47806
  25   35313.6    283.2   0.058513836   0.54550   0.04829  -0.46799   0.56934
  26   35324.5    283.1   0.039300956   0.36627   0.08506   0.37542  -0.46701
  27   35379.6    282.6   0.373079649   3.47155  -1.07548  -1.39409   0.60943
  28   35780.7    279.5   0.163299223   1.50249  -0.39530  -0.54307   1.02533
  29   35961.9    278.1   0.009407055   0.08612   0.14071   0.02169   0.25661
  30   36321.0    275.3   0.030908741   0.28016  -0.40918  -0.30764   0.13449
  31   36426.8    274.5   0.000882320   0.00797   0.05125  -0.00776  -0.07271
  32   36468.0    274.2   0.015800950   0.14264   0.13372   0.34783   0.06144
  33   36561.8    273.5   0.078444059   0.70633   0.46061   0.18851  -0.67723
  34   37073.3    269.7   0.000112438   0.00100  -0.01775  -0.01505  -0.02138
  35   37233.3    268.6   0.010997282   0.09724   0.12000   0.11791  -0.26255
  36   37660.4    265.5   0.084700974   0.74042  -0.54113   0.56980  -0.35062
  37   38350.9    260.8   0.115128356   0.98829   0.86926  -0.42093  -0.23556
  38   38858.7    257.3   0.059469175   0.50382  -0.34992   0.53856  -0.30222
  39   38943.3    256.8   0.003905019   0.03301   0.13454   0.05769   0.10762
  40   39296.0    254.5   0.097241974   0.81467   0.74932   0.37395  -0.33667
  41   39600.4    252.5   0.005967138   0.04961  -0.05222  -0.16858   0.13587
  42   39828.2    251.1   0.009212215   0.07615   0.00554   0.23186  -0.14952
  43   40001.3    250.0   0.005566506   0.04581   0.05861   0.08841   0.18590
  44   40088.7    249.4   0.005619156   0.04614   0.21130  -0.02836  -0.02633
  45   40120.9    249.2   0.017716157   0.14537  -0.30951   0.19415   0.10900

FINAL SINGLE POINT ENERGY    -10305.916043221712

DIPOLE MOMENT
-------------
                                X             Y             Z
Electronic contribution:     82.70186    -124.59448     -63.17185
Nuclear contribution   :    -84.75710     127.65740      60.42208
                        -----------------------------------------
Total Dipole Moment    :     -2.05524       3.06292      -2.74977
                        -----------------------------------------
Magnitude (a.u.)       :      4.60073
Magnitude (Debye)      :     11.69413

Rotational constants in cm-1:     0.000752     0.000193     0.000178
Rotational constants in MHz :    22.540179     5.788405     5.335209

                             ****ORCA TERMINATED NORMALLY****
TOTAL RUN TIME: 0 days 0 hours 16 minutes 3 seconds 165 msec
