                         Program Version 4.2.0 -  RELEASE  -
|  1> # ORCA input file
|  2> # SCF done       -204.553825353902          0.000633568777
|  3> ! CAM-B3LYP def2-SVP def2/J RIJCOSX Grid4 TightSCF
|  4> %maxcore 5000
|  5> %tddft
|  6>     Mode sTDDFT
|  7>     Ethresh 5.0
|  8>     maxcore 5000
|  9> end
| 10>
| 11> %pal
| 12>   nprocs 6
| 13>   end
| 14> * xyz 0 1
| 15>    C       -4.92720        -2.12268         1.01186
| 16>    C       -3.82176        -2.69267         0.44883
| 17>    C       -3.46301        -4.05040         0.60224
| 18>    N       -3.12358        -5.14272         0.68857
| 19>    C       -2.88082        -2.00464        -0.34917
| 20>    N       -2.07102        -1.50567        -0.99058
| 21>    C       -5.90169        -2.77914         1.86852
| 22>    C       -6.88953        -1.83789         2.26703
| 23>    C       -7.93830        -2.17077         3.09332
| 24>    C       -8.01921        -3.48849         3.54900
| 25>    C       -7.02961        -4.42136         3.14701
| 26>    C       -5.97029        -4.08759         2.31279
| 27>    S       -7.32860        -5.98644         3.83012
| 28>    C       -8.74294        -5.39510         4.63031
| 29>    C       -8.98845        -4.08606         4.40233
| 30>    C       -6.59220        -0.53318         1.67272
| 31>    O       -7.21862         0.49978         1.77527
| 32>    C       -5.33495        -0.72654         0.88701
| 33>    C       -4.74465         0.27386         0.21603
| 34>    C       -5.26028         1.64061         0.22462
| 35>    C       -5.24724         2.45823         1.36010
| 36>    C       -4.72626         2.02626         2.67559
| 37>    O       -4.17176         1.00306         2.94536
| 38>    S       -5.04253         3.31868         3.87008
| 39>    C       -5.83099         4.40132         2.66512
| 40>    O       -6.34352         5.43383         2.96026
| 41>    C       -5.76901         3.74757         1.33876
| 42>    C       -6.25947         4.32721         0.16666
| 43>    C       -6.25078         3.52795        -0.97655
| 44>    C       -5.79269         2.21366        -0.93239
| 45>    C       -5.96091         1.45179        -2.18415
| 46>    O       -5.69425         0.29969        -2.36191
| 47>    S       -6.66079         2.53462        -3.42201
| 48>    C       -6.67710         3.96564        -2.32767
| 49>    O       -6.93305         5.06399        -2.70983
| 50>    C       -6.80492         5.69861         0.12432
| 51>    N       -6.00263         6.70391         0.44840
| 52>    C       -6.52968         7.91481         0.38214
| 53>    C       -7.82245         8.14160        -0.06524
| 54>    C       -8.56368         7.01620        -0.43504
| 55>    N       -8.04903         5.79541        -0.29457
| 56>    C       -9.87121         7.10163        -1.06086
| 57>    C      -10.53759         5.98480        -1.37917
| 58>    C      -11.74535         5.92586        -2.17063
| 59>    C      -11.85327         5.00042        -3.22642
| 60>    C      -10.82326         3.98221        -3.52355
| 61>    O       -9.80811         3.74622        -2.94270
| 62>    S      -11.33177         3.03976        -4.96902
| 63>    C      -12.85322         3.95385        -5.16194
| 64>    O      -13.63904         3.72432        -6.03467
| 65>    C      -12.94841         4.96963        -4.09040
| 66>    C      -14.02996         5.84779        -3.93958
| 67>    C      -13.95268         6.71500        -2.84040
| 68>    C      -12.86259         6.75922        -1.98224
| 69>    C      -13.05668         7.66598        -0.82517
| 70>    O      -12.32263         7.88666         0.08686
| 71>    S      -14.67683         8.44211        -0.95553
| 72>    C      -15.09153         7.57411        -2.45798
| 73>    O      -16.13817         7.67687        -3.02418
| 74>    C      -15.16352         5.92625        -4.84511
| 75>    C      -16.02764         4.97582        -5.23211
| 76>    C      -16.19301         3.57491        -4.86623
| 77>    C      -15.84034         2.99168        -3.68104
| 78>    C      -16.05263         1.62877        -3.37558
| 79>    N      -16.18501         0.53025        -3.07341
| 80>    C      -15.27433         3.67875        -2.59017
| 81>    N      -14.83095         4.18664        -1.66043
| 82>    C      -16.93675         2.94263        -5.94241
| 83>    C      -17.41182         3.94210        -6.83428
| 84>    C      -16.93304         5.25926        -6.39687
| 85>    O      -17.14907         6.34231        -6.87963
| 86>    C      -18.17808         3.64316        -7.93603
| 87>    C      -18.48505         2.30074        -8.17451
| 88>    C      -17.99174         1.30901        -7.28880
| 89>    C      -17.22085         1.60867        -6.17336
| 90>    S      -18.48323        -0.27769        -7.78692
| 91>    C      -19.33070         0.38269        -9.14108
| 92>    C      -19.25267         1.72938        -9.22693
| 93>    H       -8.67163        -1.43237         3.37836
| 94>    H       -5.24271        -4.83244         2.03634
| 95>    H       -9.31324        -6.07531         5.23266
| 96>    H       -9.82194        -3.54825         4.81627
| 97>    H       -3.86170         0.10959        -0.38730
| 98>    H       -5.87561         8.72553         0.67420
| 99>    H       -8.23128         9.13560        -0.14099
|100>    H      -10.22458         8.08892        -1.31892
|101>    H      -10.06988         5.04237        -1.12647
|102>    H      -15.32871         6.90402        -5.29196
|103>    H      -18.52915         4.42366        -8.59298
|104>    H      -16.85869         0.82013        -5.53464
|105>    H      -19.84327        -0.28874        -9.80234
|106>    H      -19.71661         2.31134       -10.00241
|107> *
|108>
|109>                          ****END OF INPUT****

CARTESIAN COORDINATES (ANGSTROEM)
---------------------------------
  C     -4.927200   -2.122680    1.011860
  C     -3.821760   -2.692670    0.448830
  C     -3.463010   -4.050400    0.602240
  N     -3.123580   -5.142720    0.688570
  C     -2.880820   -2.004640   -0.349170
  N     -2.071020   -1.505670   -0.990580
  C     -5.901690   -2.779140    1.868520
  C     -6.889530   -1.837890    2.267030
  C     -7.938300   -2.170770    3.093320
  C     -8.019210   -3.488490    3.549000
  C     -7.029610   -4.421360    3.147010
  C     -5.970290   -4.087590    2.312790
  S     -7.328600   -5.986440    3.830120
  C     -8.742940   -5.395100    4.630310
  C     -8.988450   -4.086060    4.402330
  C     -6.592200   -0.533180    1.672720
  O     -7.218620    0.499780    1.775270
  C     -5.334950   -0.726540    0.887010
  C     -4.744650    0.273860    0.216030
  C     -5.260280    1.640610    0.224620
  C     -5.247240    2.458230    1.360100
  C     -4.726260    2.026260    2.675590
  O     -4.171760    1.003060    2.945360
  S     -5.042530    3.318680    3.870080
  C     -5.830990    4.401320    2.665120
  O     -6.343520    5.433830    2.960260
  C     -5.769010    3.747570    1.338760
  C     -6.259470    4.327210    0.166660
  C     -6.250780    3.527950   -0.976550
  C     -5.792690    2.213660   -0.932390
  C     -5.960910    1.451790   -2.184150
  O     -5.694250    0.299690   -2.361910
  S     -6.660790    2.534620   -3.422010
  C     -6.677100    3.965640   -2.327670
  O     -6.933050    5.063990   -2.709830
  C     -6.804920    5.698610    0.124320
  N     -6.002630    6.703910    0.448400
  C     -6.529680    7.914810    0.382140
  C     -7.822450    8.141600   -0.065240
  C     -8.563680    7.016200   -0.435040
  N     -8.049030    5.795410   -0.294570
  C     -9.871210    7.101630   -1.060860
  C    -10.537590    5.984800   -1.379170
  C    -11.745350    5.925860   -2.170630
  C    -11.853270    5.000420   -3.226420
  C    -10.823260    3.982210   -3.523550
  O     -9.808110    3.746220   -2.942700
  S    -11.331770    3.039760   -4.969020
  C    -12.853220    3.953850   -5.161940
  O    -13.639040    3.724320   -6.034670
  C    -12.948410    4.969630   -4.090400
  C    -14.029960    5.847790   -3.939580
  C    -13.952680    6.715000   -2.840400
  C    -12.862590    6.759220   -1.982240
  C    -13.056680    7.665980   -0.825170
  O    -12.322630    7.886660    0.086860
  S    -14.676830    8.442110   -0.955530
  C    -15.091530    7.574110   -2.457980
  O    -16.138170    7.676870   -3.024180
  C    -15.163520    5.926250   -4.845110
  C    -16.027640    4.975820   -5.232110
  C    -16.193010    3.574910   -4.866230
  C    -15.840340    2.991680   -3.681040
  C    -16.052630    1.628770   -3.375580
  N    -16.185010    0.530250   -3.073410
  C    -15.274330    3.678750   -2.590170
  N    -14.830950    4.186640   -1.660430
  C    -16.936750    2.942630   -5.942410
  C    -17.411820    3.942100   -6.834280
  C    -16.933040    5.259260   -6.396870
  O    -17.149070    6.342310   -6.879630
  C    -18.178080    3.643160   -7.936030
  C    -18.485050    2.300740   -8.174510
  C    -17.991740    1.309010   -7.288800
  C    -17.220850    1.608670   -6.173360
  S    -18.483230   -0.277690   -7.786920
  C    -19.330700    0.382690   -9.141080
  C    -19.252670    1.729380   -9.226930
  H     -8.671630   -1.432370    3.378360
  H     -5.242710   -4.832440    2.036340
  H     -9.313240   -6.075310    5.232660
  H     -9.821940   -3.548250    4.816270
  H     -3.861700    0.109590   -0.387300
  H     -5.875610    8.725530    0.674200
  H     -8.231280    9.135600   -0.140990
  H    -10.224580    8.088920   -1.318920
  H    -10.069880    5.042370   -1.126470
  H    -15.328710    6.904020   -5.291960
  H    -18.529150    4.423660   -8.592980
  H    -16.858690    0.820130   -5.534640
  H    -19.843270   -0.288740   -9.802340
  H    -19.716610    2.311340  -10.002410

 Total Charge           Charge          ....    0
 Multiplicity           Mult            ....    1
 Number of Electrons    NEL             ....  568
 Basis Dimension        Dim             .... 1186

ORBITAL ENERGIES
----------------

  NO   OCC          E(Eh)            E(eV)
   0   2.0000     -88.973502     -2421.0921
   1   2.0000     -88.970637     -2421.0141
   2   2.0000     -88.962614     -2420.7958
   3   2.0000     -88.959300     -2420.7056
   4   2.0000     -88.951630     -2420.4969
   5   2.0000     -88.951205     -2420.4854
   6   2.0000     -19.255738      -523.9753
   7   2.0000     -19.255001      -523.9552
   8   2.0000     -19.253271      -523.9081
   9   2.0000     -19.251174      -523.8511
  10   2.0000     -19.246006      -523.7105
  11   2.0000     -19.244434      -523.6677
  12   2.0000     -19.244354      -523.6655
  13   2.0000     -19.243127      -523.6321
  14   2.0000     -19.225252      -523.1457
  15   2.0000     -19.223897      -523.1088
  16   2.0000     -14.430369      -392.6703
  17   2.0000     -14.425846      -392.5472
  18   2.0000     -14.419524      -392.3752
  19   2.0000     -14.419057      -392.3625
  20   2.0000     -14.417823      -392.3289
  21   2.0000     -14.417012      -392.3068
  22   2.0000     -10.418647      -283.5058
  23   2.0000     -10.417581      -283.4768
  24   2.0000     -10.415267      -283.4138
  25   2.0000     -10.413234      -283.3585
  26   2.0000     -10.407502      -283.2025
  27   2.0000     -10.406523      -283.1759
  28   2.0000     -10.406425      -283.1732
  29   2.0000     -10.406019      -283.1622
  30   2.0000     -10.374768      -282.3118
  31   2.0000     -10.373566      -282.2791
  32   2.0000     -10.356857      -281.8244
  33   2.0000     -10.355299      -281.7820
  34   2.0000     -10.353655      -281.7373
  35   2.0000     -10.348880      -281.6073
  36   2.0000     -10.346981      -281.5557
  37   2.0000     -10.345212      -281.5075
  38   2.0000     -10.344955      -281.5005
  39   2.0000     -10.341489      -281.4062
  40   2.0000     -10.340056      -281.3672
  41   2.0000     -10.337689      -281.3028
  42   2.0000     -10.337033      -281.2850
  43   2.0000     -10.336496      -281.2704
  44   2.0000     -10.335979      -281.2563
  45   2.0000     -10.333545      -281.1901
  46   2.0000     -10.331328      -281.1297
  47   2.0000     -10.330445      -281.1057
  48   2.0000     -10.329383      -281.0768
  49   2.0000     -10.329077      -281.0685
  50   2.0000     -10.328353      -281.0488
  51   2.0000     -10.327968      -281.0383
  52   2.0000     -10.327722      -281.0316
  53   2.0000     -10.327479      -281.0250
  54   2.0000     -10.327383      -281.0224
  55   2.0000     -10.325798      -280.9792
  56   2.0000     -10.325718      -280.9771
  57   2.0000     -10.321446      -280.8608
  58   2.0000     -10.320988      -280.8484
  59   2.0000     -10.320863      -280.8450
  60   2.0000     -10.318054      -280.7685
  61   2.0000     -10.315311      -280.6939
  62   2.0000     -10.312256      -280.6108
  63   2.0000     -10.311479      -280.5896
  64   2.0000     -10.310953      -280.5753
  65   2.0000     -10.309551      -280.5372
  66   2.0000     -10.307746      -280.4880
  67   2.0000     -10.306620      -280.4574
  68   2.0000     -10.306316      -280.4491
  69   2.0000     -10.306054      -280.4420
  70   2.0000     -10.304554      -280.4012
  71   2.0000     -10.299261      -280.2572
  72   2.0000     -10.296255      -280.1753
  73   2.0000     -10.295950      -280.1670
  74   2.0000     -10.295319      -280.1499
  75   2.0000     -10.294263      -280.1211
  76   2.0000     -10.293017      -280.0872
  77   2.0000     -10.292620      -280.0764
  78   2.0000      -8.069728      -219.5885
  79   2.0000      -8.066929      -219.5123
  80   2.0000      -8.061867      -219.3746
  81   2.0000      -8.058523      -219.2836
  82   2.0000      -8.050879      -219.0755
  83   2.0000      -8.050311      -219.0601
  84   2.0000      -6.039240      -164.3361
  85   2.0000      -6.036441      -164.2599
  86   2.0000      -6.034912      -164.2183
  87   2.0000      -6.032105      -164.1419
  88   2.0000      -6.031429      -164.1235
  89   2.0000      -6.030728      -164.1044
  90   2.0000      -6.028613      -164.0469
  91   2.0000      -6.027427      -164.0146
  92   2.0000      -6.027405      -164.0140
  93   2.0000      -6.024080      -163.9235
  94   2.0000      -6.022926      -163.8922
  95   2.0000      -6.019734      -163.8053
  96   2.0000      -6.019586      -163.8013
  97   2.0000      -6.019167      -163.7899
  98   2.0000      -6.016439      -163.7156
  99   2.0000      -6.015932      -163.7018
 100   2.0000      -6.011964      -163.5939
 101   2.0000      -6.011341      -163.5769
 102   2.0000      -1.181129       -32.1401
 103   2.0000      -1.178313       -32.0635
 104   2.0000      -1.177027       -32.0285
 105   2.0000      -1.174326       -31.9550
 106   2.0000      -1.170631       -31.8545
 107   2.0000      -1.169450       -31.8223
 108   2.0000      -1.166545       -31.7433
 109   2.0000      -1.165195       -31.7066
 110   2.0000      -1.140540       -31.0357
 111   2.0000      -1.140187       -31.0261
 112   2.0000      -1.095163       -29.8009
 113   2.0000      -1.035747       -28.1841
 114   2.0000      -1.027452       -27.9584
 115   2.0000      -1.024867       -27.8881
 116   2.0000      -1.022134       -27.8137
 117   2.0000      -1.017510       -27.6878
 118   2.0000      -1.012335       -27.5470
 119   2.0000      -1.006426       -27.3862
 120   2.0000      -0.997741       -27.1499
 121   2.0000      -0.994227       -27.0543
 122   2.0000      -0.992429       -27.0054
 123   2.0000      -0.989400       -26.9229
 124   2.0000      -0.976494       -26.5717
 125   2.0000      -0.967347       -26.3228
 126   2.0000      -0.949861       -25.8470
 127   2.0000      -0.944554       -25.7026
 128   2.0000      -0.937214       -25.5029
 129   2.0000      -0.931266       -25.3410
 130   2.0000      -0.928548       -25.2671
 131   2.0000      -0.922620       -25.1058
 132   2.0000      -0.904105       -24.6019
 133   2.0000      -0.899353       -24.4726
 134   2.0000      -0.889991       -24.2179
 135   2.0000      -0.889420       -24.2023
 136   2.0000      -0.885840       -24.1049
 137   2.0000      -0.870478       -23.6869
 138   2.0000      -0.862340       -23.4655
 139   2.0000      -0.854514       -23.2525
 140   2.0000      -0.852554       -23.1992
 141   2.0000      -0.848178       -23.0801
 142   2.0000      -0.831114       -22.6158
 143   2.0000      -0.827873       -22.5276
 144   2.0000      -0.808124       -21.9902
 145   2.0000      -0.799766       -21.7628
 146   2.0000      -0.796742       -21.6804
 147   2.0000      -0.794784       -21.6272
 148   2.0000      -0.776693       -21.1349
 149   2.0000      -0.769148       -20.9296
 150   2.0000      -0.764286       -20.7973
 151   2.0000      -0.761729       -20.7277
 152   2.0000      -0.753121       -20.4935
 153   2.0000      -0.743790       -20.2396
 154   2.0000      -0.730958       -19.8904
 155   2.0000      -0.724643       -19.7185
 156   2.0000      -0.720612       -19.6089
 157   2.0000      -0.709234       -19.2992
 158   2.0000      -0.702813       -19.1245
 159   2.0000      -0.695382       -18.9223
 160   2.0000      -0.694145       -18.8887
 161   2.0000      -0.687683       -18.7128
 162   2.0000      -0.680227       -18.5099
 163   2.0000      -0.672306       -18.2944
 164   2.0000      -0.670895       -18.2560
 165   2.0000      -0.666130       -18.1263
 166   2.0000      -0.662080       -18.0161
 167   2.0000      -0.659695       -17.9512
 168   2.0000      -0.652129       -17.7453
 169   2.0000      -0.640144       -17.4192
 170   2.0000      -0.633720       -17.2444
 171   2.0000      -0.631321       -17.1791
 172   2.0000      -0.629394       -17.1267
 173   2.0000      -0.627586       -17.0775
 174   2.0000      -0.624957       -17.0059
 175   2.0000      -0.620713       -16.8905
 176   2.0000      -0.616818       -16.7845
 177   2.0000      -0.612591       -16.6694
 178   2.0000      -0.608679       -16.5630
 179   2.0000      -0.607130       -16.5208
 180   2.0000      -0.605074       -16.4649
 181   2.0000      -0.599580       -16.3154
 182   2.0000      -0.596238       -16.2245
 183   2.0000      -0.589570       -16.0430
 184   2.0000      -0.579596       -15.7716
 185   2.0000      -0.575940       -15.6721
 186   2.0000      -0.571933       -15.5631
 187   2.0000      -0.566474       -15.4146
 188   2.0000      -0.565216       -15.3803
 189   2.0000      -0.564185       -15.3523
 190   2.0000      -0.560003       -15.2384
 191   2.0000      -0.557264       -15.1639
 192   2.0000      -0.555756       -15.1229
 193   2.0000      -0.553596       -15.0641
 194   2.0000      -0.552787       -15.0421
 195   2.0000      -0.551138       -14.9972
 196   2.0000      -0.548909       -14.9366
 197   2.0000      -0.547441       -14.8966
 198   2.0000      -0.543314       -14.7843
 199   2.0000      -0.542198       -14.7540
 200   2.0000      -0.541389       -14.7319
 201   2.0000      -0.539918       -14.6919
 202   2.0000      -0.539520       -14.6811
 203   2.0000      -0.538331       -14.6487
 204   2.0000      -0.537630       -14.6297
 205   2.0000      -0.535270       -14.5654
 206   2.0000      -0.533389       -14.5143
 207   2.0000      -0.529084       -14.3971
 208   2.0000      -0.527351       -14.3499
 209   2.0000      -0.526472       -14.3260
 210   2.0000      -0.521551       -14.1921
 211   2.0000      -0.520167       -14.1545
 212   2.0000      -0.518612       -14.1121
 213   2.0000      -0.516064       -14.0428
 214   2.0000      -0.513703       -13.9786
 215   2.0000      -0.510664       -13.8959
 216   2.0000      -0.509111       -13.8536
 217   2.0000      -0.507705       -13.8153
 218   2.0000      -0.507060       -13.7978
 219   2.0000      -0.504608       -13.7311
 220   2.0000      -0.504270       -13.7219
 221   2.0000      -0.499971       -13.6049
 222   2.0000      -0.497689       -13.5428
 223   2.0000      -0.496224       -13.5029
 224   2.0000      -0.495224       -13.4757
 225   2.0000      -0.493164       -13.4197
 226   2.0000      -0.489225       -13.3125
 227   2.0000      -0.485250       -13.2043
 228   2.0000      -0.481724       -13.1084
 229   2.0000      -0.480076       -13.0635
 230   2.0000      -0.474879       -12.9221
 231   2.0000      -0.473047       -12.8723
 232   2.0000      -0.470285       -12.7971
 233   2.0000      -0.466981       -12.7072
 234   2.0000      -0.464463       -12.6387
 235   2.0000      -0.461701       -12.5635
 236   2.0000      -0.459030       -12.4908
 237   2.0000      -0.456963       -12.4346
 238   2.0000      -0.452984       -12.3263
 239   2.0000      -0.451516       -12.2864
 240   2.0000      -0.446638       -12.1536
 241   2.0000      -0.444134       -12.0855
 242   2.0000      -0.441908       -12.0249
 243   2.0000      -0.439309       -11.9542
 244   2.0000      -0.437449       -11.9036
 245   2.0000      -0.436786       -11.8855
 246   2.0000      -0.436074       -11.8662
 247   2.0000      -0.430475       -11.7138
 248   2.0000      -0.428404       -11.6575
 249   2.0000      -0.425756       -11.5854
 250   2.0000      -0.421187       -11.4611
 251   2.0000      -0.414326       -11.2744
 252   2.0000      -0.413033       -11.2392
 253   2.0000      -0.411393       -11.1946
 254   2.0000      -0.392882       -10.6909
 255   2.0000      -0.389166       -10.5897
 256   2.0000      -0.386989       -10.5305
 257   2.0000      -0.386424       -10.5151
 258   2.0000      -0.384837       -10.4719
 259   2.0000      -0.383695       -10.4409
 260   2.0000      -0.378927       -10.3111
 261   2.0000      -0.376344       -10.2408
 262   2.0000      -0.373468       -10.1626
 263   2.0000      -0.371094       -10.0980
 264   2.0000      -0.367928       -10.0118
 265   2.0000      -0.365722        -9.9518
 266   2.0000      -0.362940        -9.8761
 267   2.0000      -0.361528        -9.8377
 268   2.0000      -0.353882        -9.6296
 269   2.0000      -0.353011        -9.6059
 270   2.0000      -0.352001        -9.5784
 271   2.0000      -0.351654        -9.5690
 272   2.0000      -0.348508        -9.4834
 273   2.0000      -0.345422        -9.3994
 274   2.0000      -0.340577        -9.2676
 275   2.0000      -0.335296        -9.1239
 276   2.0000      -0.332755        -9.0547
 277   2.0000      -0.329310        -8.9610
 278   2.0000      -0.321539        -8.7495
 279   2.0000      -0.321106        -8.7377
 280   2.0000      -0.316994        -8.6258
 281   2.0000      -0.308346        -8.3905
 282   2.0000      -0.301865        -8.2142
 283   2.0000      -0.297515        -8.0958
 284   0.0000      -0.108548        -2.9537
 285   0.0000      -0.099831        -2.7165
 286   0.0000      -0.095763        -2.6058
 287   0.0000      -0.090203        -2.4545
 288   0.0000      -0.075336        -2.0500

MULLIKEN ATOMIC CHARGES
-----------------------
   0 C :    0.325932
   1 C :   -0.332879
   2 C :   -0.190375
   3 N :    0.160207
   4 C :   -0.189016
   5 N :    0.162455
   6 C :    0.016613
   7 C :   -0.019905
   8 C :   -0.057176
   9 C :    0.113441
  10 C :   -0.093470
  11 C :   -0.021032
  12 S :    0.147068
  13 C :   -0.046773
  14 C :    0.026568
  15 C :    0.151111
  16 O :   -0.157114
  17 C :   -0.011554
  18 C :   -0.074241
  19 C :   -0.001230
  20 C :    0.072294
  21 C :    0.041017
  22 O :   -0.127827
  23 S :    0.019443
  24 C :    0.044025
  25 O :   -0.105255
  26 C :    0.066662
  27 C :    0.080203
  28 C :    0.062655
  29 C :    0.028319
  30 C :    0.047519
  31 O :   -0.125998
  32 S :    0.027405
  33 C :    0.063916
  34 O :   -0.113251
  35 C :   -0.144577
  36 N :   -0.053847
  37 C :    0.096154
  38 C :   -0.033052
  39 C :    0.047780
  40 N :   -0.045504
  41 C :    0.059008
  42 C :   -0.017169
  43 C :    0.051931
  44 C :    0.057215
  45 C :    0.040421
  46 O :   -0.115408
  47 S :    0.036590
  48 C :    0.043586
  49 O :   -0.130692
  50 C :    0.054029
  51 C :   -0.054970
  52 C :    0.068111
  53 C :    0.048027
  54 C :    0.031687
  55 O :   -0.108084
  56 S :    0.031363
  57 C :    0.048811
  58 O :   -0.120882
  59 C :   -0.010646
  60 C :   -0.066571
  61 C :    0.320058
  62 C :   -0.359419
  63 C :   -0.188346
  64 N :    0.164557
  65 C :   -0.181806
  66 N :    0.158355
  67 C :    0.007738
  68 C :   -0.001984
  69 C :    0.136616
  70 O :   -0.128267
  71 C :   -0.061841
  72 C :    0.113146
  73 C :   -0.096438
  74 C :   -0.016996
  75 S :    0.146800
  76 C :   -0.046145
  77 C :    0.026506
  78 H :   -0.008551
  79 H :   -0.004699
  80 H :    0.042010
  81 H :   -0.003246
  82 H :    0.053472
  83 H :    0.011787
  84 H :    0.000876
  85 H :   -0.013105
  86 H :    0.051193
  87 H :    0.046474
  88 H :   -0.007428
  89 H :   -0.003402
  90 H :    0.042188
  91 H :   -0.003173
Sum of atomic charges:   -0.0000000

LOEWDIN ATOMIC CHARGES
----------------------
   0 C :    0.078405
   1 C :   -0.122074
   2 C :   -0.016926
   3 N :   -0.044402
   4 C :   -0.015617
   5 N :   -0.041142
   6 C :   -0.017938
   7 C :   -0.054213
   8 C :    0.029272
   9 C :   -0.032773
  10 C :   -0.142143
  11 C :   -0.006273
  12 S :    0.435355
  13 C :   -0.146056
  14 C :   -0.056091
  15 C :    0.089606
  16 O :   -0.144760
  17 C :   -0.058500
  18 C :    0.077178
  19 C :    0.034740
  20 C :   -0.035788
  21 C :   -0.044786
  22 O :   -0.115567
  23 S :    0.309463
  24 C :   -0.037290
  25 O :   -0.096134
  26 C :   -0.037211
  27 C :    0.034379
  28 C :   -0.036135
  29 C :   -0.047892
  30 C :   -0.047353
  31 O :   -0.109853
  32 S :    0.315481
  33 C :   -0.034531
  34 O :   -0.100534
  35 C :    0.023286
  36 N :   -0.075542
  37 C :    0.062425
  38 C :   -0.047386
  39 C :    0.042897
  40 N :   -0.061546
  41 C :    0.006675
  42 C :    0.004726
  43 C :    0.044440
  44 C :   -0.046142
  45 C :   -0.035246
  46 O :   -0.100619
  47 S :    0.320950
  48 C :   -0.047928
  49 O :   -0.114618
  50 C :   -0.047351
  51 C :    0.014171
  52 C :   -0.036790
  53 C :   -0.044436
  54 C :   -0.038352
  55 O :   -0.098577
  56 S :    0.317159
  57 C :   -0.045789
  58 O :   -0.100086
  59 C :    0.062381
  60 C :   -0.055256
  61 C :    0.081128
  62 C :   -0.137986
  63 C :   -0.019254
  64 N :   -0.043217
  65 C :   -0.012832
  66 N :   -0.058187
  67 C :   -0.016379
  68 C :   -0.051300
  69 C :    0.089626
  70 O :   -0.127012
  71 C :    0.027457
  72 C :   -0.031012
  73 C :   -0.143178
  74 C :   -0.004309
  75 S :    0.435119
  76 C :   -0.145318
  77 C :   -0.056667
  78 H :    0.042247
  79 H :    0.041687
  80 H :    0.030761
  81 H :    0.036768
  82 H :    0.053352
  83 H :    0.029801
  84 H :    0.037200
  85 H :    0.027579
  86 H :    0.041153
  87 H :    0.055698
  88 H :    0.042469
  89 H :    0.041585
  90 H :    0.030924
  91 H :    0.036754

  Mayer bond orders larger than 0.100000
B(  0-C ,  1-C ) :   1.6756 B(  0-C ,  6-C ) :   1.0186 B(  0-C , 17-C ) :   1.0218
B(  1-C ,  2-C ) :   1.1350 B(  1-C ,  4-C ) :   1.1488 B(  2-C ,  3-N ) :   2.9751
B(  4-C ,  5-N ) :   2.9692 B(  6-C ,  7-C ) :   1.2603 B(  6-C , 11-C ) :   1.4056
B(  7-C ,  8-C ) :   1.4168 B(  7-C , 15-C ) :   0.9593 B(  8-C ,  9-C ) :   1.2538
B(  8-C , 78-H ) :   1.0155 B(  9-C , 10-C ) :   1.2916 B(  9-C , 14-C ) :   1.1714
B( 10-C , 11-C ) :   1.3309 B( 10-C , 12-S ) :   1.1034 B( 11-C , 79-H ) :   0.9809
B( 12-S , 13-C ) :   1.1259 B( 13-C , 14-C ) :   1.6292 B( 13-C , 80-H ) :   0.9683
B( 14-C , 81-H ) :   0.9996 B( 15-C , 16-O ) :   2.2032 B( 15-C , 17-C ) :   0.9193
B( 17-C , 18-C ) :   1.7865 B( 18-C , 19-C ) :   0.9903 B( 18-C , 82-H ) :   0.9117
B( 19-C , 20-C ) :   1.3924 B( 19-C , 29-C ) :   1.4298 B( 20-C , 21-C ) :   0.8349
B( 20-C , 26-C ) :   1.3219 B( 21-C , 22-O ) :   2.1799 B( 21-C , 23-S ) :   1.0380
B( 22-O , 23-S ) :   0.1104 B( 23-S , 24-C ) :   1.0186 B( 23-S , 25-O ) :   0.1065
B( 24-C , 25-O ) :   2.2051 B( 24-C , 26-C ) :   0.8327 B( 26-C , 27-C ) :   1.4359
B( 27-C , 28-C ) :   1.4605 B( 27-C , 35-C ) :   0.8876 B( 28-C , 29-C ) :   1.2978
B( 28-C , 33-C ) :   0.8323 B( 29-C , 30-C ) :   0.8473 B( 30-C , 31-O ) :   2.1583
B( 30-C , 32-S ) :   1.0476 B( 31-O , 32-S ) :   0.1109 B( 32-S , 33-C ) :   1.0154
B( 32-S , 34-O ) :   0.1053 B( 33-C , 34-O ) :   2.1943 B( 35-C , 36-N ) :   1.5300
B( 35-C , 40-N ) :   1.5637 B( 36-N , 37-C ) :   1.5325 B( 37-C , 38-C ) :   1.3708
B( 37-C , 83-H ) :   0.9789 B( 38-C , 39-C ) :   1.3481 B( 38-C , 84-H ) :   0.9748
B( 39-C , 40-N ) :   1.4882 B( 39-C , 41-C ) :   1.0791 B( 41-C , 42-C ) :   1.7801
B( 41-C , 85-H ) :   0.9695 B( 42-C , 43-C ) :   1.0498 B( 42-C , 86-H ) :   0.9228
B( 43-C , 44-C ) :   1.3796 B( 43-C , 53-C ) :   1.3516 B( 44-C , 45-C ) :   0.8431
B( 44-C , 50-C ) :   1.3123 B( 45-C , 46-O ) :   2.1557 B( 45-C , 47-S ) :   1.0285
B( 46-O , 47-S ) :   0.1031 B( 47-S , 48-C ) :   1.0455 B( 47-S , 49-O ) :   0.1096
B( 48-C , 49-O ) :   2.1614 B( 48-C , 50-C ) :   0.8377 B( 50-C , 51-C ) :   1.3900
B( 51-C , 52-C ) :   1.4027 B( 51-C , 59-C ) :   0.9839 B( 52-C , 53-C ) :   1.3361
B( 52-C , 57-C ) :   0.8413 B( 53-C , 54-C ) :   0.8308 B( 54-C , 55-O ) :   2.2046
B( 54-C , 56-S ) :   1.0230 B( 55-O , 56-S ) :   0.1060 B( 56-S , 57-C ) :   1.0427
B( 56-S , 58-O ) :   0.1081 B( 57-C , 58-O ) :   2.1597 B( 59-C , 60-C ) :   1.8471
B( 59-C , 87-H ) :   0.9058 B( 60-C , 61-C ) :   0.9840 B( 60-C , 69-C ) :   0.9209
B( 61-C , 62-C ) :   1.6559 B( 61-C , 67-C ) :   1.0338 B( 62-C , 63-C ) :   1.1236
B( 62-C , 65-C ) :   1.1862 B( 63-C , 64-N ) :   2.9915 B( 65-C , 66-N ) :   2.9800
B( 67-C , 68-C ) :   1.2632 B( 67-C , 74-C ) :   1.4038 B( 68-C , 69-C ) :   0.9283
B( 68-C , 71-C ) :   1.4214 B( 69-C , 70-O ) :   2.2799 B( 71-C , 72-C ) :   1.2550
B( 71-C , 88-H ) :   1.0155 B( 72-C , 73-C ) :   1.2914 B( 72-C , 77-C ) :   1.1757
B( 73-C , 74-C ) :   1.3336 B( 73-C , 75-S ) :   1.1003 B( 74-C , 89-H ) :   0.9833
B( 75-S , 76-C ) :   1.1280 B( 76-C , 77-C ) :   1.6276 B( 76-C , 90-H ) :   0.9678
B( 77-C , 91-H ) :   0.9990

-----------------------------------------------------------------------------
         ABSORPTION SPECTRUM VIA TRANSITION ELECTRIC DIPOLE MOMENTS
-----------------------------------------------------------------------------
State   Energy  Wavelength   fosc         T2         TX        TY        TZ
        (cm-1)    (nm)                  (au**2)     (au)      (au)      (au)
-----------------------------------------------------------------------------
   0   22296.2    448.5   0.025036767   0.36968   0.47171  -0.30752  -0.22935
   1   25309.2    395.1   0.001563102   0.02033  -0.06127  -0.01576  -0.12779
   2   26106.5    383.0   0.049939077   0.62975   0.36544   0.12416   0.69338
   3   26989.4    370.5   0.039545326   0.48237   0.12270  -0.35840  -0.58212
   4   27176.3    368.0   0.284944887   3.45180  -1.33364  -0.98464  -0.83886
   5   27770.2    360.1   0.136552893   1.61881   1.08992   0.31457   0.57613
   6   27863.5    358.9   0.078555592   0.92815  -0.56732   0.12094   0.76920
   7   28103.4    355.8   0.084723396   0.99248  -0.82322  -0.50080   0.25295
   8   28881.1    346.2   0.071756119   0.81794  -0.32381   0.66301  -0.52298
   9   28989.2    345.0   0.124424812   1.41301   0.75469   0.57479   0.71629
  10   29126.7    343.3   0.064227624   0.72595  -0.44246   0.11427  -0.71911
  11   29254.2    341.8   0.002532075   0.02849   0.15989  -0.00207  -0.05410
  12   29638.9    337.4   0.035214460   0.39114   0.12267  -0.47033   0.39355
  13   29944.6    333.9   0.032336337   0.35551   0.09703   0.47263   0.35031
  14   30099.2    332.2   0.040045647   0.43800  -0.00204   0.47805   0.45767
  15   30110.7    332.1   0.029987404   0.32786   0.33999   0.05214   0.45777
  16   30652.3    326.2   0.086692733   0.93110  -0.28477   0.89023  -0.23978
  17   31042.4    322.1   0.112554013   1.19366  -0.13498  -0.89136   0.61718
  18   31450.6    318.0   0.049878930   0.52211   0.11567   0.63175  -0.33110
  19   31679.0    315.7   0.006006314   0.06242  -0.15818   0.12945   0.14366
  20   31699.4    315.5   0.005719528   0.05940   0.23407   0.03886  -0.05568
  21   31783.8    314.6   0.066063011   0.68427   0.67963  -0.16987   0.43990
  22   32064.8    311.9   0.005246543   0.05387  -0.15184   0.07904  -0.15673
  23   32448.3    308.2   0.020059211   0.20352   0.24169  -0.14951  -0.35035
  24   32465.5    308.0   0.021656373   0.21960  -0.29831  -0.07329   0.35389
  25   32536.9    307.3   0.169343154   1.71343   0.76859  -0.19914   1.04069
  26   32597.1    306.8   0.065630524   0.66283   0.78320   0.19466   0.10737
  27   32677.0    306.0   0.105400110   1.06188  -0.73850   0.07725  -0.71452
  28   33169.9    301.5   0.008071861   0.08011   0.04809   0.12994   0.24681
  29   33289.0    300.4   0.028236732   0.27925  -0.03843   0.22192  -0.47804
  30   33337.4    300.0   0.269295528   2.65933  -1.24518  -0.71110   0.77666
  31   33480.8    298.7   0.006667501   0.06556   0.17012   0.18466  -0.05022
  32   33808.7    295.8   0.487189526   4.74401  -1.55173  -0.51230  -1.44003
  33   33901.4    295.0   0.415075705   4.03075  -1.11420   0.33763   1.63564
  34   34126.5    293.0   0.212624126   2.05115   0.62957   0.97566  -0.83837
  35   34263.6    291.9   0.087760247   0.84322  -0.69890  -0.41759  -0.42470
  36   34421.9    290.5   0.013041246   0.12473  -0.26524  -0.16061  -0.16904
  37   34820.4    287.2   0.015318900   0.14483  -0.02662  -0.05467   0.37568
  38   34866.0    286.8   0.022511246   0.21256  -0.06062   0.42386   0.17095
  39   34926.8    286.3   0.002733817   0.02577  -0.12097   0.07758   0.07153
  40   35286.2    283.4   0.001424171   0.01329   0.02341  -0.10013  -0.05208
  41   35348.1    282.9   0.033095492   0.30823  -0.13499   0.53209  -0.08301
  42   35501.5    281.7   0.050871543   0.47174   0.05730   0.66205  -0.17362
  43   35624.6    280.7   0.020869656   0.19286  -0.27409  -0.22627  -0.25794
  44   35661.5    280.4   0.025026793   0.23104   0.46519  -0.02606   0.11815
  45   35894.6    278.6   0.015364100   0.14091   0.34618   0.06686   0.12886
  46   36186.2    276.3   0.038248433   0.34797   0.28673  -0.51338  -0.04688
  47   36334.7    275.2   0.018991179   0.17207   0.05457   0.35343   0.21019
  48   36693.9    272.5   0.074483344   0.66825   0.76279   0.11738  -0.26951
  49   36984.5    270.4   0.104412175   0.92941  -0.82260  -0.40718  -0.29485
  50   37000.0    270.3   0.054723213   0.48691  -0.32438  -0.51580  -0.34006
  51   37060.3    269.8   0.009025337   0.08017  -0.12397  -0.25004  -0.04781
  52   37150.6    269.2   0.018038855   0.15985  -0.19909   0.34657   0.01031
  53   37329.5    267.9   0.037841062   0.33372  -0.47405   0.20564   0.25829
  54   37416.1    267.3   0.010899969   0.09591   0.25981  -0.13638  -0.09903
  55   37521.8    266.5   0.255988639   2.24602   0.15482  -1.43235   0.41281
  56   37602.1    265.9   0.042858929   0.37524  -0.20422  -0.39366  -0.42257
  57   38107.8    262.4   0.084470829   0.72974   0.09688   0.78252  -0.32865
  58   38317.9    261.0   0.024964768   0.21449   0.13897   0.38461   0.21737
  59   38551.9    259.4   0.088260666   0.75370  -0.60766   0.61957   0.02397
  60   38606.0    259.0   0.095837105   0.81725   0.46377  -0.62339   0.46212
  61   38786.2    257.8   0.007158299   0.06076   0.06663   0.23228   0.04865
  62   38882.3    257.2   0.084135160   0.71236   0.41245  -0.51661  -0.52475
  63   38980.2    256.5   0.100493182   0.84873  -0.34802   0.37823  -0.76456
  64   39055.6    256.0   0.096493821   0.81338   0.12806  -0.84227   0.29591
  65   39134.9    255.5   0.017085090   0.14372   0.07193  -0.31570  -0.19719
  66   39179.3    255.2   0.009172914   0.07708   0.15550  -0.10503   0.20461
  67   39348.0    254.1   0.049029397   0.41021  -0.52637  -0.01347  -0.36464
  68   39358.1    254.1   0.045941632   0.38428  -0.08617  -0.42182  -0.44601
  69   39796.4    251.3   0.004160304   0.03442   0.11604   0.04629   0.13714
  70   39833.5    251.0   0.017317730   0.14313   0.25813   0.25094   0.11630
  71   39845.3    251.0   0.086569405   0.71526   0.38041   0.75454  -0.03486
  72   40013.7    249.9   0.003797424   0.03124  -0.09491  -0.11745   0.09188
  73   40262.3    248.4   0.002736819   0.02238  -0.08149  -0.11269  -0.05512
  74   40283.2    248.2   0.069673843   0.56940  -0.48961   0.15826  -0.55194

FINAL SINGLE POINT ENERGY     -5607.579762608219

DIPOLE MOMENT
-------------
                                X             Y             Z
Electronic contribution:     13.77238       5.56712       2.84645
Nuclear contribution   :    -16.75296      -5.19556      -3.75369
                        -----------------------------------------
Total Dipole Moment    :     -2.98058       0.37157      -0.90724
                        -----------------------------------------
Magnitude (a.u.)       :      3.13768
Magnitude (Debye)      :      7.97534

Rotational constants in cm-1:     0.001000     0.000379     0.000316
Rotational constants in MHz :    29.990142    11.356916     9.464857

                             ****ORCA TERMINATED NORMALLY****
TOTAL RUN TIME: 0 days 0 hours 22 minutes 21 seconds 217 msec
