                         Program Version 4.2.0 -  RELEASE  -
|  1> # ORCA input file
|  2> # SCF done       -201.885587820425          0.000701179013
|  3> ! CAM-B3LYP def2-SVP def2/J RIJCOSX Grid4 TightSCF
|  4> %maxcore 5000
|  5> %tddft
|  6>     Mode sTDDFT
|  7>     Ethresh 5.0
|  8>     maxcore 5000
|  9> end
| 10>
| 11> %pal
| 12>   nprocs 6
| 13>   end
| 14> * xyz 0 1
| 15>    C       16.28719        -0.83560        -2.94588
| 16>    C       17.07010        -0.39351        -3.97638
| 17>    F       18.38016        -0.18291        -3.76837
| 18>    C       16.55768        -0.14614        -5.25818
| 19>    C       15.22659        -0.35222        -5.48946
| 20>    C       14.37254        -0.80493        -4.46194
| 21>    C       14.91339        -1.05406        -3.16545
| 22>    C       14.07863        -1.51539        -2.12089
| 23>    C       12.74677        -1.71683        -2.36458
| 24>    C       12.20826        -1.44573        -3.65762
| 25>    C       12.99406        -1.00766        -4.68660
| 26>    C       10.75809        -1.68534        -3.64538
| 27>    O        9.97025        -1.61195        -4.55661
| 28>    C       10.42784        -1.97338        -2.20946
| 29>    C       11.67347        -2.20291        -1.50128
| 30>    C       11.83419        -2.93094        -0.35736
| 31>    C       13.09255        -3.19727         0.22465
| 32>    N       14.09527        -3.43178         0.72968
| 33>    C       10.78272        -3.60364         0.30406
| 34>    N        9.99281        -4.25345         0.82417
| 35>    C        9.14687        -1.82688        -1.79104
| 36>    C        8.68259        -1.67557        -0.45513
| 37>    N        9.49726        -1.41492         0.55341
| 38>    C        8.70876        -1.26390         1.63805
| 39>    C        7.28859        -1.42386         1.29163
| 40>    C        6.44622        -1.30218         2.49784
| 41>    O        5.24577        -1.39481         2.59206
| 42>    C        7.44452        -1.05357         3.55960
| 43>    C        8.81167        -1.03080         2.98450
| 44>    N        9.73427        -0.80406         3.95238
| 45>    C        9.04753        -0.69737         5.06055
| 46>    C        7.60983        -0.84759         4.88779
| 47>    C        7.25337        -1.68827        -0.05310
| 48>    C        6.16071        -1.92834        -0.93151
| 49>    C        4.87101        -1.65524        -0.61967
| 50>    C        3.81896        -1.87728        -1.55039
| 51>    O        4.04562        -2.56069        -2.67921
| 52>    C        2.90274        -2.58845        -3.39938
| 53>    C        1.90121        -1.92792        -2.70358
| 54>    C        2.47586        -1.46925        -1.50743
| 55>    C        1.84493        -0.67847        -0.43347
| 56>    O        2.50003        -0.05742         0.36897
| 57>    C        0.33899        -0.69283        -0.43277
| 58>    C        2.90129        -3.31646        -4.62393
| 59>    N        3.77820        -4.28889        -4.81358
| 60>    C        3.49102        -4.81568        -6.01821
| 61>    C        2.38389        -4.09507        -6.66701
| 62>    C        2.08775        -4.69246        -7.98311
| 63>    O        1.27712        -4.33402        -8.81279
| 64>    C        3.02869        -5.81912        -8.04702
| 65>    C        3.88043        -5.84849        -6.83632
| 66>    N        4.75089        -6.88324        -6.89115
| 67>    C        4.49232        -7.49026        -8.02439
| 68>    C        3.42648        -6.88024        -8.79469
| 69>    C        1.99139        -3.12114        -5.77880
| 70>    C        1.02221        -2.09088        -5.93311
| 71>    C        0.29039        -1.96562        -7.06690
| 72>    C       -0.66874        -0.94758        -7.29313
| 73>    C       -1.51695        -0.91284        -8.35502
| 74>    C       -2.17658         0.35623        -8.77292
| 75>    O       -2.31581         1.35429        -8.10481
| 76>    C       -2.54659         0.14125       -10.18480
| 77>    C       -3.04961         1.03687       -11.08474
| 78>    C       -3.28719         0.62019       -12.41322
| 79>    C       -2.99457        -0.72440       -12.78708
| 80>    C       -3.22141        -1.12842       -14.11714
| 81>    C       -3.71698        -0.22671       -15.01734
| 82>    C       -4.01318         1.09847       -14.66889
| 83>    C       -3.79904         1.50770       -13.38238
| 84>    F       -3.93255        -0.60988       -16.28825
| 85>    C       -2.48444        -1.63439       -11.83207
| 86>    C       -2.26853        -1.20941       -10.54932
| 87>    C       -1.77997        -1.91670        -9.36921
| 88>    C       -1.77938        -3.27230        -9.18679
| 89>    C       -1.58509        -3.89750        -7.93472
| 90>    N       -1.51368        -4.43861        -6.92549
| 91>    C       -2.09819        -4.19623       -10.20454
| 92>    N       -2.35129        -4.97972       -11.00350
| 93>    H       16.71702        -1.01853        -1.97356
| 94>    H       17.22420         0.20123        -6.03155
| 95>    H       14.80853        -0.16882        -6.46770
| 96>    H       14.51115        -1.68684        -1.14804
| 97>    H       12.56619        -0.81473        -5.65899
| 98>    H        8.41006        -1.72108        -2.58010
| 99>    H        9.54868        -0.51080         5.99462
|100>    H        6.88050        -0.79495         5.67149
|101>    H        6.38783        -2.32743        -1.91138
|102>    H        4.59163        -1.22171         0.33084
|103>    H        0.87856        -1.82664        -3.00323
|104>    H       -0.03038        -1.71493        -0.46846
|105>    H       -0.03058        -0.16165        -1.30802
|106>    H       -0.02824        -0.19791         0.46194
|107>    H        5.05453        -8.36113        -8.31371
|108>    H        3.06416        -7.22541        -9.74263
|109>    H        0.88258        -1.39542        -5.11852
|110>    H        0.46538        -2.66660        -7.87059
|111>    H       -0.68338        -0.08892        -6.63066
|112>    H       -3.25858         2.05383       -10.78805
|113>    H       -3.00736        -2.14148       -14.41984
|114>    H       -4.40216         1.76480       -15.42238
|115>    H       -4.01906         2.52349       -13.09026
|116>    H       -2.26277        -2.64362       -12.14120
|117> *
|118>
|119>                          ****END OF INPUT****

CARTESIAN COORDINATES (ANGSTROEM)
---------------------------------
  C     16.287190   -0.835600   -2.945880
  C     17.070100   -0.393510   -3.976380
  F     18.380160   -0.182910   -3.768370
  C     16.557680   -0.146140   -5.258180
  C     15.226590   -0.352220   -5.489460
  C     14.372540   -0.804930   -4.461940
  C     14.913390   -1.054060   -3.165450
  C     14.078630   -1.515390   -2.120890
  C     12.746770   -1.716830   -2.364580
  C     12.208260   -1.445730   -3.657620
  C     12.994060   -1.007660   -4.686600
  C     10.758090   -1.685340   -3.645380
  O      9.970250   -1.611950   -4.556610
  C     10.427840   -1.973380   -2.209460
  C     11.673470   -2.202910   -1.501280
  C     11.834190   -2.930940   -0.357360
  C     13.092550   -3.197270    0.224650
  N     14.095270   -3.431780    0.729680
  C     10.782720   -3.603640    0.304060
  N      9.992810   -4.253450    0.824170
  C      9.146870   -1.826880   -1.791040
  C      8.682590   -1.675570   -0.455130
  N      9.497260   -1.414920    0.553410
  C      8.708760   -1.263900    1.638050
  C      7.288590   -1.423860    1.291630
  C      6.446220   -1.302180    2.497840
  O      5.245770   -1.394810    2.592060
  C      7.444520   -1.053570    3.559600
  C      8.811670   -1.030800    2.984500
  N      9.734270   -0.804060    3.952380
  C      9.047530   -0.697370    5.060550
  C      7.609830   -0.847590    4.887790
  C      7.253370   -1.688270   -0.053100
  C      6.160710   -1.928340   -0.931510
  C      4.871010   -1.655240   -0.619670
  C      3.818960   -1.877280   -1.550390
  O      4.045620   -2.560690   -2.679210
  C      2.902740   -2.588450   -3.399380
  C      1.901210   -1.927920   -2.703580
  C      2.475860   -1.469250   -1.507430
  C      1.844930   -0.678470   -0.433470
  O      2.500030   -0.057420    0.368970
  C      0.338990   -0.692830   -0.432770
  C      2.901290   -3.316460   -4.623930
  N      3.778200   -4.288890   -4.813580
  C      3.491020   -4.815680   -6.018210
  C      2.383890   -4.095070   -6.667010
  C      2.087750   -4.692460   -7.983110
  O      1.277120   -4.334020   -8.812790
  C      3.028690   -5.819120   -8.047020
  C      3.880430   -5.848490   -6.836320
  N      4.750890   -6.883240   -6.891150
  C      4.492320   -7.490260   -8.024390
  C      3.426480   -6.880240   -8.794690
  C      1.991390   -3.121140   -5.778800
  C      1.022210   -2.090880   -5.933110
  C      0.290390   -1.965620   -7.066900
  C     -0.668740   -0.947580   -7.293130
  C     -1.516950   -0.912840   -8.355020
  C     -2.176580    0.356230   -8.772920
  O     -2.315810    1.354290   -8.104810
  C     -2.546590    0.141250  -10.184800
  C     -3.049610    1.036870  -11.084740
  C     -3.287190    0.620190  -12.413220
  C     -2.994570   -0.724400  -12.787080
  C     -3.221410   -1.128420  -14.117140
  C     -3.716980   -0.226710  -15.017340
  C     -4.013180    1.098470  -14.668890
  C     -3.799040    1.507700  -13.382380
  F     -3.932550   -0.609880  -16.288250
  C     -2.484440   -1.634390  -11.832070
  C     -2.268530   -1.209410  -10.549320
  C     -1.779970   -1.916700   -9.369210
  C     -1.779380   -3.272300   -9.186790
  C     -1.585090   -3.897500   -7.934720
  N     -1.513680   -4.438610   -6.925490
  C     -2.098190   -4.196230  -10.204540
  N     -2.351290   -4.979720  -11.003500
  H     16.717020   -1.018530   -1.973560
  H     17.224200    0.201230   -6.031550
  H     14.808530   -0.168820   -6.467700
  H     14.511150   -1.686840   -1.148040
  H     12.566190   -0.814730   -5.658990
  H      8.410060   -1.721080   -2.580100
  H      9.548680   -0.510800    5.994620
  H      6.880500   -0.794950    5.671490
  H      6.387830   -2.327430   -1.911380
  H      4.591630   -1.221710    0.330840
  H      0.878560   -1.826640   -3.003230
  H     -0.030380   -1.714930   -0.468460
  H     -0.030580   -0.161650   -1.308020
  H     -0.028240   -0.197910    0.461940
  H      5.054530   -8.361130   -8.313710
  H      3.064160   -7.225410   -9.742630
  H      0.882580   -1.395420   -5.118520
  H      0.465380   -2.666600   -7.870590
  H     -0.683380   -0.088920   -6.630660
  H     -3.258580    2.053830  -10.788050
  H     -3.007360   -2.141480  -14.419840
  H     -4.402160    1.764800  -15.422380
  H     -4.019060    2.523490  -13.090260
  H     -2.262770   -2.643620  -12.141200

 Total Charge           Charge          ....    0
 Multiplicity           Mult            ....    1
 Number of Electrons    NEL             ....  518
 Basis Dimension        Dim             .... 1212

ORBITAL ENERGIES
----------------

  NO   OCC          E(Eh)            E(eV)
   0   2.0000     -24.791470      -674.6102
   1   2.0000     -24.786298      -674.4695
   2   2.0000     -19.318280      -525.6771
   3   2.0000     -19.229695      -523.2666
   4   2.0000     -19.221616      -523.0468
   5   2.0000     -19.217917      -522.9461
   6   2.0000     -19.216363      -522.9038
   7   2.0000     -19.213208      -522.8180
   8   2.0000     -14.425744      -392.5444
   9   2.0000     -14.423986      -392.4966
  10   2.0000     -14.418118      -392.3369
  11   2.0000     -14.415922      -392.2772
  12   2.0000     -14.415178      -392.2569
  13   2.0000     -14.414668      -392.2431
  14   2.0000     -14.411553      -392.1583
  15   2.0000     -14.409729      -392.1087
  16   2.0000     -10.381307      -282.4897
  17   2.0000     -10.379365      -282.4369
  18   2.0000     -10.377961      -282.3987
  19   2.0000     -10.375993      -282.3451
  20   2.0000     -10.370418      -282.1934
  21   2.0000     -10.370124      -282.1854
  22   2.0000     -10.367655      -282.1182
  23   2.0000     -10.365611      -282.0626
  24   2.0000     -10.359331      -281.8917
  25   2.0000     -10.355996      -281.8010
  26   2.0000     -10.355527      -281.7882
  27   2.0000     -10.352938      -281.7178
  28   2.0000     -10.347158      -281.5605
  29   2.0000     -10.345720      -281.5214
  30   2.0000     -10.340429      -281.3774
  31   2.0000     -10.339715      -281.3580
  32   2.0000     -10.338295      -281.3193
  33   2.0000     -10.336299      -281.2650
  34   2.0000     -10.336257      -281.2639
  35   2.0000     -10.329414      -281.0776
  36   2.0000     -10.329328      -281.0753
  37   2.0000     -10.324624      -280.9473
  38   2.0000     -10.324190      -280.9355
  39   2.0000     -10.323530      -280.9175
  40   2.0000     -10.321072      -280.8506
  41   2.0000     -10.317010      -280.7401
  42   2.0000     -10.316961      -280.7388
  43   2.0000     -10.314797      -280.6799
  44   2.0000     -10.314621      -280.6751
  45   2.0000     -10.314346      -280.6676
  46   2.0000     -10.313376      -280.6412
  47   2.0000     -10.313008      -280.6312
  48   2.0000     -10.312119      -280.6070
  49   2.0000     -10.309139      -280.5259
  50   2.0000     -10.308121      -280.4982
  51   2.0000     -10.308088      -280.4973
  52   2.0000     -10.306719      -280.4601
  53   2.0000     -10.306640      -280.4579
  54   2.0000     -10.304508      -280.3999
  55   2.0000     -10.304053      -280.3875
  56   2.0000     -10.302322      -280.3404
  57   2.0000     -10.301809      -280.3265
  58   2.0000     -10.301754      -280.3250
  59   2.0000     -10.301091      -280.3069
  60   2.0000     -10.300977      -280.3038
  61   2.0000     -10.300227      -280.2834
  62   2.0000     -10.299245      -280.2567
  63   2.0000     -10.299097      -280.2527
  64   2.0000     -10.298896      -280.2472
  65   2.0000     -10.298399      -280.2337
  66   2.0000     -10.298209      -280.2285
  67   2.0000     -10.298044      -280.2240
  68   2.0000     -10.297018      -280.1961
  69   2.0000     -10.296291      -280.1763
  70   2.0000     -10.294933      -280.1394
  71   2.0000     -10.294674      -280.1323
  72   2.0000     -10.294580      -280.1298
  73   2.0000     -10.293572      -280.1023
  74   2.0000     -10.293483      -280.0999
  75   2.0000     -10.291074      -280.0344
  76   2.0000     -10.289321      -279.9867
  77   2.0000     -10.276781      -279.6454
  78   2.0000      -1.307147       -35.5693
  79   2.0000      -1.301419       -35.4134
  80   2.0000      -1.241598       -33.7856
  81   2.0000      -1.145084       -31.1593
  82   2.0000      -1.135577       -30.9006
  83   2.0000      -1.133644       -30.8480
  84   2.0000      -1.132090       -30.8057
  85   2.0000      -1.131299       -30.7842
  86   2.0000      -1.089975       -29.6597
  87   2.0000      -1.085275       -29.5318
  88   2.0000      -1.070177       -29.1210
  89   2.0000      -1.064791       -28.9744
  90   2.0000      -1.025341       -27.9010
  91   2.0000      -1.017914       -27.6988
  92   2.0000      -1.007643       -27.4194
  93   2.0000      -0.999989       -27.2111
  94   2.0000      -0.998728       -27.1768
  95   2.0000      -0.991806       -26.9884
  96   2.0000      -0.984214       -26.7818
  97   2.0000      -0.977016       -26.5860
  98   2.0000      -0.948253       -25.8033
  99   2.0000      -0.947060       -25.7708
 100   2.0000      -0.941230       -25.6122
 101   2.0000      -0.935738       -25.4627
 102   2.0000      -0.933292       -25.3962
 103   2.0000      -0.931915       -25.3587
 104   2.0000      -0.923654       -25.1339
 105   2.0000      -0.912832       -24.8394
 106   2.0000      -0.902299       -24.5528
 107   2.0000      -0.897239       -24.4151
 108   2.0000      -0.893376       -24.3100
 109   2.0000      -0.887362       -24.1464
 110   2.0000      -0.883278       -24.0352
 111   2.0000      -0.877640       -23.8818
 112   2.0000      -0.865906       -23.5625
 113   2.0000      -0.864034       -23.5116
 114   2.0000      -0.847281       -23.0557
 115   2.0000      -0.841907       -22.9095
 116   2.0000      -0.838824       -22.8256
 117   2.0000      -0.835345       -22.7309
 118   2.0000      -0.832418       -22.6512
 119   2.0000      -0.820282       -22.3210
 120   2.0000      -0.796693       -21.6791
 121   2.0000      -0.789694       -21.4887
 122   2.0000      -0.776808       -21.1380
 123   2.0000      -0.768270       -20.9057
 124   2.0000      -0.766361       -20.8537
 125   2.0000      -0.760826       -20.7031
 126   2.0000      -0.759812       -20.6755
 127   2.0000      -0.739732       -20.1291
 128   2.0000      -0.736524       -20.0418
 129   2.0000      -0.731969       -19.9179
 130   2.0000      -0.727237       -19.7891
 131   2.0000      -0.718828       -19.5603
 132   2.0000      -0.716134       -19.4870
 133   2.0000      -0.714204       -19.4345
 134   2.0000      -0.709091       -19.2954
 135   2.0000      -0.701966       -19.1015
 136   2.0000      -0.689402       -18.7596
 137   2.0000      -0.688141       -18.7253
 138   2.0000      -0.683090       -18.5878
 139   2.0000      -0.680672       -18.5220
 140   2.0000      -0.675386       -18.3782
 141   2.0000      -0.659994       -17.9594
 142   2.0000      -0.653121       -17.7723
 143   2.0000      -0.648324       -17.6418
 144   2.0000      -0.641975       -17.4690
 145   2.0000      -0.639738       -17.4082
 146   2.0000      -0.635956       -17.3052
 147   2.0000      -0.635071       -17.2812
 148   2.0000      -0.633669       -17.2430
 149   2.0000      -0.629671       -17.1342
 150   2.0000      -0.623771       -16.9737
 151   2.0000      -0.617515       -16.8034
 152   2.0000      -0.612841       -16.6762
 153   2.0000      -0.610860       -16.6223
 154   2.0000      -0.610348       -16.6084
 155   2.0000      -0.599872       -16.3234
 156   2.0000      -0.598257       -16.2794
 157   2.0000      -0.591095       -16.0845
 158   2.0000      -0.589272       -16.0349
 159   2.0000      -0.579589       -15.7714
 160   2.0000      -0.578663       -15.7462
 161   2.0000      -0.573220       -15.5981
 162   2.0000      -0.571810       -15.5597
 163   2.0000      -0.566406       -15.4127
 164   2.0000      -0.564369       -15.3573
 165   2.0000      -0.563923       -15.3451
 166   2.0000      -0.561492       -15.2790
 167   2.0000      -0.558862       -15.2074
 168   2.0000      -0.557803       -15.1786
 169   2.0000      -0.555908       -15.1270
 170   2.0000      -0.553432       -15.0597
 171   2.0000      -0.551848       -15.0166
 172   2.0000      -0.549700       -14.9581
 173   2.0000      -0.548236       -14.9183
 174   2.0000      -0.546956       -14.8834
 175   2.0000      -0.544057       -14.8045
 176   2.0000      -0.541958       -14.7474
 177   2.0000      -0.540325       -14.7030
 178   2.0000      -0.533624       -14.5207
 179   2.0000      -0.533479       -14.5167
 180   2.0000      -0.531183       -14.4542
 181   2.0000      -0.530265       -14.4292
 182   2.0000      -0.529852       -14.4180
 183   2.0000      -0.525858       -14.3093
 184   2.0000      -0.525115       -14.2891
 185   2.0000      -0.523986       -14.2584
 186   2.0000      -0.521565       -14.1925
 187   2.0000      -0.517366       -14.0783
 188   2.0000      -0.512675       -13.9506
 189   2.0000      -0.511906       -13.9297
 190   2.0000      -0.508663       -13.8414
 191   2.0000      -0.506640       -13.7864
 192   2.0000      -0.505989       -13.7687
 193   2.0000      -0.501896       -13.6573
 194   2.0000      -0.497957       -13.5501
 195   2.0000      -0.495249       -13.4764
 196   2.0000      -0.494551       -13.4574
 197   2.0000      -0.494050       -13.4438
 198   2.0000      -0.492545       -13.4028
 199   2.0000      -0.492067       -13.3898
 200   2.0000      -0.488090       -13.2816
 201   2.0000      -0.483476       -13.1561
 202   2.0000      -0.480901       -13.0860
 203   2.0000      -0.480279       -13.0691
 204   2.0000      -0.479472       -13.0471
 205   2.0000      -0.477773       -13.0009
 206   2.0000      -0.477556       -12.9950
 207   2.0000      -0.471337       -12.8257
 208   2.0000      -0.470161       -12.7937
 209   2.0000      -0.468175       -12.7397
 210   2.0000      -0.464632       -12.6433
 211   2.0000      -0.463916       -12.6238
 212   2.0000      -0.460623       -12.5342
 213   2.0000      -0.458360       -12.4726
 214   2.0000      -0.454744       -12.3742
 215   2.0000      -0.453836       -12.3495
 216   2.0000      -0.449808       -12.2399
 217   2.0000      -0.448423       -12.2022
 218   2.0000      -0.447752       -12.1840
 219   2.0000      -0.444834       -12.1045
 220   2.0000      -0.444178       -12.0867
 221   2.0000      -0.440315       -11.9816
 222   2.0000      -0.436551       -11.8792
 223   2.0000      -0.435587       -11.8529
 224   2.0000      -0.435011       -11.8372
 225   2.0000      -0.428956       -11.6725
 226   2.0000      -0.427576       -11.6349
 227   2.0000      -0.422492       -11.4966
 228   2.0000      -0.422020       -11.4837
 229   2.0000      -0.417232       -11.3535
 230   2.0000      -0.413144       -11.2422
 231   2.0000      -0.406631       -11.0650
 232   2.0000      -0.404619       -11.0102
 233   2.0000      -0.390713       -10.6319
 234   2.0000      -0.388621       -10.5749
 235   2.0000      -0.388459       -10.5705
 236   2.0000      -0.380746       -10.3606
 237   2.0000      -0.373942       -10.1755
 238   2.0000      -0.369099       -10.0437
 239   2.0000      -0.366478        -9.9724
 240   2.0000      -0.365958        -9.9582
 241   2.0000      -0.362290        -9.8584
 242   2.0000      -0.358168        -9.7463
 243   2.0000      -0.355469        -9.6728
 244   2.0000      -0.349368        -9.5068
 245   2.0000      -0.343654        -9.3513
 246   2.0000      -0.339828        -9.2472
 247   2.0000      -0.338673        -9.2158
 248   2.0000      -0.337323        -9.1790
 249   2.0000      -0.336451        -9.1553
 250   2.0000      -0.335996        -9.1429
 251   2.0000      -0.327570        -8.9136
 252   2.0000      -0.322948        -8.7879
 253   2.0000      -0.315765        -8.5924
 254   2.0000      -0.314078        -8.5465
 255   2.0000      -0.302885        -8.2419
 256   2.0000      -0.300623        -8.1804
 257   2.0000      -0.287734        -7.8296
 258   2.0000      -0.273695        -7.4476
 259   0.0000      -0.135253        -3.6804
 260   0.0000      -0.123286        -3.3548
 261   0.0000      -0.095832        -2.6077
 262   0.0000      -0.084358        -2.2955
 263   0.0000      -0.065918        -1.7937

MULLIKEN ATOMIC CHARGES
-----------------------
   0 C :   -0.096848
   1 C :    0.303771
   2 F :   -0.186104
   3 C :   -0.026451
   4 C :   -0.006685
   5 C :    0.098827
   6 C :    0.103376
   7 C :   -0.085604
   8 C :    0.049495
   9 C :    0.003648
  10 C :   -0.072739
  11 C :    0.135831
  12 O :   -0.127195
  13 C :   -0.066120
  14 C :    0.265066
  15 C :   -0.263901
  16 C :   -0.189530
  17 N :    0.163714
  18 C :   -0.175295
  19 N :    0.169201
  20 C :   -0.012996
  21 C :    0.040874
  22 N :   -0.054098
  23 C :    0.078387
  24 C :   -0.143768
  25 C :    0.219812
  26 O :   -0.119145
  27 C :   -0.016459
  28 C :   -0.013941
  29 N :   -0.051814
  30 C :    0.099579
  31 C :   -0.092211
  32 C :    0.073275
  33 C :   -0.034427
  34 C :   -0.006485
  35 C :    0.126190
  36 O :   -0.157397
  37 C :    0.116399
  38 C :   -0.063005
  39 C :    0.014591
  40 C :    0.001951
  41 O :   -0.163115
  42 C :    0.033424
  43 C :    0.036601
  44 N :   -0.026973
  45 C :    0.076651
  46 C :   -0.167777
  47 C :    0.244702
  48 O :   -0.152914
  49 C :   -0.005208
  50 C :   -0.035695
  51 N :   -0.046739
  52 C :    0.095076
  53 C :   -0.092612
  54 C :    0.070543
  55 C :   -0.026268
  56 C :    0.023503
  57 C :    0.034610
  58 C :   -0.101845
  59 C :    0.142785
  60 O :   -0.139315
  61 C :   -0.000060
  62 C :   -0.079100
  63 C :    0.101142
  64 C :    0.103308
  65 C :   -0.097328
  66 C :    0.301532
  67 C :   -0.028379
  68 C :   -0.009072
  69 F :   -0.189553
  70 C :   -0.086286
  71 C :    0.051748
  72 C :    0.257679
  73 C :   -0.292372
  74 C :   -0.205989
  75 N :    0.162468
  76 C :   -0.174463
  77 N :    0.152846
  78 H :   -0.000187
  79 H :    0.006207
  80 H :   -0.007489
  81 H :   -0.000366
  82 H :   -0.008767
  83 H :    0.021941
  84 H :    0.016120
  85 H :    0.002607
  86 H :    0.015295
  87 H :    0.041252
  88 H :    0.004119
  89 H :    0.043934
  90 H :    0.040209
  91 H :    0.040707
  92 H :    0.012806
  93 H :   -0.000286
  94 H :   -0.028619
  95 H :    0.043123
  96 H :    0.010260
  97 H :   -0.011742
  98 H :   -0.001760
  99 H :    0.004189
 100 H :   -0.009543
 101 H :   -0.003331
Sum of atomic charges:    0.0000000

LOEWDIN ATOMIC CHARGES
----------------------
   0 C :   -0.041352
   1 C :    0.095714
   2 F :   -0.060712
   3 C :   -0.034994
   4 C :    0.006687
   5 C :   -0.018791
   6 C :    0.006919
   7 C :    0.012354
   8 C :   -0.013555
   9 C :   -0.064343
  10 C :    0.040604
  11 C :    0.084290
  12 O :   -0.126869
  13 C :   -0.018335
  14 C :    0.061074
  15 C :   -0.091711
  16 C :   -0.014560
  17 N :   -0.036076
  18 C :   -0.014178
  19 N :   -0.041331
  20 C :    0.028669
  21 C :    0.058729
  22 N :   -0.075051
  23 C :    0.045132
  24 C :   -0.033800
  25 C :    0.069009
  26 O :   -0.121847
  27 C :   -0.034879
  28 C :    0.042898
  29 N :   -0.093449
  30 C :    0.089010
  31 C :   -0.026868
  32 C :   -0.022068
  33 C :   -0.004041
  34 C :   -0.001007
  35 C :    0.084553
  36 O :    0.054457
  37 C :    0.017104
  38 C :   -0.020208
  39 C :   -0.101660
  40 C :    0.080614
  41 O :   -0.130655
  42 C :   -0.074272
  43 C :    0.051694
  44 N :   -0.090362
  45 C :    0.044645
  46 C :   -0.029022
  47 C :    0.078074
  48 O :   -0.141301
  49 C :   -0.038924
  50 C :    0.029165
  51 N :   -0.091510
  52 C :    0.079478
  53 C :   -0.028969
  54 C :   -0.026456
  55 C :    0.001237
  56 C :    0.005008
  57 C :    0.058160
  58 C :   -0.071413
  59 C :    0.081631
  60 O :   -0.141602
  61 C :   -0.060836
  62 C :    0.035132
  63 C :   -0.018920
  64 C :    0.004424
  65 C :   -0.041958
  66 C :    0.093468
  67 C :   -0.037078
  68 C :    0.005000
  69 F :   -0.064127
  70 C :    0.011596
  71 C :   -0.015340
  72 C :    0.065557
  73 C :   -0.114982
  74 C :   -0.017668
  75 N :   -0.050402
  76 C :   -0.012805
  77 N :   -0.046553
  78 H :    0.044261
  79 H :    0.043076
  80 H :    0.036547
  81 H :    0.040647
  82 H :    0.041076
  83 H :    0.048484
  84 H :    0.026731
  85 H :    0.037351
  86 H :    0.035967
  87 H :    0.046406
  88 H :    0.035550
  89 H :    0.042970
  90 H :    0.044734
  91 H :    0.043586
  92 H :    0.025352
  93 H :    0.036613
  94 H :    0.028055
  95 H :    0.034204
  96 H :    0.042619
  97 H :    0.039600
  98 H :    0.043395
  99 H :    0.042078
 100 H :    0.035658
 101 H :    0.039796

  Mayer bond orders larger than 0.100000
B(  0-C ,  1-C ) :   1.4423 B(  0-C ,  6-C ) :   1.2020 B(  0-C , 78-H ) :   1.0066
B(  1-C ,  2-F ) :   1.0932 B(  1-C ,  3-C ) :   1.2515 B(  3-C ,  4-C ) :   1.4654
B(  3-C , 79-H ) :   0.9917 B(  4-C ,  5-C ) :   1.2314 B(  4-C , 80-H ) :   0.9968
B(  5-C ,  6-C ) :   1.2519 B(  5-C , 10-C ) :   1.2010 B(  6-C ,  7-C ) :   1.2076
B(  7-C ,  8-C ) :   1.4605 B(  7-C , 81-H ) :   0.9944 B(  8-C ,  9-C ) :   1.2122
B(  8-C , 14-C ) :   0.9945 B(  9-C , 10-C ) :   1.4619 B(  9-C , 11-C ) :   0.9286
B( 10-C , 82-H ) :   1.0149 B( 11-C , 12-O ) :   2.2742 B( 11-C , 13-C ) :   0.9111
B( 13-C , 14-C ) :   1.0133 B( 13-C , 20-C ) :   1.7178 B( 14-C , 15-C ) :   1.7094
B( 15-C , 16-C ) :   1.1410 B( 15-C , 18-C ) :   1.1528 B( 16-C , 17-N ) :   2.9833
B( 18-C , 19-N ) :   2.9792 B( 20-C , 21-C ) :   1.0681 B( 20-C , 83-H ) :   0.9384
B( 21-C , 22-N ) :   1.5728 B( 21-C , 23-C ) :   0.1108 B( 21-C , 32-C ) :   1.0218
B( 22-N , 23-C ) :   1.3087 B( 23-C , 24-C ) :   1.0636 B( 23-C , 28-C ) :   1.4371
B( 24-C , 25-C ) :   0.8883 B( 24-C , 32-C ) :   1.5643 B( 25-C , 26-O ) :   2.2392
B( 25-C , 27-C ) :   0.9104 B( 27-C , 28-C ) :   1.0534 B( 27-C , 31-C ) :   1.6312
B( 28-C , 29-N ) :   1.3026 B( 29-N , 30-C ) :   1.6673 B( 30-C , 31-C ) :   1.0494
B( 30-C , 84-H ) :   0.9887 B( 31-C , 85-H ) :   1.0106 B( 32-C , 33-C ) :   1.0921
B( 33-C , 34-C ) :   1.6345 B( 33-C , 86-H ) :   0.9646 B( 34-C , 35-C ) :   1.1753
B( 34-C , 87-H ) :   0.9364 B( 35-C , 36-O ) :   1.2004 B( 35-C , 37-C ) :   0.1066
B( 35-C , 39-C ) :   1.3655 B( 36-O , 37-C ) :   1.1652 B( 37-C , 38-C ) :   1.4495
B( 37-C , 43-C ) :   1.0182 B( 38-C , 39-C ) :   1.2571 B( 38-C , 88-H ) :   0.9937
B( 39-C , 40-C ) :   0.9105 B( 40-C , 41-O ) :   2.1812 B( 40-C , 42-C ) :   1.0625
B( 42-C , 89-H ) :   0.9560 B( 42-C , 90-H ) :   0.9394 B( 42-C , 91-H ) :   0.9480
B( 43-C , 44-N ) :   1.6145 B( 43-C , 45-C ) :   0.1342 B( 43-C , 54-C ) :   1.0558
B( 44-N , 45-C ) :   1.3502 B( 45-C , 46-C ) :   1.0606 B( 45-C , 50-C ) :   1.4057
B( 46-C , 47-C ) :   0.8901 B( 46-C , 54-C ) :   1.5554 B( 47-C , 48-O ) :   2.1364
B( 47-C , 49-C ) :   0.9424 B( 48-O , 95-H ) :   0.1106 B( 49-C , 50-C ) :   1.0677
B( 49-C , 53-C ) :   1.5979 B( 50-C , 51-N ) :   1.3234 B( 51-N , 52-C ) :   1.6464
B( 52-C , 53-C ) :   1.0702 B( 52-C , 92-H ) :   0.9895 B( 53-C , 93-H ) :   1.0115
B( 54-C , 55-C ) :   1.0947 B( 55-C , 56-C ) :   1.6696 B( 55-C , 94-H ) :   0.9743
B( 56-C , 57-C ) :   1.1011 B( 56-C , 95-H ) :   0.9257 B( 57-C , 58-C ) :   1.6440
B( 57-C , 96-H ) :   0.9667 B( 58-C , 59-C ) :   0.9289 B( 58-C , 72-C ) :   1.0249
B( 59-C , 60-O ) :   2.2795 B( 59-C , 61-C ) :   0.9224 B( 61-C , 62-C ) :   1.4698
B( 61-C , 71-C ) :   1.2154 B( 62-C , 63-C ) :   1.1959 B( 62-C , 97-H ) :   1.0144
B( 63-C , 64-C ) :   1.2566 B( 63-C , 68-C ) :   1.2333 B( 64-C , 65-C ) :   1.2015
B( 64-C , 70-C ) :   1.2032 B( 65-C , 66-C ) :   1.4422 B( 65-C , 98-H ) :   1.0065
B( 66-C , 67-C ) :   1.2549 B( 66-C , 69-F ) :   1.0895 B( 67-C , 68-C ) :   1.4638
B( 67-C , 99-H ) :   0.9912 B( 68-C ,100-H ) :   0.9964 B( 70-C , 71-C ) :   1.4641
B( 70-C ,101-H ) :   0.9946 B( 71-C , 72-C ) :   0.9989 B( 72-C , 73-C ) :   1.6773
B( 73-C , 74-C ) :   1.1488 B( 73-C , 76-C ) :   1.1391 B( 74-C , 75-N ) :   3.0080
B( 76-C , 77-N ) :   2.9844

-----------------------------------------------------------------------------
         ABSORPTION SPECTRUM VIA TRANSITION ELECTRIC DIPOLE MOMENTS
-----------------------------------------------------------------------------
State   Energy  Wavelength   fosc         T2         TX        TY        TZ
        (cm-1)    (nm)                  (au**2)     (au)      (au)      (au)
-----------------------------------------------------------------------------
   0   14434.0    692.8   0.118599172   2.70502  -0.52467  -0.48317  -1.48199
   1   17847.9    560.3   0.345345035   6.37004   1.48645   0.50599   1.97597
   2   18536.1    539.5   0.399592005   7.09699  -0.10489  -1.90093  -1.86345
   3   19740.7    506.6   0.068761190   1.14672   0.49300  -0.52860  -0.79010
   4   20805.6    480.6   0.072225713   1.14284  -0.61660   0.56690   0.66428
   5   21809.0    458.5   0.011025288   0.16643  -0.16497  -0.08116  -0.36418
   6   22887.7    436.9   0.703188497  10.11451  -2.43668   0.27789  -2.02481
   7   23079.9    433.3   0.045484062   0.64878  -0.55107   0.36718   0.45856
   8   23518.7    425.2   0.044386578   0.62132   0.68990  -0.03087  -0.38001
   9   24115.7    414.7   0.031879657   0.43520   0.38113   0.12620   0.52347
  10   24356.4    410.6   0.075533574   1.02095   0.89712  -0.21843   0.41039
  11   24664.2    405.4   0.285808516   3.81491  -0.91971  -0.05107   1.72233
  12   24694.8    404.9   0.081849761   1.09116  -0.60084  -0.01389   0.85438
  13   25018.3    399.7   0.129079110   1.69853  -0.19820  -0.18912  -1.27416
  14   25294.0    395.4   0.128250188   1.66923  -0.23460   0.81200   0.97716
  15   25505.0    392.1   0.005663618   0.07310   0.14683  -0.21431  -0.07494
  16   25893.2    386.2   0.018904517   0.24036   0.10057   0.41330   0.24377
  17   26190.5    381.8   0.031805735   0.39979   0.34829  -0.39779  -0.34677
  18   26523.4    377.0   0.062745284   0.77880   0.75572   0.14785  -0.43109
  19   26593.9    376.0   0.069437461   0.85958  -0.75112   0.44193   0.31638
  20   27139.3    368.5   0.100449884   1.21850  -0.11219   0.32656  -1.04846
  21   27202.8    367.6   0.031844201   0.38538  -0.26241   0.10805  -0.55213
  22   28199.4    354.6   0.008738388   0.10202  -0.25603   0.17524   0.07586
  23   28699.7    348.4   0.115040209   1.31962  -0.91000   0.68807   0.13447
  24   28807.6    347.1   0.010037526   0.11471   0.15486   0.30120  -0.00219
  25   29221.9    342.2   0.045083871   0.50791  -0.60559  -0.24068  -0.28851
  26   29279.2    341.5   0.082724676   0.93015  -0.53282   0.12318  -0.79440
  27   29857.5    334.9   0.114567147   1.26323   0.97808  -0.51879  -0.19352
  28   29930.1    334.1   0.003830254   0.04213  -0.19721  -0.01166  -0.05569
  29   29968.2    333.7   0.037671255   0.41383  -0.53393  -0.02405  -0.35801
  30   30460.2    328.3   0.080953080   0.87494  -0.64669   0.32861   0.59055
  31   30815.4    324.5   0.038555214   0.41190   0.63238   0.06901  -0.08502
  32   30918.3    323.4   0.139930953   1.48996   0.66054  -0.80779   0.63333
  33   31249.2    320.0   0.116701520   1.22946  -0.64192  -0.27169   0.86231
  34   31356.6    318.9   0.386625957   4.05917   0.81449  -1.60309   0.90878
  35   31834.5    314.1   0.077664796   0.80316  -0.69309  -0.04704   0.56619
  36   32089.6    311.6   0.056475338   0.57939   0.00287  -0.41538   0.63784
  37   32642.4    306.4   0.086504128   0.87243   0.36965  -0.61995   0.59283
  38   33010.2    302.9   0.111018410   1.10719   1.04901   0.00958  -0.08167
  39   33086.8    302.2   0.100938992   1.00434   0.67170   0.48816  -0.56112
  40   33311.8    300.2   0.047507409   0.46950   0.56221   0.19009  -0.34247
  41   33768.3    296.1   0.110491984   1.07720  -0.45021   0.75794  -0.54775
  42   34020.1    293.9   0.070744871   0.68460   0.30190  -0.07832   0.76637
  43   34285.0    291.7   0.058439205   0.56115  -0.22169   0.10394  -0.70795
  44   34450.0    290.3   0.217369008   2.07723   0.22685  -1.04192   0.96962
  45   34651.8    288.6   0.003494557   0.03320   0.13426   0.10940   0.05663
  46   34744.1    287.8   0.080520110   0.76296   0.73844  -0.02178  -0.46603
  47   34807.9    287.3   0.082370686   0.77906  -0.87068   0.13503  -0.05236
  48   35109.6    284.8   0.124652624   1.16883  -0.98499  -0.21907  -0.38812
  49   35196.4    284.1   0.126212687   1.18054  -0.17060  -0.07220   1.07062
  50   35437.5    282.2   0.220940932   2.05253   0.51737   0.60021  -1.19357
  51   35507.8    281.6   0.038499793   0.35695  -0.06544   0.16466   0.57058
  52   35614.2    280.8   0.006903108   0.06381   0.04814  -0.21157   0.12935
  53   35697.4    280.1   0.185726652   1.71283   0.79049  -0.99972   0.29753
  54   35932.2    278.3   0.054112263   0.49578   0.00090   0.16545  -0.68440
  55   36296.4    275.5   0.232142888   2.10556  -0.33197   0.45298   1.33797
  56   36364.1    275.0   0.025369963   0.22968  -0.07533   0.43204  -0.19325
  57   36393.7    274.8   0.071581678   0.64752  -0.04054  -0.28856   0.75007
  58   36739.8    272.2   0.183513191   1.64439   0.81708   0.66976  -0.72677
  59   37170.9    269.0   0.097605956   0.86447  -0.31552  -0.76174   0.42972
  60   37260.6    268.4   0.085760179   0.75772   0.15575  -0.16371   0.84063
  61   37348.1    267.8   0.025600958   0.22566   0.12699  -0.17522  -0.42289
  62   37420.1    267.2   0.015895649   0.13985  -0.17712   0.15436   0.29094
  63   37489.7    266.7   0.077079890   0.67687   0.10355   0.15357  -0.80160
  64   37662.7    265.5   0.039530476   0.34554   0.31697  -0.47614   0.13551
  65   37862.2    264.1   0.007901400   0.06870  -0.10358   0.07047  -0.23024
  66   37953.2    263.5   0.142788370   1.23857   0.41823   0.47000  -0.91801
  67   38011.0    263.1   0.015188683   0.13155   0.19929   0.04345  -0.29991
  68   38090.2    262.5   0.001637453   0.01415  -0.02603   0.09047   0.07273
  69   38182.0    261.9   0.121661062   1.04898   0.47646  -0.54932   0.72126
  70   38531.3    259.5   0.003770953   0.03222   0.08631   0.14226  -0.06732
  71   38553.2    259.4   0.005085987   0.04343  -0.20633   0.01491  -0.02523
  72   38642.9    258.8   0.133791487   1.13981   1.03555  -0.19929   0.16652
  73   38961.4    256.7   0.106141158   0.89686  -0.76118   0.44030   0.35157
  74   39162.8    255.3   0.066423008   0.55837  -0.57447  -0.03037   0.47689
  75   39599.8    252.5   0.075285019   0.62588  -0.51659  -0.05566   0.59659
  76   39638.9    252.3   0.010687063   0.08876   0.21148   0.20312   0.05269
  77   39665.9    252.1   0.063886885   0.53024  -0.34534  -0.38891  -0.50963
  78   39739.6    251.6   0.014167347   0.11737   0.07141  -0.28491  -0.17634
  79   39858.1    250.9   0.058789672   0.48558  -0.13140   0.66728   0.15184
  80   39945.5    250.3   0.025554354   0.21061   0.05466   0.34601   0.29647
  81   39999.5    250.0   0.070115253   0.57708   0.61643   0.09458   0.43376
  82   40148.7    249.1   0.123253841   1.01066  -0.26934   0.89057   0.38078
  83   40236.7    248.5   0.126109851   1.03182   0.25170   0.71402   0.67723

FINAL SINGLE POINT ENERGY     -3461.544074949424

DIPOLE MOMENT
-------------
                                X             Y             Z
Electronic contribution:     19.14181      -8.67799      -3.47977
Nuclear contribution   :    -18.59296      11.35941       1.94322
                        -----------------------------------------
Total Dipole Moment    :      0.54885       2.68142      -1.53655
                        -----------------------------------------
Magnitude (a.u.)       :      3.13883
Magnitude (Debye)      :      7.97826

Rotational constants in cm-1:     0.001135     0.000285     0.000253
Rotational constants in MHz :    34.018289     8.532974     7.591728

                             ****ORCA TERMINATED NORMALLY****
TOTAL RUN TIME: 0 days 0 hours 10 minutes 2 seconds 342 msec
