                         Program Version 4.2.0 -  RELEASE  -
|  1> # ORCA input file
|  2> # SCF done       -198.272529931539          0.000421622805
|  3> ! CAM-B3LYP def2-SVP def2/J RIJCOSX Grid4 TightSCF
|  4> %maxcore 5000
|  5> %tddft
|  6>     Mode sTDDFT
|  7>     Ethresh 5.0
|  8>     maxcore 5000
|  9> end
| 10>
| 11> %pal
| 12>   nprocs 6
| 13>   end
| 14> * xyz 0 1
| 15>    C       -8.24886        -0.98080         0.22725
| 16>    C       -7.55311        -2.09720        -0.18424
| 17>    C       -8.15732        -3.30213        -0.59241
| 18>    N       -8.57689        -4.31278        -0.94279
| 19>    C       -6.15516        -2.20717        -0.25130
| 20>    N       -5.01534        -2.35794        -0.32723
| 21>    C       -9.70391        -0.90271         0.33618
| 22>    C      -10.04731         0.38645         0.83186
| 23>    C      -11.34137         0.76376         1.03532
| 24>    C      -12.37856        -0.15209         0.74344
| 25>    C      -12.04530        -1.44423         0.24743
| 26>    C      -10.69132        -1.80595         0.05004
| 27>    C      -13.08634        -2.34804        -0.04397
| 28>    C      -14.39508        -1.99410         0.14398
| 29>    C      -14.72199        -0.72116         0.63251
| 30>    C      -13.73448         0.18013         0.92659
| 31>    C       -8.81251         1.16146         1.05029
| 32>    O       -8.75004         2.30529         1.46879
| 33>    C       -7.70865         0.29325         0.63529
| 34>    C       -6.37767         0.64989         0.53294
| 35>    C       -5.70474         1.80505         0.92042
| 36>    S       -6.43391         3.08346         1.88803
| 37>    C       -4.91027         3.82924         2.09441
| 38>    C       -3.89788         3.20743         1.44026
| 39>    C       -4.31851         2.05303         0.73074
| 40>    N       -3.43401         1.35997        -0.03920
| 41>    C       -3.74933         0.58468        -1.22699
| 42>    C       -4.68662         1.30666        -2.18787
| 43>    C       -2.05885         1.48447         0.26858
| 44>    C       -1.62074         1.15344         1.52024
| 45>    C       -0.24970         1.27940         1.85960
| 46>    C        0.47362         1.03166         3.01703
| 47>    C        0.14412         0.33784         4.30149
| 48>    C       -1.32623        -0.04913         4.51525
| 49>    N       -1.71629        -1.20682         3.72623
| 50>    C        1.05455        -0.92269         4.49142
| 51>    N        1.02239        -1.91173         3.44684
| 52>    C        1.81984         1.51515         2.76982
| 53>    C        2.87145         1.68174         3.59356
| 54>    C        4.18694         2.17165         3.09594
| 55>    C        4.19071         2.61352         1.66569
| 56>    C        3.11068         2.50517         0.87164
| 57>    C        1.90025         1.97739         1.38050
| 58>    C        0.63855         1.84309         0.84210
| 59>    C        0.14645         2.16811        -0.44189
| 60>    C       -1.16411         1.97326        -0.73095
| 61>    C        5.17716         1.03666         3.21043
| 62>    C        6.35143         1.12669         3.83529
| 63>    C        7.33252         0.07916         3.86588
| 64>    S        7.17512        -1.36224         2.91684
| 65>    C        8.71158        -1.92906         3.42683
| 66>    C        9.32325        -1.06891         4.27713
| 67>    C        8.53937         0.08202         4.53402
| 68>    N        8.93758         1.07703         5.44586
| 69>    C        8.14667         1.20677         6.66240
| 70>    C        8.65187         0.26076         7.74961
| 71>    C       10.15085         1.62336         5.42262
| 72>    C       11.05011         1.68020         4.38086
| 73>    C       12.42462         2.08929         4.53326
| 74>    C       13.12090         2.19818         5.71506
| 75>    C       14.46564         2.60471         5.80569
| 76>    N       15.55451         2.94204         5.94896
| 77>    C       12.59667         1.86461         6.97746
| 78>    N       12.22389         1.56496         8.02378
| 79>    C       12.99343         2.24508         3.19867
| 80>    C       12.00266         1.87601         2.24592
| 81>    C       10.75302         1.52189         2.94963
| 82>    O        9.68394         1.26059         2.42881
| 83>    C       12.24818         1.90326         0.90510
| 84>    C       13.52188         2.31127         0.44567
| 85>    C       14.51521         2.69068         1.39250
| 86>    C       14.23129         2.64896         2.77785
| 87>    C       15.77740         3.10584         0.92296
| 88>    C       16.04872         3.14326        -0.41789
| 89>    C       15.07063         2.76692        -1.34954
| 90>    C       13.83437         2.35912        -0.92659
| 91>    H      -11.57337         1.74873         1.41268
| 92>    H      -10.47452        -2.79201        -0.32866
| 93>    H      -12.82946        -3.32766        -0.42005
| 94>    H      -15.18541        -2.69401        -0.08332
| 95>    H      -15.75955        -0.45731         0.77445
| 96>    H      -13.98005         1.16266         1.30298
| 97>    H       -5.74295        -0.10507         0.09912
| 98>    H       -4.83770         4.73324         2.66800
| 99>    H       -2.88421         3.56619         1.42661
|100>    H       -4.14459        -0.40329        -0.95802
|101>    H       -2.79881         0.39444        -1.73077
|102>    H       -5.66757         1.46963        -1.74963
|103>    H       -4.80811         0.70741        -3.08617
|104>    H       -4.27230         2.27380        -2.46548
|105>    H       -2.35758         0.84536         2.24393
|106>    H        0.40592         1.02371         5.11929
|107>    H       -1.95615         0.84225         4.34800
|108>    H       -1.44599        -0.33416         5.56572
|109>    H       -2.66359        -1.48693         3.95357
|110>    H       -1.67818        -1.00158         2.73351
|111>    H        0.75403        -1.41314         5.42036
|112>    H        2.09199        -0.59429         4.59675
|113>    H        0.09020        -2.31003         3.39077
|114>    H        1.23859        -1.48601         2.55084
|115>    H        2.82238         1.45139         4.64888
|116>    H        4.53531         2.99369         3.73552
|117>    H        5.12827         2.99976         1.29703
|118>    H        3.14726         2.83544        -0.15644
|119>    H        0.81977         2.58380        -1.17652
|120>    H       -1.56045         2.24340        -1.69795
|121>    H        4.89332         0.12524         2.70327
|122>    H        6.63786         2.04696         4.32932
|123>    H        9.07038        -2.87302         3.06872
|124>    H       10.29110        -1.23288         4.71651
|125>    H        7.10940         0.96967         6.42027
|126>    H        8.20037         2.24142         7.01083
|127>    H        8.59956        -0.77003         7.40596
|128>    H        8.03706         0.36174         8.63941
|129>    H        9.68239         0.48927         8.01331
|130>    H       10.42957         2.11349         6.34787
|131>    H       11.48123         1.61611         0.20095
|132>    H       15.00191         2.94646         3.47141
|133>    H       16.52779         3.39328         1.64493
|134>    H       17.01900         3.46305        -0.76749
|135>    H       15.30076         2.80209        -2.40408
|136>    H       13.07669         2.06872        -1.63995
|137> *
|138>
|139>                          ****END OF INPUT****

CARTESIAN COORDINATES (ANGSTROEM)
---------------------------------
  C     -8.248860   -0.980800    0.227250
  C     -7.553110   -2.097200   -0.184240
  C     -8.157320   -3.302130   -0.592410
  N     -8.576890   -4.312780   -0.942790
  C     -6.155160   -2.207170   -0.251300
  N     -5.015340   -2.357940   -0.327230
  C     -9.703910   -0.902710    0.336180
  C    -10.047310    0.386450    0.831860
  C    -11.341370    0.763760    1.035320
  C    -12.378560   -0.152090    0.743440
  C    -12.045300   -1.444230    0.247430
  C    -10.691320   -1.805950    0.050040
  C    -13.086340   -2.348040   -0.043970
  C    -14.395080   -1.994100    0.143980
  C    -14.721990   -0.721160    0.632510
  C    -13.734480    0.180130    0.926590
  C     -8.812510    1.161460    1.050290
  O     -8.750040    2.305290    1.468790
  C     -7.708650    0.293250    0.635290
  C     -6.377670    0.649890    0.532940
  C     -5.704740    1.805050    0.920420
  S     -6.433910    3.083460    1.888030
  C     -4.910270    3.829240    2.094410
  C     -3.897880    3.207430    1.440260
  C     -4.318510    2.053030    0.730740
  N     -3.434010    1.359970   -0.039200
  C     -3.749330    0.584680   -1.226990
  C     -4.686620    1.306660   -2.187870
  C     -2.058850    1.484470    0.268580
  C     -1.620740    1.153440    1.520240
  C     -0.249700    1.279400    1.859600
  C      0.473620    1.031660    3.017030
  C      0.144120    0.337840    4.301490
  C     -1.326230   -0.049130    4.515250
  N     -1.716290   -1.206820    3.726230
  C      1.054550   -0.922690    4.491420
  N      1.022390   -1.911730    3.446840
  C      1.819840    1.515150    2.769820
  C      2.871450    1.681740    3.593560
  C      4.186940    2.171650    3.095940
  C      4.190710    2.613520    1.665690
  C      3.110680    2.505170    0.871640
  C      1.900250    1.977390    1.380500
  C      0.638550    1.843090    0.842100
  C      0.146450    2.168110   -0.441890
  C     -1.164110    1.973260   -0.730950
  C      5.177160    1.036660    3.210430
  C      6.351430    1.126690    3.835290
  C      7.332520    0.079160    3.865880
  S      7.175120   -1.362240    2.916840
  C      8.711580   -1.929060    3.426830
  C      9.323250   -1.068910    4.277130
  C      8.539370    0.082020    4.534020
  N      8.937580    1.077030    5.445860
  C      8.146670    1.206770    6.662400
  C      8.651870    0.260760    7.749610
  C     10.150850    1.623360    5.422620
  C     11.050110    1.680200    4.380860
  C     12.424620    2.089290    4.533260
  C     13.120900    2.198180    5.715060
  C     14.465640    2.604710    5.805690
  N     15.554510    2.942040    5.948960
  C     12.596670    1.864610    6.977460
  N     12.223890    1.564960    8.023780
  C     12.993430    2.245080    3.198670
  C     12.002660    1.876010    2.245920
  C     10.753020    1.521890    2.949630
  O      9.683940    1.260590    2.428810
  C     12.248180    1.903260    0.905100
  C     13.521880    2.311270    0.445670
  C     14.515210    2.690680    1.392500
  C     14.231290    2.648960    2.777850
  C     15.777400    3.105840    0.922960
  C     16.048720    3.143260   -0.417890
  C     15.070630    2.766920   -1.349540
  C     13.834370    2.359120   -0.926590
  H    -11.573370    1.748730    1.412680
  H    -10.474520   -2.792010   -0.328660
  H    -12.829460   -3.327660   -0.420050
  H    -15.185410   -2.694010   -0.083320
  H    -15.759550   -0.457310    0.774450
  H    -13.980050    1.162660    1.302980
  H     -5.742950   -0.105070    0.099120
  H     -4.837700    4.733240    2.668000
  H     -2.884210    3.566190    1.426610
  H     -4.144590   -0.403290   -0.958020
  H     -2.798810    0.394440   -1.730770
  H     -5.667570    1.469630   -1.749630
  H     -4.808110    0.707410   -3.086170
  H     -4.272300    2.273800   -2.465480
  H     -2.357580    0.845360    2.243930
  H      0.405920    1.023710    5.119290
  H     -1.956150    0.842250    4.348000
  H     -1.445990   -0.334160    5.565720
  H     -2.663590   -1.486930    3.953570
  H     -1.678180   -1.001580    2.733510
  H      0.754030   -1.413140    5.420360
  H      2.091990   -0.594290    4.596750
  H      0.090200   -2.310030    3.390770
  H      1.238590   -1.486010    2.550840
  H      2.822380    1.451390    4.648880
  H      4.535310    2.993690    3.735520
  H      5.128270    2.999760    1.297030
  H      3.147260    2.835440   -0.156440
  H      0.819770    2.583800   -1.176520
  H     -1.560450    2.243400   -1.697950
  H      4.893320    0.125240    2.703270
  H      6.637860    2.046960    4.329320
  H      9.070380   -2.873020    3.068720
  H     10.291100   -1.232880    4.716510
  H      7.109400    0.969670    6.420270
  H      8.200370    2.241420    7.010830
  H      8.599560   -0.770030    7.405960
  H      8.037060    0.361740    8.639410
  H      9.682390    0.489270    8.013310
  H     10.429570    2.113490    6.347870
  H     11.481230    1.616110    0.200950
  H     15.001910    2.946460    3.471410
  H     16.527790    3.393280    1.644930
  H     17.019000    3.463050   -0.767490
  H     15.300760    2.802090   -2.404080
  H     13.076690    2.068720   -1.639950

 Total Charge           Charge          ....    0
 Multiplicity           Mult            ....    1
 Number of Electrons    NEL             ....  534
 Basis Dimension        Dim             .... 1302

ORBITAL ENERGIES
----------------

  NO   OCC          E(Eh)            E(eV)
   0   2.0000     -88.957265     -2420.6503
   1   2.0000     -88.946051     -2420.3451
   2   2.0000     -19.203581      -522.5560
   3   2.0000     -19.198867      -522.4277
   4   2.0000     -14.485108      -394.1598
   5   2.0000     -14.453250      -393.2929
   6   2.0000     -14.410853      -392.1392
   7   2.0000     -14.409570      -392.1043
   8   2.0000     -14.401619      -391.8880
   9   2.0000     -14.400623      -391.8609
  10   2.0000     -14.384378      -391.4188
  11   2.0000     -14.348586      -390.4449
  12   2.0000     -10.354136      -281.7504
  13   2.0000     -10.353961      -281.7456
  14   2.0000     -10.353671      -281.7377
  15   2.0000     -10.338721      -281.3309
  16   2.0000     -10.331847      -281.1439
  17   2.0000     -10.328915      -281.0641
  18   2.0000     -10.325527      -280.9719
  19   2.0000     -10.324963      -280.9565
  20   2.0000     -10.324125      -280.9337
  21   2.0000     -10.317164      -280.7443
  22   2.0000     -10.316533      -280.7271
  23   2.0000     -10.316240      -280.7192
  24   2.0000     -10.314467      -280.6709
  25   2.0000     -10.311925      -280.6017
  26   2.0000     -10.306262      -280.4476
  27   2.0000     -10.305805      -280.4352
  28   2.0000     -10.305625      -280.4303
  29   2.0000     -10.305441      -280.4253
  30   2.0000     -10.302653      -280.3495
  31   2.0000     -10.301794      -280.3261
  32   2.0000     -10.300343      -280.2866
  33   2.0000     -10.299809      -280.2720
  34   2.0000     -10.297152      -280.1997
  35   2.0000     -10.292232      -280.0659
  36   2.0000     -10.290978      -280.0317
  37   2.0000     -10.290837      -280.0279
  38   2.0000     -10.289713      -279.9973
  39   2.0000     -10.289277      -279.9855
  40   2.0000     -10.288743      -279.9709
  41   2.0000     -10.287980      -279.9502
  42   2.0000     -10.287756      -279.9441
  43   2.0000     -10.287565      -279.9389
  44   2.0000     -10.286499      -279.9099
  45   2.0000     -10.286057      -279.8978
  46   2.0000     -10.285875      -279.8929
  47   2.0000     -10.285841      -279.8920
  48   2.0000     -10.281467      -279.7729
  49   2.0000     -10.279899      -279.7303
  50   2.0000     -10.279724      -279.7255
  51   2.0000     -10.279680      -279.7243
  52   2.0000     -10.279017      -279.7063
  53   2.0000     -10.278737      -279.6986
  54   2.0000     -10.278579      -279.6944
  55   2.0000     -10.278416      -279.6899
  56   2.0000     -10.278276      -279.6861
  57   2.0000     -10.278244      -279.6853
  58   2.0000     -10.277937      -279.6769
  59   2.0000     -10.277678      -279.6698
  60   2.0000     -10.277628      -279.6685
  61   2.0000     -10.277518      -279.6655
  62   2.0000     -10.277476      -279.6643
  63   2.0000     -10.277088      -279.6538
  64   2.0000     -10.277031      -279.6522
  65   2.0000     -10.276855      -279.6474
  66   2.0000     -10.275020      -279.5975
  67   2.0000     -10.273339      -279.5518
  68   2.0000     -10.272106      -279.5182
  69   2.0000     -10.271050      -279.4895
  70   2.0000     -10.270037      -279.4619
  71   2.0000     -10.269796      -279.4554
  72   2.0000     -10.268767      -279.4274
  73   2.0000     -10.264987      -279.3245
  74   2.0000     -10.264580      -279.3134
  75   2.0000     -10.263930      -279.2957
  76   2.0000      -8.053165      -219.1377
  77   2.0000      -8.040557      -218.7947
  78   2.0000      -6.022437      -163.8788
  79   2.0000      -6.018212      -163.7639
  80   2.0000      -6.015380      -163.6868
  81   2.0000      -6.010266      -163.5477
  82   2.0000      -6.005609      -163.4209
  83   2.0000      -6.002113      -163.3258
  84   2.0000      -1.119045       -30.4508
  85   2.0000      -1.115497       -30.3542
  86   2.0000      -1.092630       -29.7320
  87   2.0000      -1.071700       -29.1624
  88   2.0000      -1.008924       -27.4542
  89   2.0000      -1.008606       -27.4456
  90   2.0000      -0.990298       -26.9474
  91   2.0000      -0.990191       -26.9445
  92   2.0000      -0.989664       -26.9301
  93   2.0000      -0.984298       -26.7841
  94   2.0000      -0.982957       -26.7476
  95   2.0000      -0.982596       -26.7378
  96   2.0000      -0.975726       -26.5508
  97   2.0000      -0.969276       -26.3753
  98   2.0000      -0.961889       -26.1743
  99   2.0000      -0.960700       -26.1420
 100   2.0000      -0.946847       -25.7650
 101   2.0000      -0.932958       -25.3871
 102   2.0000      -0.915200       -24.9039
 103   2.0000      -0.914806       -24.8931
 104   2.0000      -0.912240       -24.8233
 105   2.0000      -0.893675       -24.3181
 106   2.0000      -0.890948       -24.2439
 107   2.0000      -0.885839       -24.1049
 108   2.0000      -0.874373       -23.7929
 109   2.0000      -0.873342       -23.7648
 110   2.0000      -0.871086       -23.7035
 111   2.0000      -0.869736       -23.6667
 112   2.0000      -0.866622       -23.5820
 113   2.0000      -0.860904       -23.4264
 114   2.0000      -0.855614       -23.2824
 115   2.0000      -0.842046       -22.9132
 116   2.0000      -0.832534       -22.6544
 117   2.0000      -0.830740       -22.6056
 118   2.0000      -0.820693       -22.3322
 119   2.0000      -0.819558       -22.3013
 120   2.0000      -0.819352       -22.2957
 121   2.0000      -0.817327       -22.2406
 122   2.0000      -0.808477       -21.9998
 123   2.0000      -0.786483       -21.4013
 124   2.0000      -0.773588       -21.0504
 125   2.0000      -0.768038       -20.8994
 126   2.0000      -0.765304       -20.8250
 127   2.0000      -0.751398       -20.4466
 128   2.0000      -0.751286       -20.4435
 129   2.0000      -0.737624       -20.0718
 130   2.0000      -0.730998       -19.8915
 131   2.0000      -0.727651       -19.8004
 132   2.0000      -0.717837       -19.5333
 133   2.0000      -0.714223       -19.4350
 134   2.0000      -0.702795       -19.1240
 135   2.0000      -0.695382       -18.9223
 136   2.0000      -0.695014       -18.9123
 137   2.0000      -0.691903       -18.8276
 138   2.0000      -0.690082       -18.7781
 139   2.0000      -0.688709       -18.7407
 140   2.0000      -0.682762       -18.5789
 141   2.0000      -0.677277       -18.4297
 142   2.0000      -0.670998       -18.2588
 143   2.0000      -0.668659       -18.1951
 144   2.0000      -0.667354       -18.1596
 145   2.0000      -0.656207       -17.8563
 146   2.0000      -0.652576       -17.7575
 147   2.0000      -0.639372       -17.3982
 148   2.0000      -0.638626       -17.3779
 149   2.0000      -0.628577       -17.1044
 150   2.0000      -0.623588       -16.9687
 151   2.0000      -0.623217       -16.9586
 152   2.0000      -0.618710       -16.8360
 153   2.0000      -0.613300       -16.6887
 154   2.0000      -0.611442       -16.6382
 155   2.0000      -0.600660       -16.3448
 156   2.0000      -0.599840       -16.3225
 157   2.0000      -0.597988       -16.2721
 158   2.0000      -0.596692       -16.2368
 159   2.0000      -0.588319       -16.0090
 160   2.0000      -0.585151       -15.9228
 161   2.0000      -0.576958       -15.6998
 162   2.0000      -0.571434       -15.5495
 163   2.0000      -0.565702       -15.3935
 164   2.0000      -0.564645       -15.3648
 165   2.0000      -0.561275       -15.2731
 166   2.0000      -0.556331       -15.1385
 167   2.0000      -0.552192       -15.0259
 168   2.0000      -0.549452       -14.9513
 169   2.0000      -0.545343       -14.8395
 170   2.0000      -0.542651       -14.7663
 171   2.0000      -0.540654       -14.7119
 172   2.0000      -0.539585       -14.6829
 173   2.0000      -0.538618       -14.6565
 174   2.0000      -0.537419       -14.6239
 175   2.0000      -0.535961       -14.5842
 176   2.0000      -0.531077       -14.4513
 177   2.0000      -0.528334       -14.3767
 178   2.0000      -0.527015       -14.3408
 179   2.0000      -0.525255       -14.2929
 180   2.0000      -0.523403       -14.2425
 181   2.0000      -0.520226       -14.1561
 182   2.0000      -0.518747       -14.1158
 183   2.0000      -0.515928       -14.0391
 184   2.0000      -0.513787       -13.9808
 185   2.0000      -0.511513       -13.9190
 186   2.0000      -0.510601       -13.8941
 187   2.0000      -0.510147       -13.8818
 188   2.0000      -0.507729       -13.8160
 189   2.0000      -0.506129       -13.7725
 190   2.0000      -0.503429       -13.6990
 191   2.0000      -0.502021       -13.6607
 192   2.0000      -0.499238       -13.5850
 193   2.0000      -0.497565       -13.5394
 194   2.0000      -0.495754       -13.4901
 195   2.0000      -0.492858       -13.4114
 196   2.0000      -0.491362       -13.3706
 197   2.0000      -0.487584       -13.2678
 198   2.0000      -0.486734       -13.2447
 199   2.0000      -0.485270       -13.2049
 200   2.0000      -0.482986       -13.1427
 201   2.0000      -0.479489       -13.0476
 202   2.0000      -0.478049       -13.0084
 203   2.0000      -0.473328       -12.8799
 204   2.0000      -0.471553       -12.8316
 205   2.0000      -0.468923       -12.7601
 206   2.0000      -0.466806       -12.7024
 207   2.0000      -0.464152       -12.6302
 208   2.0000      -0.463486       -12.6121
 209   2.0000      -0.459646       -12.5076
 210   2.0000      -0.456506       -12.4221
 211   2.0000      -0.455342       -12.3905
 212   2.0000      -0.454944       -12.3797
 213   2.0000      -0.453235       -12.3332
 214   2.0000      -0.448720       -12.2103
 215   2.0000      -0.448454       -12.2031
 216   2.0000      -0.445708       -12.1283
 217   2.0000      -0.444932       -12.1072
 218   2.0000      -0.440692       -11.9918
 219   2.0000      -0.438324       -11.9274
 220   2.0000      -0.437419       -11.9028
 221   2.0000      -0.435564       -11.8523
 222   2.0000      -0.432463       -11.7679
 223   2.0000      -0.431978       -11.7547
 224   2.0000      -0.431151       -11.7322
 225   2.0000      -0.427914       -11.6441
 226   2.0000      -0.426733       -11.6120
 227   2.0000      -0.424892       -11.5619
 228   2.0000      -0.424585       -11.5536
 229   2.0000      -0.423246       -11.5171
 230   2.0000      -0.422112       -11.4862
 231   2.0000      -0.418563       -11.3897
 232   2.0000      -0.417492       -11.3605
 233   2.0000      -0.417091       -11.3496
 234   2.0000      -0.415051       -11.2941
 235   2.0000      -0.413873       -11.2621
 236   2.0000      -0.411534       -11.1984
 237   2.0000      -0.411452       -11.1962
 238   2.0000      -0.399950       -10.8832
 239   2.0000      -0.398618       -10.8469
 240   2.0000      -0.398240       -10.8367
 241   2.0000      -0.396173       -10.7804
 242   2.0000      -0.394056       -10.7228
 243   2.0000      -0.393947       -10.7198
 244   2.0000      -0.380425       -10.3519
 245   2.0000      -0.379425       -10.3247
 246   2.0000      -0.372502       -10.1363
 247   2.0000      -0.370186       -10.0733
 248   2.0000      -0.368553       -10.0288
 249   2.0000      -0.363950        -9.9036
 250   2.0000      -0.352879        -9.6023
 251   2.0000      -0.342061        -9.3079
 252   2.0000      -0.339996        -9.2518
 253   2.0000      -0.321886        -8.7590
 254   2.0000      -0.317559        -8.6412
 255   2.0000      -0.316354        -8.6084
 256   2.0000      -0.315407        -8.5827
 257   2.0000      -0.308283        -8.3888
 258   2.0000      -0.306904        -8.3513
 259   2.0000      -0.294123        -8.0035
 260   2.0000      -0.292961        -7.9719
 261   2.0000      -0.283802        -7.7226
 262   2.0000      -0.281768        -7.6673
 263   2.0000      -0.270745        -7.3674
 264   2.0000      -0.268455        -7.3050
 265   2.0000      -0.256641        -6.9835
 266   2.0000      -0.227465        -6.1896
 267   0.0000      -0.080324        -2.1857
 268   0.0000      -0.069400        -1.8885
 269   0.0000      -0.067708        -1.8424
 270   0.0000      -0.046501        -1.2654
 271   0.0000      -0.043996        -1.1972

MULLIKEN ATOMIC CHARGES
-----------------------
   0 C :    0.341287
   1 C :   -0.385899
   2 C :   -0.182112
   3 N :    0.138202
   4 C :   -0.150279
   5 N :    0.109121
   6 C :    0.038216
   7 C :    0.000103
   8 C :   -0.087176
   9 C :    0.099569
  10 C :    0.093956
  11 C :   -0.085122
  12 C :   -0.018348
  13 C :    0.033721
  14 C :    0.033226
  15 C :   -0.017369
  16 C :    0.155980
  17 O :   -0.178052
  18 C :   -0.126708
  19 C :   -0.020158
  20 C :   -0.171843
  21 S :    0.171342
  22 C :   -0.015061
  23 C :   -0.003798
  24 C :    0.169269
  25 N :   -0.207099
  26 C :    0.079276
  27 C :    0.013862
  28 C :    0.080005
  29 C :   -0.073705
  30 C :    0.025595
  31 C :   -0.040109
  32 C :   -0.049858
  33 C :    0.132045
  34 N :   -0.224575
  35 C :    0.143110
  36 N :   -0.220946
  37 C :    0.090563
  38 C :   -0.131925
  39 C :    0.124164
  40 C :   -0.024025
  41 C :    0.025325
  42 C :    0.014426
  43 C :    0.036221
  44 C :   -0.011266
  45 C :    0.010335
  46 C :   -0.056339
  47 C :    0.011531
  48 C :   -0.102639
  49 S :    0.129771
  50 C :   -0.054385
  51 C :    0.049195
  52 C :    0.113726
  53 N :   -0.169539
  54 C :    0.093133
  55 C :   -0.009520
  56 C :    0.047993
  57 C :   -0.160989
  58 C :    0.315960
  59 C :   -0.364595
  60 C :   -0.181368
  61 N :    0.137905
  62 C :   -0.212435
  63 N :    0.134016
  64 C :    0.038061
  65 C :    0.006109
  66 C :    0.159736
  67 O :   -0.161753
  68 C :   -0.088235
  69 C :    0.097651
  70 C :    0.093251
  71 C :   -0.083127
  72 C :   -0.019339
  73 C :    0.035997
  74 C :    0.032120
  75 C :   -0.017861
  76 H :   -0.018196
  77 H :   -0.011255
  78 H :   -0.012380
  79 H :   -0.007864
  80 H :   -0.008494
  81 H :   -0.021138
  82 H :   -0.032464
  83 H :    0.031554
  84 H :    0.004092
  85 H :    0.041810
  86 H :    0.025138
  87 H :    0.033008
  88 H :    0.029883
  89 H :    0.014470
  90 H :   -0.028611
  91 H :   -0.012824
  92 H :   -0.006073
  93 H :   -0.006148
  94 H :    0.104218
  95 H :    0.097324
  96 H :   -0.009017
  97 H :   -0.022117
  98 H :    0.087589
  99 H :    0.083300
 100 H :    0.007628
 101 H :    0.018905
 102 H :   -0.002900
 103 H :   -0.033835
 104 H :   -0.031176
 105 H :   -0.025255
 106 H :    0.019710
 107 H :   -0.010061
 108 H :    0.030171
 109 H :   -0.011186
 110 H :    0.038949
 111 H :    0.028812
 112 H :    0.032076
 113 H :    0.027370
 114 H :    0.041110
 115 H :    0.046958
 116 H :   -0.019563
 117 H :   -0.011132
 118 H :   -0.011073
 119 H :   -0.009147
 120 H :   -0.008131
 121 H :   -0.021558
Sum of atomic charges:    0.0000000

LOEWDIN ATOMIC CHARGES
----------------------
   0 C :    0.082279
   1 C :   -0.168647
   2 C :   -0.019389
   3 N :   -0.069528
   4 C :   -0.007715
   5 N :   -0.078329
   6 C :   -0.025493
   7 C :   -0.051876
   8 C :    0.026735
   9 C :   -0.009760
  10 C :   -0.008610
  11 C :    0.016957
  12 C :   -0.006210
  13 C :   -0.017539
  14 C :   -0.015829
  15 C :   -0.011634
  16 C :    0.078998
  17 O :   -0.173056
  18 C :   -0.132606
  19 C :    0.052875
  20 C :   -0.227289
  21 S :    0.475758
  22 C :   -0.147229
  23 C :   -0.095781
  24 C :    0.045177
  25 N :    0.001551
  26 C :    0.035116
  27 C :   -0.062599
  28 C :    0.018787
  29 C :   -0.040307
  30 C :   -0.025991
  31 C :   -0.048662
  32 C :   -0.055813
  33 C :    0.022664
  34 N :   -0.096350
  35 C :    0.025066
  36 N :   -0.113726
  37 C :   -0.018874
  38 C :    0.065956
  39 C :   -0.027844
  40 C :   -0.019508
  41 C :   -0.019483
  42 C :   -0.024558
  43 C :   -0.037396
  44 C :    0.003427
  45 C :   -0.050550
  46 C :   -0.001434
  47 C :   -0.048919
  48 C :   -0.176516
  49 S :    0.459459
  50 C :   -0.168836
  51 C :   -0.065301
  52 C :   -0.025856
  53 N :    0.051372
  54 C :    0.044537
  55 C :   -0.060339
  56 C :    0.118297
  57 C :   -0.165777
  58 C :    0.085680
  59 C :   -0.171373
  60 C :   -0.020465
  61 N :   -0.068781
  62 C :   -0.020555
  63 N :   -0.078020
  64 C :   -0.027166
  65 C :   -0.050793
  66 C :    0.075858
  67 O :   -0.159116
  68 C :    0.024382
  69 C :   -0.009596
  70 C :   -0.009627
  71 C :    0.017814
  72 C :   -0.006373
  73 C :   -0.017658
  74 C :   -0.015795
  75 C :   -0.012235
  76 H :    0.036968
  77 H :    0.038114
  78 H :    0.033591
  79 H :    0.031798
  80 H :    0.031214
  81 H :    0.030369
  82 H :    0.042906
  83 H :    0.028050
  84 H :    0.034356
  85 H :    0.022227
  86 H :    0.034854
  87 H :    0.027923
  88 H :    0.035345
  89 H :    0.025214
  90 H :    0.026901
  91 H :    0.027201
  92 H :   -0.001910
  93 H :    0.020855
  94 H :    0.060493
  95 H :    0.049615
  96 H :    0.018186
  97 H :    0.007179
  98 H :    0.036042
  99 H :    0.044054
 100 H :    0.031297
 101 H :    0.050918
 102 H :    0.028846
 103 H :    0.030290
 104 H :    0.030057
 105 H :    0.029026
 106 H :    0.026203
 107 H :    0.030200
 108 H :    0.026787
 109 H :    0.032883
 110 H :    0.032738
 111 H :    0.027803
 112 H :    0.031024
 113 H :    0.033745
 114 H :    0.031769
 115 H :    0.043056
 116 H :    0.036508
 117 H :    0.038303
 118 H :    0.033927
 119 H :    0.031484
 120 H :    0.031309
 121 H :    0.030251

  Mayer bond orders larger than 0.100000
B(  0-C ,  1-C ) :   1.5661 B(  0-C ,  6-C ) :   0.9761 B(  0-C , 18-C ) :   1.1241
B(  1-C ,  2-C ) :   1.1504 B(  1-C ,  4-C ) :   1.1787 B(  2-C ,  3-N ) :   2.9592
B(  4-C ,  5-N ) :   2.8774 B(  6-C ,  7-C ) :   1.2162 B(  6-C , 11-C ) :   1.4633
B(  7-C ,  8-C ) :   1.4796 B(  7-C , 16-C ) :   0.9508 B(  8-C ,  9-C ) :   1.1692
B(  8-C , 76-H ) :   1.0162 B(  9-C , 10-C ) :   1.2614 B(  9-C , 15-C ) :   1.2467
B( 10-C , 11-C ) :   1.1948 B( 10-C , 12-C ) :   1.2471 B( 11-C , 77-H ) :   0.9882
B( 12-C , 13-C ) :   1.4837 B( 12-C , 78-H ) :   0.9961 B( 13-C , 14-C ) :   1.2636
B( 13-C , 79-H ) :   0.9888 B( 14-C , 15-C ) :   1.4851 B( 14-C , 80-H ) :   0.9889
B( 15-C , 81-H ) :   0.9970 B( 16-C , 17-O ) :   2.1555 B( 16-C , 18-C ) :   0.9763
B( 18-C , 19-C ) :   1.4376 B( 19-C , 20-C ) :   1.3576 B( 19-C , 82-H ) :   0.9223
B( 20-C , 21-S ) :   1.0557 B( 20-C , 24-C ) :   1.2948 B( 21-S , 22-C ) :   1.1754
B( 22-C , 23-C ) :   1.5166 B( 22-C , 83-H ) :   0.9627 B( 23-C , 24-C ) :   1.2708
B( 23-C , 84-H ) :   0.9881 B( 24-C , 25-N ) :   1.1975 B( 25-N , 26-C ) :   0.9388
B( 25-N , 28-C ) :   0.9514 B( 26-C , 27-C ) :   1.1087 B( 26-C , 85-H ) :   0.9173
B( 26-C , 86-H ) :   0.9348 B( 27-C , 87-H ) :   0.9586 B( 27-C , 88-H ) :   0.9624
B( 27-C , 89-H ) :   0.9609 B( 28-C , 29-C ) :   1.5980 B( 28-C , 45-C ) :   1.1613
B( 29-C , 30-C ) :   1.0750 B( 29-C , 90-H ) :   0.9824 B( 30-C , 31-C ) :   1.4878
B( 30-C , 43-C ) :   1.1310 B( 31-C , 32-C ) :   1.0272 B( 31-C , 37-C ) :   1.0904
B( 32-C , 33-C ) :   1.0687 B( 32-C , 35-C ) :   0.9902 B( 32-C , 91-H ) :   0.8749
B( 33-C , 34-N ) :   1.0994 B( 33-C , 92-H ) :   0.9326 B( 33-C , 93-H ) :   0.9312
B( 34-N , 94-H ) :   0.9660 B( 34-N , 95-H ) :   0.9642 B( 35-C , 36-N ) :   1.1394
B( 35-C , 96-H ) :   0.9444 B( 35-C , 97-H ) :   0.9464 B( 36-N , 98-H ) :   0.9637
B( 36-N , 99-H ) :   0.9812 B( 37-C , 38-C ) :   1.6517 B( 37-C , 42-C ) :   1.0510
B( 38-C , 39-C ) :   0.9792 B( 38-C ,100-H ) :   0.9664 B( 39-C , 40-C ) :   0.9944
B( 39-C , 46-C ) :   0.9575 B( 39-C ,101-H ) :   0.8806 B( 40-C , 41-C ) :   1.7097
B( 40-C ,102-H ) :   0.9724 B( 41-C , 42-C ) :   1.1320 B( 41-C ,103-H ) :   0.9880
B( 42-C , 43-C ) :   1.4398 B( 43-C , 44-C ) :   1.1455 B( 44-C , 45-C ) :   1.5782
B( 44-C ,104-H ) :   0.9877 B( 45-C ,105-H ) :   0.9814 B( 46-C , 47-C ) :   1.7973
B( 46-C ,106-H ) :   0.9624 B( 47-C , 48-C ) :   1.1050 B( 47-C ,107-H ) :   0.9683
B( 48-C , 49-S ) :   1.1381 B( 48-C , 52-C ) :   1.5357 B( 49-S , 50-C ) :   1.1718
B( 50-C , 51-C ) :   1.5627 B( 50-C ,108-H ) :   0.9654 B( 51-C , 52-C ) :   1.2751
B( 51-C ,109-H ) :   0.9976 B( 52-C , 53-N ) :   0.9719 B( 53-N , 54-C ) :   0.9226
B( 53-N , 56-C ) :   1.3673 B( 54-C , 55-C ) :   1.1171 B( 54-C ,110-H ) :   0.9475
B( 54-C ,111-H ) :   0.9476 B( 55-C ,112-H ) :   0.9639 B( 55-C ,113-H ) :   0.9626
B( 55-C ,114-H ) :   0.9589 B( 56-C , 57-C ) :   1.4052 B( 56-C ,115-H ) :   0.9402
B( 57-C , 58-C ) :   1.1454 B( 57-C , 66-C ) :   0.9629 B( 58-C , 59-C ) :   1.5873
B( 58-C , 64-C ) :   0.9862 B( 59-C , 60-C ) :   1.1481 B( 59-C , 62-C ) :   1.1562
B( 60-C , 61-N ) :   2.9649 B( 62-C , 63-N ) :   2.9554 B( 64-C , 65-C ) :   1.2228
B( 64-C , 71-C ) :   1.4582 B( 65-C , 66-C ) :   0.9260 B( 65-C , 68-C ) :   1.4870
B( 66-C , 67-O ) :   2.2242 B( 68-C , 69-C ) :   1.1668 B( 68-C ,116-H ) :   1.0164
B( 69-C , 70-C ) :   1.2649 B( 69-C , 75-C ) :   1.2479 B( 70-C , 71-C ) :   1.1973
B( 70-C , 72-C ) :   1.2417 B( 71-C ,117-H ) :   0.9898 B( 72-C , 73-C ) :   1.4865
B( 72-C ,118-H ) :   0.9967 B( 73-C , 74-C ) :   1.2644 B( 73-C ,119-H ) :   0.9877
B( 74-C , 75-C ) :   1.4842 B( 74-C ,120-H ) :   0.9892 B( 75-C ,121-H ) :   0.9968

-----------------------------------------------------------------------------
         ABSORPTION SPECTRUM VIA TRANSITION ELECTRIC DIPOLE MOMENTS
-----------------------------------------------------------------------------
State   Energy  Wavelength   fosc         T2         TX        TY        TZ
        (cm-1)    (nm)                  (au**2)     (au)      (au)      (au)
-----------------------------------------------------------------------------
   0   15023.7    665.6   0.035969253   0.78819   0.01569   0.38996  -0.79742
   1   18411.8    543.1   0.534090713   9.54979   2.90356   1.03433   0.22195
   2   21626.7    462.4   0.388273323   5.91048   2.15704   0.98744   0.53163
   3   22083.2    452.8   0.105829142   1.57768  -0.99133  -0.76566  -0.09335
   4   24276.8    411.9   0.267967608   3.63385  -1.85718  -0.39917  -0.15941
   5   25084.2    398.7   0.152131581   1.99662  -0.96420   1.02864  -0.09398
   6   25882.7    386.4   0.036008698   0.45801   0.64568   0.08230  -0.18529
   7   26595.3    376.0   0.265119614   3.28180  -1.65949  -0.61696  -0.38375
   8   27376.5    365.3   0.143573953   1.72653  -0.52754   1.08773   0.51486
   9   27613.9    362.1   0.003198360   0.03813   0.12685  -0.14684  -0.02181
  10   28068.4    356.3   0.145092995   1.70178  -1.26220  -0.13799   0.29932
  11   28915.9    345.8   0.280472684   3.19322   1.68757   0.14986   0.56824
  12   29004.6    344.8   0.026856774   0.30483  -0.35520  -0.36786   0.20819
  13   29337.6    340.9   0.001423374   0.01597   0.07575   0.06527   0.07729
  14   29559.3    338.3   0.020278648   0.22585   0.16271   0.43414   0.10440
  15   29653.6    337.2   0.094053065   1.04417  -0.86144   0.00509   0.54961
  16   29943.8    334.0   0.074517707   0.81927   0.46490   0.69697   0.34260
  17   30181.1    331.3   0.197417885   2.15341   1.23470   0.53846  -0.58224
  18   30973.6    322.9   0.014197247   0.15090   0.00607  -0.24335  -0.30273
  19   31034.4    322.2   0.116183441   1.23247   1.09515   0.17756   0.03984
  20   31164.1    320.9   0.063865270   0.67466  -0.81385  -0.02220   0.10873
  21   32166.8    310.9   0.003222372   0.03298   0.16054   0.02491  -0.08115
  22   32532.0    307.4   0.158290498   1.60184   1.15666   0.21138   0.46828
  23   33029.7    302.8   0.026703054   0.26615  -0.44088   0.24823  -0.10081
  24   33142.2    301.7   0.049500829   0.49171  -0.69807  -0.01978  -0.06334
  25   33264.8    300.6   0.196681179   1.94650  -0.40067  -0.38212   1.28060
  26   33518.2    298.3   0.221444579   2.17500   1.01779   0.24863  -1.03792
  27   34256.0    291.9   0.002224199   0.02138  -0.07088   0.07527  -0.10337
  28   34258.2    291.9   1.087817574  10.45363   3.19116  -0.51965  -0.00955
  29   34443.8    290.3   0.012700319   0.12139  -0.32510   0.10781  -0.06383
  30   34754.1    287.7   0.022534215   0.21346  -0.16737   0.14771  -0.40451
  31   35039.9    285.4   0.015473877   0.14538   0.19377  -0.03400  -0.32662
  32   35252.8    283.7   0.001440105   0.01345  -0.06582   0.09432  -0.01485
  33   35552.8    281.3   0.025128979   0.23269  -0.23844   0.37283   0.19192
  34   35709.5    280.0   0.006947030   0.06405  -0.00893  -0.21018  -0.14068
  35   35870.4    278.8   0.427228982   3.92103  -0.57562  -0.14376   1.88919
  36   36081.5    277.2   0.354623602   3.23563  -0.35344   0.02245  -1.76358
  37   37279.3    268.2   0.210240221   1.85662   0.82164  -0.32893   1.03602
  38   37815.9    264.4   0.006783640   0.05906   0.12086  -0.08677   0.19215
  39   37845.1    264.2   0.000676511   0.00588   0.02874  -0.01040  -0.07036
  40   38013.9    263.1   0.002162702   0.01873  -0.01627  -0.10644   0.08447
  41   38127.0    262.3   0.002592213   0.02238   0.13066  -0.02119  -0.06972
  42   38277.1    261.3   0.006147640   0.05287   0.17521   0.14829   0.01358
  43   38538.7    259.5   0.009879176   0.08439   0.00798   0.29039   0.00033
  44   38584.1    259.2   0.059490108   0.50759   0.09422   0.70118   0.08401
  45   38932.7    256.9   0.032362120   0.27365  -0.51154   0.01981  -0.10762
  46   39024.1    256.3   0.007989670   0.06740   0.13394  -0.21803  -0.04386
  47   39108.6    255.7   0.001757702   0.01480   0.11293   0.02725   0.03607
  48   39493.7    253.2   0.232407698   1.93730  -0.30205  -1.27841  -0.46013
  49   40121.5    249.2   0.222822508   1.82834  -1.32160  -0.22714  -0.17352
  50   40231.5    248.6   0.332629416   2.72189  -1.56863  -0.40890  -0.30677

FINAL SINGLE POINT ENERGY     -3847.060231320057

DIPOLE MOMENT
-------------
                                X             Y             Z
Electronic contribution:      2.82156       4.33869      -6.27413
Nuclear contribution   :     -3.88631      -2.14859       5.21443
                        -----------------------------------------
Total Dipole Moment    :     -1.06475       2.19010      -1.05970
                        -----------------------------------------
Magnitude (a.u.)       :      2.65578
Magnitude (Debye)      :      6.75046

Rotational constants in cm-1:     0.002608     0.000193     0.000190
Rotational constants in MHz :    78.191092     5.783832     5.682973

                             ****ORCA TERMINATED NORMALLY****
TOTAL RUN TIME: 0 days 0 hours 12 minutes 40 seconds 955 msec
