                         Program Version 4.2.0 -  RELEASE  -
|  1> # ORCA input file
|  2> # SCF done       -200.046839943801          0.000914148304
|  3> ! CAM-B3LYP def2-SVP def2/J RIJCOSX Grid4 TightSCF
|  4> %maxcore 5000
|  5> %tddft
|  6>     Mode sTDDFT
|  7>     Ethresh 5.0
|  8>     maxcore 5000
|  9> end
| 10>
| 11> %pal
| 12>   nprocs 6
| 13>   end
| 14> * xyz 0 1
| 15>    C        5.34893         7.06631        -3.02676
| 16>    C        4.51654         8.15455        -3.06999
| 17>    C        3.56190         8.38612        -4.07772
| 18>    N        2.73221         8.60922        -4.84008
| 19>    C        4.53802         9.17368        -2.09767
| 20>    N        4.54865        10.04260        -1.34749
| 21>    C        5.54522         6.09987        -4.09596
| 22>    C        6.77446         5.41237        -3.87018
| 23>    C        7.20623         4.42805        -4.71197
| 24>    C        6.41108         4.07477        -5.82494
| 25>    C        5.18177         4.75888        -6.05501
| 26>    C        4.76561         5.78306        -5.17669
| 27>    C        4.39202         4.38489        -7.16072
| 28>    C        4.79512         3.38380        -8.00115
| 29>    C        6.00640         2.71306        -7.77615
| 30>    C        6.79808         3.05232        -6.71267
| 31>    C        7.39107         5.90605        -2.62659
| 32>    O        8.46264         5.61520        -2.14985
| 33>    C        6.35324         6.78774        -2.01098
| 34>    C        6.37905         7.00393        -0.67208
| 35>    C        5.32989         7.45134         0.18580
| 36>    C        5.49270         8.23271         1.29193
| 37>    C        4.18523         8.62437         1.77668
| 38>    C        3.96896         9.40230         2.92187
| 39>    N        3.80834        10.04120         3.86158
| 40>    C        3.22184         8.11283         0.94575
| 41>    C        3.87327         7.32211        -0.05460
| 42>    C        3.30167         6.50513        -1.00190
| 43>    C        2.03766         6.72601        -1.74391
| 44>    C        1.92430         5.70761        -2.66081
| 45>    C        3.04228         4.81991        -2.50808
| 46>    C        3.88803         5.31760        -1.54198
| 47>    C        3.27115         3.67169        -3.27960
| 48>    N        3.48461         2.75531        -3.93675
| 49>    C        1.25618         7.90046        -1.62101
| 50>    C        0.22255         8.22573        -2.44197
| 51>    C       -0.58690         9.38180        -2.34837
| 52>    O       -1.48124         9.53294        -3.34937
| 53>    C       -2.19387        10.65794        -3.14174
| 54>    C       -1.73515        11.27570        -1.98810
| 55>    C       -0.71471        10.46836        -1.45687
| 56>    C       -0.01839        10.73056        -0.18636
| 57>    O        0.57168         9.87227         0.43314
| 58>    C       -0.11916        12.14387         0.31974
| 59>    C       -3.21699        11.07459        -4.03845
| 60>    C       -3.78835        12.31846        -4.03870
| 61>    C       -4.64860        12.42783        -5.18872
| 62>    C       -5.43465        13.54226        -5.51212
| 63>    N       -6.06715        14.45896        -5.78981
| 64>    C       -4.56905        11.27281        -5.92773
| 65>    C       -3.72477        10.35115        -5.23369
| 66>    C       -3.54829         9.03107        -5.57384
| 67>    C       -3.72528         8.42998        -6.92047
| 68>    C       -3.54233         7.07954        -6.78528
| 69>    C       -3.28397         6.77977        -5.39869
| 70>    C       -3.26173         7.94902        -4.68174
| 71>    C       -3.05871         5.49683        -4.88181
| 72>    N       -2.84524         4.44940        -4.46358
| 73>    C       -3.89034         9.15936        -8.13186
| 74>    C       -4.17993         8.59401        -9.33309
| 75>    C       -4.31467         9.29658       -10.55904
| 76>    C       -4.77341        10.56927       -10.75218
| 77>    C       -4.75787        11.29648       -12.01030
| 78>    C       -4.03719        10.96627       -13.12895
| 79>    C       -4.04809        11.71512       -14.32434
| 80>    N       -4.01780        12.27526       -15.32595
| 81>    C       -3.17022         9.85924       -13.23958
| 82>    N       -2.43145         8.99429       -13.39850
| 83>    C       -5.57184        12.49449       -11.84836
| 84>    C       -6.05598        12.53366       -10.50940
| 85>    C       -5.59525        11.34307        -9.78553
| 86>    O       -5.91131        11.02353        -8.65625
| 87>    C       -6.82686        13.56115       -10.04517
| 88>    C       -7.16160        14.61628       -10.92224
| 89>    C       -6.69968        14.57606       -12.27013
| 90>    C       -5.89818        13.50071       -12.71874
| 91>    C       -7.05214        15.62852       -13.13902
| 92>    C       -7.81962        16.67251       -12.69832
| 93>    C       -8.26826        16.71357       -11.36966
| 94>    C       -7.94561        15.70756       -10.49948
| 95>    H        8.13939         3.91750        -4.52614
| 96>    H        3.82522         6.27947        -5.36224
| 97>    H        3.46024         4.90435        -7.32894
| 98>    H        4.18154         3.10154        -8.84334
| 99>    H        6.30785         1.92359        -8.44807
|100>    H        7.73003         2.53682        -6.53321
|101>    H        7.32131         6.76865        -0.18535
|102>    H        6.42165         8.57428         1.70883
|103>    H        2.16345         8.18772         1.10363
|104>    H        1.14462         5.56817        -3.38491
|105>    H        4.77007         4.83334        -1.16804
|106>    H        1.52576         8.58899        -0.83839
|107>    H       -0.03727         7.58235        -3.27213
|108>    H       -2.12347        12.18022        -1.56908
|109>    H       -1.13395        12.33601         0.66409
|110>    H        0.12142        12.85297        -0.46826
|111>    H        0.56304        12.27216         1.15615
|112>    H       -3.61857        13.11011        -3.33451
|113>    H       -5.16354        11.05267        -6.79231
|114>    H       -3.54184         6.33924        -7.56271
|115>    H       -3.17234         8.02125        -3.61629
|116>    H       -3.72018        10.22363        -8.08891
|117>    H       -4.25112         7.51664        -9.40409
|118>    H       -4.05158         8.72231       -11.44028
|119>    H       -7.16906        13.57353        -9.02074
|120>    H       -5.56485        13.50038       -13.74441
|121>    H       -6.70182        15.59490       -14.16026
|122>    H       -8.08384        17.47390       -13.37194
|123>    H       -8.87088        17.54622       -11.03920
|124>    H       -8.28522        15.73268        -9.47466
|125> *
|126>
|127>                          ****END OF INPUT****

CARTESIAN COORDINATES (ANGSTROEM)
---------------------------------
  C      5.348930    7.066310   -3.026760
  C      4.516540    8.154550   -3.069990
  C      3.561900    8.386120   -4.077720
  N      2.732210    8.609220   -4.840080
  C      4.538020    9.173680   -2.097670
  N      4.548650   10.042600   -1.347490
  C      5.545220    6.099870   -4.095960
  C      6.774460    5.412370   -3.870180
  C      7.206230    4.428050   -4.711970
  C      6.411080    4.074770   -5.824940
  C      5.181770    4.758880   -6.055010
  C      4.765610    5.783060   -5.176690
  C      4.392020    4.384890   -7.160720
  C      4.795120    3.383800   -8.001150
  C      6.006400    2.713060   -7.776150
  C      6.798080    3.052320   -6.712670
  C      7.391070    5.906050   -2.626590
  O      8.462640    5.615200   -2.149850
  C      6.353240    6.787740   -2.010980
  C      6.379050    7.003930   -0.672080
  C      5.329890    7.451340    0.185800
  C      5.492700    8.232710    1.291930
  C      4.185230    8.624370    1.776680
  C      3.968960    9.402300    2.921870
  N      3.808340   10.041200    3.861580
  C      3.221840    8.112830    0.945750
  C      3.873270    7.322110   -0.054600
  C      3.301670    6.505130   -1.001900
  C      2.037660    6.726010   -1.743910
  C      1.924300    5.707610   -2.660810
  C      3.042280    4.819910   -2.508080
  C      3.888030    5.317600   -1.541980
  C      3.271150    3.671690   -3.279600
  N      3.484610    2.755310   -3.936750
  C      1.256180    7.900460   -1.621010
  C      0.222550    8.225730   -2.441970
  C     -0.586900    9.381800   -2.348370
  O     -1.481240    9.532940   -3.349370
  C     -2.193870   10.657940   -3.141740
  C     -1.735150   11.275700   -1.988100
  C     -0.714710   10.468360   -1.456870
  C     -0.018390   10.730560   -0.186360
  O      0.571680    9.872270    0.433140
  C     -0.119160   12.143870    0.319740
  C     -3.216990   11.074590   -4.038450
  C     -3.788350   12.318460   -4.038700
  C     -4.648600   12.427830   -5.188720
  C     -5.434650   13.542260   -5.512120
  N     -6.067150   14.458960   -5.789810
  C     -4.569050   11.272810   -5.927730
  C     -3.724770   10.351150   -5.233690
  C     -3.548290    9.031070   -5.573840
  C     -3.725280    8.429980   -6.920470
  C     -3.542330    7.079540   -6.785280
  C     -3.283970    6.779770   -5.398690
  C     -3.261730    7.949020   -4.681740
  C     -3.058710    5.496830   -4.881810
  N     -2.845240    4.449400   -4.463580
  C     -3.890340    9.159360   -8.131860
  C     -4.179930    8.594010   -9.333090
  C     -4.314670    9.296580  -10.559040
  C     -4.773410   10.569270  -10.752180
  C     -4.757870   11.296480  -12.010300
  C     -4.037190   10.966270  -13.128950
  C     -4.048090   11.715120  -14.324340
  N     -4.017800   12.275260  -15.325950
  C     -3.170220    9.859240  -13.239580
  N     -2.431450    8.994290  -13.398500
  C     -5.571840   12.494490  -11.848360
  C     -6.055980   12.533660  -10.509400
  C     -5.595250   11.343070   -9.785530
  O     -5.911310   11.023530   -8.656250
  C     -6.826860   13.561150  -10.045170
  C     -7.161600   14.616280  -10.922240
  C     -6.699680   14.576060  -12.270130
  C     -5.898180   13.500710  -12.718740
  C     -7.052140   15.628520  -13.139020
  C     -7.819620   16.672510  -12.698320
  C     -8.268260   16.713570  -11.369660
  C     -7.945610   15.707560  -10.499480
  H      8.139390    3.917500   -4.526140
  H      3.825220    6.279470   -5.362240
  H      3.460240    4.904350   -7.328940
  H      4.181540    3.101540   -8.843340
  H      6.307850    1.923590   -8.448070
  H      7.730030    2.536820   -6.533210
  H      7.321310    6.768650   -0.185350
  H      6.421650    8.574280    1.708830
  H      2.163450    8.187720    1.103630
  H      1.144620    5.568170   -3.384910
  H      4.770070    4.833340   -1.168040
  H      1.525760    8.588990   -0.838390
  H     -0.037270    7.582350   -3.272130
  H     -2.123470   12.180220   -1.569080
  H     -1.133950   12.336010    0.664090
  H      0.121420   12.852970   -0.468260
  H      0.563040   12.272160    1.156150
  H     -3.618570   13.110110   -3.334510
  H     -5.163540   11.052670   -6.792310
  H     -3.541840    6.339240   -7.562710
  H     -3.172340    8.021250   -3.616290
  H     -3.720180   10.223630   -8.088910
  H     -4.251120    7.516640   -9.404090
  H     -4.051580    8.722310  -11.440280
  H     -7.169060   13.573530   -9.020740
  H     -5.564850   13.500380  -13.744410
  H     -6.701820   15.594900  -14.160260
  H     -8.083840   17.473900  -13.371940
  H     -8.870880   17.546220  -11.039200
  H     -8.285220   15.732680   -9.474660

 Total Charge           Charge          ....    0
 Multiplicity           Mult            ....    1
 Number of Electrons    NEL             ....  526
 Basis Dimension        Dim             .... 1270

ORBITAL ENERGIES
----------------

  NO   OCC          E(Eh)            E(eV)
   0   2.0000     -19.321136      -525.7548
   1   2.0000     -19.224138      -523.1154
   2   2.0000     -19.222568      -523.0727
   3   2.0000     -19.218852      -522.9715
   4   2.0000     -14.424627      -392.5141
   5   2.0000     -14.423278      -392.4773
   6   2.0000     -14.423226      -392.4759
   7   2.0000     -14.422024      -392.4432
   8   2.0000     -14.420585      -392.4041
   9   2.0000     -14.417417      -392.3179
  10   2.0000     -14.416312      -392.2878
  11   2.0000     -14.412871      -392.1942
  12   2.0000     -10.379291      -282.4349
  13   2.0000     -10.375799      -282.3399
  14   2.0000     -10.371118      -282.2125
  15   2.0000     -10.366208      -282.0789
  16   2.0000     -10.361415      -281.9484
  17   2.0000     -10.351360      -281.6748
  18   2.0000     -10.349108      -281.6135
  19   2.0000     -10.344084      -281.4768
  20   2.0000     -10.342633      -281.4374
  21   2.0000     -10.340851      -281.3889
  22   2.0000     -10.337900      -281.3086
  23   2.0000     -10.335019      -281.2302
  24   2.0000     -10.334577      -281.2181
  25   2.0000     -10.333693      -281.1941
  26   2.0000     -10.332819      -281.1703
  27   2.0000     -10.332616      -281.1648
  28   2.0000     -10.327684      -281.0306
  29   2.0000     -10.326710      -281.0041
  30   2.0000     -10.326323      -280.9935
  31   2.0000     -10.326061      -280.9864
  32   2.0000     -10.323294      -280.9111
  33   2.0000     -10.321867      -280.8723
  34   2.0000     -10.320699      -280.8405
  35   2.0000     -10.320260      -280.8285
  36   2.0000     -10.319770      -280.8152
  37   2.0000     -10.319021      -280.7948
  38   2.0000     -10.318474      -280.7800
  39   2.0000     -10.315738      -280.7055
  40   2.0000     -10.315101      -280.6882
  41   2.0000     -10.315087      -280.6878
  42   2.0000     -10.313951      -280.6569
  43   2.0000     -10.311771      -280.5976
  44   2.0000     -10.311486      -280.5898
  45   2.0000     -10.309946      -280.5479
  46   2.0000     -10.308638      -280.5123
  47   2.0000     -10.308586      -280.5109
  48   2.0000     -10.307812      -280.4898
  49   2.0000     -10.307748      -280.4881
  50   2.0000     -10.307584      -280.4836
  51   2.0000     -10.307401      -280.4786
  52   2.0000     -10.306098      -280.4432
  53   2.0000     -10.304853      -280.4093
  54   2.0000     -10.303717      -280.3784
  55   2.0000     -10.301690      -280.3232
  56   2.0000     -10.301179      -280.3093
  57   2.0000     -10.300803      -280.2991
  58   2.0000     -10.300197      -280.2826
  59   2.0000     -10.299637      -280.2674
  60   2.0000     -10.299241      -280.2566
  61   2.0000     -10.299009      -280.2503
  62   2.0000     -10.298841      -280.2457
  63   2.0000     -10.298562      -280.2381
  64   2.0000     -10.298440      -280.2348
  65   2.0000     -10.298390      -280.2334
  66   2.0000     -10.298302      -280.2310
  67   2.0000     -10.297779      -280.2168
  68   2.0000     -10.295566      -280.1566
  69   2.0000     -10.292705      -280.0788
  70   2.0000     -10.290853      -280.0283
  71   2.0000     -10.287055      -279.9250
  72   2.0000     -10.286735      -279.9163
  73   2.0000     -10.286260      -279.9034
  74   2.0000     -10.286066      -279.8981
  75   2.0000     -10.285408      -279.8802
  76   2.0000     -10.285040      -279.8702
  77   2.0000     -10.284801      -279.8637
  78   2.0000     -10.284463      -279.8545
  79   2.0000     -10.279693      -279.7247
  80   2.0000      -1.242342       -33.8058
  81   2.0000      -1.140618       -31.0378
  82   2.0000      -1.139511       -31.0077
  83   2.0000      -1.134678       -30.8762
  84   2.0000      -1.033274       -28.1168
  85   2.0000      -1.027213       -27.9519
  86   2.0000      -1.020084       -27.7579
  87   2.0000      -1.018325       -27.7100
  88   2.0000      -1.013947       -27.5909
  89   2.0000      -1.010831       -27.5061
  90   2.0000      -1.003533       -27.3075
  91   2.0000      -1.001702       -27.2577
  92   2.0000      -1.000797       -27.2331
  93   2.0000      -1.000471       -27.2242
  94   2.0000      -0.995667       -27.0935
  95   2.0000      -0.995252       -27.0822
  96   2.0000      -0.991306       -26.9748
  97   2.0000      -0.985682       -26.8218
  98   2.0000      -0.973612       -26.4933
  99   2.0000      -0.973446       -26.4888
 100   2.0000      -0.936221       -25.4759
 101   2.0000      -0.934310       -25.4239
 102   2.0000      -0.929781       -25.3006
 103   2.0000      -0.928257       -25.2592
 104   2.0000      -0.921241       -25.0683
 105   2.0000      -0.912978       -24.8434
 106   2.0000      -0.897571       -24.4241
 107   2.0000      -0.896989       -24.4083
 108   2.0000      -0.890910       -24.2429
 109   2.0000      -0.887622       -24.1534
 110   2.0000      -0.883709       -24.0470
 111   2.0000      -0.882254       -24.0074
 112   2.0000      -0.878960       -23.9177
 113   2.0000      -0.869940       -23.6723
 114   2.0000      -0.851195       -23.1622
 115   2.0000      -0.842276       -22.9195
 116   2.0000      -0.837175       -22.7807
 117   2.0000      -0.830031       -22.5863
 118   2.0000      -0.829888       -22.5824
 119   2.0000      -0.828305       -22.5393
 120   2.0000      -0.813229       -22.1291
 121   2.0000      -0.810896       -22.0656
 122   2.0000      -0.806085       -21.9347
 123   2.0000      -0.791490       -21.5375
 124   2.0000      -0.790859       -21.5204
 125   2.0000      -0.765142       -20.8206
 126   2.0000      -0.764435       -20.8013
 127   2.0000      -0.755641       -20.5620
 128   2.0000      -0.746778       -20.3209
 129   2.0000      -0.743926       -20.2432
 130   2.0000      -0.733793       -19.9675
 131   2.0000      -0.732368       -19.9287
 132   2.0000      -0.722733       -19.6666
 133   2.0000      -0.711201       -19.3528
 134   2.0000      -0.706351       -19.2208
 135   2.0000      -0.704412       -19.1680
 136   2.0000      -0.702363       -19.1123
 137   2.0000      -0.700226       -19.0541
 138   2.0000      -0.696850       -18.9623
 139   2.0000      -0.694269       -18.8920
 140   2.0000      -0.682200       -18.5636
 141   2.0000      -0.679100       -18.4793
 142   2.0000      -0.674290       -18.3484
 143   2.0000      -0.666030       -18.1236
 144   2.0000      -0.656909       -17.8754
 145   2.0000      -0.656431       -17.8624
 146   2.0000      -0.650721       -17.7070
 147   2.0000      -0.648000       -17.6330
 148   2.0000      -0.636005       -17.3066
 149   2.0000      -0.634534       -17.2666
 150   2.0000      -0.632224       -17.2037
 151   2.0000      -0.613289       -16.6884
 152   2.0000      -0.609757       -16.5923
 153   2.0000      -0.608507       -16.5583
 154   2.0000      -0.607412       -16.5285
 155   2.0000      -0.606765       -16.5109
 156   2.0000      -0.604116       -16.4388
 157   2.0000      -0.602287       -16.3891
 158   2.0000      -0.596541       -16.2327
 159   2.0000      -0.595023       -16.1914
 160   2.0000      -0.588528       -16.0147
 161   2.0000      -0.588320       -16.0090
 162   2.0000      -0.567462       -15.4414
 163   2.0000      -0.565519       -15.3885
 164   2.0000      -0.564279       -15.3548
 165   2.0000      -0.558921       -15.2090
 166   2.0000      -0.556266       -15.1368
 167   2.0000      -0.550961       -14.9924
 168   2.0000      -0.549832       -14.9617
 169   2.0000      -0.548965       -14.9381
 170   2.0000      -0.547416       -14.8959
 171   2.0000      -0.545927       -14.8554
 172   2.0000      -0.545423       -14.8417
 173   2.0000      -0.540626       -14.7112
 174   2.0000      -0.539367       -14.6769
 175   2.0000      -0.538748       -14.6601
 176   2.0000      -0.535810       -14.5801
 177   2.0000      -0.534041       -14.5320
 178   2.0000      -0.532046       -14.4777
 179   2.0000      -0.529012       -14.3951
 180   2.0000      -0.527037       -14.3414
 181   2.0000      -0.525083       -14.2882
 182   2.0000      -0.523175       -14.2363
 183   2.0000      -0.521182       -14.1821
 184   2.0000      -0.520418       -14.1613
 185   2.0000      -0.517934       -14.0937
 186   2.0000      -0.515774       -14.0349
 187   2.0000      -0.513255       -13.9664
 188   2.0000      -0.511955       -13.9310
 189   2.0000      -0.510874       -13.9016
 190   2.0000      -0.508949       -13.8492
 191   2.0000      -0.507685       -13.8148
 192   2.0000      -0.505539       -13.7564
 193   2.0000      -0.504108       -13.7175
 194   2.0000      -0.502676       -13.6785
 195   2.0000      -0.502580       -13.6759
 196   2.0000      -0.499619       -13.5953
 197   2.0000      -0.498306       -13.5596
 198   2.0000      -0.495567       -13.4851
 199   2.0000      -0.494884       -13.4665
 200   2.0000      -0.489269       -13.3137
 201   2.0000      -0.485929       -13.2228
 202   2.0000      -0.483571       -13.1586
 203   2.0000      -0.482032       -13.1168
 204   2.0000      -0.478691       -13.0258
 205   2.0000      -0.472519       -12.8579
 206   2.0000      -0.469000       -12.7621
 207   2.0000      -0.465790       -12.6748
 208   2.0000      -0.465059       -12.6549
 209   2.0000      -0.459892       -12.5143
 210   2.0000      -0.458943       -12.4885
 211   2.0000      -0.457620       -12.4525
 212   2.0000      -0.455510       -12.3950
 213   2.0000      -0.452614       -12.3163
 214   2.0000      -0.450875       -12.2689
 215   2.0000      -0.450757       -12.2657
 216   2.0000      -0.450250       -12.2519
 217   2.0000      -0.449414       -12.2292
 218   2.0000      -0.448395       -12.2014
 219   2.0000      -0.446142       -12.1401
 220   2.0000      -0.445593       -12.1252
 221   2.0000      -0.443038       -12.0557
 222   2.0000      -0.442812       -12.0495
 223   2.0000      -0.441708       -12.0195
 224   2.0000      -0.440745       -11.9933
 225   2.0000      -0.438339       -11.9278
 226   2.0000      -0.438123       -11.9219
 227   2.0000      -0.434878       -11.8336
 228   2.0000      -0.434510       -11.8236
 229   2.0000      -0.433683       -11.8011
 230   2.0000      -0.431404       -11.7391
 231   2.0000      -0.428449       -11.6587
 232   2.0000      -0.423512       -11.5244
 233   2.0000      -0.421598       -11.4723
 234   2.0000      -0.420203       -11.4343
 235   2.0000      -0.420038       -11.4298
 236   2.0000      -0.419985       -11.4284
 237   2.0000      -0.417070       -11.3491
 238   2.0000      -0.414987       -11.2924
 239   2.0000      -0.412720       -11.2307
 240   2.0000      -0.410370       -11.1667
 241   2.0000      -0.408834       -11.1249
 242   2.0000      -0.393461       -10.7066
 243   2.0000      -0.390185       -10.6175
 244   2.0000      -0.387864       -10.5543
 245   2.0000      -0.377144       -10.2626
 246   2.0000      -0.376608       -10.2480
 247   2.0000      -0.365873        -9.9559
 248   2.0000      -0.355267        -9.6673
 249   2.0000      -0.349948        -9.5226
 250   2.0000      -0.345313        -9.3964
 251   2.0000      -0.343026        -9.3342
 252   2.0000      -0.340420        -9.2633
 253   2.0000      -0.335899        -9.1403
 254   2.0000      -0.333640        -9.0788
 255   2.0000      -0.319124        -8.6838
 256   2.0000      -0.318308        -8.6616
 257   2.0000      -0.311889        -8.4869
 258   2.0000      -0.302091        -8.2203
 259   2.0000      -0.297465        -8.0944
 260   2.0000      -0.290281        -7.8989
 261   2.0000      -0.282440        -7.6856
 262   2.0000      -0.258223        -7.0266
 263   0.0000      -0.143182        -3.8962
 264   0.0000      -0.135978        -3.7001
 265   0.0000      -0.095357        -2.5948
 266   0.0000      -0.094280        -2.5655
 267   0.0000      -0.063702        -1.7334

MULLIKEN ATOMIC CHARGES
-----------------------
   0 C :    0.268101
   1 C :   -0.316807
   2 C :   -0.181843
   3 N :    0.154473
   4 C :   -0.204846
   5 N :    0.184541
   6 C :    0.043468
   7 C :    0.008739
   8 C :   -0.082337
   9 C :    0.107626
  10 C :    0.110489
  11 C :   -0.093669
  12 C :   -0.010119
  13 C :    0.042548
  14 C :    0.039606
  15 C :   -0.010970
  16 C :    0.148299
  17 O :   -0.136627
  18 C :   -0.179682
  19 C :    0.037279
  20 C :    0.056248
  21 C :    0.032613
  22 C :   -0.102065
  23 C :   -0.128409
  24 N :    0.147867
  25 C :    0.031562
  26 C :   -0.002932
  27 C :    0.023782
  28 C :    0.101511
  29 C :   -0.028491
  30 C :   -0.120367
  31 C :    0.021338
  32 C :   -0.132414
  33 N :    0.164946
  34 C :   -0.005643
  35 C :   -0.001714
  36 C :    0.174364
  37 O :   -0.197257
  38 C :    0.139536
  39 C :   -0.087319
  40 C :    0.003318
  41 C :    0.016220
  42 O :   -0.190432
  43 C :    0.038960
  44 C :    0.099864
  45 C :   -0.039372
  46 C :   -0.096679
  47 C :   -0.112952
  48 N :    0.132446
  49 C :   -0.035750
  50 C :    0.056565
  51 C :    0.051738
  52 C :    0.049573
  53 C :   -0.005032
  54 C :   -0.119373
  55 C :    0.020444
  56 C :   -0.134723
  57 N :    0.148073
  58 C :    0.072164
  59 C :    0.002139
  60 C :   -0.000843
  61 C :   -0.095656
  62 C :    0.306748
  63 C :   -0.340692
  64 C :   -0.181260
  65 N :    0.148509
  66 C :   -0.207854
  67 N :    0.159550
  68 C :    0.052115
  69 C :   -0.006696
  70 C :    0.159487
  71 O :   -0.165925
  72 C :   -0.075066
  73 C :    0.091288
  74 C :    0.098392
  75 C :   -0.084845
  76 C :   -0.020156
  77 C :    0.037653
  78 C :    0.036500
  79 C :   -0.011993
  80 H :   -0.011146
  81 H :   -0.013448
  82 H :   -0.016951
  83 H :   -0.004032
  84 H :   -0.003841
  85 H :   -0.017566
  86 H :    0.028157
  87 H :    0.004994
  88 H :    0.022781
  89 H :    0.005073
  90 H :    0.001383
  91 H :   -0.000052
  92 H :   -0.006802
  93 H :   -0.012771
  94 H :    0.043770
  95 H :    0.043676
  96 H :    0.048813
  97 H :   -0.009307
  98 H :    0.007418
  99 H :    0.005532
 100 H :    0.003549
 101 H :    0.012320
 102 H :    0.000972
 103 H :    0.036886
 104 H :   -0.007431
 105 H :   -0.007986
 106 H :   -0.009627
 107 H :   -0.003792
 108 H :   -0.003734
 109 H :   -0.008706
Sum of atomic charges:    0.0000000

LOEWDIN ATOMIC CHARGES
----------------------
   0 C :    0.075754
   1 C :   -0.141524
   2 C :   -0.016011
   3 N :   -0.061073
   4 C :   -0.017597
   5 N :   -0.045661
   6 C :   -0.024753
   7 C :   -0.061312
   8 C :    0.038398
   9 C :   -0.003087
  10 C :    0.000628
  11 C :    0.016320
  12 C :   -0.002242
  13 C :   -0.006514
  14 C :   -0.007447
  15 C :   -0.005476
  16 C :    0.082261
  17 O :   -0.140143
  18 C :   -0.084094
  19 C :    0.066317
  20 C :   -0.051023
  21 C :    0.059869
  22 C :   -0.051528
  23 C :   -0.027680
  24 N :   -0.039196
  25 C :    0.034541
  26 C :    0.033537
  27 C :    0.042924
  28 C :   -0.027864
  29 C :    0.018571
  30 C :   -0.051768
  31 C :    0.000458
  32 C :   -0.029299
  33 N :   -0.037086
  34 C :    0.003092
  35 C :   -0.023980
  36 C :    0.073871
  37 O :    0.038535
  38 C :    0.029622
  39 C :   -0.035502
  40 C :   -0.099708
  41 C :    0.094905
  42 O :   -0.145823
  43 C :   -0.071590
  44 C :   -0.038710
  45 C :    0.005015
  46 C :   -0.047532
  47 C :   -0.023434
  48 N :   -0.046276
  49 C :   -0.003061
  50 C :    0.049005
  51 C :    0.041525
  52 C :   -0.037097
  53 C :    0.037143
  54 C :   -0.062168
  55 C :    0.020468
  56 C :   -0.033477
  57 N :   -0.040327
  58 C :    0.052355
  59 C :   -0.036553
  60 C :    0.073033
  61 C :   -0.095204
  62 C :    0.075271
  63 C :   -0.138155
  64 C :   -0.017252
  65 N :   -0.052349
  66 C :   -0.024614
  67 N :   -0.051447
  68 C :   -0.026087
  69 C :   -0.059417
  70 C :    0.093222
  71 O :   -0.153534
  72 C :    0.039160
  73 C :   -0.008280
  74 C :   -0.004892
  75 C :    0.019586
  76 C :   -0.006365
  77 C :   -0.011269
  78 C :   -0.011419
  79 C :   -0.004896
  80 H :    0.040283
  81 H :    0.035822
  82 H :    0.032669
  83 H :    0.033950
  84 H :    0.033576
  85 H :    0.032185
  86 H :    0.052226
  87 H :    0.040321
  88 H :    0.041908
  89 H :    0.036269
  90 H :    0.036423
  91 H :    0.031531
  92 H :    0.038221
  93 H :    0.032144
  94 H :    0.047138
  95 H :    0.042825
  96 H :    0.046602
  97 H :    0.032525
  98 H :    0.032861
  99 H :    0.036149
 100 H :    0.033630
 101 H :    0.037792
 102 H :    0.033976
 103 H :    0.048054
 104 H :    0.041809
 105 H :    0.039166
 106 H :    0.034701
 107 H :    0.033611
 108 H :    0.033453
 109 H :    0.035593

  Mayer bond orders larger than 0.100000
B(  0-C ,  1-C ) :   1.6511 B(  0-C ,  6-C ) :   1.0113 B(  0-C , 18-C ) :   0.9925
B(  1-C ,  2-C ) :   1.1523 B(  1-C ,  4-C ) :   1.1782 B(  2-C ,  3-N ) :   2.9490
B(  4-C ,  5-N ) :   2.9773 B(  6-C ,  7-C ) :   1.2141 B(  6-C , 11-C ) :   1.4459
B(  7-C ,  8-C ) :   1.4627 B(  7-C , 16-C ) :   0.9195 B(  8-C ,  9-C ) :   1.1884
B(  8-C , 80-H ) :   1.0149 B(  9-C , 10-C ) :   1.2532 B(  9-C , 15-C ) :   1.2440
B( 10-C , 11-C ) :   1.2012 B( 10-C , 12-C ) :   1.2402 B( 11-C , 81-H ) :   0.9994
B( 12-C , 13-C ) :   1.4918 B( 12-C , 82-H ) :   0.9967 B( 13-C , 14-C ) :   1.2580
B( 13-C , 83-H ) :   0.9880 B( 14-C , 15-C ) :   1.4900 B( 14-C , 84-H ) :   0.9887
B( 15-C , 85-H ) :   0.9970 B( 16-C , 17-O ) :   2.2803 B( 16-C , 18-C ) :   0.9317
B( 18-C , 19-C ) :   1.7117 B( 19-C , 20-C ) :   1.0611 B( 19-C , 86-H ) :   0.9447
B( 20-C , 21-C ) :   1.5695 B( 20-C , 26-C ) :   1.0536 B( 21-C , 22-C ) :   1.0998
B( 21-C , 87-H ) :   1.0201 B( 22-C , 23-C ) :   1.0673 B( 22-C , 25-C ) :   1.6117
B( 23-C , 24-N ) :   3.0392 B( 25-C , 26-C ) :   1.1058 B( 25-C , 88-H ) :   1.0076
B( 26-C , 27-C ) :   1.4529 B( 27-C , 28-C ) :   1.0436 B( 27-C , 31-C ) :   1.0970
B( 28-C , 29-C ) :   1.5341 B( 28-C , 34-C ) :   1.1314 B( 29-C , 30-C ) :   1.1317
B( 29-C , 89-H ) :   1.0121 B( 30-C , 31-C ) :   1.5759 B( 30-C , 32-C ) :   1.0636
B( 31-C , 90-H ) :   1.0236 B( 32-C , 33-N ) :   3.0288 B( 34-C , 35-C ) :   1.6313
B( 34-C , 91-H ) :   0.9480 B( 35-C , 36-C ) :   1.1730 B( 35-C , 92-H ) :   0.9517
B( 36-C , 37-O ) :   1.1353 B( 36-C , 38-C ) :   0.1027 B( 36-C , 40-C ) :   1.3715
B( 37-O , 38-C ) :   1.1495 B( 38-C , 39-C ) :   1.4590 B( 38-C , 44-C ) :   1.0316
B( 39-C , 40-C ) :   1.2419 B( 39-C , 93-H ) :   0.9988 B( 40-C , 41-C ) :   0.9300
B( 41-C , 42-O ) :   2.0964 B( 41-C , 43-C ) :   1.0713 B( 43-C , 94-H ) :   0.9334
B( 43-C , 95-H ) :   0.9555 B( 43-C , 96-H ) :   0.9478 B( 44-C , 45-C ) :   1.6171
B( 44-C , 50-C ) :   1.0240 B( 45-C , 46-C ) :   1.0983 B( 45-C , 97-H ) :   1.0118
B( 46-C , 47-C ) :   1.0622 B( 46-C , 49-C ) :   1.6156 B( 47-C , 48-N ) :   3.0136
B( 49-C , 50-C ) :   1.0902 B( 49-C , 98-H ) :   0.9931 B( 50-C , 51-C ) :   1.4801
B( 51-C , 52-C ) :   1.0444 B( 51-C , 55-C ) :   1.1058 B( 52-C , 53-C ) :   1.5756
B( 52-C , 58-C ) :   1.1340 B( 53-C , 54-C ) :   1.1116 B( 53-C , 99-H ) :   1.0103
B( 54-C , 55-C ) :   1.6199 B( 54-C , 56-C ) :   1.0556 B( 55-C ,100-H ) :   1.0083
B( 56-C , 57-N ) :   3.0427 B( 58-C , 59-C ) :   1.6622 B( 58-C ,101-H ) :   0.9526
B( 59-C , 60-C ) :   1.1755 B( 59-C ,102-H ) :   0.9544 B( 60-C , 61-C ) :   1.5941
B( 60-C ,103-H ) :   0.9411 B( 61-C , 62-C ) :   1.0617 B( 61-C , 70-C ) :   0.9563
B( 62-C , 63-C ) :   1.6417 B( 62-C , 68-C ) :   0.9931 B( 63-C , 64-C ) :   1.1440
B( 63-C , 66-C ) :   1.1389 B( 64-C , 65-N ) :   2.9657 B( 66-C , 67-N ) :   2.9944
B( 68-C , 69-C ) :   1.2106 B( 68-C , 75-C ) :   1.4494 B( 69-C , 70-C ) :   0.9570
B( 69-C , 72-C ) :   1.4594 B( 70-C , 71-O ) :   2.1082 B( 72-C , 73-C ) :   1.1816
B( 72-C ,104-H ) :   1.0173 B( 73-C , 74-C ) :   1.2543 B( 73-C , 79-C ) :   1.2463
B( 74-C , 75-C ) :   1.2053 B( 74-C , 76-C ) :   1.2403 B( 75-C ,105-H ) :   0.9900
B( 76-C , 77-C ) :   1.4892 B( 76-C ,106-H ) :   0.9969 B( 77-C , 78-C ) :   1.2597
B( 77-C ,107-H ) :   0.9880 B( 78-C , 79-C ) :   1.4872 B( 78-C ,108-H ) :   0.9887
B( 79-C ,109-H ) :   0.9981

-----------------------------------------------------------------------------
         ABSORPTION SPECTRUM VIA TRANSITION ELECTRIC DIPOLE MOMENTS
-----------------------------------------------------------------------------
State   Energy  Wavelength   fosc         T2         TX        TY        TZ
        (cm-1)    (nm)                  (au**2)     (au)      (au)      (au)
-----------------------------------------------------------------------------
   0    7742.2   1291.6   0.127645360   5.42767  -1.71879   0.47841  -1.49819
   1    9274.9   1078.2   0.029419778   1.04425   0.79859  -0.63090   0.09205
   2   12539.7    797.5   0.050986352   1.33857  -0.17633   0.19973  -1.12587
   3   13520.5    739.6   0.010540336   0.25665   0.09905  -0.38091  -0.31897
   4   18124.5    551.7   0.050535801   0.91793   0.56351  -0.36707  -0.68238
   5   18668.2    535.7   0.066050058   1.16479  -0.90968   0.56476  -0.13536
   6   19469.8    513.6   0.033795953   0.57145   0.53715  -0.52703  -0.07179
   7   20708.2    482.9   0.003299566   0.05246  -0.07354  -0.06325   0.20748
   8   21006.2    476.0   0.042063713   0.65923   0.61600  -0.51035   0.13896
   9   21534.7    464.4   0.086656607   1.32476  -0.46158   0.52508  -0.91433
  10   21748.0    459.8   0.009354862   0.14161   0.11835  -0.29066   0.20766
  11   22258.9    449.3   0.255908126   3.78491  -0.09656   0.47741  -1.88353
  12   22364.6    447.1   0.135592173   1.99595   0.79306  -0.76178   0.88696
  13   22938.1    436.0   0.053375385   0.76605  -0.52282   0.31830  -0.62561
  14   23357.8    428.1   0.097392020   1.37267  -0.85258  -0.13411  -0.79233
  15   23745.5    421.1   0.118808392   1.64718  -1.02371  -0.27206   0.72470
  16   24931.4    401.1   0.019461745   0.25699   0.00994  -0.09238  -0.49835
  17   24961.7    400.6   0.060178923   0.79368   0.12178   0.12410  -0.87376
  18   25095.5    398.5   0.018512736   0.24286  -0.10776   0.25212   0.40949
  19   25476.3    392.5   0.001607024   0.02077  -0.06968   0.10604  -0.06831
  20   25908.6    386.0   0.115265132   1.46464   1.08578  -0.46227   0.26840
  21   26514.9    377.1   0.188656813   2.34238   0.83733   0.18349   1.26791
  22   27188.2    367.8   0.041350033   0.50069  -0.24559   0.55783  -0.35946
  23   27610.7    362.2   0.222181705   2.64915   0.26246  -0.98068   1.27221
  24   27941.3    357.9   0.017751640   0.20915   0.21392  -0.35913   0.18552
  25   28090.5    356.0   0.014675715   0.17199   0.05017  -0.41036   0.03289
  26   28190.6    354.7   0.172895885   2.01909   0.73541  -1.04400   0.62316
  27   28468.3    351.3   0.066959088   0.77433  -0.12301   0.78814  -0.37152
  28   28642.6    349.1   0.086246643   0.99130   0.64577  -0.75620   0.04943
  29   29037.9    344.4   0.180451854   2.04584  -0.61360   1.16246   0.56393
  30   29484.0    339.2   0.014926093   0.16666   0.06591   0.33183   0.22849
  31   29699.5    336.7   0.089945654   0.99702  -0.57125   0.38850   0.72095
  32   29871.2    334.8   0.041907736   0.46187  -0.09788   0.07764   0.66803
  33   29944.2    334.0   0.107932250   1.18663  -0.17408   0.99242   0.41404
  34   30023.6    333.1   0.399177445   4.37702   0.37906   1.45694   1.45281
  35   30243.1    330.7   0.004109108   0.04473  -0.07474   0.18785  -0.06210
  36   30803.3    324.6   0.019168025   0.20486   0.32327  -0.26728  -0.17005
  37   30914.3    323.5   0.003487215   0.03714   0.03745  -0.15310  -0.11088
  38   30988.4    322.7   0.038636905   0.41047   0.03319   0.62359  -0.14318
  39   31134.6    321.2   0.005144389   0.05440   0.06505   0.10628   0.19715
  40   31547.5    317.0   0.059803499   0.62407  -0.16820  -0.61180   0.47063
  41   31807.2    314.4   0.323987445   3.35334  -0.90387   1.58637  -0.14068
  42   32174.5    310.8   0.145019449   1.48385   0.25350  -1.15096  -0.30802
  43   32354.5    309.1   0.060018400   0.61070   0.13060   0.59159  -0.49362
  44   32813.0    304.8   0.068928622   0.69156   0.18157  -0.79114   0.18080
  45   33017.7    302.9   0.002371743   0.02365   0.09682  -0.11799   0.01882
  46   33540.0    298.2   0.621992382   6.10516  -1.48152   1.86435   0.65912
  47   33591.1    297.7   0.007901109   0.07744  -0.02751  -0.08345   0.26404
  48   33928.5    294.7   0.279813550   2.71506   0.49462  -1.35718  -0.79276
  49   34083.2    293.4   0.038680839   0.37362  -0.24387   0.51138   0.22943
  50   34304.2    291.5   0.228212413   2.19012   0.53624  -1.35186  -0.27394
  51   34598.4    289.0   0.359965966   3.42516  -0.25625   1.34172   1.24871
  52   34785.5    287.5   0.474913000   4.49461  -0.48597   1.64866   1.24112
  53   35104.7    284.9   0.240075029   2.25143  -0.07163   1.25635   0.81723
  54   35179.9    284.3   0.125218463   1.17179   0.14573  -0.61938  -0.87574
  55   35271.8    283.5   0.006717235   0.06270   0.12914  -0.13201   0.16910
  56   35474.5    281.9   0.135550571   1.25794   0.79714  -0.76056  -0.20989
  57   35589.1    281.0   0.307092806   2.84072  -0.86788   1.26632  -0.69565
  58   36036.4    277.5   0.232706845   2.12590  -0.73994   0.64362  -1.07896
  59   36222.2    276.1   0.007286850   0.06623  -0.09684  -0.05219  -0.23265
  60   36711.5    272.4   0.077343509   0.69358  -0.40812   0.69632   0.20533
  61   36984.9    270.4   0.034817575   0.30992   0.14899  -0.45995  -0.27598
  62   37065.3    269.8   0.000411366   0.00365   0.01068  -0.04068  -0.04341
  63   37485.1    266.8   0.018439334   0.16194  -0.25469   0.10418  -0.29364
  64   37787.0    264.6   0.085474674   0.74468   0.18269  -0.25696   0.80329
  65   37941.4    263.6   0.071374897   0.61931   0.24449  -0.73507   0.13860
  66   38065.8    262.7   0.033132750   0.28655   0.35762  -0.29758  -0.26477
  67   38197.9    261.8   0.024659839   0.21253  -0.18073   0.29953   0.30026
  68   38362.2    260.7   0.105864139   0.90849   0.59748  -0.33094  -0.66483
  69   38535.8    259.5   0.139483526   1.19161   0.04185  -0.04118   1.09003
  70   38607.3    259.0   0.102980426   0.87813   0.51947  -0.75328   0.20212
  71   38802.8    257.7   0.139569558   1.18414  -0.37380   1.01778  -0.09242
  72   38973.8    256.6   0.114330385   0.96575   0.42920   0.45842   0.75590
  73   39002.8    256.4   0.036590359   0.30885  -0.38196   0.36422  -0.17406
  74   39463.6    253.4   0.012262790   0.10230  -0.18178   0.24286   0.10138
  75   39634.6    252.3   0.029141716   0.24206   0.27684   0.25454   0.31721
  76   39790.2    251.3   0.071845279   0.59443   0.19279  -0.22618  -0.71141
  77   40041.9    249.7   0.003593930   0.02955  -0.05103  -0.02760  -0.16181
  78   40164.5    249.0   0.023156225   0.18980   0.18594   0.03791   0.39216

FINAL SINGLE POINT ENERGY     -3343.631735574896

DIPOLE MOMENT
-------------
                                X             Y             Z
Electronic contribution:      9.34869      -8.78090       5.16678
Nuclear contribution   :    -10.56241       9.37111      -5.12302
                        -----------------------------------------
Total Dipole Moment    :     -1.21372       0.59021       0.04376
                        -----------------------------------------
Magnitude (a.u.)       :      1.35033
Magnitude (Debye)      :      3.43226

Rotational constants in cm-1:     0.001286     0.000370     0.000317
Rotational constants in MHz :    38.557358    11.086586     9.500435

                             ****ORCA TERMINATED NORMALLY****
TOTAL RUN TIME: 0 days 0 hours 15 minutes 25 seconds 970 msec
