                         Program Version 4.2.0 -  RELEASE  -
|  1> # ORCA input file
|  2> # SCF done       -157.483127405966          0.000721454825
|  3> ! CAM-B3LYP def2-SVP def2/J RIJCOSX Grid4 TightSCF
|  4> %maxcore 5000
|  5> %tddft
|  6>     Mode sTDDFT
|  7>     Ethresh 5.0
|  8>     maxcore 5000
|  9> end
| 10>
| 11> %pal
| 12>   nprocs 6
| 13>   end
| 14> * xyz 0 1
| 15>    C       -0.79587         4.00592         3.28961
| 16>    S       -0.14808         5.54313         2.87385
| 17>    C        0.80269         4.83988         1.61930
| 18>    C        1.71758         5.71790         0.83251
| 19>    C        3.15536         5.63255         1.35200
| 20>    C        0.63684         3.47266         1.55041
| 21>    C       -0.31035         2.99615         2.52619
| 22>    C       -0.74561         1.56971         2.67284
| 23>    C       -1.93698         1.36413         3.60156
| 24>    C        1.36633         2.69898         0.57337
| 25>    C        1.54993         1.37162         0.54930
| 26>    N        2.28675         0.75063        -0.43916
| 27>    C        2.48833        -0.58334        -0.57547
| 28>    S        2.81365        -1.19384        -2.17489
| 29>    C        2.74623        -2.82030        -1.56487
| 30>    N        2.97447        -3.85759        -2.46235
| 31>    O        2.91507        -5.00153        -2.04128
| 32>    O        3.21423        -3.54321        -3.62026
| 33>    C        2.49050        -2.87298        -0.21969
| 34>    C        2.37886        -1.60572         0.37931
| 35>    C        2.25328        -1.44882         1.81003
| 36>    C        2.89813        -0.49954         2.52939
| 37>    C        2.76278        -0.24999         3.91823
| 38>    C        1.73575        -0.61874         4.74269
| 39>    C        1.59141        -0.22236         6.10165
| 40>    C        0.40388        -0.55922         6.66757
| 41>    C       -0.46803        -1.25996         5.80037
| 42>    S        0.30596        -1.51973         4.24997
| 43>    C       -1.75306        -1.68613         6.04688
| 44>    C       -2.51937        -1.50720         7.22358
| 45>    C       -3.77829        -2.01164         7.15782
| 46>    C       -4.09303        -2.63144         5.91639
| 47>    S       -2.70337        -2.52084         4.83352
| 48>    C       -5.24006        -3.20231         5.45520
| 49>    N       -6.38525        -3.45789         6.16438
| 50>    C       -6.52421        -3.79720         7.47153
| 51>    S       -5.20517        -4.43611         8.40720
| 52>    C       -6.31125        -4.77507         9.70637
| 53>    N       -5.78174        -5.31715        10.87182
| 54>    O       -6.54741        -5.55830        11.79189
| 55>    O       -4.57399        -5.51513        10.88819
| 56>    C       -7.60762        -4.43311         9.41878
| 57>    C       -7.75288        -3.85500         8.14717
| 58>    C       -9.02432        -3.39890         7.64157
| 59>    C       -9.19931        -2.45792         6.69303
| 60>    C      -10.43922        -1.99341         6.14632
| 61>    S      -10.40017        -0.42157         5.38019
| 62>    C      -12.08404        -0.49508         5.00611
| 63>    C      -12.73242         0.62832         4.27079
| 64>    C      -11.83398         1.20630         3.17996
| 65>    C      -12.63572        -1.67959         5.42779
| 66>    C      -11.69489        -2.54739         6.05977
| 67>    C      -12.07655        -3.90375         6.56262
| 68>    C      -12.76508        -3.81431         7.92599
| 69>    C      -14.03836        -2.04098         5.24949
| 70>    C      -15.06610        -1.22998         5.45443
| 71>    H       -1.51003         3.95484         4.08553
| 72>    H        1.37017         6.74962         0.91191
| 73>    H        1.69214         5.43845        -0.22392
| 74>    H        3.19624         5.94830         2.39171
| 75>    H        3.80621         6.27822         0.76771
| 76>    H        3.52437         4.61139         1.28907
| 77>    H        0.09375         0.98535         3.05874
| 78>    H       -0.99791         1.18136         1.68238
| 79>    H       -1.68662         1.64057         4.62331
| 80>    H       -2.22289         0.31470         3.59480
| 81>    H       -2.78973         1.95488         3.27613
| 82>    H        1.83427         3.28271        -0.21025
| 83>    H        1.15436         0.70373         1.28873
| 84>    H        2.55211         1.32507        -1.22971
| 85>    H        2.42709        -3.80143         0.31864
| 86>    H        1.68260        -2.21709         2.31106
| 87>    H        3.59566         0.14826         2.01206
| 88>    H        3.52194         0.37702         4.36771
| 89>    H        2.37031         0.32462         6.60315
| 90>    H        0.12255        -0.31385         7.67578
| 91>    H       -2.12246        -0.99570         8.08184
| 92>    H       -4.50278        -1.90706         7.94384
| 93>    H       -5.29859        -3.46350         4.40779
| 94>    H       -7.23870        -3.53703         5.62170
| 95>    H       -8.41115        -4.57820        10.11786
| 96>    H       -9.87811        -3.83737         8.13340
| 97>    H       -8.33877        -1.90693         6.33248
| 98>    H      -12.98999         1.42529         4.97658
| 99>    H      -13.66275         0.26160         3.83026
|100>    H      -10.92221         1.61411         3.61097
|101>    H      -12.35208         2.00215         2.65087
|102>    H      -11.56158         0.43397         2.46415
|103>    H      -11.19059        -4.53687         6.62738
|104>    H      -12.76305        -4.36987         5.85234
|105>    H      -12.11576        -3.33471         8.65539
|106>    H      -13.02238        -4.80741         8.28665
|107>    H      -13.67643        -3.22598         7.84582
|108>    H      -14.21990        -3.06397         4.94354
|109>    H      -14.93818        -0.21986         5.80421
|110>    H      -16.08032        -1.55924         5.30517
|111> *
|112>
|113>                          ****END OF INPUT****

CARTESIAN COORDINATES (ANGSTROEM)
---------------------------------
  C     -0.795870    4.005920    3.289610
  S     -0.148080    5.543130    2.873850
  C      0.802690    4.839880    1.619300
  C      1.717580    5.717900    0.832510
  C      3.155360    5.632550    1.352000
  C      0.636840    3.472660    1.550410
  C     -0.310350    2.996150    2.526190
  C     -0.745610    1.569710    2.672840
  C     -1.936980    1.364130    3.601560
  C      1.366330    2.698980    0.573370
  C      1.549930    1.371620    0.549300
  N      2.286750    0.750630   -0.439160
  C      2.488330   -0.583340   -0.575470
  S      2.813650   -1.193840   -2.174890
  C      2.746230   -2.820300   -1.564870
  N      2.974470   -3.857590   -2.462350
  O      2.915070   -5.001530   -2.041280
  O      3.214230   -3.543210   -3.620260
  C      2.490500   -2.872980   -0.219690
  C      2.378860   -1.605720    0.379310
  C      2.253280   -1.448820    1.810030
  C      2.898130   -0.499540    2.529390
  C      2.762780   -0.249990    3.918230
  C      1.735750   -0.618740    4.742690
  C      1.591410   -0.222360    6.101650
  C      0.403880   -0.559220    6.667570
  C     -0.468030   -1.259960    5.800370
  S      0.305960   -1.519730    4.249970
  C     -1.753060   -1.686130    6.046880
  C     -2.519370   -1.507200    7.223580
  C     -3.778290   -2.011640    7.157820
  C     -4.093030   -2.631440    5.916390
  S     -2.703370   -2.520840    4.833520
  C     -5.240060   -3.202310    5.455200
  N     -6.385250   -3.457890    6.164380
  C     -6.524210   -3.797200    7.471530
  S     -5.205170   -4.436110    8.407200
  C     -6.311250   -4.775070    9.706370
  N     -5.781740   -5.317150   10.871820
  O     -6.547410   -5.558300   11.791890
  O     -4.573990   -5.515130   10.888190
  C     -7.607620   -4.433110    9.418780
  C     -7.752880   -3.855000    8.147170
  C     -9.024320   -3.398900    7.641570
  C     -9.199310   -2.457920    6.693030
  C    -10.439220   -1.993410    6.146320
  S    -10.400170   -0.421570    5.380190
  C    -12.084040   -0.495080    5.006110
  C    -12.732420    0.628320    4.270790
  C    -11.833980    1.206300    3.179960
  C    -12.635720   -1.679590    5.427790
  C    -11.694890   -2.547390    6.059770
  C    -12.076550   -3.903750    6.562620
  C    -12.765080   -3.814310    7.925990
  C    -14.038360   -2.040980    5.249490
  C    -15.066100   -1.229980    5.454430
  H     -1.510030    3.954840    4.085530
  H      1.370170    6.749620    0.911910
  H      1.692140    5.438450   -0.223920
  H      3.196240    5.948300    2.391710
  H      3.806210    6.278220    0.767710
  H      3.524370    4.611390    1.289070
  H      0.093750    0.985350    3.058740
  H     -0.997910    1.181360    1.682380
  H     -1.686620    1.640570    4.623310
  H     -2.222890    0.314700    3.594800
  H     -2.789730    1.954880    3.276130
  H      1.834270    3.282710   -0.210250
  H      1.154360    0.703730    1.288730
  H      2.552110    1.325070   -1.229710
  H      2.427090   -3.801430    0.318640
  H      1.682600   -2.217090    2.311060
  H      3.595660    0.148260    2.012060
  H      3.521940    0.377020    4.367710
  H      2.370310    0.324620    6.603150
  H      0.122550   -0.313850    7.675780
  H     -2.122460   -0.995700    8.081840
  H     -4.502780   -1.907060    7.943840
  H     -5.298590   -3.463500    4.407790
  H     -7.238700   -3.537030    5.621700
  H     -8.411150   -4.578200   10.117860
  H     -9.878110   -3.837370    8.133400
  H     -8.338770   -1.906930    6.332480
  H    -12.989990    1.425290    4.976580
  H    -13.662750    0.261600    3.830260
  H    -10.922210    1.614110    3.610970
  H    -12.352080    2.002150    2.650870
  H    -11.561580    0.433970    2.464150
  H    -11.190590   -4.536870    6.627380
  H    -12.763050   -4.369870    5.852340
  H    -12.115760   -3.334710    8.655390
  H    -13.022380   -4.807410    8.286650
  H    -13.676430   -3.225980    7.845820
  H    -14.219900   -3.063970    4.943540
  H    -14.938180   -0.219860    5.804210
  H    -16.080320   -1.559240    5.305170

 Total Charge           Charge          ....    0
 Multiplicity           Mult            ....    1
 Number of Electrons    NEL             ....  448
 Basis Dimension        Dim             .... 1008

ORBITAL ENERGIES
----------------

  NO   OCC          E(Eh)            E(eV)
   0   2.0000     -88.976716     -2421.1795
   1   2.0000     -88.969637     -2420.9869
   2   2.0000     -88.949085     -2420.4277
   3   2.0000     -88.948814     -2420.4203
   4   2.0000     -88.947622     -2420.3878
   5   2.0000     -88.937734     -2420.1188
   6   2.0000     -19.225950      -523.1647
   7   2.0000     -19.225441      -523.1509
   8   2.0000     -19.221025      -523.0307
   9   2.0000     -19.220182      -523.0077
  10   2.0000     -14.637644      -398.3105
  11   2.0000     -14.632753      -398.1775
  12   2.0000     -14.480449      -394.0331
  13   2.0000     -14.468182      -393.6992
  14   2.0000     -10.362878      -281.9883
  15   2.0000     -10.359206      -281.8883
  16   2.0000     -10.334027      -281.2032
  17   2.0000     -10.331868      -281.1444
  18   2.0000     -10.326336      -280.9939
  19   2.0000     -10.315214      -280.6912
  20   2.0000     -10.313643      -280.6485
  21   2.0000     -10.309925      -280.5473
  22   2.0000     -10.309711      -280.5415
  23   2.0000     -10.308549      -280.5099
  24   2.0000     -10.301727      -280.3242
  25   2.0000     -10.296693      -280.1873
  26   2.0000     -10.296291      -280.1763
  27   2.0000     -10.294100      -280.1167
  28   2.0000     -10.294069      -280.1158
  29   2.0000     -10.293960      -280.1129
  30   2.0000     -10.291338      -280.0415
  31   2.0000     -10.291282      -280.0400
  32   2.0000     -10.289683      -279.9965
  33   2.0000     -10.287793      -279.9451
  34   2.0000     -10.286001      -279.8963
  35   2.0000     -10.284738      -279.8620
  36   2.0000     -10.283043      -279.8158
  37   2.0000     -10.279640      -279.7232
  38   2.0000     -10.278866      -279.7022
  39   2.0000     -10.277403      -279.6624
  40   2.0000     -10.276558      -279.6394
  41   2.0000     -10.276301      -279.6324
  42   2.0000     -10.276298      -279.6323
  43   2.0000     -10.274649      -279.5874
  44   2.0000     -10.272728      -279.5352
  45   2.0000     -10.271847      -279.5112
  46   2.0000     -10.271556      -279.5033
  47   2.0000     -10.271030      -279.4889
  48   2.0000     -10.267051      -279.3807
  49   2.0000     -10.266237      -279.3585
  50   2.0000     -10.264005      -279.2978
  51   2.0000     -10.261571      -279.2315
  52   2.0000     -10.260317      -279.1974
  53   2.0000     -10.258945      -279.1601
  54   2.0000     -10.257826      -279.1296
  55   2.0000     -10.246634      -278.8251
  56   2.0000      -8.071839      -219.6459
  57   2.0000      -8.065686      -219.4785
  58   2.0000      -8.044780      -218.9096
  59   2.0000      -8.044163      -218.8928
  60   2.0000      -8.043734      -218.8811
  61   2.0000      -8.034081      -218.6184
  62   2.0000      -6.041521      -164.3982
  63   2.0000      -6.037078      -164.2773
  64   2.0000      -6.035413      -164.2319
  65   2.0000      -6.033254      -164.1732
  66   2.0000      -6.031074      -164.1139
  67   2.0000      -6.026886      -163.9999
  68   2.0000      -6.014735      -163.6693
  69   2.0000      -6.013925      -163.6472
  70   2.0000      -6.012874      -163.6186
  71   2.0000      -6.010709      -163.5597
  72   2.0000      -6.009891      -163.5375
  73   2.0000      -6.008884      -163.5100
  74   2.0000      -6.005937      -163.4299
  75   2.0000      -6.005289      -163.4122
  76   2.0000      -6.005194      -163.4096
  77   2.0000      -6.003221      -163.3559
  78   2.0000      -5.999119      -163.2443
  79   2.0000      -5.996444      -163.1715
  80   2.0000      -1.304802       -35.5055
  81   2.0000      -1.300118       -35.3780
  82   2.0000      -1.123536       -30.5730
  83   2.0000      -1.118807       -30.4443
  84   2.0000      -1.084654       -29.5149
  85   2.0000      -1.073340       -29.2071
  86   2.0000      -0.999016       -27.1846
  87   2.0000      -0.993965       -27.0472
  88   2.0000      -0.989157       -26.9163
  89   2.0000      -0.984801       -26.7978
  90   2.0000      -0.973835       -26.4994
  91   2.0000      -0.970669       -26.4132
  92   2.0000      -0.918997       -25.0072
  93   2.0000      -0.913218       -24.8499
  94   2.0000      -0.895442       -24.3662
  95   2.0000      -0.892106       -24.2754
  96   2.0000      -0.889297       -24.1990
  97   2.0000      -0.882329       -24.0094
  98   2.0000      -0.880510       -23.9599
  99   2.0000      -0.873176       -23.7603
 100   2.0000      -0.865288       -23.5457
 101   2.0000      -0.855959       -23.2918
 102   2.0000      -0.855311       -23.2742
 103   2.0000      -0.851292       -23.1648
 104   2.0000      -0.843850       -22.9623
 105   2.0000      -0.842821       -22.9343
 106   2.0000      -0.826855       -22.4999
 107   2.0000      -0.822274       -22.3752
 108   2.0000      -0.801580       -21.8121
 109   2.0000      -0.798764       -21.7355
 110   2.0000      -0.794870       -21.6295
 111   2.0000      -0.785142       -21.3648
 112   2.0000      -0.775697       -21.1078
 113   2.0000      -0.765371       -20.8268
 114   2.0000      -0.748328       -20.3630
 115   2.0000      -0.735784       -20.0217
 116   2.0000      -0.721292       -19.6273
 117   2.0000      -0.720379       -19.6025
 118   2.0000      -0.716374       -19.4935
 119   2.0000      -0.702670       -19.1206
 120   2.0000      -0.699199       -19.0262
 121   2.0000      -0.696909       -18.9638
 122   2.0000      -0.696363       -18.9490
 123   2.0000      -0.687796       -18.7159
 124   2.0000      -0.676608       -18.4114
 125   2.0000      -0.666787       -18.1442
 126   2.0000      -0.659225       -17.9384
 127   2.0000      -0.649973       -17.6867
 128   2.0000      -0.635279       -17.2868
 129   2.0000      -0.630667       -17.1613
 130   2.0000      -0.627632       -17.0787
 131   2.0000      -0.623245       -16.9594
 132   2.0000      -0.620655       -16.8889
 133   2.0000      -0.619032       -16.8447
 134   2.0000      -0.618653       -16.8344
 135   2.0000      -0.616927       -16.7874
 136   2.0000      -0.616505       -16.7760
 137   2.0000      -0.613808       -16.7026
 138   2.0000      -0.599346       -16.3090
 139   2.0000      -0.593316       -16.1450
 140   2.0000      -0.589258       -16.0345
 141   2.0000      -0.583801       -15.8860
 142   2.0000      -0.577770       -15.7219
 143   2.0000      -0.573541       -15.6068
 144   2.0000      -0.573069       -15.5940
 145   2.0000      -0.571050       -15.5391
 146   2.0000      -0.567586       -15.4448
 147   2.0000      -0.560693       -15.2572
 148   2.0000      -0.555408       -15.1134
 149   2.0000      -0.553419       -15.0593
 150   2.0000      -0.549836       -14.9618
 151   2.0000      -0.538628       -14.6568
 152   2.0000      -0.532221       -14.4825
 153   2.0000      -0.530134       -14.4257
 154   2.0000      -0.526250       -14.3200
 155   2.0000      -0.525019       -14.2865
 156   2.0000      -0.524066       -14.2606
 157   2.0000      -0.520143       -14.1538
 158   2.0000      -0.518000       -14.0955
 159   2.0000      -0.515190       -14.0190
 160   2.0000      -0.513111       -13.9625
 161   2.0000      -0.509501       -13.8642
 162   2.0000      -0.507535       -13.8107
 163   2.0000      -0.503850       -13.7105
 164   2.0000      -0.499293       -13.5864
 165   2.0000      -0.497499       -13.5376
 166   2.0000      -0.494188       -13.4475
 167   2.0000      -0.489785       -13.3277
 168   2.0000      -0.488433       -13.2909
 169   2.0000      -0.483858       -13.1664
 170   2.0000      -0.481047       -13.0899
 171   2.0000      -0.476981       -12.9793
 172   2.0000      -0.471527       -12.8309
 173   2.0000      -0.471108       -12.8195
 174   2.0000      -0.465289       -12.6612
 175   2.0000      -0.463049       -12.6002
 176   2.0000      -0.462410       -12.5828
 177   2.0000      -0.460973       -12.5437
 178   2.0000      -0.459498       -12.5036
 179   2.0000      -0.455728       -12.4010
 180   2.0000      -0.448948       -12.2165
 181   2.0000      -0.447288       -12.1713
 182   2.0000      -0.446331       -12.1453
 183   2.0000      -0.442259       -12.0345
 184   2.0000      -0.439183       -11.9508
 185   2.0000      -0.437721       -11.9110
 186   2.0000      -0.435867       -11.8605
 187   2.0000      -0.434564       -11.8251
 188   2.0000      -0.431703       -11.7472
 189   2.0000      -0.429028       -11.6744
 190   2.0000      -0.428284       -11.6542
 191   2.0000      -0.426645       -11.6096
 192   2.0000      -0.422794       -11.5048
 193   2.0000      -0.415038       -11.2937
 194   2.0000      -0.412901       -11.2356
 195   2.0000      -0.409061       -11.1311
 196   2.0000      -0.407154       -11.0792
 197   2.0000      -0.406419       -11.0592
 198   2.0000      -0.401466       -10.9244
 199   2.0000      -0.397919       -10.8279
 200   2.0000      -0.396017       -10.7762
 201   2.0000      -0.395331       -10.7575
 202   2.0000      -0.390635       -10.6297
 203   2.0000      -0.375098       -10.2069
 204   2.0000      -0.370356       -10.0779
 205   2.0000      -0.368977       -10.0404
 206   2.0000      -0.367284        -9.9943
 207   2.0000      -0.362510        -9.8644
 208   2.0000      -0.362304        -9.8588
 209   2.0000      -0.359542        -9.7836
 210   2.0000      -0.354464        -9.6455
 211   2.0000      -0.349471        -9.5096
 212   2.0000      -0.342721        -9.3259
 213   2.0000      -0.339639        -9.2421
 214   2.0000      -0.333168        -9.0660
 215   2.0000      -0.325063        -8.8454
 216   2.0000      -0.314839        -8.5672
 217   2.0000      -0.301064        -8.1924
 218   2.0000      -0.297015        -8.0822
 219   2.0000      -0.286315        -7.7910
 220   2.0000      -0.280210        -7.6249
 221   2.0000      -0.258011        -7.0208
 222   2.0000      -0.243924        -6.6375
 223   2.0000      -0.212675        -5.7872
 224   0.0000      -0.078684        -2.1411
 225   0.0000      -0.043079        -1.1722
 226   0.0000      -0.041546        -1.1305
 227   0.0000      -0.025365        -0.6902
 228   0.0000      -0.004113        -0.1119

MULLIKEN ATOMIC CHARGES
-----------------------
   0 C :   -0.155602
   1 S :    0.099325
   2 C :   -0.285900
   3 C :    0.081037
   4 C :    0.024908
   5 C :    0.128210
   6 C :   -0.050641
   7 C :    0.026127
   8 C :    0.035584
   9 C :   -0.038911
  10 C :    0.036264
  11 N :   -0.021896
  12 C :   -0.122747
  13 S :    0.148639
  14 C :   -0.013838
  15 N :    0.281422
  16 O :   -0.263347
  17 O :   -0.278975
  18 C :    0.005644
  19 C :    0.084652
  20 C :   -0.057012
  21 C :   -0.010536
  22 C :   -0.007518
  23 C :   -0.038078
  24 C :    0.043170
  25 C :    0.029832
  26 C :   -0.043489
  27 S :    0.050395
  28 C :   -0.049876
  29 C :    0.023021
  30 C :    0.040659
  31 C :   -0.099271
  32 S :    0.081714
  33 C :    0.050184
  34 N :   -0.042404
  35 C :   -0.121677
  36 S :    0.173284
  37 C :   -0.021737
  38 N :    0.280254
  39 O :   -0.262710
  40 O :   -0.274616
  41 C :    0.008972
  42 C :    0.103641
  43 C :   -0.026929
  44 C :    0.019477
  45 C :   -0.160409
  46 S :    0.093750
  47 C :   -0.239602
  48 C :    0.075909
  49 C :   -0.012207
  50 C :    0.071745
  51 C :   -0.044715
  52 C :    0.064383
  53 C :    0.022483
  54 C :   -0.055913
  55 C :   -0.015818
  56 H :    0.008274
  57 H :    0.003417
  58 H :    0.016503
  59 H :    0.012573
  60 H :    0.014135
  61 H :    0.012455
  62 H :    0.063028
  63 H :    0.014912
  64 H :    0.011281
  65 H :    0.005420
  66 H :    0.009251
  67 H :   -0.042770
  68 H :    0.031428
  69 H :    0.127604
  70 H :    0.006754
  71 H :    0.014941
  72 H :    0.004964
  73 H :   -0.011751
  74 H :   -0.011066
  75 H :   -0.013657
  76 H :   -0.009440
  77 H :    0.005461
  78 H :    0.012001
  79 H :    0.150126
  80 H :    0.005918
  81 H :   -0.011120
  82 H :   -0.011881
  83 H :    0.028597
  84 H :    0.022823
  85 H :    0.023947
  86 H :    0.016173
  87 H :    0.022034
  88 H :    0.002832
  89 H :   -0.000519
  90 H :    0.015335
  91 H :    0.016160
  92 H :    0.017353
  93 H :    0.003705
  94 H :    0.022300
  95 H :    0.022189
Sum of atomic charges:   -0.0000000

LOEWDIN ATOMIC CHARGES
----------------------
   0 C :   -0.207500
   1 S :    0.418466
   2 C :   -0.176419
   3 C :   -0.047006
   4 C :   -0.050366
   5 C :   -0.072649
   6 C :   -0.050820
   7 C :   -0.037269
   8 C :   -0.053850
   9 C :   -0.066592
  10 C :    0.021387
  11 N :    0.026539
  12 C :   -0.096962
  13 S :    0.433332
  14 C :   -0.220478
  15 N :    0.274558
  16 O :   -0.228645
  17 O :   -0.244517
  18 C :    0.007864
  19 C :   -0.113175
  20 C :   -0.043147
  21 C :   -0.037383
  22 C :   -0.064496
  23 C :   -0.141889
  24 C :   -0.031637
  25 C :   -0.035123
  26 C :   -0.185140
  27 S :    0.386153
  28 C :   -0.172866
  29 C :   -0.021197
  30 C :   -0.050437
  31 C :   -0.189369
  32 S :    0.364568
  33 C :   -0.022817
  34 N :    0.037607
  35 C :   -0.108427
  36 S :    0.477618
  37 C :   -0.219029
  38 N :    0.274115
  39 O :   -0.227958
  40 O :   -0.241609
  41 C :   -0.001476
  42 C :   -0.103128
  43 C :   -0.030917
  44 C :   -0.057316
  45 C :   -0.189115
  46 S :    0.420006
  47 C :   -0.157724
  48 C :   -0.046714
  49 C :   -0.057801
  50 C :   -0.077730
  51 C :   -0.040532
  52 C :   -0.031435
  53 C :   -0.050241
  54 C :   -0.020173
  55 C :   -0.042856
  56 H :    0.016809
  57 H :    0.027470
  58 H :    0.028201
  59 H :    0.024684
  60 H :    0.022573
  61 H :    0.022013
  62 H :    0.027756
  63 H :    0.029931
  64 H :    0.021146
  65 H :    0.017053
  66 H :    0.021516
  67 H :    0.021307
  68 H :    0.031761
  69 H :    0.087613
  70 H :    0.045380
  71 H :    0.017729
  72 H :    0.031657
  73 H :    0.034785
  74 H :    0.034124
  75 H :    0.032026
  76 H :    0.034739
  77 H :    0.026202
  78 H :    0.029967
  79 H :    0.096441
  80 H :    0.044214
  81 H :    0.032436
  82 H :    0.022019
  83 H :    0.033975
  84 H :    0.035834
  85 H :    0.017992
  86 H :    0.026364
  87 H :    0.025786
  88 H :    0.025317
  89 H :    0.027496
  90 H :    0.021558
  91 H :    0.024533
  92 H :    0.027404
  93 H :    0.028340
  94 H :    0.022860
  95 H :    0.024711

  Mayer bond orders larger than 0.100000
B(  0-C ,  1-S ) :   1.1222 B(  0-C ,  6-C ) :   1.6284 B(  0-C , 56-H ) :   0.9562
B(  1-S ,  2-C ) :   1.1620 B(  2-C ,  3-C ) :   1.0676 B(  2-C ,  5-C ) :   1.5201
B(  3-C ,  4-C ) :   1.0960 B(  3-C , 57-H ) :   0.9223 B(  3-C , 58-H ) :   0.9240
B(  4-C , 59-H ) :   0.9676 B(  4-C , 60-H ) :   0.9674 B(  4-C , 61-H ) :   0.9725
B(  5-C ,  6-C ) :   1.2105 B(  5-C ,  9-C ) :   1.1302 B(  6-C ,  7-C ) :   1.0521
B(  7-C ,  8-C ) :   1.1240 B(  7-C , 62-H ) :   0.9029 B(  7-C , 63-H ) :   0.9177
B(  8-C , 64-H ) :   0.9560 B(  8-C , 65-H ) :   0.9543 B(  8-C , 66-H ) :   0.9610
B(  9-C , 10-C ) :   1.7241 B(  9-C , 67-H ) :   0.9428 B( 10-C , 11-N ) :   1.0869
B( 10-C , 68-H ) :   0.9461 B( 11-N , 12-C ) :   1.2146 B( 11-N , 69-H ) :   0.9113
B( 12-C , 13-S ) :   1.1312 B( 12-C , 19-C ) :   1.3670 B( 13-S , 14-C ) :   1.0658
B( 14-C , 15-N ) :   0.9906 B( 14-C , 18-C ) :   1.4670 B( 15-N , 16-O ) :   1.5231
B( 15-N , 17-O ) :   1.4980 B( 16-O , 17-O ) :   0.2494 B( 18-C , 19-C ) :   1.2451
B( 18-C , 70-H ) :   1.0096 B( 19-C , 20-C ) :   1.0673 B( 20-C , 21-C ) :   1.6881
B( 20-C , 71-H ) :   0.9468 B( 21-C , 22-C ) :   1.1789 B( 21-C , 72-H ) :   0.9597
B( 22-C , 23-C ) :   1.6041 B( 22-C , 73-H ) :   0.9615 B( 23-C , 24-C ) :   1.1280
B( 23-C , 27-S ) :   1.0388 B( 24-C , 25-C ) :   1.6067 B( 24-C , 74-H ) :   0.9979
B( 25-C , 26-C ) :   1.1736 B( 25-C , 75-H ) :   0.9934 B( 26-C , 27-S ) :   1.0247
B( 26-C , 28-C ) :   1.5316 B( 28-C , 29-C ) :   1.1771 B( 28-C , 32-S ) :   1.0489
B( 29-C , 30-C ) :   1.6349 B( 29-C , 76-H ) :   0.9928 B( 30-C , 31-C ) :   1.1141
B( 30-C , 77-H ) :   0.9810 B( 31-C , 32-S ) :   1.0142 B( 31-C , 33-C ) :   1.6450
B( 33-C , 34-N ) :   1.1398 B( 33-C , 78-H ) :   0.9477 B( 34-N , 35-C ) :   1.2005
B( 34-N , 79-H ) :   0.9045 B( 35-C , 36-S ) :   1.1302 B( 35-C , 42-C ) :   1.3594
B( 36-S , 37-C ) :   1.0723 B( 37-C , 38-N ) :   0.9890 B( 37-C , 41-C ) :   1.4614
B( 38-N , 39-O ) :   1.5212 B( 38-N , 40-O ) :   1.5009 B( 39-O , 40-O ) :   0.2514
B( 41-C , 42-C ) :   1.2398 B( 41-C , 80-H ) :   1.0071 B( 42-C , 43-C ) :   1.0917
B( 43-C , 44-C ) :   1.6977 B( 43-C , 81-H ) :   0.9662 B( 44-C , 45-C ) :   1.1042
B( 44-C , 82-H ) :   0.9446 B( 45-C , 46-S ) :   1.0934 B( 45-C , 51-C ) :   1.5639
B( 46-S , 47-C ) :   1.1364 B( 47-C , 48-C ) :   1.0564 B( 47-C , 50-C ) :   1.5774
B( 48-C , 49-C ) :   1.0947 B( 48-C , 83-H ) :   0.9217 B( 48-C , 84-H ) :   0.9262
B( 49-C , 85-H ) :   0.9661 B( 49-C , 86-H ) :   0.9660 B( 49-C , 87-H ) :   0.9756
B( 50-C , 51-C ) :   1.2300 B( 50-C , 54-C ) :   1.0329 B( 51-C , 52-C ) :   1.0879
B( 52-C , 53-C ) :   1.1000 B( 52-C , 88-H ) :   0.9183 B( 52-C , 89-H ) :   0.9127
B( 53-C , 90-H ) :   0.9651 B( 53-C , 91-H ) :   0.9665 B( 53-C , 92-H ) :   0.9640
B( 54-C , 55-C ) :   1.9688 B( 54-C , 93-H ) :   0.9505 B( 55-C , 94-H ) :   0.9612
B( 55-C , 95-H ) :   0.9501

-----------------------------------------------------------------------------
         ABSORPTION SPECTRUM VIA TRANSITION ELECTRIC DIPOLE MOMENTS
-----------------------------------------------------------------------------
State   Energy  Wavelength   fosc         T2         TX        TY        TZ
        (cm-1)    (nm)                  (au**2)     (au)      (au)      (au)
-----------------------------------------------------------------------------
   0   14674.4    681.5   1.244825447  27.92692  -4.28672  -1.59157   2.64913
   1   21485.1    465.4   0.072780299   1.11520  -1.00094   0.11842  -0.31512
   2   22709.2    440.3   0.066877499   0.96951   0.54613   0.63546   0.51716
   3   23255.0    430.0   0.193333391   2.73694   0.91532  -1.36051  -0.21943
   4   25350.4    394.5   0.093741933   1.21738  -0.91540   0.58927   0.17938
   5   26611.6    375.8   0.321028991   3.97144   1.33498  -0.51246   1.38804
   6   28154.1    355.2   0.531468266   6.21458  -0.57340   2.16449   1.09580
   7   28458.7    351.4   0.042445760   0.49101  -0.17460   0.36714   0.57074
   8   30097.5    332.3   0.137147768   1.50015   0.04010  -0.74210  -0.97356
   9   30501.3    327.9   0.019968162   0.21552  -0.35814   0.24232   0.16893
  10   31509.4    317.4   0.291112485   3.04156  -1.02861   0.80245  -1.15741
  11   32424.2    308.4   0.012899078   0.13097  -0.25338  -0.09143   0.24167
  12   33060.1    302.5   0.020364227   0.20279   0.26541   0.18887   0.31092
  13   33777.4    296.1   0.223422603   2.17759  -0.94051  -0.07688  -1.13451
  14   34268.3    291.8   0.024525764   0.23562   0.23497   0.23076  -0.35658
  15   35124.8    284.7   0.287861183   2.69802   1.10711  -0.83029   0.88484
  16   35286.9    283.4   0.225520869   2.10401  -1.08047   0.85301  -0.45713
  17   35538.1    281.4   0.038325730   0.35504   0.21715  -0.47803   0.28172
  18   36222.2    276.1   0.035141516   0.31939   0.56173  -0.04434   0.04346
  19   36633.3    273.0   0.115712375   1.03987   0.45978  -0.52162  -0.74591
  20   37410.5    267.3   0.066714718   0.58709   0.33605  -0.67366  -0.14262
  21   38246.3    261.5   0.008290214   0.07136  -0.23893  -0.02143  -0.11754
  22   38653.2    258.7   0.141894730   1.20853  -0.55418   0.11122  -0.94289
  23   38836.4    257.5   0.077067752   0.65330  -0.37648   0.28872   0.65437
  24   38979.9    256.5   0.179876675   1.51918   0.81279   0.82509   0.42163
  25   39592.0    252.6   0.012633533   0.10505  -0.25873   0.06752  -0.18317
  26   39842.5    251.0   0.013853989   0.11447   0.01964  -0.00811   0.33767
  27   40197.8    248.8   0.032656533   0.26745   0.33139   0.36123   0.16474

FINAL SINGLE POINT ENERGY     -4529.856119029852

DIPOLE MOMENT
-------------
                                X             Y             Z
Electronic contribution:     54.26714     -38.51144      -1.53958
Nuclear contribution   :    -56.54335      41.53075       1.50850
                        -----------------------------------------
Total Dipole Moment    :     -2.27621       3.01931      -0.03108
                        -----------------------------------------
Magnitude (a.u.)       :      3.78131
Magnitude (Debye)      :      9.61133

Rotational constants in cm-1:     0.001429     0.000450     0.000418
Rotational constants in MHz :    42.854514    13.481092    12.526590

                             ****ORCA TERMINATED NORMALLY****
TOTAL RUN TIME: 0 days 0 hours 7 minutes 7 seconds 740 msec
