                         Program Version 4.2.0 -  RELEASE  -
|  1> # ORCA input file
|  2> # SCF done       -190.962727714128          0.000930293731
|  3> ! CAM-B3LYP def2-SVP def2/J RIJCOSX Grid4 TightSCF
|  4> %maxcore 5000
|  5> %tddft
|  6>     Mode sTDDFT
|  7>     Ethresh 5.0
|  8>     maxcore 5000
|  9> end
| 10>
| 11> %pal
| 12>   nprocs 6
| 13>   end
| 14> * xyz 0 1
| 15>    C       -3.87346         1.00532        -4.47710
| 16>    C       -3.29672        -0.24310        -4.43454
| 17>    C       -2.60994        -0.83497        -5.51301
| 18>    N       -2.03538        -1.37714        -6.34740
| 19>    C       -3.30148        -1.11537        -3.32926
| 20>    N       -3.25904        -1.88429        -2.47449
| 21>    C       -3.86382         1.89363        -5.63719
| 22>    C       -4.56594         3.07897        -5.30433
| 23>    C       -4.73397         4.11537        -6.18873
| 24>    C       -4.18093         3.97863        -7.46652
| 25>    C       -3.48100         2.79363        -7.79012
| 26>    C       -3.31205         1.74322        -6.89400
| 27>    S       -2.88414         2.84179        -9.41977
| 28>    C       -3.56084         4.41778        -9.64704
| 29>    C       -4.20691         4.89075        -8.55927
| 30>    C       -5.04044         2.97941        -3.91308
| 31>    O       -5.68185         3.82456        -3.30740
| 32>    C       -4.58997         1.67970        -3.42004
| 33>    C       -4.80400         1.17836        -2.15233
| 34>    C       -5.46327         1.72534        -1.05859
| 35>    C       -5.58207         1.06252         0.19004
| 36>    C       -6.29541         1.82097         1.16240
| 37>    N       -6.51741         1.37328         2.40861
| 38>    C       -6.05421         0.19318         2.72375
| 39>    C       -5.34052        -0.63498         1.84200
| 40>    C       -5.09902        -0.20181         0.56214
| 41>    C       -6.73127         3.07038         0.65941
| 42>    S       -6.25223         3.27744        -0.98059
| 43>    C       -7.47935         4.08771         1.33641
| 44>    C       -7.85497         3.93629         2.68446
| 45>    C       -8.59214         4.92070         3.28910
| 46>    C       -8.97118         6.07932         2.58651
| 47>    C       -8.58993         6.24684         1.25886
| 48>    C       -7.85301         5.25771         0.64892
| 49>    C       -9.77507         6.90151         3.45589
| 50>    C       -9.89850         6.25574         4.70252
| 51>    C       -9.08119         4.98344         4.72063
| 52>    C       -9.91266         3.75170         5.10413
| 53>    C      -11.08358         3.52520         4.15475
| 54>    C       -7.82567         5.12537         5.61407
| 55>    C       -8.08896         5.37871         7.09261
| 56>    C      -10.70446         6.78070         5.68048
| 57>    C      -11.38136         7.99328         5.45660
| 58>    C      -11.21114         8.64106         4.22099
| 59>    C      -10.42710         8.10642         3.22302
| 60>    C      -12.25319         8.58931         6.42899
| 61>    C      -12.52024         8.12367         7.67356
| 62>    C      -13.41055         8.73187         8.58423
| 63>    S      -14.28734        10.17650         8.20012
| 64>    C      -15.07709        10.24013         9.74812
| 65>    C      -14.70289         9.13434        10.52910
| 66>    C      -13.74880         8.29472         9.87675
| 67>    C      -13.26187         7.15765        10.53995
| 68>    C      -13.71401         6.82146        11.79420
| 69>    C      -13.18037         5.64608        12.47970
| 70>    C      -12.78760         4.53099        11.87819
| 71>    C      -14.71249         7.62380        12.42134
| 72>    C      -15.26577         7.22450        13.75592
| 73>    C      -15.18751         8.74263        11.79264
| 74>    C      -15.93525        11.34112         9.98746
| 75>    C      -16.38415        11.78864        11.18648
| 76>    C      -17.26806        12.89139        11.36800
| 77>    C      -17.70433        13.37050        12.59505
| 78>    C      -18.59229        14.46385        12.37531
| 79>    C      -19.29176        15.26521        13.24100
| 80>    C      -20.10770        16.27257        12.68752
| 81>    C      -20.92599        17.21903        13.27855
| 82>    C      -21.54388        18.01021        12.25342
| 83>    C      -21.10015        17.54648        11.03223
| 84>    C      -20.19804        16.45480        11.25131
| 85>    C      -19.50064        15.65797        10.38596
| 86>    C      -18.68564        14.64483        10.93881
| 87>    C      -17.88261        13.69178        10.34353
| 88>    C      -22.46979        19.10003        12.44527
| 89>    C      -22.91796        19.53973        13.61814
| 90>    H       -5.27387         5.00499        -5.90342
| 91>    H       -2.77050         0.86111        -7.19171
| 92>    H       -3.43144         4.89779       -10.59758
| 93>    H       -4.69048         5.85005        -8.51560
| 94>    H       -4.39298         0.19681        -1.96014
| 95>    H       -6.25486        -0.13116         3.73680
| 96>    H       -4.99069        -1.59909         2.17510
| 97>    H       -4.55335        -0.82126        -0.13451
| 98>    H       -7.56270         3.04047         3.20695
| 99>    H       -8.87162         7.13477         0.71309
|100>    H       -7.55644         5.37200        -0.38361
|101>    H      -10.29668         3.87871         6.11724
|102>    H       -9.26319         2.87424         5.09587
|103>    H      -11.74508         4.38912         4.14893
|104>    H      -11.65655         2.65468         4.46620
|105>    H      -10.72826         3.35831         3.14057
|106>    H       -7.22676         5.95077         5.21995
|107>    H       -7.23849         4.21101         5.50466
|108>    H       -8.60184         6.32566         7.23870
|109>    H       -7.14058         5.42400         7.62400
|110>    H       -8.68209         4.58131         7.53273
|111>    H      -10.84050         6.25713         6.61321
|112>    H      -11.72618         9.57622         4.05266
|113>    H      -10.32923         8.60934         2.27241
|114>    H      -12.74670         9.50288         6.11828
|115>    H      -12.04187         7.22275         8.03008
|116>    H      -12.50940         6.54684        10.06600
|117>    H      -13.11778         5.71502        13.55749
|118>    H      -12.86651         4.39547        10.81230
|119>    H      -12.39184         3.69854        12.43446
|120>    H      -14.50634         7.32352        14.53217
|121>    H      -15.59797         6.18751        13.74024
|122>    H      -16.10913         7.85629        14.02408
|123>    H      -15.97116         9.31586        12.26088
|124>    H      -16.20798        11.89436         9.09764
|125>    H      -16.04844        11.31617        12.09769
|126>    H      -17.42533        12.98495        13.55871
|127>    H      -19.22954        15.13709        14.31270
|128>    H      -21.07781        17.34589        14.33491
|129>    H      -21.37896        17.93030        10.06769
|130>    H      -19.56295        15.78548         9.31404
|131>    H      -17.74049        13.56376         9.28582
|132>    H      -22.80774        19.57516        11.53232
|133>    H      -22.61195        19.10081        14.55229
|134>    H      -23.61032        20.36107        13.68431
|135> *
|136>
|137>                          ****END OF INPUT****

CARTESIAN COORDINATES (ANGSTROEM)
---------------------------------
  C     -3.873460    1.005320   -4.477100
  C     -3.296720   -0.243100   -4.434540
  C     -2.609940   -0.834970   -5.513010
  N     -2.035380   -1.377140   -6.347400
  C     -3.301480   -1.115370   -3.329260
  N     -3.259040   -1.884290   -2.474490
  C     -3.863820    1.893630   -5.637190
  C     -4.565940    3.078970   -5.304330
  C     -4.733970    4.115370   -6.188730
  C     -4.180930    3.978630   -7.466520
  C     -3.481000    2.793630   -7.790120
  C     -3.312050    1.743220   -6.894000
  S     -2.884140    2.841790   -9.419770
  C     -3.560840    4.417780   -9.647040
  C     -4.206910    4.890750   -8.559270
  C     -5.040440    2.979410   -3.913080
  O     -5.681850    3.824560   -3.307400
  C     -4.589970    1.679700   -3.420040
  C     -4.804000    1.178360   -2.152330
  C     -5.463270    1.725340   -1.058590
  C     -5.582070    1.062520    0.190040
  C     -6.295410    1.820970    1.162400
  N     -6.517410    1.373280    2.408610
  C     -6.054210    0.193180    2.723750
  C     -5.340520   -0.634980    1.842000
  C     -5.099020   -0.201810    0.562140
  C     -6.731270    3.070380    0.659410
  S     -6.252230    3.277440   -0.980590
  C     -7.479350    4.087710    1.336410
  C     -7.854970    3.936290    2.684460
  C     -8.592140    4.920700    3.289100
  C     -8.971180    6.079320    2.586510
  C     -8.589930    6.246840    1.258860
  C     -7.853010    5.257710    0.648920
  C     -9.775070    6.901510    3.455890
  C     -9.898500    6.255740    4.702520
  C     -9.081190    4.983440    4.720630
  C     -9.912660    3.751700    5.104130
  C    -11.083580    3.525200    4.154750
  C     -7.825670    5.125370    5.614070
  C     -8.088960    5.378710    7.092610
  C    -10.704460    6.780700    5.680480
  C    -11.381360    7.993280    5.456600
  C    -11.211140    8.641060    4.220990
  C    -10.427100    8.106420    3.223020
  C    -12.253190    8.589310    6.428990
  C    -12.520240    8.123670    7.673560
  C    -13.410550    8.731870    8.584230
  S    -14.287340   10.176500    8.200120
  C    -15.077090   10.240130    9.748120
  C    -14.702890    9.134340   10.529100
  C    -13.748800    8.294720    9.876750
  C    -13.261870    7.157650   10.539950
  C    -13.714010    6.821460   11.794200
  C    -13.180370    5.646080   12.479700
  C    -12.787600    4.530990   11.878190
  C    -14.712490    7.623800   12.421340
  C    -15.265770    7.224500   13.755920
  C    -15.187510    8.742630   11.792640
  C    -15.935250   11.341120    9.987460
  C    -16.384150   11.788640   11.186480
  C    -17.268060   12.891390   11.368000
  C    -17.704330   13.370500   12.595050
  C    -18.592290   14.463850   12.375310
  C    -19.291760   15.265210   13.241000
  C    -20.107700   16.272570   12.687520
  C    -20.925990   17.219030   13.278550
  C    -21.543880   18.010210   12.253420
  C    -21.100150   17.546480   11.032230
  C    -20.198040   16.454800   11.251310
  C    -19.500640   15.657970   10.385960
  C    -18.685640   14.644830   10.938810
  C    -17.882610   13.691780   10.343530
  C    -22.469790   19.100030   12.445270
  C    -22.917960   19.539730   13.618140
  H     -5.273870    5.004990   -5.903420
  H     -2.770500    0.861110   -7.191710
  H     -3.431440    4.897790  -10.597580
  H     -4.690480    5.850050   -8.515600
  H     -4.392980    0.196810   -1.960140
  H     -6.254860   -0.131160    3.736800
  H     -4.990690   -1.599090    2.175100
  H     -4.553350   -0.821260   -0.134510
  H     -7.562700    3.040470    3.206950
  H     -8.871620    7.134770    0.713090
  H     -7.556440    5.372000   -0.383610
  H    -10.296680    3.878710    6.117240
  H     -9.263190    2.874240    5.095870
  H    -11.745080    4.389120    4.148930
  H    -11.656550    2.654680    4.466200
  H    -10.728260    3.358310    3.140570
  H     -7.226760    5.950770    5.219950
  H     -7.238490    4.211010    5.504660
  H     -8.601840    6.325660    7.238700
  H     -7.140580    5.424000    7.624000
  H     -8.682090    4.581310    7.532730
  H    -10.840500    6.257130    6.613210
  H    -11.726180    9.576220    4.052660
  H    -10.329230    8.609340    2.272410
  H    -12.746700    9.502880    6.118280
  H    -12.041870    7.222750    8.030080
  H    -12.509400    6.546840   10.066000
  H    -13.117780    5.715020   13.557490
  H    -12.866510    4.395470   10.812300
  H    -12.391840    3.698540   12.434460
  H    -14.506340    7.323520   14.532170
  H    -15.597970    6.187510   13.740240
  H    -16.109130    7.856290   14.024080
  H    -15.971160    9.315860   12.260880
  H    -16.207980   11.894360    9.097640
  H    -16.048440   11.316170   12.097690
  H    -17.425330   12.984950   13.558710
  H    -19.229540   15.137090   14.312700
  H    -21.077810   17.345890   14.334910
  H    -21.378960   17.930300   10.067690
  H    -19.562950   15.785480    9.314040
  H    -17.740490   13.563760    9.285820
  H    -22.807740   19.575160   11.532320
  H    -22.611950   19.100810   14.552290
  H    -23.610320   20.361070   13.684310

 Total Charge           Charge          ....    0
 Multiplicity           Mult            ....    1
 Number of Electrons    NEL             ....  530
 Basis Dimension        Dim             .... 1287

ORBITAL ENERGIES
----------------

  NO   OCC          E(Eh)            E(eV)
   0   2.0000     -88.971992     -2421.0510
   1   2.0000     -88.959208     -2420.7031
   2   2.0000     -88.953773     -2420.5552
   3   2.0000     -19.209418      -522.7148
   4   2.0000     -14.413774      -392.2187
   5   2.0000     -14.409968      -392.1152
   6   2.0000     -14.402576      -391.9140
   7   2.0000     -10.357595      -281.8445
   8   2.0000     -10.330615      -281.1103
   9   2.0000     -10.327428      -281.0236
  10   2.0000     -10.317900      -280.7643
  11   2.0000     -10.314335      -280.6673
  12   2.0000     -10.313669      -280.6492
  13   2.0000     -10.313444      -280.6431
  14   2.0000     -10.312129      -280.6073
  15   2.0000     -10.311714      -280.5960
  16   2.0000     -10.309589      -280.5382
  17   2.0000     -10.307039      -280.4688
  18   2.0000     -10.306831      -280.4631
  19   2.0000     -10.298817      -280.2451
  20   2.0000     -10.297436      -280.2075
  21   2.0000     -10.296305      -280.1767
  22   2.0000     -10.296258      -280.1754
  23   2.0000     -10.294640      -280.1314
  24   2.0000     -10.293965      -280.1130
  25   2.0000     -10.293790      -280.1083
  26   2.0000     -10.293743      -280.1070
  27   2.0000     -10.293259      -280.0938
  28   2.0000     -10.290491      -280.0185
  29   2.0000     -10.288369      -279.9607
  30   2.0000     -10.285131      -279.8726
  31   2.0000     -10.282366      -279.7974
  32   2.0000     -10.282137      -279.7912
  33   2.0000     -10.280823      -279.7554
  34   2.0000     -10.280131      -279.7366
  35   2.0000     -10.280123      -279.7364
  36   2.0000     -10.276746      -279.6445
  37   2.0000     -10.276384      -279.6346
  38   2.0000     -10.275623      -279.6139
  39   2.0000     -10.274998      -279.5969
  40   2.0000     -10.274037      -279.5708
  41   2.0000     -10.273894      -279.5669
  42   2.0000     -10.272945      -279.5410
  43   2.0000     -10.272510      -279.5292
  44   2.0000     -10.271885      -279.5122
  45   2.0000     -10.271748      -279.5085
  46   2.0000     -10.271726      -279.5079
  47   2.0000     -10.269862      -279.4571
  48   2.0000     -10.269804      -279.4556
  49   2.0000     -10.269493      -279.4471
  50   2.0000     -10.268289      -279.4143
  51   2.0000     -10.268022      -279.4071
  52   2.0000     -10.267812      -279.4014
  53   2.0000     -10.267783      -279.4006
  54   2.0000     -10.267463      -279.3919
  55   2.0000     -10.266659      -279.3700
  56   2.0000     -10.266362      -279.3619
  57   2.0000     -10.266152      -279.3562
  58   2.0000     -10.265963      -279.3511
  59   2.0000     -10.265879      -279.3488
  60   2.0000     -10.264895      -279.3220
  61   2.0000     -10.264807      -279.3196
  62   2.0000     -10.263281      -279.2781
  63   2.0000     -10.262896      -279.2676
  64   2.0000     -10.262710      -279.2625
  65   2.0000     -10.262341      -279.2525
  66   2.0000     -10.262187      -279.2483
  67   2.0000     -10.261868      -279.2396
  68   2.0000     -10.261713      -279.2354
  69   2.0000     -10.261242      -279.2226
  70   2.0000     -10.260674      -279.2071
  71   2.0000     -10.259754      -279.1821
  72   2.0000     -10.255651      -279.0705
  73   2.0000     -10.249560      -278.9047
  74   2.0000     -10.243622      -278.7431
  75   2.0000      -8.064818      -219.4548
  76   2.0000      -8.055448      -219.1999
  77   2.0000      -8.049048      -219.0257
  78   2.0000      -6.033871      -164.1900
  79   2.0000      -6.029305      -164.0657
  80   2.0000      -6.027870      -164.0267
  81   2.0000      -6.024971      -163.9478
  82   2.0000      -6.020653      -163.8303
  83   2.0000      -6.017939      -163.7565
  84   2.0000      -6.017124      -163.7343
  85   2.0000      -6.014033      -163.6502
  86   2.0000      -6.011834      -163.5903
  87   2.0000      -1.123741       -30.5786
  88   2.0000      -1.051917       -28.6241
  89   2.0000      -1.010917       -27.5085
  90   2.0000      -1.000457       -27.2238
  91   2.0000      -0.988066       -26.8867
  92   2.0000      -0.986941       -26.8560
  93   2.0000      -0.984815       -26.7982
  94   2.0000      -0.982852       -26.7448
  95   2.0000      -0.981820       -26.7167
  96   2.0000      -0.974791       -26.5254
  97   2.0000      -0.957185       -26.0463
  98   2.0000      -0.945188       -25.7199
  99   2.0000      -0.936580       -25.4857
 100   2.0000      -0.924702       -25.1624
 101   2.0000      -0.918557       -24.9952
 102   2.0000      -0.905333       -24.6354
 103   2.0000      -0.902733       -24.5646
 104   2.0000      -0.891498       -24.2589
 105   2.0000      -0.891152       -24.2495
 106   2.0000      -0.878514       -23.9056
 107   2.0000      -0.872731       -23.7482
 108   2.0000      -0.870290       -23.6818
 109   2.0000      -0.867239       -23.5988
 110   2.0000      -0.859098       -23.3772
 111   2.0000      -0.857055       -23.3216
 112   2.0000      -0.853098       -23.2140
 113   2.0000      -0.847063       -23.0498
 114   2.0000      -0.839779       -22.8515
 115   2.0000      -0.834857       -22.7176
 116   2.0000      -0.831778       -22.6338
 117   2.0000      -0.828781       -22.5523
 118   2.0000      -0.824781       -22.4434
 119   2.0000      -0.814863       -22.1736
 120   2.0000      -0.810070       -22.0431
 121   2.0000      -0.798980       -21.7413
 122   2.0000      -0.793420       -21.5900
 123   2.0000      -0.786529       -21.4025
 124   2.0000      -0.770992       -20.9798
 125   2.0000      -0.764809       -20.8115
 126   2.0000      -0.762429       -20.7467
 127   2.0000      -0.750713       -20.4280
 128   2.0000      -0.748358       -20.3639
 129   2.0000      -0.740472       -20.1493
 130   2.0000      -0.733775       -19.9670
 131   2.0000      -0.733051       -19.9473
 132   2.0000      -0.718389       -19.5484
 133   2.0000      -0.713872       -19.4254
 134   2.0000      -0.708473       -19.2785
 135   2.0000      -0.700345       -19.0574
 136   2.0000      -0.689440       -18.7606
 137   2.0000      -0.687799       -18.7160
 138   2.0000      -0.681787       -18.5524
 139   2.0000      -0.677253       -18.4290
 140   2.0000      -0.675011       -18.3680
 141   2.0000      -0.670390       -18.2422
 142   2.0000      -0.665433       -18.1073
 143   2.0000      -0.664265       -18.0756
 144   2.0000      -0.656047       -17.8519
 145   2.0000      -0.652410       -17.7530
 146   2.0000      -0.646162       -17.5830
 147   2.0000      -0.642122       -17.4730
 148   2.0000      -0.638322       -17.3696
 149   2.0000      -0.631119       -17.1736
 150   2.0000      -0.624057       -16.9815
 151   2.0000      -0.618516       -16.8307
 152   2.0000      -0.618082       -16.8189
 153   2.0000      -0.612380       -16.6637
 154   2.0000      -0.609399       -16.5826
 155   2.0000      -0.600512       -16.3408
 156   2.0000      -0.593466       -16.1490
 157   2.0000      -0.590559       -16.0699
 158   2.0000      -0.588210       -16.0060
 159   2.0000      -0.584878       -15.9153
 160   2.0000      -0.579127       -15.7589
 161   2.0000      -0.577924       -15.7261
 162   2.0000      -0.574866       -15.6429
 163   2.0000      -0.572856       -15.5882
 164   2.0000      -0.560752       -15.2588
 165   2.0000      -0.554888       -15.0993
 166   2.0000      -0.553894       -15.0722
 167   2.0000      -0.546594       -14.8736
 168   2.0000      -0.543583       -14.7916
 169   2.0000      -0.538678       -14.6582
 170   2.0000      -0.537404       -14.6235
 171   2.0000      -0.534871       -14.5546
 172   2.0000      -0.532614       -14.4932
 173   2.0000      -0.531928       -14.4745
 174   2.0000      -0.529840       -14.4177
 175   2.0000      -0.528383       -14.3780
 176   2.0000      -0.526294       -14.3212
 177   2.0000      -0.525837       -14.3088
 178   2.0000      -0.520942       -14.1755
 179   2.0000      -0.518032       -14.0964
 180   2.0000      -0.516776       -14.0622
 181   2.0000      -0.514789       -14.0081
 182   2.0000      -0.514344       -13.9960
 183   2.0000      -0.510111       -13.8808
 184   2.0000      -0.509624       -13.8676
 185   2.0000      -0.506047       -13.7702
 186   2.0000      -0.503882       -13.7113
 187   2.0000      -0.500914       -13.6306
 188   2.0000      -0.500410       -13.6168
 189   2.0000      -0.496777       -13.5180
 190   2.0000      -0.492813       -13.4101
 191   2.0000      -0.490655       -13.3514
 192   2.0000      -0.489149       -13.3104
 193   2.0000      -0.485652       -13.2153
 194   2.0000      -0.485003       -13.1976
 195   2.0000      -0.484077       -13.1724
 196   2.0000      -0.482602       -13.1323
 197   2.0000      -0.481416       -13.1000
 198   2.0000      -0.480653       -13.0792
 199   2.0000      -0.479409       -13.0454
 200   2.0000      -0.475676       -12.9438
 201   2.0000      -0.469898       -12.7866
 202   2.0000      -0.468755       -12.7555
 203   2.0000      -0.466149       -12.6846
 204   2.0000      -0.463983       -12.6256
 205   2.0000      -0.461182       -12.5494
 206   2.0000      -0.459593       -12.5062
 207   2.0000      -0.457086       -12.4379
 208   2.0000      -0.454995       -12.3810
 209   2.0000      -0.452780       -12.3208
 210   2.0000      -0.452316       -12.3082
 211   2.0000      -0.450034       -12.2461
 212   2.0000      -0.446369       -12.1463
 213   2.0000      -0.445681       -12.1276
 214   2.0000      -0.443231       -12.0609
 215   2.0000      -0.443015       -12.0551
 216   2.0000      -0.442265       -12.0346
 217   2.0000      -0.440565       -11.9884
 218   2.0000      -0.435001       -11.8370
 219   2.0000      -0.433925       -11.8077
 220   2.0000      -0.431441       -11.7401
 221   2.0000      -0.429403       -11.6847
 222   2.0000      -0.427321       -11.6280
 223   2.0000      -0.426323       -11.6008
 224   2.0000      -0.424546       -11.5525
 225   2.0000      -0.422466       -11.4959
 226   2.0000      -0.418740       -11.3945
 227   2.0000      -0.418291       -11.3823
 228   2.0000      -0.417314       -11.3557
 229   2.0000      -0.415746       -11.3130
 230   2.0000      -0.415387       -11.3032
 231   2.0000      -0.410808       -11.1786
 232   2.0000      -0.408982       -11.1290
 233   2.0000      -0.406047       -11.0491
 234   2.0000      -0.403366       -10.9762
 235   2.0000      -0.402414       -10.9503
 236   2.0000      -0.400268       -10.8918
 237   2.0000      -0.397843       -10.8258
 238   2.0000      -0.396745       -10.7960
 239   2.0000      -0.391567       -10.6551
 240   2.0000      -0.387965       -10.5571
 241   2.0000      -0.384595       -10.4654
 242   2.0000      -0.381908       -10.3922
 243   2.0000      -0.377401       -10.2696
 244   2.0000      -0.369003       -10.0411
 245   2.0000      -0.365572        -9.9477
 246   2.0000      -0.362533        -9.8650
 247   2.0000      -0.358068        -9.7435
 248   2.0000      -0.345803        -9.4098
 249   2.0000      -0.338290        -9.2053
 250   2.0000      -0.334107        -9.0915
 251   2.0000      -0.327685        -8.9168
 252   2.0000      -0.325531        -8.8581
 253   2.0000      -0.323103        -8.7921
 254   2.0000      -0.317547        -8.6409
 255   2.0000      -0.312578        -8.5057
 256   2.0000      -0.306190        -8.3318
 257   2.0000      -0.301829        -8.2132
 258   2.0000      -0.289840        -7.8870
 259   2.0000      -0.288798        -7.8586
 260   2.0000      -0.283010        -7.7011
 261   2.0000      -0.265036        -7.2120
 262   2.0000      -0.252402        -6.8682
 263   2.0000      -0.241285        -6.5657
 264   2.0000      -0.207097        -5.6354
 265   0.0000      -0.094255        -2.5648
 266   0.0000      -0.090288        -2.4569
 267   0.0000      -0.059318        -1.6141
 268   0.0000      -0.053124        -1.4456
 269   0.0000      -0.031907        -0.8682

MULLIKEN ATOMIC CHARGES
-----------------------
   0 C :    0.329631
   1 C :   -0.373052
   2 C :   -0.186961
   3 N :    0.142026
   4 C :   -0.183932
   5 N :    0.133235
   6 C :    0.006093
   7 C :   -0.004295
   8 C :   -0.074754
   9 C :    0.114709
  10 C :   -0.097053
  11 C :   -0.025157
  12 S :    0.136844
  13 C :   -0.050707
  14 C :    0.024833
  15 C :    0.149428
  16 O :   -0.192981
  17 C :   -0.104106
  18 C :   -0.029076
  19 C :   -0.077225
  20 C :    0.093977
  21 C :    0.021397
  22 N :   -0.039279
  23 C :    0.034416
  24 C :    0.011154
  25 C :    0.005211
  26 C :   -0.062767
  27 S :    0.205721
  28 C :    0.079910
  29 C :   -0.096751
  30 C :    0.023858
  31 C :    0.110357
  32 C :   -0.050621
  33 C :   -0.035335
  34 C :    0.088785
  35 C :    0.029902
  36 C :   -0.126228
  37 C :    0.049770
  38 C :    0.027150
  39 C :    0.077903
  40 C :    0.032839
  41 C :   -0.096270
  42 C :    0.137138
  43 C :   -0.021464
  44 C :   -0.044433
  45 C :   -0.033290
  46 C :    0.019534
  47 C :   -0.095626
  48 S :    0.131952
  49 C :   -0.118079
  50 C :    0.134199
  51 C :    0.122831
  52 C :   -0.113047
  53 C :    0.085616
  54 C :   -0.038024
  55 C :   -0.013299
  56 C :   -0.078913
  57 C :    0.098963
  58 C :   -0.105223
  59 C :    0.036646
  60 C :   -0.005792
  61 C :    0.076932
  62 C :   -0.044363
  63 C :    0.067839
  64 C :   -0.008693
  65 C :    0.046096
  66 C :   -0.026525
  67 C :    0.065112
  68 C :   -0.032512
  69 C :    0.062726
  70 C :   -0.007634
  71 C :    0.050994
  72 C :   -0.032533
  73 C :    0.013457
  74 C :   -0.029006
  75 H :   -0.016920
  76 H :   -0.008281
  77 H :    0.035306
  78 H :   -0.010212
  79 H :   -0.022467
  80 H :    0.002315
  81 H :    0.005361
  82 H :    0.017605
  83 H :   -0.022903
  84 H :   -0.034391
  85 H :   -0.002058
  86 H :    0.002416
  87 H :    0.003307
  88 H :    0.020227
  89 H :    0.007405
  90 H :    0.020576
  91 H :    0.003024
  92 H :    0.001161
  93 H :    0.018471
  94 H :    0.012285
  95 H :    0.001295
  96 H :   -0.048054
  97 H :   -0.030721
  98 H :   -0.036087
  99 H :   -0.025483
 100 H :   -0.021075
 101 H :   -0.040617
 102 H :   -0.002919
 103 H :    0.017601
 104 H :    0.021078
 105 H :    0.028885
 106 H :    0.029153
 107 H :    0.007739
 108 H :   -0.044716
 109 H :   -0.026989
 110 H :   -0.023351
 111 H :   -0.034151
 112 H :   -0.027618
 113 H :   -0.025930
 114 H :   -0.031307
 115 H :   -0.026924
 116 H :   -0.023030
 117 H :   -0.020470
 118 H :    0.006990
 119 H :    0.020298
Sum of atomic charges:   -0.0000000

LOEWDIN ATOMIC CHARGES
----------------------
   0 C :    0.080219
   1 C :   -0.159488
   2 C :   -0.019073
   3 N :   -0.065268
   4 C :   -0.015106
   5 N :   -0.073244
   6 C :   -0.021428
   7 C :   -0.051326
   8 C :    0.019252
   9 C :   -0.037608
  10 C :   -0.147375
  11 C :   -0.009937
  12 S :    0.425955
  13 C :   -0.152684
  14 C :   -0.058795
  15 C :    0.081631
  16 O :   -0.182499
  17 C :   -0.124932
  18 C :    0.048325
  19 C :   -0.203289
  20 C :   -0.030493
  21 C :   -0.038447
  22 N :   -0.055334
  23 C :    0.023784
  24 C :   -0.032057
  25 C :    0.019945
  26 C :   -0.129709
  27 S :    0.568256
  28 C :   -0.053759
  29 C :    0.000989
  30 C :    0.000894
  31 C :   -0.000895
  32 C :   -0.022698
  33 C :   -0.011355
  34 C :   -0.024331
  35 C :    0.009404
  36 C :   -0.034161
  37 C :   -0.015859
  38 C :   -0.056383
  39 C :   -0.008767
  40 C :   -0.059681
  41 C :   -0.021880
  42 C :   -0.018137
  43 C :   -0.020502
  44 C :   -0.016260
  45 C :   -0.034196
  46 C :   -0.035585
  47 C :   -0.181271
  48 S :    0.465660
  49 C :   -0.168909
  50 C :   -0.045949
  51 C :   -0.042455
  52 C :   -0.007163
  53 C :   -0.028785
  54 C :   -0.019759
  55 C :   -0.041520
  56 C :   -0.019220
  57 C :   -0.045510
  58 C :   -0.027299
  59 C :   -0.056613
  60 C :   -0.020517
  61 C :   -0.055499
  62 C :   -0.001908
  63 C :   -0.054398
  64 C :    0.061492
  65 C :   -0.060004
  66 C :    0.039964
  67 C :   -0.056845
  68 C :    0.005774
  69 C :   -0.054013
  70 C :    0.062933
  71 C :   -0.057650
  72 C :    0.034668
  73 C :   -0.020111
  74 C :   -0.056137
  75 H :    0.038344
  76 H :    0.040255
  77 H :    0.028026
  78 H :    0.033997
  79 H :    0.046000
  80 H :    0.022675
  81 H :    0.037787
  82 H :    0.040379
  83 H :    0.024651
  84 H :    0.027941
  85 H :    0.022632
  86 H :    0.018190
  87 H :    0.022690
  88 H :    0.025297
  89 H :    0.023372
  90 H :    0.025113
  91 H :    0.026337
  92 H :    0.022189
  93 H :    0.024050
  94 H :    0.027605
  95 H :    0.019027
  96 H :    0.020917
  97 H :    0.025704
  98 H :    0.026780
  99 H :    0.018620
 100 H :    0.029060
 101 H :    0.023935
 102 H :    0.028445
 103 H :    0.020479
 104 H :    0.024307
 105 H :    0.033815
 106 H :    0.034475
 107 H :    0.029366
 108 H :    0.023586
 109 H :    0.022771
 110 H :    0.027567
 111 H :    0.021331
 112 H :    0.033481
 113 H :    0.023934
 114 H :    0.022595
 115 H :    0.033751
 116 H :    0.023107
 117 H :    0.028961
 118 H :    0.017365
 119 H :    0.024022

  Mayer bond orders larger than 0.100000
B(  0-C ,  1-C ) :   1.5866 B(  0-C ,  6-C ) :   0.9902 B(  0-C , 17-C ) :   1.1130
B(  1-C ,  2-C ) :   1.1509 B(  1-C ,  4-C ) :   1.1560 B(  2-C ,  3-N ) :   2.9646
B(  4-C ,  5-N ) :   2.9692 B(  6-C ,  7-C ) :   1.2732 B(  6-C , 11-C ) :   1.4236
B(  7-C ,  8-C ) :   1.4304 B(  7-C , 15-C ) :   0.9573 B(  8-C ,  9-C ) :   1.2366
B(  8-C , 75-H ) :   1.0164 B(  9-C , 10-C ) :   1.3137 B(  9-C , 14-C ) :   1.1701
B( 10-C , 11-C ) :   1.3139 B( 10-C , 12-S ) :   1.0973 B( 11-C , 76-H ) :   0.9810
B( 12-S , 13-C ) :   1.1276 B( 13-C , 14-C ) :   1.6276 B( 13-C , 77-H ) :   0.9689
B( 14-C , 78-H ) :   0.9990 B( 15-C , 16-O ) :   2.1241 B( 15-C , 17-C ) :   0.9867
B( 17-C , 18-C ) :   1.4386 B( 18-C , 19-C ) :   1.3630 B( 18-C , 79-H ) :   0.9302
B( 19-C , 20-C ) :   1.2108 B( 19-C , 27-S ) :   1.0747 B( 20-C , 21-C ) :   1.2444
B( 20-C , 25-C ) :   1.2683 B( 21-C , 22-N ) :   1.4061 B( 21-C , 26-C ) :   1.2462
B( 22-N , 23-C ) :   1.6573 B( 22-N , 83-H ) :   0.1068 B( 23-C , 24-C ) :   1.2313
B( 23-C , 80-H ) :   0.9775 B( 24-C , 25-C ) :   1.5403 B( 24-C , 81-H ) :   0.9710
B( 25-C , 82-H ) :   0.9705 B( 26-C , 27-S ) :   1.2112 B( 26-C , 28-C ) :   1.1308
B( 28-C , 29-C ) :   1.3078 B( 28-C , 33-C ) :   1.2823 B( 29-C , 30-C ) :   1.3741
B( 29-C , 83-H ) :   0.9789 B( 30-C , 31-C ) :   1.3654 B( 30-C , 36-C ) :   0.9241
B( 31-C , 32-C ) :   1.3143 B( 31-C , 34-C ) :   1.0053 B( 32-C , 33-C ) :   1.4247
B( 32-C , 84-H ) :   0.9913 B( 33-C , 85-H ) :   0.9814 B( 34-C , 35-C ) :   1.3595
B( 34-C , 44-C ) :   1.3335 B( 35-C , 36-C ) :   0.9186 B( 35-C , 41-C ) :   1.4238
B( 36-C , 37-C ) :   1.0328 B( 36-C , 39-C ) :   1.0123 B( 37-C , 38-C ) :   1.1043
B( 37-C , 86-H ) :   0.9377 B( 37-C , 87-H ) :   0.9392 B( 38-C , 88-H ) :   0.9647
B( 38-C , 89-H ) :   0.9647 B( 38-C , 90-H ) :   0.9628 B( 39-C , 40-C ) :   1.1142
B( 39-C , 91-H ) :   0.9380 B( 39-C , 92-H ) :   0.9381 B( 40-C , 93-H ) :   0.9605
B( 40-C , 94-H ) :   0.9596 B( 40-C , 95-H ) :   0.9627 B( 41-C , 42-C ) :   1.2854
B( 41-C , 96-H ) :   0.9918 B( 42-C , 43-C ) :   1.3247 B( 42-C , 45-C ) :   1.0879
B( 43-C , 44-C ) :   1.3820 B( 43-C , 97-H ) :   0.9942 B( 44-C , 98-H ) :   0.9903
B( 45-C , 46-C ) :   1.6363 B( 45-C , 99-H ) :   0.9837 B( 46-C , 47-C ) :   1.1906
B( 46-C ,100-H ) :   0.9629 B( 47-C , 48-S ) :   1.1298 B( 47-C , 49-C ) :   0.1044
B( 47-C , 51-C ) :   1.3001 B( 48-S , 49-C ) :   1.1461 B( 49-C , 50-C ) :   1.3391
B( 49-C , 59-C ) :   1.1469 B( 50-C , 51-C ) :   1.2092 B( 50-C , 58-C ) :   1.1796
B( 51-C , 52-C ) :   1.1961 B( 52-C , 53-C ) :   1.5211 B( 52-C ,101-H ) :   0.9914
B( 53-C , 54-C ) :   1.0290 B( 53-C , 56-C ) :   1.2012 B( 54-C , 55-C ) :   1.9790
B( 54-C ,102-H ) :   0.9508 B( 55-C ,103-H ) :   0.9567 B( 55-C ,104-H ) :   0.9495
B( 56-C , 57-C ) :   1.0863 B( 56-C , 58-C ) :   1.5567 B( 57-C ,105-H ) :   0.9406
B( 57-C ,106-H ) :   0.9440 B( 57-C ,107-H ) :   0.9541 B( 58-C ,108-H ) :   0.9890
B( 59-C , 60-C ) :   1.6440 B( 59-C ,109-H ) :   0.9458 B( 60-C , 61-C ) :   1.1184
B( 60-C ,110-H ) :   0.9752 B( 61-C , 62-C ) :   1.4792 B( 61-C , 72-C ) :   1.1248
B( 62-C , 63-C ) :   1.0889 B( 62-C ,111-H ) :   1.0197 B( 63-C , 64-C ) :   1.4635
B( 63-C , 71-C ) :   1.1260 B( 64-C , 65-C ) :   1.1240 B( 64-C ,112-H ) :   1.0045
B( 65-C , 66-C ) :   1.4584 B( 65-C , 69-C ) :   1.1256 B( 66-C , 67-C ) :   1.1305
B( 66-C ,113-H ) :   1.0074 B( 67-C , 68-C ) :   1.5230 B( 67-C , 73-C ) :   1.0859
B( 68-C , 69-C ) :   1.0755 B( 68-C ,114-H ) :   1.0175 B( 69-C , 70-C ) :   1.4829
B( 70-C , 71-C ) :   1.1140 B( 70-C ,115-H ) :   1.0042 B( 71-C , 72-C ) :   1.4662
B( 72-C ,116-H ) :   1.0048 B( 73-C , 74-C ) :   1.9301 B( 73-C ,117-H ) :   0.9666
B( 74-C ,118-H ) :   0.9528 B( 74-C ,119-H ) :   0.9504

-----------------------------------------------------------------------------
         ABSORPTION SPECTRUM VIA TRANSITION ELECTRIC DIPOLE MOMENTS
-----------------------------------------------------------------------------
State   Energy  Wavelength   fosc         T2         TX        TY        TZ
        (cm-1)    (nm)                  (au**2)     (au)      (au)      (au)
-----------------------------------------------------------------------------
   0    8404.6   1189.8   0.030227237   1.18401   0.63525  -0.68598  -0.55668
   1   14551.3    687.2   2.252087028  50.95173  -3.94167   3.33070   4.93167
   2   17058.0    586.2   0.045150337   0.87138   0.51076  -0.60356  -0.49620
   3   18711.3    534.4   0.125055108   2.20025  -0.95815   1.07089  -0.36797
   4   19620.9    509.7   0.819747694  13.75426   2.12436  -1.80772  -2.44408
   5   23118.6    432.6   0.210579399   2.99868  -1.11718   1.30634   0.20990
   6   23661.8    422.6   0.019470768   0.27090  -0.16980   0.41844  -0.25879
   7   25985.5    384.8   0.030016319   0.38028   0.24183  -0.54707   0.15002
   8   26500.4    377.4   0.055985734   0.69550   0.37620  -0.63936   0.38104
   9   27068.8    369.4   0.006882505   0.08371  -0.22180   0.16923   0.07664
  10   27547.3    363.0   0.293701287   3.50996   0.89291  -1.61000   0.34724
  11   27593.2    362.4   0.070120926   0.83661  -0.21323  -0.22853   0.85960
  12   28056.5    356.4   0.055259332   0.64841   0.31440  -0.00452  -0.74131
  13   28063.1    356.3   0.009463279   0.11101  -0.00037  -0.00875  -0.33307
  14   28302.2    353.3   0.282612867   3.28736  -0.34582   1.36720  -1.13953
  15   29254.6    341.8   0.245438039   2.76200   0.20887   0.79426  -1.44482
  16   29760.1    336.0   0.040205058   0.44476  -0.38364   0.41805   0.35044
  17   29765.5    336.0   0.215140965   2.37950   0.70581  -1.36331  -0.15075
  18   30218.9    330.9   0.115538277   1.25870   0.64046  -0.89929  -0.19947
  19   30304.2    330.0   0.098649774   1.07169   0.46310  -0.86277  -0.33595
  20   30420.7    328.7   0.017227114   0.18643  -0.17050   0.24441   0.31245
  21   31012.8    322.4   0.002932673   0.03113  -0.00091   0.09466  -0.14889
  22   31369.3    318.8   0.252146854   2.64621   0.89572  -1.32918  -0.27779
  23   31492.8    317.5   0.058802770   0.61470   0.28040   0.03411  -0.73137
  24   32207.7    310.5   0.010374815   0.10605  -0.16677   0.08752   0.26566
  25   32554.8    307.2   0.000103722   0.00105  -0.01643  -0.02713   0.00653
  26   32876.1    304.2   0.014342396   0.14362  -0.03232   0.29454  -0.23627
  27   32883.3    304.1   0.127935006   1.28083   0.17364  -0.89843   0.66596
  28   33523.0    298.3   0.241929339   2.37586   0.61509  -1.36367   0.37138
  29   33818.6    295.7   0.561046643   5.46159   0.22029  -1.67130   1.61858
  30   33941.6    294.6   0.048033616   0.46590   0.21418   0.12810  -0.63530
  31   34099.2    293.3   0.004036527   0.03897   0.13094  -0.12761  -0.07444
  32   35619.1    280.7   0.148793922   1.37524   0.70452  -0.82244  -0.44999
  33   35813.3    279.2   0.088621968   0.81465  -0.52822   0.42489   0.59591
  34   36144.0    276.7   0.038284374   0.34871   0.25347  -0.00650  -0.53331
  35   36563.1    273.5   0.024820772   0.22348  -0.20003   0.42787   0.01994
  36   36915.7    270.9   0.260250835   2.32090  -0.43878   1.33705  -0.58366
  37   37067.6    269.8   0.035904925   0.31889  -0.24267   0.50664   0.05759
  38   37359.1    267.7   0.166618034   1.46826  -0.72402   0.81263   0.53262
  39   37603.0    265.9   0.218359311   1.91172   0.14000   0.87236  -1.06353
  40   37975.1    263.3   0.166019743   1.43925  -0.71183   0.54778   0.79529
  41   38315.9    261.0   0.031656764   0.27200   0.32972  -0.05068  -0.40089
  42   38396.2    260.4   0.063812287   0.54713  -0.41263   0.61223  -0.04514
  43   38773.1    257.9   0.000817242   0.00694  -0.03471   0.07438  -0.01419
  44   38801.5    257.7   0.012248220   0.10392   0.23633  -0.15642  -0.15363
  45   39085.4    255.8   0.312262977   2.63016  -0.88197   0.50506   1.26380
  46   39267.5    254.7   0.036460363   0.30568  -0.12651  -0.28065   0.45924
  47   39505.1    253.1   0.002564100   0.02137   0.12129  -0.07721  -0.02636
  48   39576.0    252.7   0.283691245   2.35988   0.80279  -1.27282  -0.30880
  49   39659.0    252.1   0.020567527   0.17073  -0.06234   0.27185  -0.30486
  50   40002.3    250.0   0.095660614   0.78727   0.38900  -0.33388  -0.72420
  51   40308.8    248.1   0.048187073   0.39356   0.35726  -0.43360  -0.27914

FINAL SINGLE POINT ENERGY     -4048.222229141509

DIPOLE MOMENT
-------------
                                X             Y             Z
Electronic contribution:     68.01035     -38.07254    -112.66919
Nuclear contribution   :    -69.71576      40.29634     114.19279
                        -----------------------------------------
Total Dipole Moment    :     -1.70542       2.22380       1.52359
                        -----------------------------------------
Magnitude (a.u.)       :      3.18984
Magnitude (Debye)      :      8.10792

Rotational constants in cm-1:     0.001770     0.000159     0.000147
Rotational constants in MHz :    53.049187     4.781383     4.409297

                             ****ORCA TERMINATED NORMALLY****
TOTAL RUN TIME: 0 days 0 hours 13 minutes 3 seconds 26 msec
