                         Program Version 4.2.0 -  RELEASE  -
|  1> # ORCA input file
|  2> # SCF done       -191.697656451810          0.000643167894
|  3> ! CAM-B3LYP def2-SVP def2/J RIJCOSX Grid4 TightSCF
|  4> %maxcore 5000
|  5> %tddft
|  6>     Mode sTDDFT
|  7>     Ethresh 5.0
|  8>     maxcore 5000
|  9> end
| 10>
| 11> %pal
| 12>   nprocs 6
| 13>   end
| 14> * xyz 0 1
| 15>    C       -3.07395        -1.30590         0.21750
| 16>    C       -3.58289        -2.35244        -0.50691
| 17>    C       -3.00294        -3.63671        -0.55594
| 18>    N       -2.57584        -4.69924        -0.63980
| 19>    C       -4.76994        -2.30610        -1.26824
| 20>    N       -5.73835        -2.36483        -1.88249
| 21>    C       -1.91811        -1.36225         1.10283
| 22>    C       -1.78884        -0.11413         1.76175
| 23>    C       -0.79395         0.14041         2.67438
| 24>    C        0.11247        -0.88573         2.95713
| 25>    C       -0.02162        -2.12715         2.29093
| 26>    C       -1.02444        -2.38398         1.36351
| 27>    S        1.21153        -3.24296         2.78824
| 28>    C        1.87955        -2.06370         3.86338
| 29>    C        1.21682        -0.88676         3.85537
| 30>    C       -2.83977         0.80588         1.29107
| 31>    O       -2.93250         1.98483         1.56127
| 32>    C       -3.64898         0.02150         0.32047
| 33>    C       -4.63566         0.54165        -0.46006
| 34>    C       -5.31092         1.77105        -0.20128
| 35>    C       -5.74813         2.59202        -1.26189
| 36>    C       -6.37321         3.87082        -1.02752
| 37>    N       -6.64512         4.67112        -2.07047
| 38>    C       -6.39954         4.25406        -3.28815
| 39>    C       -5.85337         2.94924        -3.52124
| 40>    N       -5.52252         2.17302        -2.52003
| 41>    C       -5.65216         2.50117        -4.85072
| 42>    N       -5.50538         2.18803        -5.94284
| 43>    C       -6.69430         5.12075        -4.36909
| 44>    N       -6.94408         5.80585        -5.25296
| 45>    C       -6.63858         4.34819         0.27826
| 46>    C       -6.26973         3.48961         1.33012
| 47>    C       -5.63434         2.21264         1.09658
| 48>    N       -5.46700         1.52726         2.22708
| 49>    S       -5.99910         2.40997         3.45356
| 50>    N       -6.50220         3.68923         2.63231
| 51>    C       -7.22160         5.65287         0.50995
| 52>    C       -8.18708         6.17511        -0.36572
| 53>    C       -8.64939         7.45052        -0.17320
| 54>    C       -8.17267         8.23564         0.89189
| 55>    C       -7.25245         7.70961         1.79137
| 56>    C       -6.79215         6.42529         1.60006
| 57>    C       -8.77289         9.54369         0.79891
| 58>    C       -9.63169         9.56954        -0.31794
| 59>    C       -9.68207         8.20979        -0.97763
| 60>    C       -9.32453         8.26119        -2.47070
| 61>    C       -7.91069         8.77452        -2.71578
| 62>    C      -11.04297         7.51246        -0.74063
| 63>    C      -12.26006         8.22950        -1.30962
| 64>    C      -10.26188        10.73448        -0.68031
| 65>    C      -10.07671        11.89508         0.08731
| 66>    C       -9.22410        11.84698         1.19997
| 67>    C       -8.57389        10.68735         1.56184
| 68>    C      -10.72399        13.14441        -0.23805
| 69>    C      -11.82591        13.28552        -0.99662
| 70>    C      -12.48992        14.53499        -1.28236
| 71>    C      -11.79449        15.78050        -1.41400
| 72>    C      -10.44260        16.01264        -1.47090
| 73>    S      -10.07405        17.66664        -1.69275
| 74>    C      -11.72499        18.09131        -1.72739
| 75>    C      -12.54786        16.99567        -1.58122
| 76>    C      -13.97573        16.97356        -1.61749
| 77>    N      -14.64175        18.14965        -1.81629
| 78>    C      -14.62653        15.73892        -1.55521
| 79>    C      -13.85807        14.56099        -1.41164
| 80>    C      -16.07262        15.65849        -1.57272
| 81>    C      -16.80551        14.58817        -1.92812
| 82>    C      -18.23926        14.57887        -1.86774
| 83>    C      -19.04103        13.56369        -2.22297
| 84>    C      -18.56453        12.25789        -2.77973
| 85>    C      -20.53476        13.67048        -2.05933
| 86>    N      -21.20782        13.49217        -3.33238
| 87>    C      -20.92587        14.34634        -4.37569
| 88>    C      -21.73429        14.58945        -5.40085
| 89>    H       -0.72033         1.10231         3.15782
| 90>    H       -1.08063        -3.34365         0.87731
| 91>    H        2.74173        -2.32994         4.44337
| 92>    H        1.48828        -0.03863         4.45767
| 93>    H       -4.92535         0.03776        -1.37346
| 94>    H       -8.56173         5.56900        -1.17422
| 95>    H       -6.88955         8.30208         2.61776
| 96>    H       -6.05754         6.01140         2.27206
| 97>    H      -10.03326         8.91007        -2.98678
| 98>    H       -9.41787         7.25847        -2.89195
| 99>    H       -7.78858         9.77614        -2.30793
|100>    H       -7.70702         8.80526        -3.78324
|101>    H       -7.17855         8.11944        -2.24969
|102>    H      -11.17809         7.39549         0.33820
|103>    H      -10.98175         6.51252        -1.17560
|104>    H      -12.40520         9.19011        -0.82258
|105>    H      -13.14793         7.62512        -1.13547
|106>    H      -12.16294         8.38421        -2.38082
|107>    H      -10.87066        10.77986        -1.56954
|108>    H       -9.07940        12.74600         1.78247
|109>    H       -7.91188        10.67112         2.41474
|110>    H      -10.30552        14.01960         0.24098
|111>    H      -12.33384        12.40252        -1.36340
|112>    H       -9.64153        15.30340        -1.43915
|113>    H      -11.98703        19.11929        -1.88038
|114>    H      -14.15750        19.00690        -1.61892
|115>    H      -15.63946        18.16119        -1.69605
|116>    H      -14.39310        13.62782        -1.31851
|117>    H      -16.61282        16.54292        -1.25216
|118>    H      -16.31857        13.69424        -2.28568
|119>    H      -18.69532        15.48460        -1.48367
|120>    H      -17.69122        12.38502        -3.41326
|121>    H      -19.35685        11.80106        -3.36727
|122>    H      -18.30273        11.57653        -1.96913
|123>    H      -20.79304        14.63199        -1.58730
|124>    H      -20.87563        12.86645        -1.39730
|125>    H      -22.18122        13.22962        -3.26394
|126>    H      -19.93340        14.77436        -4.32868
|127>    H      -22.72157        14.16338        -5.45889
|128>    H      -21.42169        15.20554        -6.22206
|129> *
|130>
|131>                          ****END OF INPUT****

CARTESIAN COORDINATES (ANGSTROEM)
---------------------------------
  C     -3.073950   -1.305900    0.217500
  C     -3.582890   -2.352440   -0.506910
  C     -3.002940   -3.636710   -0.555940
  N     -2.575840   -4.699240   -0.639800
  C     -4.769940   -2.306100   -1.268240
  N     -5.738350   -2.364830   -1.882490
  C     -1.918110   -1.362250    1.102830
  C     -1.788840   -0.114130    1.761750
  C     -0.793950    0.140410    2.674380
  C      0.112470   -0.885730    2.957130
  C     -0.021620   -2.127150    2.290930
  C     -1.024440   -2.383980    1.363510
  S      1.211530   -3.242960    2.788240
  C      1.879550   -2.063700    3.863380
  C      1.216820   -0.886760    3.855370
  C     -2.839770    0.805880    1.291070
  O     -2.932500    1.984830    1.561270
  C     -3.648980    0.021500    0.320470
  C     -4.635660    0.541650   -0.460060
  C     -5.310920    1.771050   -0.201280
  C     -5.748130    2.592020   -1.261890
  C     -6.373210    3.870820   -1.027520
  N     -6.645120    4.671120   -2.070470
  C     -6.399540    4.254060   -3.288150
  C     -5.853370    2.949240   -3.521240
  N     -5.522520    2.173020   -2.520030
  C     -5.652160    2.501170   -4.850720
  N     -5.505380    2.188030   -5.942840
  C     -6.694300    5.120750   -4.369090
  N     -6.944080    5.805850   -5.252960
  C     -6.638580    4.348190    0.278260
  C     -6.269730    3.489610    1.330120
  C     -5.634340    2.212640    1.096580
  N     -5.467000    1.527260    2.227080
  S     -5.999100    2.409970    3.453560
  N     -6.502200    3.689230    2.632310
  C     -7.221600    5.652870    0.509950
  C     -8.187080    6.175110   -0.365720
  C     -8.649390    7.450520   -0.173200
  C     -8.172670    8.235640    0.891890
  C     -7.252450    7.709610    1.791370
  C     -6.792150    6.425290    1.600060
  C     -8.772890    9.543690    0.798910
  C     -9.631690    9.569540   -0.317940
  C     -9.682070    8.209790   -0.977630
  C     -9.324530    8.261190   -2.470700
  C     -7.910690    8.774520   -2.715780
  C    -11.042970    7.512460   -0.740630
  C    -12.260060    8.229500   -1.309620
  C    -10.261880   10.734480   -0.680310
  C    -10.076710   11.895080    0.087310
  C     -9.224100   11.846980    1.199970
  C     -8.573890   10.687350    1.561840
  C    -10.723990   13.144410   -0.238050
  C    -11.825910   13.285520   -0.996620
  C    -12.489920   14.534990   -1.282360
  C    -11.794490   15.780500   -1.414000
  C    -10.442600   16.012640   -1.470900
  S    -10.074050   17.666640   -1.692750
  C    -11.724990   18.091310   -1.727390
  C    -12.547860   16.995670   -1.581220
  C    -13.975730   16.973560   -1.617490
  N    -14.641750   18.149650   -1.816290
  C    -14.626530   15.738920   -1.555210
  C    -13.858070   14.560990   -1.411640
  C    -16.072620   15.658490   -1.572720
  C    -16.805510   14.588170   -1.928120
  C    -18.239260   14.578870   -1.867740
  C    -19.041030   13.563690   -2.222970
  C    -18.564530   12.257890   -2.779730
  C    -20.534760   13.670480   -2.059330
  N    -21.207820   13.492170   -3.332380
  C    -20.925870   14.346340   -4.375690
  C    -21.734290   14.589450   -5.400850
  H     -0.720330    1.102310    3.157820
  H     -1.080630   -3.343650    0.877310
  H      2.741730   -2.329940    4.443370
  H      1.488280   -0.038630    4.457670
  H     -4.925350    0.037760   -1.373460
  H     -8.561730    5.569000   -1.174220
  H     -6.889550    8.302080    2.617760
  H     -6.057540    6.011400    2.272060
  H    -10.033260    8.910070   -2.986780
  H     -9.417870    7.258470   -2.891950
  H     -7.788580    9.776140   -2.307930
  H     -7.707020    8.805260   -3.783240
  H     -7.178550    8.119440   -2.249690
  H    -11.178090    7.395490    0.338200
  H    -10.981750    6.512520   -1.175600
  H    -12.405200    9.190110   -0.822580
  H    -13.147930    7.625120   -1.135470
  H    -12.162940    8.384210   -2.380820
  H    -10.870660   10.779860   -1.569540
  H     -9.079400   12.746000    1.782470
  H     -7.911880   10.671120    2.414740
  H    -10.305520   14.019600    0.240980
  H    -12.333840   12.402520   -1.363400
  H     -9.641530   15.303400   -1.439150
  H    -11.987030   19.119290   -1.880380
  H    -14.157500   19.006900   -1.618920
  H    -15.639460   18.161190   -1.696050
  H    -14.393100   13.627820   -1.318510
  H    -16.612820   16.542920   -1.252160
  H    -16.318570   13.694240   -2.285680
  H    -18.695320   15.484600   -1.483670
  H    -17.691220   12.385020   -3.413260
  H    -19.356850   11.801060   -3.367270
  H    -18.302730   11.576530   -1.969130
  H    -20.793040   14.631990   -1.587300
  H    -20.875630   12.866450   -1.397300
  H    -22.181220   13.229620   -3.263940
  H    -19.933400   14.774360   -4.328680
  H    -22.721570   14.163380   -5.458890
  H    -21.421690   15.205540   -6.222060

 Total Charge           Charge          ....    0
 Multiplicity           Mult            ....    1
 Number of Electrons    NEL             ....  526
 Basis Dimension        Dim             .... 1248

ORBITAL ENERGIES
----------------

  NO   OCC          E(Eh)            E(eV)
   0   2.0000     -89.047386     -2423.1026
   1   2.0000     -88.966605     -2420.9044
   2   2.0000     -88.961234     -2420.7583
   3   2.0000     -19.214786      -522.8609
   4   2.0000     -14.465051      -393.6140
   5   2.0000     -14.464199      -393.5909
   6   2.0000     -14.455624      -393.3575
   7   2.0000     -14.449477      -393.1903
   8   2.0000     -14.431255      -392.6944
   9   2.0000     -14.429959      -392.6591
  10   2.0000     -14.425693      -392.5431
  11   2.0000     -14.414210      -392.2306
  12   2.0000     -14.412619      -392.1873
  13   2.0000     -14.401430      -391.8828
  14   2.0000     -10.386578      -282.6331
  15   2.0000     -10.380967      -282.4805
  16   2.0000     -10.366034      -282.0741
  17   2.0000     -10.354247      -281.7534
  18   2.0000     -10.350323      -281.6466
  19   2.0000     -10.343463      -281.4599
  20   2.0000     -10.343174      -281.4521
  21   2.0000     -10.341871      -281.4166
  22   2.0000     -10.339122      -281.3418
  23   2.0000     -10.329265      -281.0736
  24   2.0000     -10.323681      -280.9216
  25   2.0000     -10.323613      -280.9198
  26   2.0000     -10.320596      -280.8377
  27   2.0000     -10.317865      -280.7634
  28   2.0000     -10.316650      -280.7303
  29   2.0000     -10.315803      -280.7073
  30   2.0000     -10.314982      -280.6849
  31   2.0000     -10.314738      -280.6783
  32   2.0000     -10.312267      -280.6111
  33   2.0000     -10.305897      -280.4377
  34   2.0000     -10.302821      -280.3540
  35   2.0000     -10.302079      -280.3338
  36   2.0000     -10.300223      -280.2833
  37   2.0000     -10.298766      -280.2437
  38   2.0000     -10.293590      -280.1028
  39   2.0000     -10.293080      -280.0890
  40   2.0000     -10.289906      -280.0026
  41   2.0000     -10.289825      -280.0004
  42   2.0000     -10.289607      -279.9944
  43   2.0000     -10.284670      -279.8601
  44   2.0000     -10.279603      -279.7222
  45   2.0000     -10.278102      -279.6814
  46   2.0000     -10.277476      -279.6643
  47   2.0000     -10.276651      -279.6419
  48   2.0000     -10.275974      -279.6235
  49   2.0000     -10.275713      -279.6164
  50   2.0000     -10.274423      -279.5813
  51   2.0000     -10.273764      -279.5633
  52   2.0000     -10.272806      -279.5373
  53   2.0000     -10.270039      -279.4620
  54   2.0000     -10.268164      -279.4109
  55   2.0000     -10.268020      -279.4070
  56   2.0000     -10.267788      -279.4007
  57   2.0000     -10.267456      -279.3917
  58   2.0000     -10.266737      -279.3721
  59   2.0000     -10.266039      -279.3531
  60   2.0000     -10.264892      -279.3219
  61   2.0000     -10.263898      -279.2949
  62   2.0000     -10.262679      -279.2617
  63   2.0000     -10.262439      -279.2551
  64   2.0000     -10.261804      -279.2379
  65   2.0000     -10.260473      -279.2017
  66   2.0000     -10.259541      -279.1763
  67   2.0000     -10.259434      -279.1734
  68   2.0000     -10.257427      -279.1188
  69   2.0000     -10.256277      -279.0875
  70   2.0000     -10.250956      -278.9427
  71   2.0000     -10.250009      -278.9169
  72   2.0000     -10.238807      -278.6121
  73   2.0000     -10.223233      -278.1883
  74   2.0000      -8.138612      -221.4629
  75   2.0000      -8.062891      -219.4024
  76   2.0000      -8.057063      -219.2438
  77   2.0000      -6.109524      -166.2486
  78   2.0000      -6.101790      -166.0381
  79   2.0000      -6.101692      -166.0355
  80   2.0000      -6.032414      -164.1503
  81   2.0000      -6.028097      -164.0329
  82   2.0000      -6.025975      -163.9751
  83   2.0000      -6.024539      -163.9361
  84   2.0000      -6.021615      -163.8565
  85   2.0000      -6.020224      -163.8186
  86   2.0000      -1.143491       -31.1160
  87   2.0000      -1.128800       -30.7162
  88   2.0000      -1.123145       -30.5623
  89   2.0000      -1.049876       -28.5686
  90   2.0000      -1.020369       -27.7656
  91   2.0000      -1.018985       -27.7280
  92   2.0000      -1.014919       -27.6174
  93   2.0000      -1.007404       -27.4128
  94   2.0000      -1.004862       -27.3437
  95   2.0000      -1.004186       -27.3253
  96   2.0000      -0.997483       -27.1429
  97   2.0000      -0.991680       -26.9850
  98   2.0000      -0.989218       -26.9180
  99   2.0000      -0.984621       -26.7929
 100   2.0000      -0.979494       -26.6534
 101   2.0000      -0.978381       -26.6231
 102   2.0000      -0.945287       -25.7226
 103   2.0000      -0.931072       -25.3358
 104   2.0000      -0.925364       -25.1804
 105   2.0000      -0.918515       -24.9941
 106   2.0000      -0.910760       -24.7830
 107   2.0000      -0.904433       -24.6109
 108   2.0000      -0.901877       -24.5413
 109   2.0000      -0.890230       -24.2244
 110   2.0000      -0.883286       -24.0354
 111   2.0000      -0.880823       -23.9684
 112   2.0000      -0.869725       -23.6664
 113   2.0000      -0.857268       -23.3275
 114   2.0000      -0.847524       -23.0623
 115   2.0000      -0.837046       -22.7772
 116   2.0000      -0.834064       -22.6960
 117   2.0000      -0.831144       -22.6166
 118   2.0000      -0.829953       -22.5842
 119   2.0000      -0.824487       -22.4354
 120   2.0000      -0.822818       -22.3900
 121   2.0000      -0.822733       -22.3877
 122   2.0000      -0.806367       -21.9424
 123   2.0000      -0.804559       -21.8932
 124   2.0000      -0.798057       -21.7162
 125   2.0000      -0.786005       -21.3883
 126   2.0000      -0.770303       -20.9610
 127   2.0000      -0.762448       -20.7473
 128   2.0000      -0.760531       -20.6951
 129   2.0000      -0.756180       -20.5767
 130   2.0000      -0.744396       -20.2560
 131   2.0000      -0.738895       -20.1064
 132   2.0000      -0.732835       -19.9414
 133   2.0000      -0.719393       -19.5757
 134   2.0000      -0.710533       -19.3346
 135   2.0000      -0.701293       -19.0832
 136   2.0000      -0.696014       -18.9395
 137   2.0000      -0.691008       -18.8033
 138   2.0000      -0.689331       -18.7576
 139   2.0000      -0.687121       -18.6975
 140   2.0000      -0.684745       -18.6329
 141   2.0000      -0.677234       -18.4285
 142   2.0000      -0.673962       -18.3394
 143   2.0000      -0.669412       -18.2156
 144   2.0000      -0.662660       -18.0319
 145   2.0000      -0.661136       -17.9904
 146   2.0000      -0.657888       -17.9020
 147   2.0000      -0.655257       -17.8305
 148   2.0000      -0.650176       -17.6922
 149   2.0000      -0.643536       -17.5115
 150   2.0000      -0.631228       -17.1766
 151   2.0000      -0.626548       -17.0492
 152   2.0000      -0.624083       -16.9821
 153   2.0000      -0.619110       -16.8468
 154   2.0000      -0.617357       -16.7991
 155   2.0000      -0.613410       -16.6917
 156   2.0000      -0.605209       -16.4686
 157   2.0000      -0.594684       -16.1822
 158   2.0000      -0.592811       -16.1312
 159   2.0000      -0.590200       -16.0602
 160   2.0000      -0.587224       -15.9792
 161   2.0000      -0.581407       -15.8209
 162   2.0000      -0.578591       -15.7443
 163   2.0000      -0.568649       -15.4737
 164   2.0000      -0.565649       -15.3921
 165   2.0000      -0.563050       -15.3214
 166   2.0000      -0.559663       -15.2292
 167   2.0000      -0.556260       -15.1366
 168   2.0000      -0.547113       -14.8877
 169   2.0000      -0.545705       -14.8494
 170   2.0000      -0.543344       -14.7851
 171   2.0000      -0.540983       -14.7209
 172   2.0000      -0.539136       -14.6706
 173   2.0000      -0.536966       -14.6116
 174   2.0000      -0.536007       -14.5855
 175   2.0000      -0.532452       -14.4887
 176   2.0000      -0.528341       -14.3769
 177   2.0000      -0.525724       -14.3057
 178   2.0000      -0.523777       -14.2527
 179   2.0000      -0.521563       -14.1924
 180   2.0000      -0.519963       -14.1489
 181   2.0000      -0.517206       -14.0739
 182   2.0000      -0.515462       -14.0264
 183   2.0000      -0.513418       -13.9708
 184   2.0000      -0.508303       -13.8316
 185   2.0000      -0.506537       -13.7836
 186   2.0000      -0.500570       -13.6212
 187   2.0000      -0.500020       -13.6062
 188   2.0000      -0.496388       -13.5074
 189   2.0000      -0.494133       -13.4460
 190   2.0000      -0.491518       -13.3749
 191   2.0000      -0.489569       -13.3219
 192   2.0000      -0.489034       -13.3073
 193   2.0000      -0.484627       -13.1874
 194   2.0000      -0.484114       -13.1734
 195   2.0000      -0.482293       -13.1239
 196   2.0000      -0.479937       -13.0598
 197   2.0000      -0.478789       -13.0285
 198   2.0000      -0.476699       -12.9717
 199   2.0000      -0.473337       -12.8801
 200   2.0000      -0.468505       -12.7487
 201   2.0000      -0.465449       -12.6655
 202   2.0000      -0.462994       -12.5987
 203   2.0000      -0.458649       -12.4805
 204   2.0000      -0.456894       -12.4327
 205   2.0000      -0.456027       -12.4091
 206   2.0000      -0.454434       -12.3658
 207   2.0000      -0.453507       -12.3405
 208   2.0000      -0.452561       -12.3148
 209   2.0000      -0.450344       -12.2545
 210   2.0000      -0.446387       -12.1468
 211   2.0000      -0.443856       -12.0779
 212   2.0000      -0.442733       -12.0474
 213   2.0000      -0.441836       -12.0230
 214   2.0000      -0.440880       -11.9970
 215   2.0000      -0.439886       -11.9699
 216   2.0000      -0.439472       -11.9586
 217   2.0000      -0.438369       -11.9286
 218   2.0000      -0.436150       -11.8682
 219   2.0000      -0.433670       -11.8008
 220   2.0000      -0.432318       -11.7640
 221   2.0000      -0.430758       -11.7215
 222   2.0000      -0.428323       -11.6553
 223   2.0000      -0.427525       -11.6335
 224   2.0000      -0.425567       -11.5803
 225   2.0000      -0.425271       -11.5722
 226   2.0000      -0.424550       -11.5526
 227   2.0000      -0.422136       -11.4869
 228   2.0000      -0.420488       -11.4421
 229   2.0000      -0.417332       -11.3562
 230   2.0000      -0.415525       -11.3070
 231   2.0000      -0.412198       -11.2165
 232   2.0000      -0.411399       -11.1947
 233   2.0000      -0.410880       -11.1806
 234   2.0000      -0.407618       -11.0919
 235   2.0000      -0.406562       -11.0631
 236   2.0000      -0.403298       -10.9743
 237   2.0000      -0.400575       -10.9002
 238   2.0000      -0.398145       -10.8341
 239   2.0000      -0.391918       -10.6646
 240   2.0000      -0.387823       -10.5532
 241   2.0000      -0.382745       -10.4150
 242   2.0000      -0.381117       -10.3707
 243   2.0000      -0.380769       -10.3612
 244   2.0000      -0.377507       -10.2725
 245   2.0000      -0.375260       -10.2113
 246   2.0000      -0.370377       -10.0785
 247   2.0000      -0.362115        -9.8537
 248   2.0000      -0.351865        -9.5747
 249   2.0000      -0.346223        -9.4212
 250   2.0000      -0.335445        -9.1279
 251   2.0000      -0.330726        -8.9995
 252   2.0000      -0.321223        -8.7409
 253   2.0000      -0.318477        -8.6662
 254   2.0000      -0.313940        -8.5427
 255   2.0000      -0.312555        -8.5051
 256   2.0000      -0.312458        -8.5024
 257   2.0000      -0.296803        -8.0764
 258   2.0000      -0.290175        -7.8961
 259   2.0000      -0.273266        -7.4359
 260   2.0000      -0.256496        -6.9796
 261   2.0000      -0.255139        -6.9427
 262   2.0000      -0.218500        -5.9457
 263   0.0000      -0.126675        -3.4470
 264   0.0000      -0.080772        -2.1979
 265   0.0000      -0.056333        -1.5329
 266   0.0000      -0.048491        -1.3195
 267   0.0000      -0.034473        -0.9381

MULLIKEN ATOMIC CHARGES
-----------------------
   0 C :    0.300505
   1 C :   -0.337944
   2 C :   -0.186043
   3 N :    0.151471
   4 C :   -0.200366
   5 N :    0.167212
   6 C :    0.017779
   7 C :   -0.018916
   8 C :   -0.066610
   9 C :    0.113297
  10 C :   -0.094711
  11 C :   -0.020789
  12 S :    0.141705
  13 C :   -0.048889
  14 C :    0.025086
  15 C :    0.153389
  16 O :   -0.158526
  17 C :   -0.054346
  18 C :   -0.073568
  19 C :    0.070010
  20 C :   -0.036879
  21 C :   -0.064373
  22 N :    0.045321
  23 C :   -0.150693
  24 C :   -0.121705
  25 N :    0.056176
  26 C :   -0.202309
  27 N :    0.242019
  28 C :   -0.193863
  29 N :    0.230858
  30 C :    0.121452
  31 C :   -0.002185
  32 C :    0.031604
  33 N :   -0.275639
  34 S :    0.555330
  35 N :   -0.272407
  36 C :   -0.014896
  37 C :   -0.020686
  38 C :   -0.016076
  39 C :    0.120033
  40 C :   -0.062428
  41 C :    0.031095
  42 C :    0.090513
  43 C :    0.034008
  44 C :   -0.127683
  45 C :    0.048689
  46 C :    0.026036
  47 C :    0.078749
  48 C :    0.031476
  49 C :   -0.101207
  50 C :    0.119458
  51 C :   -0.020992
  52 C :   -0.047803
  53 C :   -0.029244
  54 C :   -0.021619
  55 C :    0.128645
  56 C :    0.077767
  57 C :   -0.176192
  58 S :    0.146121
  59 C :   -0.216260
  60 C :    0.103405
  61 C :   -0.013509
  62 N :   -0.032187
  63 C :    0.085284
  64 C :   -0.103298
  65 C :   -0.060291
  66 C :    0.005916
  67 C :    0.023038
  68 C :   -0.234234
  69 C :    0.099460
  70 C :    0.218397
  71 N :   -0.202275
  72 C :    0.045306
  73 C :   -0.081415
  74 H :   -0.016138
  75 H :   -0.006761
  76 H :    0.038649
  77 H :   -0.007551
  78 H :    0.045069
  79 H :   -0.032968
  80 H :   -0.033882
  81 H :   -0.015465
  82 H :    0.009143
  83 H :    0.000097
  84 H :    0.014882
  85 H :    0.020160
  86 H :    0.017763
  87 H :    0.002753
  88 H :   -0.004953
  89 H :    0.018224
  90 H :    0.011848
  91 H :    0.006299
  92 H :   -0.035100
  93 H :   -0.030972
  94 H :   -0.035691
  95 H :   -0.015674
  96 H :   -0.013008
  97 H :    0.023256
  98 H :    0.011206
  99 H :    0.111192
 100 H :    0.108018
 101 H :   -0.042692
 102 H :   -0.037351
 103 H :   -0.016971
 104 H :   -0.039297
 105 H :    0.023802
 106 H :    0.022150
 107 H :    0.020805
 108 H :   -0.010020
 109 H :    0.003988
 110 H :    0.106193
 111 H :    0.008951
 112 H :   -0.010529
 113 H :    0.007020
Sum of atomic charges:   -0.0000000

LOEWDIN ATOMIC CHARGES
----------------------
   0 C :    0.074196
   1 C :   -0.132278
   2 C :   -0.017370
   3 N :   -0.050704
   4 C :   -0.023614
   5 N :   -0.044931
   6 C :   -0.021733
   7 C :   -0.050929
   8 C :    0.021540
   9 C :   -0.034812
  10 C :   -0.144971
  11 C :   -0.008364
  12 S :    0.429646
  13 C :   -0.148687
  14 C :   -0.058656
  15 C :    0.084986
  16 O :   -0.149741
  17 C :   -0.072492
  18 C :    0.078694
  19 C :   -0.044481
  20 C :    0.012900
  21 C :   -0.016603
  22 N :    0.016868
  23 C :   -0.037995
  24 C :   -0.015961
  25 N :   -0.002244
  26 C :   -0.034466
  27 N :    0.003591
  28 C :   -0.035495
  29 N :   -0.008814
  30 C :    0.030902
  31 C :   -0.045878
  32 C :   -0.023523
  33 N :   -0.276113
  34 S :    0.694241
  35 N :   -0.272717
  36 C :   -0.031773
  37 C :    0.007778
  38 C :   -0.000817
  39 C :    0.007487
  40 C :   -0.027487
  41 C :    0.009157
  42 C :   -0.028553
  43 C :    0.011036
  44 C :   -0.034521
  45 C :   -0.014456
  46 C :   -0.056423
  47 C :   -0.008930
  48 C :   -0.059237
  49 C :   -0.023211
  50 C :   -0.012925
  51 C :   -0.023677
  52 C :   -0.014786
  53 C :   -0.041538
  54 C :   -0.004932
  55 C :   -0.054463
  56 C :   -0.037974
  57 C :   -0.205165
  58 S :    0.483940
  59 C :   -0.213728
  60 C :   -0.066943
  61 C :    0.049968
  62 N :   -0.002948
  63 C :   -0.095731
  64 C :    0.002966
  65 C :   -0.022993
  66 C :   -0.033771
  67 C :   -0.050555
  68 C :   -0.039533
  69 C :   -0.053602
  70 C :    0.040667
  71 N :   -0.050098
  72 C :    0.020767
  73 C :   -0.153615
  74 H :    0.038843
  75 H :    0.040840
  76 H :    0.029487
  77 H :    0.034959
  78 H :    0.048692
  79 H :    0.023630
  80 H :    0.027836
  81 H :    0.028382
  82 H :    0.020832
  83 H :    0.021201
  84 H :    0.023652
  85 H :    0.028206
  86 H :    0.023446
  87 H :    0.025496
  88 H :    0.019385
  89 H :    0.023557
  90 H :    0.027195
  91 H :    0.021207
  92 H :    0.023505
  93 H :    0.025692
  94 H :    0.026386
  95 H :    0.025807
  96 H :    0.025841
  97 H :    0.022542
  98 H :    0.015279
  99 H :    0.072025
 100 H :    0.071037
 101 H :    0.025077
 102 H :    0.015130
 103 H :    0.022970
 104 H :    0.020295
 105 H :    0.030330
 106 H :    0.030883
 107 H :    0.035388
 108 H :    0.008795
 109 H :    0.027053
 110 H :    0.068937
 111 H :    0.025305
 112 H :    0.011355
 113 H :    0.020150

  Mayer bond orders larger than 0.100000
B(  0-C ,  1-C ) :   1.6478 B(  0-C ,  6-C ) :   1.0066 B(  0-C , 17-C ) :   1.0570
B(  1-C ,  2-C ) :   1.1412 B(  1-C ,  4-C ) :   1.1444 B(  2-C ,  3-N ) :   2.9706
B(  4-C ,  5-N ) :   2.9861 B(  6-C ,  7-C ) :   1.2686 B(  6-C , 11-C ) :   1.4093
B(  7-C ,  8-C ) :   1.4243 B(  7-C , 15-C ) :   0.9517 B(  8-C ,  9-C ) :   1.2480
B(  8-C , 74-H ) :   1.0162 B(  9-C , 10-C ) :   1.3021 B(  9-C , 14-C ) :   1.1689
B( 10-C , 11-C ) :   1.3257 B( 10-C , 12-S ) :   1.0979 B( 11-C , 75-H ) :   0.9820
B( 12-S , 13-C ) :   1.1267 B( 13-C , 14-C ) :   1.6288 B( 13-C , 76-H ) :   0.9691
B( 14-C , 77-H ) :   0.9996 B( 15-C , 16-O ) :   2.2151 B( 15-C , 17-C ) :   0.9382
B( 17-C , 18-C ) :   1.6221 B( 18-C , 19-C ) :   1.1457 B( 18-C , 78-H ) :   0.9293
B( 19-C , 20-C ) :   1.2747 B( 19-C , 30-C ) :   0.1268 B( 19-C , 32-C ) :   1.2112
B( 20-C , 21-C ) :   1.1102 B( 20-C , 25-N ) :   1.4459 B( 21-C , 22-N ) :   1.4312
B( 21-C , 30-C ) :   1.2705 B( 22-N , 23-C ) :   1.7336 B( 23-C , 24-C ) :   1.1967
B( 23-C , 28-C ) :   1.1557 B( 24-C , 25-N ) :   1.7497 B( 24-C , 26-C ) :   1.1535
B( 26-C , 27-N ) :   3.0436 B( 28-C , 29-N ) :   3.0239 B( 30-C , 31-C ) :   1.2350
B( 30-C , 36-C ) :   1.0489 B( 31-C , 32-C ) :   1.0998 B( 31-C , 35-N ) :   1.4903
B( 32-C , 33-N ) :   1.4995 B( 33-N , 34-S ) :   1.2882 B( 33-N , 35-N ) :   0.1547
B( 34-S , 35-N ) :   1.3095 B( 36-C , 37-C ) :   1.2816 B( 36-C , 41-C ) :   1.3441
B( 37-C , 38-C ) :   1.4282 B( 37-C , 79-H ) :   0.9886 B( 38-C , 39-C ) :   1.3609
B( 38-C , 44-C ) :   0.9178 B( 39-C , 40-C ) :   1.3228 B( 39-C , 42-C ) :   1.0054
B( 40-C , 41-C ) :   1.3981 B( 40-C , 80-H ) :   0.9930 B( 41-C , 81-H ) :   0.9815
B( 42-C , 43-C ) :   1.3674 B( 42-C , 52-C ) :   1.3320 B( 43-C , 44-C ) :   0.9160
B( 43-C , 49-C ) :   1.4054 B( 44-C , 45-C ) :   1.0329 B( 44-C , 47-C ) :   1.0134
B( 45-C , 46-C ) :   1.1112 B( 45-C , 82-H ) :   0.9381 B( 45-C , 83-H ) :   0.9375
B( 46-C , 84-H ) :   0.9646 B( 46-C , 85-H ) :   0.9634 B( 46-C , 86-H ) :   0.9597
B( 47-C , 48-C ) :   1.1178 B( 47-C , 87-H ) :   0.9383 B( 47-C , 88-H ) :   0.9368
B( 48-C , 89-H ) :   0.9606 B( 48-C , 90-H ) :   0.9591 B( 48-C , 91-H ) :   0.9626
B( 49-C , 50-C ) :   1.3053 B( 49-C , 92-H ) :   0.9933 B( 50-C , 51-C ) :   1.3350
B( 50-C , 53-C ) :   1.0584 B( 51-C , 52-C ) :   1.3819 B( 51-C , 93-H ) :   0.9935
B( 52-C , 94-H ) :   0.9921 B( 53-C , 54-C ) :   1.7195 B( 53-C , 95-H ) :   0.9768
B( 54-C , 55-C ) :   1.0679 B( 54-C , 96-H ) :   0.9666 B( 55-C , 56-C ) :   1.1127
B( 55-C , 64-C ) :   1.4937 B( 56-C , 57-C ) :   1.4752 B( 56-C , 60-C ) :   1.2246
B( 57-C , 58-S ) :   1.1959 B( 57-C , 97-H ) :   0.9562 B( 58-S , 59-C ) :   1.2180
B( 59-C , 60-C ) :   1.4109 B( 59-C , 98-H ) :   0.9699 B( 60-C , 61-C ) :   1.1247
B( 61-C , 62-N ) :   1.3384 B( 61-C , 63-C ) :   1.4072 B( 62-N , 99-H ) :   0.9377
B( 62-N ,100-H ) :   0.9403 B( 63-C , 64-C ) :   1.1797 B( 63-C , 65-C ) :   1.0027
B( 64-C ,101-H ) :   0.9925 B( 65-C , 66-C ) :   1.7568 B( 65-C ,102-H ) :   0.9719
B( 66-C , 67-C ) :   1.0941 B( 66-C ,103-H ) :   0.9696 B( 67-C , 68-C ) :   1.7634
B( 67-C ,104-H ) :   0.9709 B( 68-C , 69-C ) :   1.0740 B( 68-C , 70-C ) :   1.0459
B( 69-C ,105-H ) :   0.9494 B( 69-C ,106-H ) :   0.9440 B( 69-C ,107-H ) :   0.9469
B( 70-C , 71-N ) :   1.0152 B( 70-C ,108-H ) :   0.9359 B( 70-C ,109-H ) :   0.9296
B( 71-N , 72-C ) :   1.1380 B( 71-N ,110-H ) :   0.9434 B( 72-C , 73-C ) :   1.9156
B( 72-C ,111-H ) :   0.9579 B( 73-C ,112-H ) :   0.9585 B( 73-C ,113-H ) :   0.9527

-----------------------------------------------------------------------------
         ABSORPTION SPECTRUM VIA TRANSITION ELECTRIC DIPOLE MOMENTS
-----------------------------------------------------------------------------
State   Energy  Wavelength   fosc         T2         TX        TY        TZ
        (cm-1)    (nm)                  (au**2)     (au)      (au)      (au)
-----------------------------------------------------------------------------
   0   10699.9    934.6   0.508058303  15.63184  -1.98390   3.41981  -0.02976
   1   14920.1    670.2   0.217367725   4.79622   1.06251  -1.90078  -0.23309
   2   20300.3    492.6   0.000711687   0.01154  -0.09299   0.00617  -0.05344
   3   22074.7    453.0   0.261601133   3.90139  -1.15196   1.53388  -0.47073
   4   22257.2    449.3   0.000235018   0.00348  -0.02203   0.05376  -0.01005
   5   22487.4    444.7   0.012393063   0.18143   0.22470   0.35239   0.08222
   6   22792.1    438.7   0.005715157   0.08255   0.18350   0.21387   0.05603
   7   23538.2    424.8   0.036273992   0.50734  -0.34718   0.51204  -0.35301
   8   24638.0    405.9   0.734028403   9.80806  -1.40798   2.76431  -0.42925
   9   24794.6    403.3   0.216991303   2.88111  -0.89214   1.27251  -0.68258
  10   25029.7    399.5   0.028772945   0.37845  -0.46063   0.27776  -0.29852
  11   25746.7    388.4   0.025084588   0.32075  -0.07410   0.56000  -0.04066
  12   26749.3    373.8   0.007819666   0.09624   0.22913   0.15772  -0.13735
  13   27102.3    369.0   0.003107185   0.03774  -0.12672  -0.08204   0.12229
  14   27484.6    363.8   0.181026155   2.16834   1.42247   0.01104   0.38051
  15   28230.2    354.2   0.061202949   0.71373  -0.50764  -0.52086   0.42982
  16   28254.8    353.9   0.031784790   0.37034  -0.45888  -0.39504   0.06092
  17   28972.9    345.1   0.158041008   1.79578  -0.73119   0.08257  -1.11997
  18   29267.8    341.7   0.020912462   0.23523   0.06858  -0.20900   0.43226
  19   29970.3    333.7   0.075915822   0.83391   0.58771  -0.01817   0.69870
  20   30298.9    330.0   0.156161988   1.69678  -0.96031   0.14811  -0.86755
  21   30352.1    329.5   0.170476403   1.84906  -1.13872   0.07576  -0.73936
  22   30927.5    323.3   0.080716838   0.85920   0.75142   0.00295   0.54273
  23   31502.7    317.4   0.038914797   0.40667   0.21184   0.15896  -0.58011
  24   31763.5    314.8   0.182975720   1.89645  -0.41561   1.29933  -0.18828
  25   32001.3    312.5   0.102200630   1.05138  -0.99501  -0.02690  -0.24621
  26   32493.8    307.8   0.194891356   1.97455  -0.70483  -0.11935   1.20976
  27   32799.4    304.9   0.090907614   0.91245   0.26856  -0.44885  -0.79929
  28   33150.8    301.7   0.184384620   1.83107  -0.22967  -0.02508   1.33330
  29   33227.1    301.0   0.026387115   0.26144   0.08113   0.00733  -0.50478
  30   33500.8    298.5   0.037451966   0.36804   0.22406   0.03353  -0.56277
  31   33860.7    295.3   0.016223405   0.15773   0.25583   0.05184  -0.29933
  32   34101.0    293.2   0.432886080   4.17909  -1.91387   0.36345  -0.61977
  33   34538.5    289.5   0.255110524   2.43165  -1.19427   0.24624  -0.97198
  34   35228.9    283.9   0.562750639   5.25888   1.37480   0.99859   1.54001
  35   35374.4    282.7   0.003841140   0.03575  -0.05672  -0.15714   0.08853
  36   35515.4    281.6   0.038817450   0.35982   0.32901   0.42334   0.26899
  37   36253.0    275.8   0.104989775   0.95341  -0.60342  -0.20483  -0.73982
  38   36564.5    273.5   0.009299285   0.08373  -0.18474   0.09175   0.20293
  39   36856.8    271.3   0.398817436   3.56231   1.14005   1.32141   0.71867
  40   37272.6    268.3   0.531696084   4.69623  -0.70168  -1.40567   1.49264
  41   37612.6    265.9   0.023329906   0.20420   0.05399  -0.22283  -0.38940
  42   37850.7    264.2   0.017848274   0.15524  -0.12091   0.30799  -0.21392
  43   38180.7    261.9   0.001032643   0.00890   0.02080   0.00849   0.09165
  44   38249.5    261.4   0.019836084   0.17073   0.20709   0.35292   0.05738
  45   38613.7    259.0   0.076901669   0.65565   0.25037  -0.63120   0.44107
  46   38983.4    256.5   0.003594131   0.03035   0.00717  -0.00578   0.17398
  47   39040.6    256.1   0.029225684   0.24645   0.05100   0.35892  -0.33915
  48   39240.0    254.8   0.031574670   0.26490   0.01691   0.09788   0.50501
  49   39443.1    253.5   0.206719056   1.72538   0.02303  -1.30844   0.11326
  50   39652.7    252.2   0.003826788   0.03177  -0.09087  -0.00034   0.15334
  51   39760.2    251.5   0.035821928   0.29660   0.28530  -0.45917  -0.06606
  52   40083.1    249.5   0.022846381   0.18764  -0.02950  -0.01172  -0.43201

FINAL SINGLE POINT ENERGY     -4123.545212210503

DIPOLE MOMENT
-------------
                                X             Y             Z
Electronic contribution:    138.64897    -129.60633      28.28197
Nuclear contribution   :   -138.65089     132.96045     -23.87267
                        -----------------------------------------
Total Dipole Moment    :     -0.00193       3.35411       4.40929
                        -----------------------------------------
Magnitude (a.u.)       :      5.54003
Magnitude (Debye)      :     14.08164

Rotational constants in cm-1:     0.001795     0.000219     0.000209
Rotational constants in MHz :    53.809992     6.560012     6.259558

                             ****ORCA TERMINATED NORMALLY****
TOTAL RUN TIME: 0 days 0 hours 18 minutes 26 seconds 449 msec
