                         Program Version 4.2.0 -  RELEASE  -
|  1> # ORCA input file
|  2> # SCF done       -186.285147835507          0.000745006572
|  3> ! CAM-B3LYP def2-SVP def2/J RIJCOSX Grid4 TightSCF
|  4> %maxcore 5000
|  5> %tddft
|  6>     Mode sTDDFT
|  7>     Ethresh 5.0
|  8>     maxcore 5000
|  9> end
| 10>
| 11> %pal
| 12>   nprocs 6
| 13>   end
| 14> * xyz 0 1
| 15>    C       -6.89109        -1.02012        -0.76492
| 16>    C       -7.77076        -1.82238        -0.09674
| 17>    C       -7.44458        -3.10791         0.39044
| 18>    N       -7.24106        -4.15516         0.81224
| 19>    C       -9.09282        -1.47624         0.26262
| 20>    N      -10.16405        -1.27585         0.62123
| 21>    C       -5.49906        -1.32743        -1.04210
| 22>    C       -4.86038        -0.15109        -1.51001
| 23>    C       -3.53252        -0.12007        -1.86316
| 24>    C       -2.80788        -1.30908        -1.76073
| 25>    C       -3.45223        -2.48267        -1.29730
| 26>    C       -4.79167        -2.51202        -0.93254
| 27>    S       -2.35785        -3.82986        -1.25937
| 28>    C       -1.07123        -2.80848        -1.85773
| 29>    C       -1.43982        -1.52497        -2.07652
| 30>   Br        0.62838        -3.54639        -2.13130
| 31>    C       -5.82460         0.95910        -1.55217
| 32>    O       -5.55435         2.12158        -1.74239
| 33>    C       -7.15668         0.33339        -1.26845
| 34>    C       -8.39392         0.79671        -1.54104
| 35>    C       -8.81451         2.06012        -2.12270
| 36>    N      -10.14307         2.20176        -2.21478
| 37>    C      -10.59001         3.34034        -2.71153
| 38>    C       -9.74441         4.35182        -3.13766
| 39>    C       -8.36774         4.10506        -3.03539
| 40>    N       -7.93008         2.95110        -2.52703
| 41>    C       -7.37127         5.04142        -3.49608
| 42>    C       -6.06703         4.74480        -3.35187
| 43>    N       -5.03785         5.49757        -3.83217
| 44>    C       -3.76817         5.04471        -3.90583
| 45>    S       -3.34121         3.46291        -3.33842
| 46>    C       -1.73674         3.67540        -3.98816
| 47>    N       -0.81272         2.65077        -3.82441
| 48>    O        0.30506         2.79987        -4.28530
| 49>    O       -1.19154         1.65214        -3.22193
| 50>    C       -1.55986         4.88567        -4.60854
| 51>    C       -2.70061         5.69992        -4.54366
| 52>    C       -2.74143         7.03910        -5.06822
| 53>    C       -3.32785         8.09418        -4.45991
| 54>    C       -3.37541         9.40474        -5.01103
| 55>    C       -3.49634         9.69193        -6.33819
| 56>    C       -3.63267        10.98048        -6.92892
| 57>    C       -4.06156        10.96365        -8.21698
| 58>    C       -4.31092         9.65766        -8.71387
| 59>    S       -3.79504         8.45711        -7.56092
| 60>    C       -5.04686         9.29958        -9.82369
| 61>    C       -5.67390        10.12578       -10.78208
| 62>    C       -6.63681         9.48527       -11.50066
| 63>    C       -6.84593         8.13462       -11.11984
| 64>    S       -5.62180         7.64744        -9.98509
| 65>    C       -7.88369         7.33819       -11.57265
| 66>    C       -8.34736         6.10535       -11.12811
| 67>    C       -8.14897         5.33457        -9.99194
| 68>    C       -7.62209         5.55072        -8.68482
| 69>    C       -7.49687         6.76177        -8.01986
| 70>    C       -6.87486         6.90910        -6.77670
| 71>    N       -6.33383         7.09016        -5.77507
| 72>    C       -8.08218         7.95460        -8.48226
| 73>    N       -8.57785         8.93853        -8.80740
| 74>    C       -7.43450         4.24457        -8.04845
| 75>    C       -8.04071         3.25861        -8.86426
| 76>    C       -8.54722         3.90521       -10.09250
| 77>    O       -9.14619         3.38167       -11.00563
| 78>    C       -8.10896         1.93787        -8.50206
| 79>    C       -7.53224         1.56569        -7.28138
| 80>    C       -6.89777         2.54772        -6.48685
| 81>    C       -6.84393         3.88992        -6.85271
| 82>    S       -6.22982         1.86305        -5.03456
| 83>    C       -6.81610         0.29239        -5.50627
| 84>    C       -7.47394         0.27517        -6.68918
| 85>   Br       -6.50164        -1.19170        -4.40369
| 86>    H       -3.05351         0.77744        -2.21881
| 87>    H       -5.24519        -3.42878        -0.59488
| 88>    H       -0.79579        -0.74794        -2.44701
| 89>    H       -9.24449         0.15873        -1.33477
| 90>    H      -11.66698         3.43672        -2.77129
| 91>    H      -10.12153         5.27994        -3.53555
| 92>    H       -7.70763         5.94612        -3.98035
| 93>    H       -5.80282         3.83544        -2.82837
| 94>    H       -5.28467         6.33464        -4.37377
| 95>    H       -0.62907         5.17682        -5.06090
| 96>    H       -2.15684         7.20279        -5.96380
| 97>    H       -3.73777         7.97604        -3.46502
| 98>    H       -3.39974        10.23749        -4.32058
| 99>    H       -3.44882        11.87464        -6.35982
|100>    H       -4.27388        11.84088        -8.80062
|101>    H       -5.43045        11.16772       -10.88314
|102>    H       -7.26122         9.95793       -12.23714
|103>    H       -8.41101         7.74575       -12.42742
|104>    H       -8.99840         5.59612       -11.83601
|105>    H       -8.59292         1.21167        -9.13595
|106>    H       -6.34889         4.60301        -6.21663
|107>    H       -7.89934        -0.60898        -7.12771
|108> *
|109>
|110>                          ****END OF INPUT****

CARTESIAN COORDINATES (ANGSTROEM)
---------------------------------
  C     -6.891090   -1.020120   -0.764920
  C     -7.770760   -1.822380   -0.096740
  C     -7.444580   -3.107910    0.390440
  N     -7.241060   -4.155160    0.812240
  C     -9.092820   -1.476240    0.262620
  N    -10.164050   -1.275850    0.621230
  C     -5.499060   -1.327430   -1.042100
  C     -4.860380   -0.151090   -1.510010
  C     -3.532520   -0.120070   -1.863160
  C     -2.807880   -1.309080   -1.760730
  C     -3.452230   -2.482670   -1.297300
  C     -4.791670   -2.512020   -0.932540
  S     -2.357850   -3.829860   -1.259370
  C     -1.071230   -2.808480   -1.857730
  C     -1.439820   -1.524970   -2.076520
  Br     0.628380   -3.546390   -2.131300
  C     -5.824600    0.959100   -1.552170
  O     -5.554350    2.121580   -1.742390
  C     -7.156680    0.333390   -1.268450
  C     -8.393920    0.796710   -1.541040
  C     -8.814510    2.060120   -2.122700
  N    -10.143070    2.201760   -2.214780
  C    -10.590010    3.340340   -2.711530
  C     -9.744410    4.351820   -3.137660
  C     -8.367740    4.105060   -3.035390
  N     -7.930080    2.951100   -2.527030
  C     -7.371270    5.041420   -3.496080
  C     -6.067030    4.744800   -3.351870
  N     -5.037850    5.497570   -3.832170
  C     -3.768170    5.044710   -3.905830
  S     -3.341210    3.462910   -3.338420
  C     -1.736740    3.675400   -3.988160
  N     -0.812720    2.650770   -3.824410
  O      0.305060    2.799870   -4.285300
  O     -1.191540    1.652140   -3.221930
  C     -1.559860    4.885670   -4.608540
  C     -2.700610    5.699920   -4.543660
  C     -2.741430    7.039100   -5.068220
  C     -3.327850    8.094180   -4.459910
  C     -3.375410    9.404740   -5.011030
  C     -3.496340    9.691930   -6.338190
  C     -3.632670   10.980480   -6.928920
  C     -4.061560   10.963650   -8.216980
  C     -4.310920    9.657660   -8.713870
  S     -3.795040    8.457110   -7.560920
  C     -5.046860    9.299580   -9.823690
  C     -5.673900   10.125780  -10.782080
  C     -6.636810    9.485270  -11.500660
  C     -6.845930    8.134620  -11.119840
  S     -5.621800    7.647440   -9.985090
  C     -7.883690    7.338190  -11.572650
  C     -8.347360    6.105350  -11.128110
  C     -8.148970    5.334570   -9.991940
  C     -7.622090    5.550720   -8.684820
  C     -7.496870    6.761770   -8.019860
  C     -6.874860    6.909100   -6.776700
  N     -6.333830    7.090160   -5.775070
  C     -8.082180    7.954600   -8.482260
  N     -8.577850    8.938530   -8.807400
  C     -7.434500    4.244570   -8.048450
  C     -8.040710    3.258610   -8.864260
  C     -8.547220    3.905210  -10.092500
  O     -9.146190    3.381670  -11.005630
  C     -8.108960    1.937870   -8.502060
  C     -7.532240    1.565690   -7.281380
  C     -6.897770    2.547720   -6.486850
  C     -6.843930    3.889920   -6.852710
  S     -6.229820    1.863050   -5.034560
  C     -6.816100    0.292390   -5.506270
  C     -7.473940    0.275170   -6.689180
  Br    -6.501640   -1.191700   -4.403690
  H     -3.053510    0.777440   -2.218810
  H     -5.245190   -3.428780   -0.594880
  H     -0.795790   -0.747940   -2.447010
  H     -9.244490    0.158730   -1.334770
  H    -11.666980    3.436720   -2.771290
  H    -10.121530    5.279940   -3.535550
  H     -7.707630    5.946120   -3.980350
  H     -5.802820    3.835440   -2.828370
  H     -5.284670    6.334640   -4.373770
  H     -0.629070    5.176820   -5.060900
  H     -2.156840    7.202790   -5.963800
  H     -3.737770    7.976040   -3.465020
  H     -3.399740   10.237490   -4.320580
  H     -3.448820   11.874640   -6.359820
  H     -4.273880   11.840880   -8.800620
  H     -5.430450   11.167720  -10.883140
  H     -7.261220    9.957930  -12.237140
  H     -8.411010    7.745750  -12.427420
  H     -8.998400    5.596120  -11.836010
  H     -8.592920    1.211670   -9.135950
  H     -6.348890    4.603010   -6.216630
  H     -7.899340   -0.608980   -7.127710

 Total Charge           Charge          ....    0
 Multiplicity           Mult            ....    1
 Number of Electrons    NEL             ....  572
 Basis Dimension        Dim             .... 1160

ORBITAL ENERGIES
----------------

  NO   OCC          E(Eh)            E(eV)
   0   2.0000    -482.884042    -13139.9428
   1   2.0000    -482.876801    -13139.7458
   2   2.0000     -88.983000     -2421.3505
   3   2.0000     -88.974578     -2421.1214
   4   2.0000     -88.971847     -2421.0470
   5   2.0000     -88.971613     -2421.0407
   6   2.0000     -88.968222     -2420.9484
   7   2.0000     -62.561192     -1702.3766
   8   2.0000     -62.554558     -1702.1961
   9   2.0000     -56.395178     -1534.5908
  10   2.0000     -56.392434     -1534.5161
  11   2.0000     -56.392403     -1534.5153
  12   2.0000     -56.388493     -1534.4089
  13   2.0000     -56.385803     -1534.3357
  14   2.0000     -56.385762     -1534.3346
  15   2.0000     -19.241170      -523.5789
  16   2.0000     -19.239204      -523.5254
  17   2.0000     -19.216467      -522.9067
  18   2.0000     -19.208513      -522.6902
  19   2.0000     -14.651404      -398.6850
  20   2.0000     -14.473095      -393.8329
  21   2.0000     -14.430389      -392.6709
  22   2.0000     -14.414184      -392.2299
  23   2.0000     -14.411385      -392.1537
  24   2.0000     -14.408907      -392.0863
  25   2.0000     -14.407608      -392.0509
  26   2.0000     -14.404269      -391.9601
  27   2.0000     -10.372944      -282.2622
  28   2.0000     -10.369871      -282.1785
  29   2.0000     -10.357173      -281.8330
  30   2.0000     -10.352641      -281.7097
  31   2.0000     -10.349868      -281.6342
  32   2.0000     -10.347632      -281.5734
  33   2.0000     -10.345528      -281.5161
  34   2.0000     -10.342786      -281.4415
  35   2.0000     -10.341150      -281.3970
  36   2.0000     -10.339603      -281.3549
  37   2.0000     -10.338091      -281.3138
  38   2.0000     -10.337936      -281.3096
  39   2.0000     -10.335778      -281.2508
  40   2.0000     -10.333515      -281.1892
  41   2.0000     -10.331867      -281.1444
  42   2.0000     -10.328895      -281.0635
  43   2.0000     -10.328781      -281.0604
  44   2.0000     -10.322889      -280.9001
  45   2.0000     -10.320158      -280.8258
  46   2.0000     -10.320097      -280.8241
  47   2.0000     -10.319161      -280.7986
  48   2.0000     -10.318106      -280.7699
  49   2.0000     -10.316389      -280.7232
  50   2.0000     -10.314690      -280.6770
  51   2.0000     -10.313361      -280.6408
  52   2.0000     -10.313191      -280.6362
  53   2.0000     -10.312958      -280.6299
  54   2.0000     -10.311360      -280.5864
  55   2.0000     -10.308911      -280.5197
  56   2.0000     -10.307846      -280.4908
  57   2.0000     -10.305584      -280.4292
  58   2.0000     -10.305584      -280.4292
  59   2.0000     -10.304795      -280.4077
  60   2.0000     -10.304345      -280.3955
  61   2.0000     -10.302744      -280.3519
  62   2.0000     -10.301754      -280.3250
  63   2.0000     -10.300336      -280.2864
  64   2.0000     -10.300028      -280.2780
  65   2.0000     -10.299846      -280.2731
  66   2.0000     -10.299354      -280.2597
  67   2.0000     -10.299067      -280.2519
  68   2.0000     -10.298175      -280.2276
  69   2.0000     -10.295523      -280.1554
  70   2.0000     -10.291673      -280.0507
  71   2.0000     -10.291473      -280.0452
  72   2.0000     -10.290416      -280.0165
  73   2.0000     -10.287498      -279.9371
  74   2.0000     -10.286987      -279.9231
  75   2.0000     -10.286642      -279.9138
  76   2.0000     -10.284720      -279.8614
  77   2.0000     -10.283826      -279.8371
  78   2.0000     -10.270950      -279.4867
  79   2.0000      -8.790474      -239.2010
  80   2.0000      -8.784012      -239.0251
  81   2.0000      -8.077335      -219.7955
  82   2.0000      -8.069700      -219.5877
  83   2.0000      -8.067468      -219.5270
  84   2.0000      -8.066499      -219.5006
  85   2.0000      -8.064155      -219.4368
  86   2.0000      -6.626663      -180.3207
  87   2.0000      -6.620284      -180.1471
  88   2.0000      -6.612225      -179.9278
  89   2.0000      -6.612116      -179.9248
  90   2.0000      -6.605789      -179.7527
  91   2.0000      -6.605544      -179.7460
  92   2.0000      -6.046976      -164.5466
  93   2.0000      -6.042636      -164.4285
  94   2.0000      -6.039200      -164.3350
  95   2.0000      -6.038821      -164.3247
  96   2.0000      -6.037270      -164.2825
  97   2.0000      -6.036259      -164.2549
  98   2.0000      -6.034977      -164.2201
  99   2.0000      -6.033879      -164.1902
 100   2.0000      -6.033093      -164.1688
 101   2.0000      -6.031874      -164.1356
 102   2.0000      -6.031314      -164.1204
 103   2.0000      -6.029578      -164.0732
 104   2.0000      -6.028315      -164.0388
 105   2.0000      -6.027893      -164.0273
 106   2.0000      -6.025360      -163.9584
 107   2.0000      -2.742567       -74.6290
 108   2.0000      -2.738541       -74.5195
 109   2.0000      -2.738381       -74.5151
 110   2.0000      -2.736171       -74.4550
 111   2.0000      -2.732083       -74.3437
 112   2.0000      -2.731936       -74.3398
 113   2.0000      -2.726948       -74.2040
 114   2.0000      -2.726929       -74.2035
 115   2.0000      -2.720401       -74.0259
 116   2.0000      -2.720389       -74.0255
 117   2.0000      -1.319054       -35.8933
 118   2.0000      -1.137283       -30.9470
 119   2.0000      -1.133647       -30.8481
 120   2.0000      -1.123068       -30.5602
 121   2.0000      -1.087377       -29.5890
 122   2.0000      -1.082549       -29.4577
 123   2.0000      -1.026573       -27.9345
 124   2.0000      -1.021139       -27.7866
 125   2.0000      -1.018875       -27.7250
 126   2.0000      -1.013358       -27.5749
 127   2.0000      -1.008277       -27.4366
 128   2.0000      -1.002393       -27.2765
 129   2.0000      -1.002300       -27.2740
 130   2.0000      -0.992534       -27.0082
 131   2.0000      -0.991179       -26.9713
 132   2.0000      -0.985960       -26.8293
 133   2.0000      -0.983819       -26.7711
 134   2.0000      -0.980414       -26.6784
 135   2.0000      -0.940367       -25.5887
 136   2.0000      -0.937954       -25.5230
 137   2.0000      -0.937451       -25.5093
 138   2.0000      -0.917054       -24.9543
 139   2.0000      -0.913337       -24.8532
 140   2.0000      -0.905968       -24.6526
 141   2.0000      -0.903979       -24.5985
 142   2.0000      -0.902449       -24.5569
 143   2.0000      -0.887604       -24.1529
 144   2.0000      -0.881569       -23.9887
 145   2.0000      -0.880883       -23.9701
 146   2.0000      -0.879345       -23.9282
 147   2.0000      -0.873961       -23.7817
 148   2.0000      -0.871523       -23.7154
 149   2.0000      -0.858078       -23.3495
 150   2.0000      -0.850838       -23.1525
 151   2.0000      -0.846663       -23.0389
 152   2.0000      -0.839122       -22.8337
 153   2.0000      -0.831277       -22.6202
 154   2.0000      -0.823697       -22.4139
 155   2.0000      -0.821840       -22.3634
 156   2.0000      -0.804301       -21.8862
 157   2.0000      -0.784919       -21.3587
 158   2.0000      -0.779040       -21.1988
 159   2.0000      -0.772463       -21.0198
 160   2.0000      -0.757234       -20.6054
 161   2.0000      -0.756379       -20.5821
 162   2.0000      -0.743815       -20.2402
 163   2.0000      -0.735963       -20.0266
 164   2.0000      -0.726210       -19.7612
 165   2.0000      -0.713136       -19.4054
 166   2.0000      -0.711766       -19.3681
 167   2.0000      -0.700358       -19.0577
 168   2.0000      -0.698176       -18.9983
 169   2.0000      -0.692007       -18.8305
 170   2.0000      -0.687758       -18.7148
 171   2.0000      -0.684779       -18.6338
 172   2.0000      -0.675724       -18.3874
 173   2.0000      -0.669392       -18.2151
 174   2.0000      -0.665174       -18.1003
 175   2.0000      -0.657642       -17.8953
 176   2.0000      -0.654625       -17.8132
 177   2.0000      -0.650657       -17.7053
 178   2.0000      -0.646112       -17.5816
 179   2.0000      -0.641026       -17.4432
 180   2.0000      -0.635702       -17.2983
 181   2.0000      -0.631551       -17.1854
 182   2.0000      -0.626061       -17.0360
 183   2.0000      -0.624924       -17.0051
 184   2.0000      -0.620480       -16.8841
 185   2.0000      -0.618617       -16.8334
 186   2.0000      -0.606708       -16.5094
 187   2.0000      -0.605313       -16.4714
 188   2.0000      -0.596716       -16.2375
 189   2.0000      -0.593560       -16.1516
 190   2.0000      -0.593333       -16.1454
 191   2.0000      -0.592050       -16.1105
 192   2.0000      -0.585393       -15.9293
 193   2.0000      -0.580417       -15.7939
 194   2.0000      -0.577249       -15.7077
 195   2.0000      -0.570431       -15.5222
 196   2.0000      -0.566161       -15.4060
 197   2.0000      -0.563063       -15.3217
 198   2.0000      -0.553260       -15.0550
 199   2.0000      -0.548205       -14.9174
 200   2.0000      -0.545320       -14.8389
 201   2.0000      -0.544207       -14.8086
 202   2.0000      -0.540739       -14.7143
 203   2.0000      -0.539680       -14.6855
 204   2.0000      -0.536997       -14.6124
 205   2.0000      -0.534256       -14.5378
 206   2.0000      -0.529653       -14.4126
 207   2.0000      -0.527466       -14.3531
 208   2.0000      -0.525332       -14.2950
 209   2.0000      -0.524060       -14.2604
 210   2.0000      -0.521726       -14.1969
 211   2.0000      -0.520099       -14.1526
 212   2.0000      -0.517069       -14.0702
 213   2.0000      -0.516025       -14.0418
 214   2.0000      -0.513675       -13.9778
 215   2.0000      -0.510240       -13.8843
 216   2.0000      -0.508763       -13.8442
 217   2.0000      -0.503191       -13.6925
 218   2.0000      -0.501874       -13.6567
 219   2.0000      -0.501538       -13.6476
 220   2.0000      -0.499083       -13.5808
 221   2.0000      -0.496037       -13.4979
 222   2.0000      -0.493164       -13.4197
 223   2.0000      -0.492575       -13.4036
 224   2.0000      -0.489899       -13.3308
 225   2.0000      -0.487104       -13.2548
 226   2.0000      -0.485294       -13.2055
 227   2.0000      -0.481377       -13.0989
 228   2.0000      -0.478836       -13.0298
 229   2.0000      -0.476664       -12.9707
 230   2.0000      -0.475274       -12.9329
 231   2.0000      -0.468600       -12.7513
 232   2.0000      -0.463434       -12.6107
 233   2.0000      -0.459362       -12.4999
 234   2.0000      -0.457518       -12.4497
 235   2.0000      -0.455865       -12.4047
 236   2.0000      -0.450700       -12.2642
 237   2.0000      -0.449165       -12.2224
 238   2.0000      -0.448589       -12.2067
 239   2.0000      -0.445584       -12.1249
 240   2.0000      -0.443210       -12.0604
 241   2.0000      -0.442425       -12.0390
 242   2.0000      -0.441850       -12.0234
 243   2.0000      -0.440269       -11.9803
 244   2.0000      -0.439137       -11.9495
 245   2.0000      -0.436258       -11.8712
 246   2.0000      -0.433733       -11.8025
 247   2.0000      -0.432792       -11.7769
 248   2.0000      -0.430087       -11.7033
 249   2.0000      -0.425113       -11.5679
 250   2.0000      -0.423249       -11.5172
 251   2.0000      -0.422722       -11.5029
 252   2.0000      -0.419788       -11.4230
 253   2.0000      -0.418426       -11.3860
 254   2.0000      -0.410832       -11.1793
 255   2.0000      -0.406945       -11.0735
 256   2.0000      -0.406359       -11.0576
 257   2.0000      -0.404913       -11.0183
 258   2.0000      -0.391067       -10.6415
 259   2.0000      -0.390152       -10.6166
 260   2.0000      -0.389368       -10.5952
 261   2.0000      -0.384485       -10.4624
 262   2.0000      -0.382350       -10.4043
 263   2.0000      -0.381287       -10.3753
 264   2.0000      -0.376979       -10.2581
 265   2.0000      -0.370733       -10.0882
 266   2.0000      -0.369976       -10.0676
 267   2.0000      -0.368476       -10.0268
 268   2.0000      -0.366014        -9.9597
 269   2.0000      -0.360507        -9.8099
 270   2.0000      -0.358600        -9.7580
 271   2.0000      -0.355569        -9.6755
 272   2.0000      -0.342062        -9.3080
 273   2.0000      -0.340375        -9.2621
 274   2.0000      -0.337124        -9.1736
 275   2.0000      -0.333632        -9.0786
 276   2.0000      -0.326665        -8.8890
 277   2.0000      -0.314969        -8.5707
 278   2.0000      -0.311437        -8.4746
 279   2.0000      -0.307636        -8.3712
 280   2.0000      -0.302829        -8.2404
 281   2.0000      -0.302515        -8.2319
 282   2.0000      -0.287657        -7.8275
 283   2.0000      -0.286337        -7.7916
 284   2.0000      -0.267451        -7.2777
 285   2.0000      -0.243318        -6.6210
 286   0.0000      -0.111616        -3.0372
 287   0.0000      -0.087134        -2.3710
 288   0.0000      -0.067533        -1.8377
 289   0.0000      -0.063103        -1.7171
 290   0.0000      -0.055527        -1.5110

MULLIKEN ATOMIC CHARGES
-----------------------
   0 C :    0.286823
   1 C :   -0.340952
   2 C :   -0.189031
   3 N :    0.157577
   4 C :   -0.202816
   5 N :    0.178151
   6 C :    0.009775
   7 C :    0.025102
   8 C :   -0.062430
   9 C :    0.099521
  10 C :   -0.087004
  11 C :   -0.030835
  12 S :    0.180314
  13 C :   -0.124289
  14 C :    0.050227
  15 Br:    0.022680
  16 C :    0.147288
  17 O :   -0.123288
  18 C :   -0.025843
  19 C :    0.033478
  20 C :   -0.121373
  21 N :   -0.064030
  22 C :    0.078311
  23 C :   -0.035547
  24 C :    0.056782
  25 N :   -0.031787
  26 C :   -0.054146
  27 C :    0.059977
  28 N :   -0.025187
  29 C :   -0.072531
  30 S :    0.148750
  31 C :   -0.018890
  32 N :    0.297469
  33 O :   -0.251910
  34 O :   -0.282130
  35 C :    0.021600
  36 C :    0.079256
  37 C :   -0.033365
  38 C :   -0.003472
  39 C :    0.027009
  40 C :   -0.061365
  41 C :    0.062777
  42 C :    0.036667
  43 C :   -0.022222
  44 S :    0.101435
  45 C :   -0.069269
  46 C :    0.049560
  47 C :    0.068861
  48 C :   -0.060232
  49 S :    0.125476
  50 C :   -0.001885
  51 C :    0.021078
  52 C :   -0.135549
  53 C :    0.292092
  54 C :   -0.400080
  55 C :   -0.084585
  56 N :    0.070554
  57 C :   -0.208535
  58 N :    0.164858
  59 C :    0.019852
  60 C :   -0.000455
  61 C :    0.129228
  62 O :   -0.149118
  63 C :   -0.074450
  64 C :    0.106099
  65 C :   -0.069014
  66 C :   -0.031103
  67 S :    0.167046
  68 C :   -0.118960
  69 C :    0.043009
  70 Br:    0.017668
  71 H :   -0.031454
  72 H :   -0.006130
  73 H :    0.007251
  74 H :    0.021491
  75 H :    0.010889
  76 H :   -0.003877
  77 H :   -0.016110
  78 H :    0.068721
  79 H :    0.152437
  80 H :    0.007016
  81 H :    0.021786
  82 H :    0.018617
  83 H :    0.010408
  84 H :    0.005110
  85 H :   -0.000080
  86 H :   -0.002455
  87 H :   -0.002042
  88 H :    0.001744
  89 H :    0.027730
  90 H :   -0.011825
  91 H :   -0.042867
  92 H :   -0.005033
Sum of atomic charges:    0.0000000

LOEWDIN ATOMIC CHARGES
----------------------
   0 C :    0.073090
   1 C :   -0.129405
   2 C :   -0.017539
   3 N :   -0.048053
   4 C :   -0.026953
   5 N :   -0.037677
   6 C :   -0.029623
   7 C :   -0.058727
   8 C :    0.027667
   9 C :   -0.026434
  10 C :   -0.143368
  11 C :   -0.014215
  12 S :    0.425787
  13 C :   -0.271658
  14 C :   -0.060240
  15 Br:    0.136421
  16 C :    0.086586
  17 O :   -0.125743
  18 C :   -0.057952
  19 C :    0.055530
  20 C :    0.009958
  21 N :   -0.086327
  22 C :    0.047618
  23 C :   -0.055196
  24 C :    0.040110
  25 N :   -0.069895
  26 C :   -0.098250
  27 C :    0.047421
  28 N :    0.048071
  29 C :   -0.081692
  30 S :    0.483752
  31 C :   -0.225496
  32 N :    0.281644
  33 O :   -0.217119
  34 O :   -0.251187
  35 C :    0.009403
  36 C :   -0.117270
  37 C :   -0.007291
  38 C :   -0.042345
  39 C :   -0.011726
  40 C :   -0.150564
  41 C :    0.000903
  42 C :   -0.034851
  43 C :   -0.135371
  44 S :    0.409444
  45 C :   -0.197144
  46 C :   -0.009113
  47 C :   -0.031323
  48 C :   -0.107243
  49 S :    0.468346
  50 C :   -0.078896
  51 C :    0.043648
  52 C :   -0.114619
  53 C :    0.051837
  54 C :   -0.187433
  55 C :    0.029679
  56 N :   -0.099389
  57 C :   -0.035479
  58 N :   -0.067642
  59 C :   -0.015793
  60 C :   -0.055260
  61 C :    0.084066
  62 O :   -0.146227
  63 C :    0.023071
  64 C :   -0.039134
  65 C :   -0.144189
  66 C :   -0.026929
  67 S :    0.456010
  68 C :   -0.279403
  69 C :   -0.068996
  70 Br:    0.148688
  71 H :    0.028562
  72 H :    0.040114
  73 H :    0.041627
  74 H :    0.050083
  75 H :    0.028482
  76 H :    0.034493
  77 H :    0.026065
  78 H :    0.022824
  79 H :    0.075602
  80 H :    0.045129
  81 H :    0.027024
  82 H :    0.035430
  83 H :    0.041317
  84 H :    0.040339
  85 H :    0.036933
  86 H :    0.036559
  87 H :    0.038053
  88 H :    0.042033
  89 H :    0.047384
  90 H :    0.040671
  91 H :    0.030590
  92 H :    0.038319

  Mayer bond orders larger than 0.100000
B(  0-C ,  1-C ) :   1.6674 B(  0-C ,  6-C ) :   1.0167 B(  0-C , 18-C ) :   1.0215
B(  1-C ,  2-C ) :   1.1380 B(  1-C ,  4-C ) :   1.1349 B(  2-C ,  3-N ) :   2.9834
B(  4-C ,  5-N ) :   3.0049 B(  6-C ,  7-C ) :   1.2574 B(  6-C , 11-C ) :   1.3994
B(  7-C ,  8-C ) :   1.3790 B(  7-C , 16-C ) :   0.9492 B(  8-C ,  9-C ) :   1.2824
B(  8-C , 71-H ) :   1.0116 B(  9-C , 10-C ) :   1.2849 B(  9-C , 14-C ) :   1.1775
B( 10-C , 11-C ) :   1.3357 B( 10-C , 12-S ) :   1.0872 B( 11-C , 72-H ) :   0.9841
B( 12-S , 13-C ) :   1.0767 B( 13-C , 14-C ) :   1.6050 B( 13-C , 15-Br) :   1.0200
B( 14-C , 73-H ) :   0.9923 B( 16-C , 17-O ) :   2.1608 B( 16-C , 18-C ) :   0.9104
B( 17-O , 78-H ) :   0.1088 B( 18-C , 19-C ) :   1.6711 B( 19-C , 20-C ) :   1.0268
B( 19-C , 74-H ) :   0.9378 B( 20-C , 21-N ) :   1.5424 B( 20-C , 25-N ) :   1.5687
B( 21-N , 22-C ) :   1.5389 B( 22-C , 23-C ) :   1.3817 B( 22-C , 75-H ) :   0.9799
B( 23-C , 24-C ) :   1.3187 B( 23-C , 76-H ) :   0.9756 B( 24-C , 25-N ) :   1.4893
B( 24-C , 26-C ) :   1.0889 B( 26-C , 27-C ) :   1.6915 B( 26-C , 77-H ) :   0.9743
B( 27-C , 28-N ) :   1.1324 B( 27-C , 78-H ) :   0.9209 B( 28-N , 29-C ) :   1.2485
B( 28-N , 79-H ) :   0.8586 B( 29-C , 30-S ) :   1.1711 B( 29-C , 36-C ) :   1.3313
B( 30-S , 31-C ) :   1.0509 B( 31-C , 32-N ) :   1.0047 B( 31-C , 35-C ) :   1.4496
B( 32-N , 33-O ) :   1.5368 B( 32-N , 34-O ) :   1.4287 B( 33-O , 34-O ) :   0.2362
B( 35-C , 36-C ) :   1.2580 B( 35-C , 80-H ) :   1.0054 B( 36-C , 37-C ) :   1.0850
B( 37-C , 38-C ) :   1.7124 B( 37-C , 81-H ) :   0.9473 B( 38-C , 39-C ) :   1.1340
B( 38-C , 82-H ) :   0.9590 B( 39-C , 40-C ) :   1.6452 B( 39-C , 83-H ) :   0.9634
B( 40-C , 41-C ) :   1.1257 B( 40-C , 44-S ) :   1.0210 B( 41-C , 42-C ) :   1.6152
B( 41-C , 84-H ) :   0.9959 B( 42-C , 43-C ) :   1.1753 B( 42-C , 85-H ) :   0.9927
B( 43-C , 44-S ) :   1.0943 B( 43-C , 45-C ) :   1.4791 B( 45-C , 46-C ) :   1.1982
B( 45-C , 49-S ) :   1.0307 B( 46-C , 47-C ) :   1.5731 B( 46-C , 86-H ) :   0.9902
B( 47-C , 48-C ) :   1.1618 B( 47-C , 87-H ) :   0.9971 B( 48-C , 49-S ) :   1.1305
B( 48-C , 50-C ) :   1.4254 B( 50-C , 51-C ) :   1.3615 B( 50-C , 88-H ) :   0.9519
B( 51-C , 52-C ) :   1.4438 B( 51-C , 89-H ) :   0.9239 B( 52-C , 53-C ) :   1.1638
B( 52-C , 61-C ) :   0.9582 B( 53-C , 54-C ) :   1.4940 B( 53-C , 59-C ) :   1.0109
B( 54-C , 55-C ) :   1.1974 B( 54-C , 57-C ) :   1.1566 B( 55-C , 56-N ) :   2.8143
B( 56-N , 79-H ) :   0.1265 B( 57-C , 58-N ) :   3.0135 B( 59-C , 60-C ) :   1.2737
B( 59-C , 66-C ) :   1.4235 B( 60-C , 61-C ) :   0.9184 B( 60-C , 63-C ) :   1.4410
B( 61-C , 62-O ) :   2.2442 B( 63-C , 64-C ) :   1.2322 B( 63-C , 90-H ) :   1.0173
B( 64-C , 65-C ) :   1.3192 B( 64-C , 69-C ) :   1.1659 B( 65-C , 66-C ) :   1.3142
B( 65-C , 67-S ) :   1.0890 B( 66-C , 91-H ) :   0.9820 B( 67-S , 68-C ) :   1.1011
B( 68-C , 69-C ) :   1.6130 B( 68-C , 70-Br) :   1.0162 B( 69-C , 92-H ) :   1.0001

-----------------------------------------------------------------------------
         ABSORPTION SPECTRUM VIA TRANSITION ELECTRIC DIPOLE MOMENTS
-----------------------------------------------------------------------------
State   Energy  Wavelength   fosc         T2         TX        TY        TZ
        (cm-1)    (nm)                  (au**2)     (au)      (au)      (au)
-----------------------------------------------------------------------------
   0   11970.7    835.4   0.252345526   6.93985   1.90511   0.79738   1.63541
   1   18976.0    527.0   0.337482364   5.85493  -0.99448  -2.08835   0.71046
   2   21082.9    474.3   0.146345540   2.28521  -0.17313   0.75088  -1.30054
   3   22111.8    452.2   0.024271963   0.36137   0.55301  -0.18240   0.14929
   4   22609.6    442.3   0.082893392   1.20699  -0.23775   0.02339   1.07234
   5   23350.4    428.3   0.003309988   0.04667  -0.12462  -0.02405   0.17481
   6   24249.2    412.4   0.289133066   3.92534  -1.89798  -0.56702  -0.03856
   7   24560.3    407.2   0.082669156   1.10812   0.89936  -0.45360  -0.30580
   8   25964.5    385.1   0.086566683   1.09760  -0.16531   0.96189  -0.38084
   9   26279.9    380.5   0.279485154   3.50115  -0.33835  -1.54869   0.99410
  10   26835.0    372.6   0.213175077   2.61524  -1.51342   0.39363   0.41213
  11   26884.9    372.0   0.095159838   1.16526   0.80059   0.40622  -0.59941
  12   27454.8    364.2   0.610110916   7.31587  -1.05702   1.27554  -2.13813
  13   27996.3    357.2   0.001534536   0.01804  -0.06220   0.05137  -0.10741
  14   28442.6    351.6   0.130849586   1.51453  -1.09930  -0.18251   0.52227
  15   28743.3    347.9   0.051548137   0.59041   0.09045   0.56284  -0.51521
  16   28945.9    345.5   0.012682389   0.14424  -0.01912  -0.12604   0.35776
  17   28971.2    345.2   0.013094871   0.14880   0.18120   0.29043  -0.17783
  18   29524.4    338.7   0.002159780   0.02408  -0.00980  -0.07012   0.13809
  19   29864.5    334.8   0.006624904   0.07303   0.25440   0.00631  -0.09095
  20   30167.1    331.5   0.074888246   0.81725   0.31598   0.84478  -0.06126
  21   30240.7    330.7   0.084257823   0.91726   0.22308  -0.86067   0.35602
  22   30870.1    323.9   0.302622715   3.22730   0.14117   1.79072   0.02613
  23   30976.8    322.8   0.018539944   0.19704  -0.12008  -0.38132  -0.19290
  24   31184.8    320.7   0.006320386   0.06672  -0.20105   0.10742  -0.12150
  25   31598.6    316.5   0.056633219   0.59004   0.13280   0.45022  -0.60803
  26   31751.4    314.9   0.387609909   4.01890   1.27894  -1.32640   0.78986
  27   32095.0    311.6   0.014977773   0.15363  -0.01324   0.35781  -0.15946
  28   32218.5    310.4   0.154295878   1.57661   1.24641  -0.01875  -0.15073
  29   32330.3    309.3   0.197020530   2.00621  -1.09949   0.81466   0.36560
  30   32539.6    307.3   0.384618186   3.89129   1.88167  -0.07975  -0.58674
  31   32799.4    304.9   0.145554491   1.46095   1.06609  -0.26776   0.50270
  32   33089.8    302.2   0.227820925   2.26660  -0.39878  -1.17838   0.84793
  33   33237.2    300.9   0.091943921   0.91070  -0.47934   0.56421  -0.60216
  34   33489.3    298.6   0.106098201   1.04298   0.56982  -0.76347   0.36796
  35   33774.1    296.1   0.036724096   0.35797   0.39098   0.43277  -0.13348
  36   33822.2    295.7   0.023318213   0.22697   0.28369  -0.30578  -0.23020
  37   34033.3    293.8   0.006944643   0.06718  -0.22361   0.03880   0.12518
  38   34207.4    292.3   0.023138654   0.22269  -0.09177   0.46259   0.01664
  39   34736.2    287.9   0.108580573   1.02907  -0.14737  -0.82638   0.56961
  40   35187.6    284.2   0.025326382   0.23695  -0.21520  -0.36200   0.24412
  41   35397.9    282.5   0.104086353   0.96804  -0.40946  -0.63487  -0.63033
  42   35516.1    281.6   0.071090311   0.65896   0.20090   0.01776   0.78631
  43   35699.1    280.1   0.031037660   0.28622  -0.48943  -0.19875  -0.08477
  44   35961.2    278.1   0.151685973   1.38863  -0.49577   1.02791  -0.29368
  45   36155.7    276.6   0.257947835   2.34872  -0.24776   1.24768   0.85477
  46   36418.3    274.6   0.333506998   3.01482   1.35425   0.41804   1.00302
  47   36648.5    272.9   0.198167088   1.78013   0.67748  -1.14114   0.13761
  48   37292.2    268.2   0.198065384   1.74850   0.14954  -1.26585   0.35178
  49   37442.7    267.1   0.063875546   0.56162  -0.08677  -0.66138   0.34157
  50   37560.8    266.2   0.032164475   0.28191  -0.06819   0.50313  -0.15532
  51   37695.6    265.3   0.040180791   0.35092  -0.34051  -0.39235   0.28467
  52   37911.3    263.8   0.067028709   0.58206  -0.43036   0.34839   0.52486
  53   37975.7    263.3   0.040518420   0.35125   0.54573  -0.23112  -0.00469
  54   38029.3    263.0   0.036477971   0.31578  -0.32991   0.36766   0.26789
  55   38118.2    262.3   0.029664139   0.25620   0.21402   0.45498  -0.05823
  56   38390.0    260.5   0.000948611   0.00813  -0.01640   0.08668   0.01876
  57   38523.0    259.6   0.000695287   0.00594   0.04460  -0.04586  -0.04301
  58   38706.1    258.4   0.019795827   0.16837  -0.07365  -0.29710   0.27328
  59   38845.6    257.4   0.043744938   0.37073  -0.01720  -0.26738  -0.54676
  60   39374.2    254.0   0.016683272   0.13949   0.05631   0.36420  -0.06067
  61   39436.8    253.6   0.022351442   0.18659  -0.19467   0.38471   0.02618
  62   39558.1    252.8   0.059257639   0.49316  -0.01580   0.59710  -0.36930
  63   39892.3    250.7   0.050108381   0.41352   0.42362  -0.35480  -0.32892
  64   39918.1    250.5   0.005413642   0.04465  -0.00498   0.17437  -0.11924
  65   39993.0    250.0   0.049502971   0.40750  -0.52735   0.35768   0.03823
  66   40189.8    248.8   0.006280173   0.05144  -0.12963  -0.14182   0.12053
  67   40288.8    248.2   0.011938982   0.09756  -0.12726   0.27295  -0.08282

FINAL SINGLE POINT ENERGY     -9868.287339639923

DIPOLE MOMENT
-------------
                                X             Y             Z
Electronic contribution:     57.82319    -141.79868      46.82711
Nuclear contribution   :    -56.12173     146.59775     -49.26092
                        -----------------------------------------
Total Dipole Moment    :      1.70146       4.79907      -2.43381
                        -----------------------------------------
Magnitude (a.u.)       :      5.64354
Magnitude (Debye)      :     14.34473

Rotational constants in cm-1:     0.001302     0.000494     0.000431
Rotational constants in MHz :    39.028174    14.814908    12.932831

                             ****ORCA TERMINATED NORMALLY****
TOTAL RUN TIME: 0 days 0 hours 12 minutes 57 seconds 684 msec
