                         Program Version 4.2.0 -  RELEASE  -
|  1> # ORCA input file
|  2> # SCF done       -169.473592411519          0.000589407055
|  3> ! CAM-B3LYP def2-SVP def2/J RIJCOSX Grid4 TightSCF
|  4> %maxcore 5000
|  5> %tddft
|  6>     Mode sTDDFT
|  7>     Ethresh 5.0
|  8>     maxcore 5000
|  9> end
| 10>
| 11> %pal
| 12>   nprocs 6
| 13>   end
| 14> * xyz 0 1
| 15>    C      -10.69547         4.51778         0.68121
| 16>    C      -11.23288         3.73257         1.66412
| 17>    C      -11.59236         4.21210         2.94063
| 18>    N      -11.88182         4.54707         3.99971
| 19>    C      -11.51406         2.35610         1.53564
| 20>    N      -11.79656         1.24400         1.50094
| 21>    C      -10.48062         5.95596         0.74548
| 22>    C      -10.05223         6.41654        -0.52407
| 23>    C       -9.75978         7.73300        -0.78006
| 24>    C       -9.86865         8.64049         0.27658
| 25>    C      -10.29335         8.17415         1.54359
| 26>    C      -10.61009         6.84669         1.79722
| 27>    S      -10.33081         9.45872         2.71149
| 28>    C       -9.77964        10.58411         1.50028
| 29>    C       -9.58634        10.03264         0.27959
| 30>   Br       -9.48063        12.37323         1.96382
| 31>    C       -9.99108         5.28166        -1.46420
| 32>    O       -9.91452         5.35040        -2.66661
| 33>    C      -10.20202         4.06634        -0.61603
| 34>    C       -9.87751         2.80486        -0.96269
| 35>    C       -9.05362         2.50065        -2.12618
| 36>    N       -9.23800         1.32674        -2.72459
| 37>    C       -8.48143         1.07962        -3.78276
| 38>    C       -7.56076         1.98673        -4.27421
| 39>    C       -7.40917         3.18488        -3.55635
| 40>    N       -8.13760         3.39875        -2.46060
| 41>    C       -6.53822         4.27409        -3.92649
| 42>    C       -5.73834         4.29772        -5.00560
| 43>    N       -5.01405         5.39297        -5.37733
| 44>    C       -4.17919         5.45517        -6.44420
| 45>    S       -3.81337         4.02799        -7.35774
| 46>    C       -2.79451         4.97179        -8.39950
| 47>    N       -2.14938         4.30503        -9.44070
| 48>    O       -1.43121         4.95756       -10.17784
| 49>    O       -2.35661         3.10438        -9.53374
| 50>    C       -2.74893         6.29554        -8.05960
| 51>    C       -3.54000         6.60868        -6.93378
| 52>    C       -3.69671         7.91208        -6.36345
| 53>    C       -3.20798         9.05278        -6.92140
| 54>    C       -3.31190        10.36673        -6.42065
| 55>    C       -3.84526        10.83311        -5.24399
| 56>    C       -3.84875        12.19821        -4.85496
| 57>    C       -4.37792        12.44231        -3.62490
| 58>    C       -4.83337        11.28590        -2.95815
| 59>    S       -4.58265         9.87530        -3.97079
| 60>    C       -5.36446        11.18611        -1.68786
| 61>    C       -5.54919        12.21265        -0.73446
| 62>    C       -6.01964        11.77321         0.46483
| 63>    C       -6.24966        10.37537         0.53595
| 64>    S       -5.85995         9.64851        -1.01875
| 65>    C       -6.69477         9.69855         1.64083
| 66>    C       -6.97516         8.32246         1.77922
| 67>    C       -7.45191         7.72579         2.95485
| 68>    C       -7.65349         6.34706         2.71916
| 69>    C       -8.13457         5.33275         3.52377
| 70>    C       -8.21768         4.05052         2.96837
| 71>    C       -8.68457         2.84547         3.48554
| 72>    C       -8.56364         1.82987         2.49052
| 73>    C       -8.00068         2.40260         1.35837
| 74>    C       -7.79168         3.79204         1.60417
| 75>    C       -7.33221         4.79696         0.79292
| 76>    C       -7.26471         6.09148         1.34402
| 77>    C       -6.86355         7.29254         0.78904
| 78>    C       -8.98740         0.46368         2.68207
| 79>    C       -9.06037        -0.45394         1.72148
| 80>    H       -9.44120         8.05097        -1.76018
| 81>    H      -10.93077         6.54176         2.77911
| 82>    H       -9.24834        10.58025        -0.58117
| 83>    H      -10.17665         1.95729        -0.36334
| 84>    H       -8.63836         0.11830        -4.25500
| 85>    H       -6.98974         1.77262        -5.16127
| 86>    H       -6.61856         5.14351        -3.28895
| 87>    H       -5.62636         3.44417        -5.65835
| 88>    H       -5.13706         6.23925        -4.83335
| 89>    H       -2.15324         6.99803        -8.61198
| 90>    H       -4.25370         7.97827        -5.44099
| 91>    H       -2.68402         8.97371        -7.86344
| 92>    H       -2.88942        11.13852        -7.05219
| 93>    H       -3.44606        12.95797        -5.50136
| 94>    H       -4.44707        13.41810        -3.17885
| 95>    H       -5.31764        13.23932        -0.95296
| 96>    H       -6.21149        12.41057         1.30997
| 97>    H       -6.85558        10.30319         2.52603
| 98>    H       -7.63590         8.23327         3.88410
| 99>    H       -8.44233         5.51377         4.54359
|100>    H       -9.08925         2.69469         4.47052
|101>    H       -7.72933         1.89773         0.45086
|102>    H       -7.05311         4.61281        -0.23526
|103>    H       -6.52157         7.42338        -0.21958
|104>    H       -9.28848         0.21153         3.69058
|105>    H       -8.79282        -0.23954         0.70072
|106>    H       -9.40275        -1.45281         1.92509
|107> *
|108>
|109>                          ****END OF INPUT****

CARTESIAN COORDINATES (ANGSTROEM)
---------------------------------
  C    -10.695470    4.517780    0.681210
  C    -11.232880    3.732570    1.664120
  C    -11.592360    4.212100    2.940630
  N    -11.881820    4.547070    3.999710
  C    -11.514060    2.356100    1.535640
  N    -11.796560    1.244000    1.500940
  C    -10.480620    5.955960    0.745480
  C    -10.052230    6.416540   -0.524070
  C     -9.759780    7.733000   -0.780060
  C     -9.868650    8.640490    0.276580
  C    -10.293350    8.174150    1.543590
  C    -10.610090    6.846690    1.797220
  S    -10.330810    9.458720    2.711490
  C     -9.779640   10.584110    1.500280
  C     -9.586340   10.032640    0.279590
  Br    -9.480630   12.373230    1.963820
  C     -9.991080    5.281660   -1.464200
  O     -9.914520    5.350400   -2.666610
  C    -10.202020    4.066340   -0.616030
  C     -9.877510    2.804860   -0.962690
  C     -9.053620    2.500650   -2.126180
  N     -9.238000    1.326740   -2.724590
  C     -8.481430    1.079620   -3.782760
  C     -7.560760    1.986730   -4.274210
  C     -7.409170    3.184880   -3.556350
  N     -8.137600    3.398750   -2.460600
  C     -6.538220    4.274090   -3.926490
  C     -5.738340    4.297720   -5.005600
  N     -5.014050    5.392970   -5.377330
  C     -4.179190    5.455170   -6.444200
  S     -3.813370    4.027990   -7.357740
  C     -2.794510    4.971790   -8.399500
  N     -2.149380    4.305030   -9.440700
  O     -1.431210    4.957560  -10.177840
  O     -2.356610    3.104380   -9.533740
  C     -2.748930    6.295540   -8.059600
  C     -3.540000    6.608680   -6.933780
  C     -3.696710    7.912080   -6.363450
  C     -3.207980    9.052780   -6.921400
  C     -3.311900   10.366730   -6.420650
  C     -3.845260   10.833110   -5.243990
  C     -3.848750   12.198210   -4.854960
  C     -4.377920   12.442310   -3.624900
  C     -4.833370   11.285900   -2.958150
  S     -4.582650    9.875300   -3.970790
  C     -5.364460   11.186110   -1.687860
  C     -5.549190   12.212650   -0.734460
  C     -6.019640   11.773210    0.464830
  C     -6.249660   10.375370    0.535950
  S     -5.859950    9.648510   -1.018750
  C     -6.694770    9.698550    1.640830
  C     -6.975160    8.322460    1.779220
  C     -7.451910    7.725790    2.954850
  C     -7.653490    6.347060    2.719160
  C     -8.134570    5.332750    3.523770
  C     -8.217680    4.050520    2.968370
  C     -8.684570    2.845470    3.485540
  C     -8.563640    1.829870    2.490520
  C     -8.000680    2.402600    1.358370
  C     -7.791680    3.792040    1.604170
  C     -7.332210    4.796960    0.792920
  C     -7.264710    6.091480    1.344020
  C     -6.863550    7.292540    0.789040
  C     -8.987400    0.463680    2.682070
  C     -9.060370   -0.453940    1.721480
  H     -9.441200    8.050970   -1.760180
  H    -10.930770    6.541760    2.779110
  H     -9.248340   10.580250   -0.581170
  H    -10.176650    1.957290   -0.363340
  H     -8.638360    0.118300   -4.255000
  H     -6.989740    1.772620   -5.161270
  H     -6.618560    5.143510   -3.288950
  H     -5.626360    3.444170   -5.658350
  H     -5.137060    6.239250   -4.833350
  H     -2.153240    6.998030   -8.611980
  H     -4.253700    7.978270   -5.440990
  H     -2.684020    8.973710   -7.863440
  H     -2.889420   11.138520   -7.052190
  H     -3.446060   12.957970   -5.501360
  H     -4.447070   13.418100   -3.178850
  H     -5.317640   13.239320   -0.952960
  H     -6.211490   12.410570    1.309970
  H     -6.855580   10.303190    2.526030
  H     -7.635900    8.233270    3.884100
  H     -8.442330    5.513770    4.543590
  H     -9.089250    2.694690    4.470520
  H     -7.729330    1.897730    0.450860
  H     -7.053110    4.612810   -0.235260
  H     -6.521570    7.423380   -0.219580
  H     -9.288480    0.211530    3.690580
  H     -8.792820   -0.239540    0.700720
  H     -9.402750   -1.452810    1.925090

 Total Charge           Charge          ....    0
 Multiplicity           Mult            ....    1
 Number of Electrons    NEL             ....  498
 Basis Dimension        Dim             .... 1079

ORBITAL ENERGIES
----------------

  NO   OCC          E(Eh)            E(eV)
   0   2.0000    -482.891753    -13140.1526
   1   2.0000     -88.983304     -2421.3588
   2   2.0000     -88.978633     -2421.2317
   3   2.0000     -88.952687     -2420.5257
   4   2.0000     -88.951958     -2420.5058
   5   2.0000     -62.569227     -1702.5952
   6   2.0000     -56.403157     -1534.8079
   7   2.0000     -56.400510     -1534.7359
   8   2.0000     -56.400424     -1534.7336
   9   2.0000     -19.232003      -523.3294
  10   2.0000     -19.231589      -523.3181
  11   2.0000     -19.213587      -522.8283
  12   2.0000     -14.643732      -398.4762
  13   2.0000     -14.489404      -394.2767
  14   2.0000     -14.417969      -392.3329
  15   2.0000     -14.415229      -392.2583
  16   2.0000     -14.413970      -392.2241
  17   2.0000     -14.410254      -392.1229
  18   2.0000     -10.368144      -282.1315
  19   2.0000     -10.365557      -282.0612
  20   2.0000     -10.360212      -281.9157
  21   2.0000     -10.350795      -281.6595
  22   2.0000     -10.347562      -281.5715
  23   2.0000     -10.341295      -281.4009
  24   2.0000     -10.339956      -281.3645
  25   2.0000     -10.339135      -281.3422
  26   2.0000     -10.338314      -281.3198
  27   2.0000     -10.326068      -280.9866
  28   2.0000     -10.325768      -280.9784
  29   2.0000     -10.321089      -280.8511
  30   2.0000     -10.317157      -280.7441
  31   2.0000     -10.312719      -280.6233
  32   2.0000     -10.310170      -280.5540
  33   2.0000     -10.309988      -280.5490
  34   2.0000     -10.309127      -280.5256
  35   2.0000     -10.307607      -280.4843
  36   2.0000     -10.307513      -280.4817
  37   2.0000     -10.307233      -280.4741
  38   2.0000     -10.305978      -280.4399
  39   2.0000     -10.305975      -280.4398
  40   2.0000     -10.305817      -280.4356
  41   2.0000     -10.305200      -280.4188
  42   2.0000     -10.302075      -280.3337
  43   2.0000     -10.298509      -280.2367
  44   2.0000     -10.297750      -280.2160
  45   2.0000     -10.297660      -280.2136
  46   2.0000     -10.293563      -280.1021
  47   2.0000     -10.292219      -280.0655
  48   2.0000     -10.291105      -280.0352
  49   2.0000     -10.290380      -280.0155
  50   2.0000     -10.290353      -280.0147
  51   2.0000     -10.288837      -279.9735
  52   2.0000     -10.288329      -279.9597
  53   2.0000     -10.288228      -279.9569
  54   2.0000     -10.285629      -279.8862
  55   2.0000     -10.285190      -279.8742
  56   2.0000     -10.284540      -279.8566
  57   2.0000     -10.284006      -279.8420
  58   2.0000     -10.282855      -279.8107
  59   2.0000     -10.280718      -279.7526
  60   2.0000     -10.278552      -279.6936
  61   2.0000     -10.277248      -279.6581
  62   2.0000     -10.276713      -279.6436
  63   2.0000     -10.271850      -279.5113
  64   2.0000     -10.271806      -279.5100
  65   2.0000     -10.271538      -279.5027
  66   2.0000     -10.270917      -279.4859
  67   2.0000     -10.266298      -279.3602
  68   2.0000     -10.258241      -279.1409
  69   2.0000      -8.798600      -239.4221
  70   2.0000      -8.078775      -219.8347
  71   2.0000      -8.074087      -219.7071
  72   2.0000      -8.048334      -219.0063
  73   2.0000      -8.047482      -218.9831
  74   2.0000      -6.634712      -180.5397
  75   2.0000      -6.620493      -180.1528
  76   2.0000      -6.620180      -180.1443
  77   2.0000      -6.048495      -164.5879
  78   2.0000      -6.044121      -164.4689
  79   2.0000      -6.043792      -164.4599
  80   2.0000      -6.040118      -164.3600
  81   2.0000      -6.039535      -164.3441
  82   2.0000      -6.035392      -164.2314
  83   2.0000      -6.018078      -163.7602
  84   2.0000      -6.017215      -163.7368
  85   2.0000      -6.014063      -163.6510
  86   2.0000      -6.013279      -163.6296
  87   2.0000      -6.009375      -163.5234
  88   2.0000      -6.008523      -163.5002
  89   2.0000      -2.750657       -74.8492
  90   2.0000      -2.746678       -74.7409
  91   2.0000      -2.746403       -74.7334
  92   2.0000      -2.735112       -74.4262
  93   2.0000      -2.735100       -74.4259
  94   2.0000      -1.311991       -35.7011
  95   2.0000      -1.131031       -30.7769
  96   2.0000      -1.130194       -30.7541
  97   2.0000      -1.095893       -29.8208
  98   2.0000      -1.089605       -29.6497
  99   2.0000      -1.023740       -27.8574
 100   2.0000      -1.013807       -27.5871
 101   2.0000      -1.002608       -27.2823
 102   2.0000      -0.998977       -27.1835
 103   2.0000      -0.995062       -27.0770
 104   2.0000      -0.992861       -27.0171
 105   2.0000      -0.988380       -26.8952
 106   2.0000      -0.987279       -26.8652
 107   2.0000      -0.976666       -26.5764
 108   2.0000      -0.967779       -26.3346
 109   2.0000      -0.944717       -25.7071
 110   2.0000      -0.925307       -25.1789
 111   2.0000      -0.918718       -24.9996
 112   2.0000      -0.910215       -24.7682
 113   2.0000      -0.907923       -24.7058
 114   2.0000      -0.898392       -24.4465
 115   2.0000      -0.887396       -24.1473
 116   2.0000      -0.886236       -24.1157
 117   2.0000      -0.880560       -23.9613
 118   2.0000      -0.871231       -23.7074
 119   2.0000      -0.866959       -23.5912
 120   2.0000      -0.862351       -23.4658
 121   2.0000      -0.853171       -23.2160
 122   2.0000      -0.845076       -22.9957
 123   2.0000      -0.843120       -22.9425
 124   2.0000      -0.829706       -22.5774
 125   2.0000      -0.828285       -22.5388
 126   2.0000      -0.825847       -22.4724
 127   2.0000      -0.806633       -21.9496
 128   2.0000      -0.800196       -21.7744
 129   2.0000      -0.790364       -21.5069
 130   2.0000      -0.783788       -21.3280
 131   2.0000      -0.769698       -20.9445
 132   2.0000      -0.759260       -20.6605
 133   2.0000      -0.754659       -20.5353
 134   2.0000      -0.747874       -20.3507
 135   2.0000      -0.741276       -20.1711
 136   2.0000      -0.732932       -19.9441
 137   2.0000      -0.724542       -19.7158
 138   2.0000      -0.711211       -19.3530
 139   2.0000      -0.701371       -19.0853
 140   2.0000      -0.690486       -18.7891
 141   2.0000      -0.685787       -18.6612
 142   2.0000      -0.679564       -18.4919
 143   2.0000      -0.673517       -18.3273
 144   2.0000      -0.670481       -18.2447
 145   2.0000      -0.667142       -18.1538
 146   2.0000      -0.657705       -17.8971
 147   2.0000      -0.654043       -17.7974
 148   2.0000      -0.642531       -17.4842
 149   2.0000      -0.640529       -17.4297
 150   2.0000      -0.632970       -17.2240
 151   2.0000      -0.632689       -17.2163
 152   2.0000      -0.627659       -17.0795
 153   2.0000      -0.624913       -17.0048
 154   2.0000      -0.623063       -16.9544
 155   2.0000      -0.622960       -16.9516
 156   2.0000      -0.615912       -16.7598
 157   2.0000      -0.612751       -16.6738
 158   2.0000      -0.605962       -16.4891
 159   2.0000      -0.601863       -16.3775
 160   2.0000      -0.596636       -16.2353
 161   2.0000      -0.591128       -16.0854
 162   2.0000      -0.588349       -16.0098
 163   2.0000      -0.584818       -15.9137
 164   2.0000      -0.582565       -15.8524
 165   2.0000      -0.574539       -15.6340
 166   2.0000      -0.570538       -15.5251
 167   2.0000      -0.566918       -15.4266
 168   2.0000      -0.559305       -15.2195
 169   2.0000      -0.550940       -14.9919
 170   2.0000      -0.549032       -14.9399
 171   2.0000      -0.548574       -14.9275
 172   2.0000      -0.543250       -14.7826
 173   2.0000      -0.541803       -14.7432
 174   2.0000      -0.538985       -14.6665
 175   2.0000      -0.537578       -14.6283
 176   2.0000      -0.534526       -14.5452
 177   2.0000      -0.528526       -14.3819
 178   2.0000      -0.526184       -14.3182
 179   2.0000      -0.521150       -14.1812
 180   2.0000      -0.520237       -14.1564
 181   2.0000      -0.518236       -14.1019
 182   2.0000      -0.513776       -13.9805
 183   2.0000      -0.510985       -13.9046
 184   2.0000      -0.509427       -13.8622
 185   2.0000      -0.505170       -13.7464
 186   2.0000      -0.503346       -13.6967
 187   2.0000      -0.500154       -13.6099
 188   2.0000      -0.497413       -13.5353
 189   2.0000      -0.496828       -13.5194
 190   2.0000      -0.492139       -13.3918
 191   2.0000      -0.490464       -13.3462
 192   2.0000      -0.489137       -13.3101
 193   2.0000      -0.485206       -13.2031
 194   2.0000      -0.481324       -13.0975
 195   2.0000      -0.479100       -13.0370
 196   2.0000      -0.477489       -12.9931
 197   2.0000      -0.472828       -12.8663
 198   2.0000      -0.471201       -12.8220
 199   2.0000      -0.466933       -12.7059
 200   2.0000      -0.465161       -12.6577
 201   2.0000      -0.463983       -12.6256
 202   2.0000      -0.459112       -12.4931
 203   2.0000      -0.457457       -12.4480
 204   2.0000      -0.457160       -12.4400
 205   2.0000      -0.450546       -12.2600
 206   2.0000      -0.447657       -12.1814
 207   2.0000      -0.443945       -12.0804
 208   2.0000      -0.443425       -12.0662
 209   2.0000      -0.442953       -12.0534
 210   2.0000      -0.440614       -11.9897
 211   2.0000      -0.439315       -11.9544
 212   2.0000      -0.431266       -11.7353
 213   2.0000      -0.430060       -11.7025
 214   2.0000      -0.426700       -11.6111
 215   2.0000      -0.423243       -11.5170
 216   2.0000      -0.422157       -11.4875
 217   2.0000      -0.421323       -11.4648
 218   2.0000      -0.416176       -11.3247
 219   2.0000      -0.414628       -11.2826
 220   2.0000      -0.412066       -11.2129
 221   2.0000      -0.408740       -11.1224
 222   2.0000      -0.399664       -10.8754
 223   2.0000      -0.397647       -10.8205
 224   2.0000      -0.394660       -10.7393
 225   2.0000      -0.386900       -10.5281
 226   2.0000      -0.383630       -10.4391
 227   2.0000      -0.380360       -10.3501
 228   2.0000      -0.380140       -10.3441
 229   2.0000      -0.374940       -10.2026
 230   2.0000      -0.374456       -10.1895
 231   2.0000      -0.371048       -10.0967
 232   2.0000      -0.363080        -9.8799
 233   2.0000      -0.360655        -9.8139
 234   2.0000      -0.348058        -9.4711
 235   2.0000      -0.343125        -9.3369
 236   2.0000      -0.340416        -9.2632
 237   2.0000      -0.336402        -9.1540
 238   2.0000      -0.329400        -8.9634
 239   2.0000      -0.326995        -8.8980
 240   2.0000      -0.325095        -8.8463
 241   2.0000      -0.319789        -8.7019
 242   2.0000      -0.312695        -8.5089
 243   2.0000      -0.303531        -8.2595
 244   2.0000      -0.286996        -7.8096
 245   2.0000      -0.271691        -7.3931
 246   2.0000      -0.270996        -7.3742
 247   2.0000      -0.251187        -6.8351
 248   2.0000      -0.207888        -5.6569
 249   0.0000      -0.109127        -2.9695
 250   0.0000      -0.087952        -2.3933
 251   0.0000      -0.079993        -2.1767
 252   0.0000      -0.058783        -1.5996
 253   0.0000      -0.053252        -1.4491

MULLIKEN ATOMIC CHARGES
-----------------------
   0 C :    0.329078
   1 C :   -0.368711
   2 C :   -0.192878
   3 N :    0.154531
   4 C :   -0.185032
   5 N :    0.165524
   6 C :    0.011214
   7 C :    0.003478
   8 C :   -0.094604
   9 C :    0.142995
  10 C :   -0.110075
  11 C :    0.020074
  12 S :    0.172722
  13 C :   -0.141906
  14 C :    0.070422
  15 Br:    0.018844
  16 C :    0.144010
  17 O :   -0.131352
  18 C :   -0.095478
  19 C :    0.056208
  20 C :   -0.066756
  21 N :   -0.066581
  22 C :    0.081394
  23 C :   -0.051607
  24 C :    0.062091
  25 N :   -0.083336
  26 C :    0.002093
  27 C :    0.088508
  28 N :   -0.023869
  29 C :   -0.117520
  30 S :    0.136127
  31 C :   -0.002393
  32 N :    0.280193
  33 O :   -0.255155
  34 O :   -0.272050
  35 C :    0.002902
  36 C :    0.130694
  37 C :   -0.036404
  38 C :    0.013851
  39 C :   -0.017669
  40 C :   -0.010699
  41 C :    0.033722
  42 C :    0.024578
  43 C :   -0.033081
  44 S :    0.022592
  45 C :   -0.019632
  46 C :    0.014415
  47 C :    0.042942
  48 C :   -0.046848
  49 S :    0.024366
  50 C :    0.028082
  51 C :    0.019369
  52 C :   -0.022711
  53 C :    0.073379
  54 C :   -0.012494
  55 C :    0.038453
  56 C :   -0.007119
  57 C :    0.054025
  58 C :   -0.022279
  59 C :    0.037672
  60 C :    0.003570
  61 C :    0.045891
  62 C :   -0.011972
  63 C :    0.016263
  64 C :    0.004285
  65 H :   -0.014502
  66 H :   -0.013506
  67 H :   -0.002048
  68 H :    0.036977
  69 H :    0.010022
  70 H :   -0.006988
  71 H :   -0.013078
  72 H :    0.033065
  73 H :    0.144165
  74 H :    0.010641
  75 H :   -0.037059
  76 H :   -0.021079
  77 H :   -0.017922
  78 H :   -0.014088
  79 H :   -0.014694
  80 H :   -0.014989
  81 H :   -0.013787
  82 H :   -0.023197
  83 H :   -0.025907
  84 H :   -0.018453
  85 H :   -0.009933
  86 H :   -0.023840
  87 H :   -0.028115
  88 H :   -0.014466
  89 H :   -0.017613
  90 H :    0.015140
  91 H :    0.024907
Sum of atomic charges:   -0.0000000

LOEWDIN ATOMIC CHARGES
----------------------
   0 C :    0.074565
   1 C :   -0.131080
   2 C :   -0.012357
   3 N :   -0.063040
   4 C :   -0.024270
   5 N :   -0.043890
   6 C :   -0.017691
   7 C :   -0.048228
   8 C :    0.018999
   9 C :   -0.028278
  10 C :   -0.137531
  11 C :   -0.003337
  12 S :    0.434893
  13 C :   -0.274357
  14 C :   -0.057193
  15 Br:    0.139290
  16 C :    0.081975
  17 O :   -0.127240
  18 C :   -0.051795
  19 C :    0.055270
  20 C :    0.017977
  21 N :   -0.089027
  22 C :    0.051088
  23 C :   -0.059588
  24 C :    0.044973
  25 N :   -0.078539
  26 C :   -0.087777
  27 C :    0.049673
  28 N :    0.046470
  29 C :   -0.102373
  30 S :    0.447915
  31 C :   -0.211451
  32 N :    0.274309
  33 O :   -0.221168
  34 O :   -0.238202
  35 C :    0.007129
  36 C :   -0.098223
  37 C :   -0.050226
  38 C :   -0.029614
  39 C :   -0.074625
  40 C :   -0.138050
  41 C :   -0.037067
  42 C :   -0.035370
  43 C :   -0.191204
  44 S :    0.362053
  45 C :   -0.169400
  46 C :   -0.048467
  47 C :   -0.023364
  48 C :   -0.165571
  49 S :    0.364247
  50 C :   -0.031082
  51 C :   -0.077884
  52 C :    0.021887
  53 C :   -0.068813
  54 C :    0.080566
  55 C :   -0.073494
  56 C :    0.054148
  57 C :   -0.053918
  58 C :    0.026922
  59 C :   -0.063605
  60 C :    0.078693
  61 C :   -0.067713
  62 C :    0.035097
  63 C :   -0.026838
  64 C :   -0.021660
  65 H :    0.038702
  66 H :    0.037312
  67 H :    0.039279
  68 H :    0.047029
  69 H :    0.028903
  70 H :    0.031689
  71 H :    0.033189
  72 H :    0.023819
  73 H :    0.100987
  74 H :    0.044066
  75 H :    0.001566
  76 H :    0.029428
  77 H :    0.034252
  78 H :    0.032983
  79 H :    0.031892
  80 H :    0.031443
  81 H :    0.030477
  82 H :    0.033946
  83 H :    0.021137
  84 H :    0.038037
  85 H :    0.030855
  86 H :    0.025416
  87 H :    0.033524
  88 H :    0.010064
  89 H :    0.029155
  90 H :    0.019222
  91 H :    0.028088

  Mayer bond orders larger than 0.100000
B(  0-C ,  1-C ) :   1.6600 B(  0-C ,  6-C ) :   1.0218 B(  0-C , 18-C ) :   1.0331
B(  1-C ,  2-C ) :   1.1416 B(  1-C ,  4-C ) :   1.1467 B(  2-C ,  3-N ) :   2.9627
B(  4-C ,  5-N ) :   2.9454 B(  6-C ,  7-C ) :   1.2711 B(  6-C , 11-C ) :   1.4130
B(  7-C ,  8-C ) :   1.4050 B(  7-C , 16-C ) :   0.9216 B(  8-C ,  9-C ) :   1.2406
B(  8-C , 65-H ) :   1.0224 B(  9-C , 10-C ) :   1.3012 B(  9-C , 14-C ) :   1.1731
B( 10-C , 11-C ) :   1.3386 B( 10-C , 12-S ) :   1.0816 B( 11-C , 66-H ) :   0.9770
B( 12-S , 13-C ) :   1.0789 B( 13-C , 14-C ) :   1.6070 B( 13-C , 15-Br) :   1.0179
B( 14-C , 67-H ) :   0.9984 B( 16-C , 17-O ) :   2.2704 B( 16-C , 18-C ) :   0.9067
B( 18-C , 19-C ) :   1.7823 B( 19-C , 20-C ) :   0.9955 B( 19-C , 68-H ) :   0.9178
B( 20-C , 21-N ) :   1.5418 B( 20-C , 25-N ) :   1.4940 B( 21-N , 22-C ) :   1.5159
B( 22-C , 23-C ) :   1.4193 B( 22-C , 69-H ) :   0.9777 B( 23-C , 24-C ) :   1.3259
B( 23-C , 70-H ) :   0.9666 B( 24-C , 25-N ) :   1.4680 B( 24-C , 26-C ) :   1.1095
B( 26-C , 27-C ) :   1.6551 B( 26-C , 71-H ) :   0.9737 B( 27-C , 28-N ) :   1.1441
B( 27-C , 72-H ) :   0.9502 B( 28-N , 29-C ) :   1.2164 B( 28-N , 73-H ) :   0.9155
B( 29-C , 30-S ) :   1.1285 B( 29-C , 36-C ) :   1.3472 B( 30-S , 31-C ) :   1.0650
B( 31-C , 32-N ) :   0.9815 B( 31-C , 35-C ) :   1.4951 B( 32-N , 33-O ) :   1.5265
B( 32-N , 34-O ) :   1.5022 B( 33-O , 34-O ) :   0.2537 B( 35-C , 36-C ) :   1.2178
B( 35-C , 74-H ) :   1.0004 B( 36-C , 37-C ) :   1.1148 B( 37-C , 38-C ) :   1.6633
B( 37-C , 75-H ) :   0.9459 B( 38-C , 39-C ) :   1.2016 B( 38-C , 76-H ) :   0.9652
B( 39-C , 40-C ) :   1.5715 B( 39-C , 77-H ) :   0.9587 B( 40-C , 41-C ) :   1.1525
B( 40-C , 44-S ) :   1.0389 B( 41-C , 42-C ) :   1.5841 B( 41-C , 78-H ) :   0.9989
B( 42-C , 43-C ) :   1.1918 B( 42-C , 79-H ) :   0.9934 B( 43-C , 44-S ) :   1.0250
B( 43-C , 45-C ) :   1.5074 B( 45-C , 46-C ) :   1.1834 B( 45-C , 49-S ) :   1.0405
B( 46-C , 47-C ) :   1.5831 B( 46-C , 80-H ) :   0.9952 B( 47-C , 48-C ) :   1.1415
B( 47-C , 81-H ) :   0.9995 B( 48-C , 49-S ) :   1.0109 B( 48-C , 50-C ) :   1.5782
B( 50-C , 51-C ) :   1.1393 B( 50-C , 82-H ) :   0.9646 B( 51-C , 52-C ) :   1.3836
B( 51-C , 62-C ) :   1.1588 B( 52-C , 53-C ) :   1.1400 B( 52-C , 83-H ) :   1.0271
B( 53-C , 54-C ) :   1.3507 B( 53-C , 61-C ) :   1.1532 B( 54-C , 55-C ) :   1.1786
B( 54-C , 84-H ) :   1.0119 B( 55-C , 56-C ) :   1.3356 B( 55-C , 59-C ) :   1.1389
B( 56-C , 57-C ) :   1.1816 B( 56-C , 85-H ) :   1.0186 B( 57-C , 58-C ) :   1.4598
B( 57-C , 63-C ) :   1.0823 B( 58-C , 59-C ) :   1.1266 B( 58-C , 86-H ) :   0.9958
B( 59-C , 60-C ) :   1.4203 B( 60-C , 61-C ) :   1.1280 B( 60-C , 87-H ) :   1.0007
B( 61-C , 62-C ) :   1.4172 B( 62-C , 88-H ) :   0.9871 B( 63-C , 64-C ) :   1.9370
B( 63-C , 89-H ) :   0.9645 B( 64-C , 90-H ) :   0.9500 B( 64-C , 91-H ) :   0.9473

-----------------------------------------------------------------------------
         ABSORPTION SPECTRUM VIA TRANSITION ELECTRIC DIPOLE MOMENTS
-----------------------------------------------------------------------------
State   Energy  Wavelength   fosc         T2         TX        TY        TZ
        (cm-1)    (nm)                  (au**2)     (au)      (au)      (au)
-----------------------------------------------------------------------------
   0    4882.2   2048.3   0.004153609   0.28008   0.24779   0.17867  -0.43216
   1   12046.2    830.1   0.093250746   2.54847  -1.29325  -0.50845   0.78579
   2   13416.4    745.4   0.108064615   2.65168   0.80775   0.40481  -1.35475
   3   13893.5    719.8   0.606607597  14.37381   1.19627   0.34202  -3.58131
   4   18367.3    544.4   0.045805867   0.82102   0.44832   0.40661  -0.67431
   5   18836.2    530.9   0.044589380   0.77932  -0.00672  -0.39587  -0.78902
   6   19245.5    519.6   0.187932956   3.21477  -1.06980  -0.61792   1.29941
   7   19528.3    512.1   0.021321165   0.35944   0.08778   0.21505  -0.55271
   8   19966.9    500.8   0.039300048   0.64797   0.48256  -0.63315   0.11930
   9   20803.2    480.7   0.034035202   0.53861   0.16506   0.52983   0.48025
  10   22305.1    448.3   0.009477277   0.13988  -0.00001  -0.26496  -0.26396
  11   22690.1    440.7   0.218304977   3.16740   0.61846   1.61491  -0.42070
  12   24323.2    411.1   0.228190967   3.08854   0.54302   1.66989  -0.07154
  13   25079.2    398.7   0.589214183   7.73454  -0.49516  -2.73380   0.12524
  14   25472.9    392.6   0.048296150   0.62418   0.15152   0.75941  -0.15656
  15   26270.0    380.7   0.174159662   2.18254  -0.11635  -1.46151   0.18164
  16   26407.6    378.7   0.070421251   0.87791  -0.56829  -0.44974   0.59387
  17   26651.2    375.2   0.037467467   0.46282   0.21335  -0.64183   0.07314
  18   26843.8    372.5   0.103881796   1.27401   0.25168   1.02782  -0.39276
  19   27103.7    369.0   0.011034742   0.13403   0.18880  -0.12277  -0.28864
  20   27531.1    363.2   0.600005528   7.17477  -1.51992  -1.66076   1.45138
  21   27967.5    357.6   0.133534046   1.57186   0.65331   0.08981  -1.06629
  22   28022.0    356.9   0.175801182   2.06537  -0.57956   0.82548   1.02375
  23   28317.6    353.1   0.135305795   1.57303  -0.73577  -0.05865   1.01402
  24   28474.4    351.2   0.185850525   2.14874   0.83466   0.39539  -1.13831
  25   29067.0    344.0   0.023648250   0.26784  -0.16697  -0.23746   0.42846
  26   29324.1    341.0   0.524354069   5.88675   0.57087  -2.09506  -1.08241
  27   29674.5    337.0   0.118364148   1.31315   0.04938  -1.13018   0.18275
  28   30184.4    331.3   0.041384977   0.45137  -0.20745   0.43306   0.46989
  29   30583.0    327.0   0.074545134   0.80245  -0.13792   0.45276   0.76055
  30   30858.4    324.1   0.010749684   0.11468   0.19987   0.23740  -0.13556
  31   31489.7    317.6   0.056392487   0.58956   0.37722  -0.65378  -0.14085
  32   32019.1    312.3   0.093860822   0.96505   0.43546  -0.47851  -0.73922
  33   32080.3    311.7   0.103979890   1.06705   0.61139   0.32477  -0.76666
  34   32309.6    309.5   0.017935188   0.18275   0.32299   0.19077  -0.20501
  35   32808.1    304.8   0.117026080   1.17430   0.08836   1.07962   0.03008
  36   32867.0    304.3   0.012856531   0.12878   0.02158  -0.35817  -0.00488
  37   33234.6    300.9   0.019751743   0.19566  -0.17610  -0.36204   0.18323
  38   33412.9    299.3   0.120348555   1.18577   0.58618   0.12132  -0.90964
  39   33440.8    299.0   0.033689763   0.33166   0.42826   0.25849  -0.28538
  40   33835.8    295.5   0.172055045   1.67404  -0.12166   1.21777   0.41986
  41   33918.2    294.8   0.143239953   1.39029  -0.11745   1.11195   0.37427
  42   34224.8    292.2   0.276957670   2.66408  -0.38183  -1.52532   0.43784
  43   34360.5    291.0   0.129167715   1.23757  -0.07775   1.10954  -0.02133
  44   34699.0    288.2   0.015726239   0.14920   0.22787  -0.27658  -0.14417
  45   35061.5    285.2   0.004436660   0.04166   0.13008  -0.13358  -0.08303
  46   35412.2    282.4   0.012942438   0.12032   0.01800  -0.24357   0.24632
  47   35831.3    279.1   0.010676101   0.09809  -0.08593  -0.26501  -0.14310
  48   36130.6    276.8   0.061229477   0.55791  -0.43985  -0.37827   0.47048
  49   36292.3    275.5   0.006846407   0.06210   0.23526   0.05138  -0.06416
  50   36448.2    274.4   0.003333714   0.03011  -0.02310  -0.14939   0.08521
  51   36494.8    274.0   0.018945710   0.17091  -0.31329  -0.02504   0.26857
  52   36710.8    272.4   0.015795390   0.14165  -0.12936  -0.29227   0.19873
  53   36843.4    271.4   0.045020498   0.40228   0.27527  -0.52644  -0.22219
  54   37006.0    270.2   0.135406374   1.20460   0.49306   0.77314  -0.60310
  55   37360.4    267.7   0.135088203   1.19037   0.45496   0.90752  -0.39973
  56   37536.3    266.4   0.075489231   0.66208   0.24878  -0.77469   0.00641
  57   37708.2    265.2   0.083836322   0.73193  -0.02521   0.85496  -0.01867
  58   37826.4    264.4   0.002484567   0.02162   0.09331  -0.05642   0.09865
  59   37925.4    263.7   0.097843545   0.84933   0.09905  -0.77931  -0.48188
  60   38328.6    260.9   0.073369600   0.63019  -0.10894  -0.73486  -0.27982
  61   38481.1    259.9   0.085756800   0.73366  -0.17145  -0.82712  -0.14189
  62   38513.3    259.7   0.038100809   0.32569   0.11177   0.49825  -0.25483
  63   38738.5    258.1   0.276479554   2.34961  -0.21861  -1.33650  -0.71805
  64   39085.7    255.8   0.060296566   0.50787   0.22118   0.61439  -0.28542
  65   39299.4    254.5   0.099417680   0.83282  -0.28186  -0.84983  -0.17656
  66   39460.7    253.4   0.034133257   0.28477   0.06861  -0.36821  -0.38010
  67   39803.9    251.2   0.017614336   0.14569  -0.15297  -0.04573   0.34669
  68   39834.1    251.0   0.006421051   0.05307   0.01143  -0.08247  -0.21479
  69   40004.7    250.0   0.018790332   0.15463   0.09427   0.23347  -0.30206
  70   40205.5    248.7   0.013781577   0.11285   0.11813   0.31287  -0.03167
  71   40234.5    248.5   0.005988213   0.04900   0.11536  -0.18674   0.02862

FINAL SINGLE POINT ENERGY     -6676.633267319274

DIPOLE MOMENT
-------------
                                X             Y             Z
Electronic contribution:    -31.83392      66.28619      33.84385
Nuclear contribution   :     32.45960     -63.47112     -32.58626
                        -----------------------------------------
Total Dipole Moment    :      0.62567       2.81508       1.25760
                        -----------------------------------------
Magnitude (a.u.)       :      3.14606
Magnitude (Debye)      :      7.99664

Rotational constants in cm-1:     0.001169     0.000784     0.000508
Rotational constants in MHz :    35.041839    23.492926    15.237659

                             ****ORCA TERMINATED NORMALLY****
TOTAL RUN TIME: 0 days 0 hours 14 minutes 42 seconds 567 msec
