                         Program Version 4.2.0 -  RELEASE  -
|  1> # ORCA input file
|  2> # SCF done       -188.355719269804          0.000711660106
|  3> ! CAM-B3LYP def2-SVP def2/J RIJCOSX Grid4 TightSCF
|  4> %maxcore 5000
|  5> %tddft
|  6>     Mode sTDDFT
|  7>     Ethresh 5.0
|  8>     maxcore 5000
|  9> end
| 10>
| 11> %pal
| 12>   nprocs 6
| 13>   end
| 14> * xyz 0 1
| 15>    C       -4.17802        10.88985         0.59776
| 16>    C       -4.31502        11.73614         1.67183
| 17>    C       -3.94119        13.09462         1.66413
| 18>    N       -3.64540        14.20264         1.72617
| 19>    C       -4.83826        11.36510         2.92624
| 20>    N       -5.26115        11.13226         3.96878
| 21>    C       -3.68470        11.26739        -0.72356
| 22>    C       -3.67884        10.12136        -1.55540
| 23>    C       -3.28402        10.16027        -2.86913
| 24>    C       -2.88809        11.39477        -3.39408
| 25>    C       -2.89453        12.53416        -2.55578
| 26>    C       -3.28431        12.49255        -1.22266
| 27>    S       -2.36351        13.95474        -3.40469
| 28>    C       -2.14580        13.01128        -4.85441
| 29>    C       -2.45271        11.70041        -4.71288
| 30>   Br       -1.53018        13.84495        -6.41732
| 31>    C       -4.13535         8.95500        -0.77863
| 32>    O       -4.01491         7.78853        -1.09204
| 33>    C       -4.56019         9.49993         0.53893
| 34>    C       -5.14251         8.74504         1.52739
| 35>    C       -5.85565         7.57628         1.22996
| 36>    C       -6.50850         7.29104         0.02507
| 37>    C       -7.17311         6.02338         0.02783
| 38>    N       -7.80351         5.54722        -1.04258
| 39>    C       -7.79373         6.31581        -2.11963
| 40>    C       -8.47247         5.79494        -3.32364
| 41>    O       -9.00951         4.70357        -3.35517
| 42>    C       -8.48080         6.70817        -4.47860
| 43>    C       -7.94408         7.93317        -4.45981
| 44>    C       -7.25835         8.50395        -3.28870
| 45>    O       -6.72127         9.59251        -3.31773
| 46>    C       -7.21982         7.62404        -2.09349
| 47>    N       -6.61276         8.10136        -1.02952
| 48>    C       -7.06036         5.35894         1.25974
| 49>    S       -6.15084         6.29583         2.39349
| 50>    N       -7.57525         4.12495         1.43696
| 51>    C       -7.51025         3.28847         2.49551
| 52>    S       -6.72953         3.73859         3.97767
| 53>    C       -7.09867         2.16507         4.61631
| 54>    N       -6.67967         1.88185         5.92192
| 55>    O       -6.93052         0.77853         6.37103
| 56>    O       -6.08901         2.76953         6.51233
| 57>    C       -7.77511         1.35678         3.74650
| 58>    C       -8.03587         1.97728         2.50508
| 59>    C       -8.72312         1.38499         1.41026
| 60>    C       -9.12457         0.07985         1.36472
| 61>    C       -9.80980        -0.49305         0.28867
| 62>    C      -10.16921        -1.82312         0.23805
| 63>    C      -10.87488        -2.48601        -0.78995
| 64>    C      -11.07956        -3.81740        -0.56183
| 65>    C      -10.53957        -4.27624         0.65453
| 66>    S       -9.77066        -2.95989         1.51186
| 67>    C      -10.55178        -5.56072         1.17606
| 68>    C      -11.13594        -6.72271         0.63121
| 69>    C      -10.95912        -7.83623         1.39807
| 70>    C      -10.22124        -7.62364         2.58842
| 71>    S       -9.77126        -5.92822         2.69150
| 72>    C       -9.90489        -8.59374         3.50810
| 73>    C       -9.15832        -8.48404         4.69654
| 74>    C       -8.89103        -9.55737         5.55846
| 75>    C       -8.10520        -9.09418         6.63722
| 76>    C       -7.57547        -9.73873         7.73678
| 77>    C       -6.81783        -8.97651         8.63588
| 78>    C       -6.16056        -9.32090         9.81155
| 79>    C       -5.52672        -8.15976        10.34957
| 80>    C       -5.79400        -7.09491         9.50469
| 81>    C       -6.59856        -7.55614         8.41850
| 82>    C       -7.12321        -6.90925         7.33234
| 83>    C       -7.88596        -7.67389         6.42271
| 84>    C       -8.52600        -7.31836         5.25256
| 85>    C       -4.74061        -8.08099        11.55747
| 86>    C       -4.48212        -9.09424        12.37953
| 87>    H       -3.29203         9.26981        -3.47726
| 88>    H       -3.26989        13.38898        -0.62531
| 89>    H       -2.37728        10.97710        -5.50426
| 90>    H       -5.10045         9.05802         2.56184
| 91>    H       -8.96642         6.32124        -5.36446
| 92>    H       -7.97674         8.57477        -5.33021
| 93>    H       -8.05090         3.78172         0.60267
| 94>    H       -8.07227         0.35938         4.01244
| 95>    H       -8.93841         2.00604         0.55018
| 96>    H       -8.90107        -0.57375         2.19673
| 97>    H      -10.07584         0.12903        -0.55526
| 98>    H      -11.21110        -1.96125        -1.66654
| 99>    H      -11.59726        -4.47348        -1.23843
|100>    H      -11.66846        -6.70856        -0.30257
|101>    H      -11.33443        -8.81178         1.14283
|102>    H      -10.27670        -9.58640         3.28124
|103>    H       -9.22743       -10.56847         5.41960
|104>    H       -7.73402       -10.79468         7.90370
|105>    H       -6.13191       -10.30298        10.24645
|106>    H       -5.45636        -6.08299         9.63497
|107>    H       -6.96619        -5.85366         7.16259
|108>    H       -8.54547        -6.33288         4.82736
|109>    H       -4.34391        -7.09804        11.77809
|110>    H       -4.85260       -10.08921        12.20177
|111>    H       -3.88395        -8.96149        13.26405
|112> *
|113>
|114>                          ****END OF INPUT****

CARTESIAN COORDINATES (ANGSTROEM)
---------------------------------
  C     -4.178020   10.889850    0.597760
  C     -4.315020   11.736140    1.671830
  C     -3.941190   13.094620    1.664130
  N     -3.645400   14.202640    1.726170
  C     -4.838260   11.365100    2.926240
  N     -5.261150   11.132260    3.968780
  C     -3.684700   11.267390   -0.723560
  C     -3.678840   10.121360   -1.555400
  C     -3.284020   10.160270   -2.869130
  C     -2.888090   11.394770   -3.394080
  C     -2.894530   12.534160   -2.555780
  C     -3.284310   12.492550   -1.222660
  S     -2.363510   13.954740   -3.404690
  C     -2.145800   13.011280   -4.854410
  C     -2.452710   11.700410   -4.712880
  Br    -1.530180   13.844950   -6.417320
  C     -4.135350    8.955000   -0.778630
  O     -4.014910    7.788530   -1.092040
  C     -4.560190    9.499930    0.538930
  C     -5.142510    8.745040    1.527390
  C     -5.855650    7.576280    1.229960
  C     -6.508500    7.291040    0.025070
  C     -7.173110    6.023380    0.027830
  N     -7.803510    5.547220   -1.042580
  C     -7.793730    6.315810   -2.119630
  C     -8.472470    5.794940   -3.323640
  O     -9.009510    4.703570   -3.355170
  C     -8.480800    6.708170   -4.478600
  C     -7.944080    7.933170   -4.459810
  C     -7.258350    8.503950   -3.288700
  O     -6.721270    9.592510   -3.317730
  C     -7.219820    7.624040   -2.093490
  N     -6.612760    8.101360   -1.029520
  C     -7.060360    5.358940    1.259740
  S     -6.150840    6.295830    2.393490
  N     -7.575250    4.124950    1.436960
  C     -7.510250    3.288470    2.495510
  S     -6.729530    3.738590    3.977670
  C     -7.098670    2.165070    4.616310
  N     -6.679670    1.881850    5.921920
  O     -6.930520    0.778530    6.371030
  O     -6.089010    2.769530    6.512330
  C     -7.775110    1.356780    3.746500
  C     -8.035870    1.977280    2.505080
  C     -8.723120    1.384990    1.410260
  C     -9.124570    0.079850    1.364720
  C     -9.809800   -0.493050    0.288670
  C    -10.169210   -1.823120    0.238050
  C    -10.874880   -2.486010   -0.789950
  C    -11.079560   -3.817400   -0.561830
  C    -10.539570   -4.276240    0.654530
  S     -9.770660   -2.959890    1.511860
  C    -10.551780   -5.560720    1.176060
  C    -11.135940   -6.722710    0.631210
  C    -10.959120   -7.836230    1.398070
  C    -10.221240   -7.623640    2.588420
  S     -9.771260   -5.928220    2.691500
  C     -9.904890   -8.593740    3.508100
  C     -9.158320   -8.484040    4.696540
  C     -8.891030   -9.557370    5.558460
  C     -8.105200   -9.094180    6.637220
  C     -7.575470   -9.738730    7.736780
  C     -6.817830   -8.976510    8.635880
  C     -6.160560   -9.320900    9.811550
  C     -5.526720   -8.159760   10.349570
  C     -5.794000   -7.094910    9.504690
  C     -6.598560   -7.556140    8.418500
  C     -7.123210   -6.909250    7.332340
  C     -7.885960   -7.673890    6.422710
  C     -8.526000   -7.318360    5.252560
  C     -4.740610   -8.080990   11.557470
  C     -4.482120   -9.094240   12.379530
  H     -3.292030    9.269810   -3.477260
  H     -3.269890   13.388980   -0.625310
  H     -2.377280   10.977100   -5.504260
  H     -5.100450    9.058020    2.561840
  H     -8.966420    6.321240   -5.364460
  H     -7.976740    8.574770   -5.330210
  H     -8.050900    3.781720    0.602670
  H     -8.072270    0.359380    4.012440
  H     -8.938410    2.006040    0.550180
  H     -8.901070   -0.573750    2.196730
  H    -10.075840    0.129030   -0.555260
  H    -11.211100   -1.961250   -1.666540
  H    -11.597260   -4.473480   -1.238430
  H    -11.668460   -6.708560   -0.302570
  H    -11.334430   -8.811780    1.142830
  H    -10.276700   -9.586400    3.281240
  H     -9.227430  -10.568470    5.419600
  H     -7.734020  -10.794680    7.903700
  H     -6.131910  -10.302980   10.246450
  H     -5.456360   -6.082990    9.634970
  H     -6.966190   -5.853660    7.162590
  H     -8.545470   -6.332880    4.827360
  H     -4.343910   -7.098040   11.778090
  H     -4.852600  -10.089210   12.201770
  H     -3.883950   -8.961490   13.264050

 Total Charge           Charge          ....    0
 Multiplicity           Mult            ....    1
 Number of Electrons    NEL             ....  552
 Basis Dimension        Dim             .... 1171

ORBITAL ENERGIES
----------------

  NO   OCC          E(Eh)            E(eV)
   0   2.0000    -482.878341    -13139.7877
   1   2.0000     -89.009792     -2422.0796
   2   2.0000     -88.994818     -2421.6721
   3   2.0000     -88.965614     -2420.8774
   4   2.0000     -88.948948     -2420.4239
   5   2.0000     -88.945528     -2420.3309
   6   2.0000     -62.556058     -1702.2369
   7   2.0000     -56.389996     -1534.4498
   8   2.0000     -56.387301     -1534.3765
   9   2.0000     -56.387270     -1534.3756
  10   2.0000     -19.240911      -523.5718
  11   2.0000     -19.240182      -523.5520
  12   2.0000     -19.235110      -523.4140
  13   2.0000     -19.230756      -523.2955
  14   2.0000     -19.200284      -522.4663
  15   2.0000     -14.652434      -398.7130
  16   2.0000     -14.517422      -395.0391
  17   2.0000     -14.464294      -393.5934
  18   2.0000     -14.449971      -393.2037
  19   2.0000     -14.405481      -391.9931
  20   2.0000     -14.402929      -391.9236
  21   2.0000     -10.395313      -282.8709
  22   2.0000     -10.383228      -282.5420
  23   2.0000     -10.381379      -282.4917
  24   2.0000     -10.375856      -282.3414
  25   2.0000     -10.354679      -281.7651
  26   2.0000     -10.349980      -281.6373
  27   2.0000     -10.349701      -281.6297
  28   2.0000     -10.349447      -281.6228
  29   2.0000     -10.344750      -281.4950
  30   2.0000     -10.343372      -281.4575
  31   2.0000     -10.342679      -281.4386
  32   2.0000     -10.329782      -281.0877
  33   2.0000     -10.327989      -281.0389
  34   2.0000     -10.321491      -280.8621
  35   2.0000     -10.316508      -280.7264
  36   2.0000     -10.315150      -280.6895
  37   2.0000     -10.314636      -280.6755
  38   2.0000     -10.314330      -280.6672
  39   2.0000     -10.314317      -280.6668
  40   2.0000     -10.312724      -280.6235
  41   2.0000     -10.311243      -280.5832
  42   2.0000     -10.309457      -280.5346
  43   2.0000     -10.308853      -280.5182
  44   2.0000     -10.307980      -280.4944
  45   2.0000     -10.307590      -280.4838
  46   2.0000     -10.306583      -280.4564
  47   2.0000     -10.306355      -280.4502
  48   2.0000     -10.303594      -280.3751
  49   2.0000     -10.296277      -280.1759
  50   2.0000     -10.295928      -280.1664
  51   2.0000     -10.293648      -280.1044
  52   2.0000     -10.291683      -280.0509
  53   2.0000     -10.291432      -280.0441
  54   2.0000     -10.290078      -280.0072
  55   2.0000     -10.288855      -279.9740
  56   2.0000     -10.288571      -279.9663
  57   2.0000     -10.288247      -279.9574
  58   2.0000     -10.287704      -279.9427
  59   2.0000     -10.287683      -279.9421
  60   2.0000     -10.287004      -279.9236
  61   2.0000     -10.286648      -279.9139
  62   2.0000     -10.286400      -279.9072
  63   2.0000     -10.282658      -279.8053
  64   2.0000     -10.281485      -279.7734
  65   2.0000     -10.279383      -279.7162
  66   2.0000     -10.278891      -279.7028
  67   2.0000     -10.276777      -279.6453
  68   2.0000     -10.275657      -279.6149
  69   2.0000     -10.272473      -279.5282
  70   2.0000     -10.271504      -279.5018
  71   2.0000     -10.270728      -279.4807
  72   2.0000     -10.270025      -279.4616
  73   2.0000     -10.269313      -279.4422
  74   2.0000     -10.268989      -279.4334
  75   2.0000     -10.260369      -279.1988
  76   2.0000      -8.785486      -239.0652
  77   2.0000      -8.104074      -220.5231
  78   2.0000      -8.089917      -220.1378
  79   2.0000      -8.061637      -219.3683
  80   2.0000      -8.044957      -218.9144
  81   2.0000      -8.041976      -218.8333
  82   2.0000      -6.621724      -180.1863
  83   2.0000      -6.607254      -179.7925
  84   2.0000      -6.607059      -179.7872
  85   2.0000      -6.073470      -165.2675
  86   2.0000      -6.069043      -165.1471
  87   2.0000      -6.066346      -165.0737
  88   2.0000      -6.059637      -164.8911
  89   2.0000      -6.055259      -164.7720
  90   2.0000      -6.051277      -164.6636
  91   2.0000      -6.031309      -164.1203
  92   2.0000      -6.027075      -164.0050
  93   2.0000      -6.022853      -163.8902
  94   2.0000      -6.014705      -163.6684
  95   2.0000      -6.011682      -163.5862
  96   2.0000      -6.010636      -163.5577
  97   2.0000      -6.007720      -163.4784
  98   2.0000      -6.005920      -163.4294
  99   2.0000      -6.002865      -163.3463
 100   2.0000      -2.737612       -74.4942
 101   2.0000      -2.733534       -74.3832
 102   2.0000      -2.733420       -74.3802
 103   2.0000      -2.721903       -74.0667
 104   2.0000      -2.721878       -74.0661
 105   2.0000      -1.321799       -35.9680
 106   2.0000      -1.149953       -31.2918
 107   2.0000      -1.143869       -31.1263
 108   2.0000      -1.140820       -31.0433
 109   2.0000      -1.128192       -30.6997
 110   2.0000      -1.117642       -30.4126
 111   2.0000      -1.101098       -29.9624
 112   2.0000      -1.033626       -28.1264
 113   2.0000      -1.018077       -27.7033
 114   2.0000      -1.011545       -27.5255
 115   2.0000      -1.002760       -27.2865
 116   2.0000      -0.998333       -27.1660
 117   2.0000      -0.998059       -27.1586
 118   2.0000      -0.991490       -26.9798
 119   2.0000      -0.983227       -26.7550
 120   2.0000      -0.977560       -26.6008
 121   2.0000      -0.976193       -26.5636
 122   2.0000      -0.964773       -26.2528
 123   2.0000      -0.946071       -25.7439
 124   2.0000      -0.933447       -25.4004
 125   2.0000      -0.926327       -25.2066
 126   2.0000      -0.908818       -24.7302
 127   2.0000      -0.904600       -24.6154
 128   2.0000      -0.897884       -24.4327
 129   2.0000      -0.893878       -24.3237
 130   2.0000      -0.887606       -24.1530
 131   2.0000      -0.879960       -23.9449
 132   2.0000      -0.874731       -23.8026
 133   2.0000      -0.870018       -23.6744
 134   2.0000      -0.868840       -23.6423
 135   2.0000      -0.863289       -23.4913
 136   2.0000      -0.854450       -23.2508
 137   2.0000      -0.844350       -22.9759
 138   2.0000      -0.835211       -22.7273
 139   2.0000      -0.831640       -22.6301
 140   2.0000      -0.823207       -22.4006
 141   2.0000      -0.818387       -22.2694
 142   2.0000      -0.807984       -21.9864
 143   2.0000      -0.803058       -21.8523
 144   2.0000      -0.801199       -21.8017
 145   2.0000      -0.797611       -21.7041
 146   2.0000      -0.785510       -21.3748
 147   2.0000      -0.770904       -20.9774
 148   2.0000      -0.763012       -20.7626
 149   2.0000      -0.751067       -20.4376
 150   2.0000      -0.747952       -20.3528
 151   2.0000      -0.743293       -20.2260
 152   2.0000      -0.734853       -19.9964
 153   2.0000      -0.722838       -19.6694
 154   2.0000      -0.706898       -19.2357
 155   2.0000      -0.703217       -19.1355
 156   2.0000      -0.690275       -18.7833
 157   2.0000      -0.684554       -18.6277
 158   2.0000      -0.682861       -18.5816
 159   2.0000      -0.677411       -18.4333
 160   2.0000      -0.674002       -18.3405
 161   2.0000      -0.673003       -18.3133
 162   2.0000      -0.667721       -18.1696
 163   2.0000      -0.659414       -17.9436
 164   2.0000      -0.652665       -17.7599
 165   2.0000      -0.648263       -17.6401
 166   2.0000      -0.646279       -17.5861
 167   2.0000      -0.643227       -17.5031
 168   2.0000      -0.635761       -17.2999
 169   2.0000      -0.633659       -17.2427
 170   2.0000      -0.630644       -17.1607
 171   2.0000      -0.629589       -17.1320
 172   2.0000      -0.622333       -16.9345
 173   2.0000      -0.618017       -16.8171
 174   2.0000      -0.616789       -16.7837
 175   2.0000      -0.612093       -16.6559
 176   2.0000      -0.606928       -16.5154
 177   2.0000      -0.600807       -16.3488
 178   2.0000      -0.596768       -16.2389
 179   2.0000      -0.595328       -16.1997
 180   2.0000      -0.591034       -16.0829
 181   2.0000      -0.584345       -15.9008
 182   2.0000      -0.584062       -15.8931
 183   2.0000      -0.582425       -15.8486
 184   2.0000      -0.580813       -15.8047
 185   2.0000      -0.572222       -15.5709
 186   2.0000      -0.566249       -15.4084
 187   2.0000      -0.564369       -15.3573
 188   2.0000      -0.558833       -15.2066
 189   2.0000      -0.556298       -15.1376
 190   2.0000      -0.554337       -15.0843
 191   2.0000      -0.549476       -14.9520
 192   2.0000      -0.542372       -14.7587
 193   2.0000      -0.538888       -14.6639
 194   2.0000      -0.534194       -14.5362
 195   2.0000      -0.532776       -14.4976
 196   2.0000      -0.528944       -14.3933
 197   2.0000      -0.528104       -14.3704
 198   2.0000      -0.526020       -14.3137
 199   2.0000      -0.519642       -14.1402
 200   2.0000      -0.515490       -14.0272
 201   2.0000      -0.515262       -14.0210
 202   2.0000      -0.512479       -13.9453
 203   2.0000      -0.510634       -13.8951
 204   2.0000      -0.506450       -13.7812
 205   2.0000      -0.505205       -13.7473
 206   2.0000      -0.503892       -13.7116
 207   2.0000      -0.501960       -13.6590
 208   2.0000      -0.498702       -13.5704
 209   2.0000      -0.497811       -13.5461
 210   2.0000      -0.497151       -13.5282
 211   2.0000      -0.496746       -13.5171
 212   2.0000      -0.495184       -13.4747
 213   2.0000      -0.494717       -13.4619
 214   2.0000      -0.488289       -13.2870
 215   2.0000      -0.484959       -13.1964
 216   2.0000      -0.483873       -13.1668
 217   2.0000      -0.482179       -13.1208
 218   2.0000      -0.478304       -13.0153
 219   2.0000      -0.475945       -12.9511
 220   2.0000      -0.471119       -12.8198
 221   2.0000      -0.469764       -12.7829
 222   2.0000      -0.468443       -12.7470
 223   2.0000      -0.465842       -12.6762
 224   2.0000      -0.461983       -12.5712
 225   2.0000      -0.457170       -12.4402
 226   2.0000      -0.456058       -12.4100
 227   2.0000      -0.455566       -12.3966
 228   2.0000      -0.452533       -12.3140
 229   2.0000      -0.448229       -12.1969
 230   2.0000      -0.443889       -12.0788
 231   2.0000      -0.443037       -12.0556
 232   2.0000      -0.440466       -11.9857
 233   2.0000      -0.439114       -11.9489
 234   2.0000      -0.433071       -11.7845
 235   2.0000      -0.432447       -11.7675
 236   2.0000      -0.429174       -11.6784
 237   2.0000      -0.428052       -11.6479
 238   2.0000      -0.424228       -11.5438
 239   2.0000      -0.423170       -11.5150
 240   2.0000      -0.421830       -11.4786
 241   2.0000      -0.417027       -11.3479
 242   2.0000      -0.414480       -11.2786
 243   2.0000      -0.413053       -11.2398
 244   2.0000      -0.409574       -11.1451
 245   2.0000      -0.401075       -10.9138
 246   2.0000      -0.400112       -10.8876
 247   2.0000      -0.397883       -10.8270
 248   2.0000      -0.397665       -10.8210
 249   2.0000      -0.388114       -10.5611
 250   2.0000      -0.382346       -10.4042
 251   2.0000      -0.379929       -10.3384
 252   2.0000      -0.378042       -10.2871
 253   2.0000      -0.377240       -10.2652
 254   2.0000      -0.371457       -10.1079
 255   2.0000      -0.370300       -10.0764
 256   2.0000      -0.369104       -10.0438
 257   2.0000      -0.367936       -10.0120
 258   2.0000      -0.366642        -9.9768
 259   2.0000      -0.360304        -9.8044
 260   2.0000      -0.353634        -9.6229
 261   2.0000      -0.353149        -9.6097
 262   2.0000      -0.345307        -9.3963
 263   2.0000      -0.344820        -9.3830
 264   2.0000      -0.340584        -9.2677
 265   2.0000      -0.330028        -8.9805
 266   2.0000      -0.325951        -8.8696
 267   2.0000      -0.325217        -8.8496
 268   2.0000      -0.313982        -8.5439
 269   2.0000      -0.303335        -8.2542
 270   2.0000      -0.289791        -7.8856
 271   2.0000      -0.283327        -7.7097
 272   2.0000      -0.273173        -7.4334
 273   2.0000      -0.261803        -7.1240
 274   2.0000      -0.247641        -6.7387
 275   2.0000      -0.204097        -5.5538
 276   0.0000      -0.110207        -2.9989
 277   0.0000      -0.102018        -2.7761
 278   0.0000      -0.095191        -2.5903
 279   0.0000      -0.078124        -2.1259
 280   0.0000      -0.068151        -1.8545

MULLIKEN ATOMIC CHARGES
-----------------------
   0 C :    0.313053
   1 C :   -0.362368
   2 C :   -0.185048
   3 N :    0.143209
   4 C :   -0.190241
   5 N :    0.142909
   6 C :    0.024973
   7 C :    0.008018
   8 C :   -0.064437
   9 C :    0.117886
  10 C :   -0.087585
  11 C :   -0.032005
  12 S :    0.179434
  13 C :   -0.124059
  14 C :    0.039076
  15 Br:    0.015270
  16 C :    0.153385
  17 O :   -0.172847
  18 C :   -0.100826
  19 C :    0.018830
  20 C :   -0.164125
  21 C :    0.079304
  22 C :    0.055780
  23 N :    0.041717
  24 C :   -0.116449
  25 C :    0.135098
  26 O :   -0.117097
  27 C :   -0.012437
  28 C :   -0.018486
  29 C :    0.142963
  30 O :   -0.103064
  31 C :   -0.083986
  32 N :    0.051130
  33 C :   -0.153192
  34 S :    0.197258
  35 N :    0.033786
  36 C :   -0.130527
  37 S :    0.157924
  38 C :    0.009421
  39 N :    0.273358
  40 O :   -0.248993
  41 O :   -0.259434
  42 C :    0.005796
  43 C :    0.167229
  44 C :   -0.075108
  45 C :    0.016370
  46 C :   -0.025234
  47 C :   -0.008176
  48 C :    0.023606
  49 C :    0.033818
  50 C :   -0.053773
  51 S :    0.057349
  52 C :   -0.020954
  53 C :    0.021380
  54 C :    0.041278
  55 C :   -0.031522
  56 S :    0.050344
  57 C :   -0.003352
  58 C :    0.053689
  59 C :   -0.031891
  60 C :    0.062867
  61 C :    0.004824
  62 C :    0.044414
  63 C :   -0.014967
  64 C :    0.057952
  65 C :   -0.019056
  66 C :    0.055741
  67 C :    0.005341
  68 C :    0.038856
  69 C :   -0.028011
  70 C :    0.012227
  71 C :   -0.022912
  72 H :   -0.022199
  73 H :   -0.008498
  74 H :   -0.007511
  75 H :    0.020346
  76 H :    0.017936
  77 H :    0.018956
  78 H :    0.163788
  79 H :    0.013597
  80 H :   -0.026192
  81 H :   -0.000759
  82 H :   -0.016087
  83 H :   -0.013405
  84 H :   -0.012370
  85 H :   -0.015224
  86 H :   -0.011765
  87 H :   -0.021413
  88 H :   -0.027345
  89 H :   -0.022971
  90 H :   -0.021408
  91 H :   -0.021221
  92 H :   -0.017970
  93 H :   -0.005088
  94 H :   -0.017395
  95 H :    0.007103
  96 H :    0.022396
Sum of atomic charges:   -0.0000000

LOEWDIN ATOMIC CHARGES
----------------------
   0 C :    0.077640
   1 C :   -0.149998
   2 C :   -0.018928
   3 N :   -0.061353
   4 C :   -0.019351
   5 N :   -0.062044
   6 C :   -0.016889
   7 C :   -0.039693
   8 C :    0.024101
   9 C :   -0.031627
  10 C :   -0.143867
  11 C :   -0.011800
  12 S :    0.427954
  13 C :   -0.273898
  14 C :   -0.070648
  15 Br:    0.130761
  16 C :    0.086785
  17 O :   -0.164891
  18 C :   -0.090342
  19 C :    0.039930
  20 C :   -0.209842
  21 C :   -0.004896
  22 C :   -0.072848
  23 N :   -0.005292
  24 C :   -0.051704
  25 C :    0.055532
  26 O :   -0.113146
  27 C :   -0.009271
  28 C :   -0.013416
  29 C :    0.061068
  30 O :   -0.096621
  31 C :   -0.021008
  32 N :    0.014994
  33 C :   -0.110197
  34 S :    0.495783
  35 N :    0.073632
  36 C :   -0.129103
  37 S :    0.453108
  38 C :   -0.201536
  39 N :    0.273595
  40 O :   -0.215386
  41 O :   -0.226659
  42 C :    0.003778
  43 C :   -0.078416
  44 C :   -0.061653
  45 C :   -0.009317
  46 C :   -0.079724
  47 C :   -0.129883
  48 C :   -0.048300
  49 C :   -0.021141
  50 C :   -0.195035
  51 S :    0.365667
  52 C :   -0.163812
  53 C :   -0.047561
  54 C :   -0.019372
  55 C :   -0.163835
  56 S :    0.381414
  57 C :   -0.028395
  58 C :   -0.069395
  59 C :    0.020480
  60 C :   -0.063530
  61 C :    0.078752
  62 C :   -0.065330
  63 C :    0.054361
  64 C :   -0.059811
  65 C :    0.023902
  66 C :   -0.059712
  67 C :    0.075630
  68 C :   -0.061930
  69 C :    0.029176
  70 C :   -0.020944
  71 C :   -0.052525
  72 H :    0.036887
  73 H :    0.040180
  74 H :    0.037094
  75 H :    0.042876
  76 H :    0.046035
  77 H :    0.046133
  78 H :    0.110051
  79 H :    0.046178
  80 H :    0.023972
  81 H :    0.021015
  82 H :    0.032405
  83 H :    0.033036
  84 H :    0.032556
  85 H :    0.031344
  86 H :    0.033756
  87 H :    0.036357
  88 H :    0.024098
  89 H :    0.035585
  90 H :    0.026132
  91 H :    0.026759
  92 H :    0.037753
  93 H :    0.014567
  94 H :    0.030209
  95 H :    0.017512
  96 H :    0.025338

  Mayer bond orders larger than 0.100000
B(  0-C ,  1-C ) :   1.6043 B(  0-C ,  6-C ) :   1.0007 B(  0-C , 18-C ) :   1.1217
B(  1-C ,  2-C ) :   1.1463 B(  1-C ,  4-C ) :   1.1488 B(  2-C ,  3-N ) :   2.9664
B(  4-C ,  5-N ) :   2.9672 B(  6-C ,  7-C ) :   1.2836 B(  6-C , 11-C ) :   1.4063
B(  7-C ,  8-C ) :   1.4247 B(  7-C , 16-C ) :   0.9321 B(  8-C ,  9-C ) :   1.2496
B(  8-C , 72-H ) :   1.0140 B(  9-C , 10-C ) :   1.3113 B(  9-C , 14-C ) :   1.1616
B( 10-C , 11-C ) :   1.3296 B( 10-C , 12-S ) :   1.0813 B( 11-C , 73-H ) :   0.9802
B( 12-S , 13-C ) :   1.0865 B( 13-C , 14-C ) :   1.6179 B( 13-C , 15-Br) :   1.0141
B( 14-C , 74-H ) :   1.0004 B( 16-C , 17-O ) :   2.2128 B( 16-C , 18-C ) :   0.9462
B( 18-C , 19-C ) :   1.5543 B( 19-C , 20-C ) :   1.2426 B( 19-C , 75-H ) :   0.9276
B( 20-C , 21-C ) :   1.3170 B( 20-C , 34-S ) :   1.0499 B( 21-C , 22-C ) :   1.2369
B( 21-C , 32-N ) :   1.4089 B( 22-C , 23-N ) :   1.4590 B( 22-C , 33-C ) :   1.1962
B( 23-N , 24-C ) :   1.6500 B( 24-C , 25-C ) :   0.9109 B( 24-C , 31-C ) :   1.1317
B( 25-C , 26-O ) :   2.2401 B( 25-C , 27-C ) :   1.0206 B( 27-C , 28-C ) :   1.6810
B( 27-C , 76-H ) :   0.9977 B( 28-C , 29-C ) :   1.0238 B( 28-C , 77-H ) :   0.9976
B( 29-C , 30-O ) :   2.2344 B( 29-C , 31-C ) :   0.8926 B( 31-C , 32-N ) :   1.6748
B( 33-C , 34-S ) :   1.2086 B( 33-C , 35-N ) :   1.2908 B( 35-N , 36-C ) :   1.1956
B( 35-N , 78-H ) :   0.8687 B( 36-C , 37-S ) :   1.1140 B( 36-C , 43-C ) :   1.3366
B( 37-S , 38-C ) :   1.0847 B( 38-C , 39-N ) :   0.9696 B( 38-C , 42-C ) :   1.4925
B( 39-N , 40-O ) :   1.5318 B( 39-N , 41-O ) :   1.5134 B( 40-O , 41-O ) :   0.2596
B( 42-C , 43-C ) :   1.2286 B( 42-C , 79-H ) :   0.9972 B( 43-C , 44-C ) :   1.0792
B( 44-C , 45-C ) :   1.6435 B( 44-C , 80-H ) :   0.9777 B( 45-C , 46-C ) :   1.1782
B( 45-C , 81-H ) :   0.9684 B( 46-C , 47-C ) :   1.5215 B( 46-C , 82-H ) :   0.9869
B( 47-C , 48-C ) :   1.1611 B( 47-C , 51-S ) :   1.0480 B( 48-C , 49-C ) :   1.5623
B( 48-C , 83-H ) :   0.9999 B( 49-C , 50-C ) :   1.2123 B( 49-C , 84-H ) :   0.9940
B( 50-C , 51-S ) :   1.0350 B( 50-C , 52-C ) :   1.4799 B( 52-C , 53-C ) :   1.1963
B( 52-C , 56-S ) :   1.0602 B( 53-C , 54-C ) :   1.5786 B( 53-C , 85-H ) :   0.9935
B( 54-C , 55-C ) :   1.1511 B( 54-C , 86-H ) :   0.9992 B( 55-C , 56-S ) :   1.0166
B( 55-C , 57-C ) :   1.5622 B( 57-C , 58-C ) :   1.1458 B( 57-C , 87-H ) :   0.9696
B( 58-C , 59-C ) :   1.4086 B( 58-C , 69-C ) :   1.1375 B( 59-C , 60-C ) :   1.1369
B( 59-C , 88-H ) :   1.0189 B( 60-C , 61-C ) :   1.3988 B( 60-C , 68-C ) :   1.1340
B( 61-C , 62-C ) :   1.1621 B( 61-C , 89-H ) :   1.0047 B( 62-C , 63-C ) :   1.4024
B( 62-C , 66-C ) :   1.1261 B( 63-C , 64-C ) :   1.1660 B( 63-C , 90-H ) :   1.0083
B( 64-C , 65-C ) :   1.4835 B( 64-C , 70-C ) :   1.0838 B( 65-C , 66-C ) :   1.0966
B( 65-C , 91-H ) :   1.0171 B( 66-C , 67-C ) :   1.4552 B( 67-C , 68-C ) :   1.1287
B( 67-C , 92-H ) :   1.0050 B( 68-C , 69-C ) :   1.4542 B( 69-C , 93-H ) :   0.9907
B( 70-C , 71-C ) :   1.9362 B( 70-C , 94-H ) :   0.9664 B( 71-C , 95-H ) :   0.9527
B( 71-C , 96-H ) :   0.9492

-----------------------------------------------------------------------------
         ABSORPTION SPECTRUM VIA TRANSITION ELECTRIC DIPOLE MOMENTS
-----------------------------------------------------------------------------
State   Energy  Wavelength   fosc         T2         TX        TY        TZ
        (cm-1)    (nm)                  (au**2)     (au)      (au)      (au)
-----------------------------------------------------------------------------
   0    6087.9   1642.6   0.028375058   1.53443  -0.07929   1.04554  -0.65954
   1    9229.3   1083.5   0.909214976  32.43196   1.10927   5.31584  -1.71563
   2   12949.6    772.2   0.096552272   2.45460  -0.44278   1.00319  -1.11899
   3   14488.9    690.2   0.811601944  18.44092  -0.36673   3.80924  -1.94837
   4   14734.3    678.7   0.069228278   1.54678   0.37048   1.17550  -0.16651
   5   15458.4    646.9   0.125782104   2.67873   1.07235   1.23641   0.00983
   6   18888.2    529.4   0.059187801   1.03161   0.53789   0.70066   0.50136
   7   19336.1    517.2   0.202825474   3.45325  -0.05593  -1.35662   1.26874
   8   20675.2    483.7   0.186717570   2.97311  -1.16838  -1.00551  -0.77263
   9   21573.9    463.5   0.036403016   0.55550   0.24442   0.68310  -0.17069
  10   22368.4    447.1   0.101739044   1.49736   0.87104   0.26451   0.81773
  11   22952.7    435.7   0.105295512   1.51026   0.01306  -0.10146   1.22466
  12   23560.4    424.4   0.050569019   0.70661   0.42597   0.21139   0.69316
  13   23955.7    417.4   0.066932468   0.91982   0.44888   0.84754  -0.00072
  14   24350.8    410.7   0.144272410   1.95050  -0.34580  -1.04840   0.85545
  15   24832.6    402.7   0.165188334   2.18994   0.75195   1.16714   0.51215
  16   25203.6    396.8   0.018090542   0.23630   0.16365   0.45749   0.01478
  17   25371.9    394.1   0.289604739   3.75775  -1.40789  -0.54735  -1.21491
  18   25618.6    390.3   0.020054798   0.25771  -0.50087  -0.07413   0.03668
  19   25945.4    385.4   0.001992747   0.02529   0.10135  -0.11828   0.03199
  20   26145.5    382.5   0.289549714   3.64588  -0.72765  -0.24650  -1.74804
  21   26211.8    381.5   0.535814263   6.72965   1.24289   0.59608   2.19763
  22   26625.2    375.6   0.195952777   2.42290  -0.72221  -0.13166  -1.37258
  23   27420.9    364.7   0.011760874   0.14120  -0.33576  -0.11651  -0.12203
  24   27571.6    362.7   0.046357764   0.55352  -0.40785   0.03715  -0.62113
  25   28173.5    354.9   0.037068336   0.43315  -0.22775   0.09379  -0.61031
  26   28534.9    350.4   0.249891835   2.88304  -0.42434   0.25771  -1.62375
  27   28697.5    348.5   0.056681184   0.65023   0.59788   0.52506   0.13074
  28   29061.4    344.1   0.041338684   0.46829   0.33508  -0.42591   0.41787
  29   29620.9    337.6   0.012609557   0.14014   0.01391  -0.20025   0.31599
  30   29726.3    336.4   0.006806535   0.07538  -0.16339   0.02661  -0.21904
  31   30385.2    329.1   0.297855211   3.22715   0.52046   0.27977  -1.69647
  32   30600.8    326.8   0.036994780   0.39800   0.62716  -0.04097   0.05473
  33   30782.3    324.9   0.309703588   3.31223   0.66529  -0.06875   1.69260
  34   31321.0    319.3   0.050235713   0.52802   0.40587   0.17662  -0.57628
  35   31557.4    316.9   0.029680986   0.30964  -0.17041  -0.52480   0.07199
  36   31755.7    314.9   0.014965398   0.15515   0.12398  -0.15698   0.33931
  37   31938.4    313.1   0.042408867   0.43714  -0.40515  -0.51003   0.11341
  38   32142.1    311.1   0.040509941   0.41492   0.24918   0.08041  -0.58853
  39   32304.6    309.6   0.003335301   0.03399  -0.08568   0.07812  -0.14333
  40   32471.7    308.0   0.004617145   0.04681  -0.19137   0.02820  -0.09692
  41   32639.7    306.4   0.000219329   0.00221  -0.00721  -0.02901  -0.03632
  42   32770.2    305.2   0.031996676   0.32144   0.38487   0.30500   0.28335
  43   32839.5    304.5   0.093372541   0.93605  -0.00822  -0.01963  -0.96726
  44   32940.6    303.6   0.232211132   2.32075  -0.73834   0.20771  -1.31623
  45   33060.9    302.5   0.022096159   0.22003   0.15624   0.06842   0.43696
  46   33108.5    302.0   0.014672215   0.14589  -0.27597   0.19580  -0.17718
  47   33754.3    296.3   0.061045949   0.59539   0.52836   0.08940   0.55519
  48   33857.4    295.4   0.010517180   0.10226   0.29201   0.03598   0.12530
  49   34173.0    292.6   0.042712913   0.41148  -0.29895  -0.40079  -0.40184
  50   34563.2    289.3   0.266156798   2.53512   0.20852  -0.23040  -1.56159
  51   34695.5    288.2   0.071932178   0.68254  -0.16622  -0.15266  -0.79473
  52   34930.3    286.3   0.053161388   0.50104  -0.06851  -0.40387  -0.57726
  53   35042.8    285.4   0.031717476   0.29797   0.40896  -0.30587   0.19280
  54   35455.3    282.0   0.013284546   0.12335  -0.09188   0.26682  -0.20908
  55   35630.6    280.7   0.028374658   0.26217  -0.15976   0.48590  -0.02330
  56   36134.4    276.7   0.004436250   0.04042   0.19304  -0.05291   0.01881
  57   36382.1    274.9   0.219622431   1.98730  -0.25776   0.40425  -1.32569
  58   36421.0    274.6   0.015870263   0.14345   0.16082  -0.32031  -0.12244
  59   36569.2    273.5   0.014918333   0.13430   0.20226  -0.21849   0.21367
  60   36900.9    271.0   0.020380556   0.18183  -0.00769  -0.35681   0.23335
  61   36944.3    270.7   0.027397880   0.24414  -0.41441  -0.15769  -0.21804
  62   37170.9    269.0   0.098162159   0.86939  -0.40714  -0.11448  -0.83098
  63   37741.4    265.0   0.083965584   0.73242   0.43505   0.01919   0.73674
  64   37953.8    263.5   0.001337068   0.01160  -0.03842  -0.05750  -0.08255
  65   38054.0    262.8   0.020456559   0.17697  -0.01850   0.30947  -0.28435
  66   38186.8    261.9   0.038300408   0.33019  -0.32904  -0.30622  -0.35799
  67   38328.9    260.9   0.019856391   0.17055  -0.38199  -0.09371   0.12592
  68   38475.6    259.9   0.005414544   0.04633   0.00095   0.04006  -0.21148
  69   38675.7    258.6   0.021195709   0.18042  -0.28149  -0.12397  -0.29294
  70   38727.3    258.2   0.001007326   0.00856   0.00513  -0.04339  -0.08157
  71   38777.5    257.9   0.015316428   0.13003   0.06703   0.18156  -0.30426
  72   38962.7    256.7   0.010187901   0.08608  -0.10600  -0.26402  -0.07170
  73   39062.6    256.0   0.021352467   0.17995  -0.27603  -0.31633  -0.06082
  74   39389.6    253.9   0.062751087   0.52446  -0.14519   0.52045  -0.48220
  75   39612.3    252.4   0.000623108   0.00518   0.01160  -0.06913   0.01629
  76   39729.6    251.7   0.049714553   0.41195   0.19528   0.59657  -0.13385
  77   39822.9    251.1   0.061497883   0.50840  -0.00612  -0.61381   0.36277
  78   40063.6    249.6   0.178294246   1.46508   0.60436   0.47911   0.93289
  79   40322.9    248.0   0.083432143   0.68117  -0.06078  -0.72997  -0.38030

FINAL SINGLE POINT ENERGY     -7376.018870943164

DIPOLE MOMENT
-------------
                                X             Y             Z
Electronic contribution:     68.89447     210.67147    -113.00489
Nuclear contribution   :    -70.78093    -215.94451     110.49000
                        -----------------------------------------
Total Dipole Moment    :     -1.88645      -5.27304      -2.51489
                        -----------------------------------------
Magnitude (a.u.)       :      6.13908
Magnitude (Debye)      :     15.60431

Rotational constants in cm-1:     0.001379     0.000192     0.000177
Rotational constants in MHz :    41.350255     5.743138     5.293297

                             ****ORCA TERMINATED NORMALLY****
TOTAL RUN TIME: 0 days 0 hours 13 minutes 50 seconds 709 msec
