                         Program Version 4.2.0 -  RELEASE  -
|  1> # ORCA input file
|  2> # SCF done       -161.604536580998          0.000782685122
|  3> ! CAM-B3LYP def2-SVP def2/J RIJCOSX Grid4 TightSCF
|  4> %maxcore 5000
|  5> %tddft
|  6>     Mode sTDDFT
|  7>     Ethresh 5.0
|  8>     maxcore 5000
|  9> end
| 10>
| 11> %pal
| 12>   nprocs 6
| 13>   end
| 14> * xyz 0 1
| 15>    C       -3.17829        -7.03890        -4.87751
| 16>    C       -2.32600        -6.23144        -4.22614
| 17>    C       -1.97109        -4.88395        -4.54972
| 18>    C       -1.09534        -4.31286        -3.68614
| 19>    C       -0.68490        -5.15612        -2.62423
| 20>    S       -1.44782        -6.73106        -2.77233
| 21>    C        0.17759        -4.85194        -1.58787
| 22>    C        0.78264        -3.61121        -1.29219
| 23>    C        1.55103        -3.62683        -0.16524
| 24>    C        1.61376        -4.87832         0.48741
| 25>    S        0.65429        -6.05378        -0.39495
| 26>    C        2.29281        -5.14963         1.65626
| 27>    C        2.39030        -6.37940         2.30417
| 28>    S        1.75202        -7.86041         1.65299
| 29>    C        2.30653        -8.78721         3.03325
| 30>    C        2.96418        -7.94775         3.94621
| 31>    C        3.03103        -6.61776         3.53754
| 32>    O        3.66502        -5.57940         4.16111
| 33>    C        3.24458        -5.23682         5.46783
| 34>    C        3.84498        -6.10346         6.57585
| 35>    C        3.19034        -7.47102         6.68458
| 36>    S        3.71382        -8.64122         5.38388
| 37>    C        2.07488       -10.16020         3.10259
| 38>    C        1.49022       -10.81703         2.04012
| 39>    C        1.12099       -12.14320         1.90436
| 40>    C        0.56305       -12.58951         0.70851
| 41>    C        0.02622       -13.83827         0.36468
| 42>    C       -0.47938       -13.90468        -0.91489
| 43>    C       -0.34076       -12.71424        -1.63638
| 44>    S        0.43737       -11.49905        -0.65755
| 45>    C       -0.71202       -12.36383        -2.93498
| 46>    C       -1.40656       -13.07592        -3.92103
| 47>    C       -1.60873       -12.35235        -5.06963
| 48>    C       -1.05585       -11.05548        -5.04575
| 49>    S       -0.27937       -10.77596        -3.51475
| 50>    C       -1.19387       -10.09651        -6.03522
| 51>    C       -0.66069        -8.81093        -6.11006
| 52>    S       -1.39303        -7.71103        -7.25580
| 53>    C       -0.31766        -6.42103        -6.80942
| 54>    C        0.62140        -6.86762        -5.85640
| 55>    C        0.43468        -8.19260        -5.46196
| 56>    O        1.22866        -8.97304        -4.68369
| 57>    C        1.77881        -8.48617        -3.47247
| 58>    C        2.98110        -7.56157        -3.63937
| 59>    C        2.56625        -6.12058        -3.86030
| 60>    S        1.96185        -5.76631        -5.53918
| 61>    C       -0.40765        -5.15168        -7.37894
| 62>    C       -1.30928        -4.80592        -8.35854
| 63>    C       -1.39769        -3.53659        -8.91907
| 64>    C       -2.27411        -3.18522        -9.92615
| 65>    C       -2.39356        -1.92400       -10.54733
| 66>    C       -3.33551        -1.86752       -11.53241
| 67>    C       -4.01623        -3.08705       -11.74244
| 68>    S       -3.41919        -4.30944       -10.63775
| 69>    C       -5.00791        -3.35602       -12.66217
| 70>    C       -5.57294        -2.46237       -13.60898
| 71>    C       -6.53170        -3.00952       -14.39262
| 72>    C       -6.79924        -4.39115       -14.12202
| 73>    S       -5.75088        -4.93726       -12.80373
| 74>    C       -7.68535        -5.19301       -14.73122
| 75>    H       -3.71582        -6.68502        -5.73865
| 76>    H       -3.36749        -8.04467        -4.54922
| 77>    H       -2.39275        -4.39752        -5.41098
| 78>    H       -0.72073        -3.30903        -3.78036
| 79>    H        0.62529        -2.74106        -1.90383
| 80>    H        2.07786        -2.77146         0.22029
| 81>    H        2.80381        -4.32451         2.13549
| 82>    H        3.58419        -4.20487         5.59539
| 83>    H        2.14715        -5.25599         5.52929
| 84>    H        3.71432        -5.57647         7.52400
| 85>    H        4.91481        -6.22182         6.39244
| 86>    H        3.48701        -7.96564         7.60929
| 87>    H        2.10219        -7.39872         6.65116
| 88>    H        2.37494       -10.68434         3.99870
| 89>    H        1.28227       -10.19253         1.17666
| 90>    H        1.24197       -12.84389         2.71819
| 91>    H        0.00892       -14.65914         1.06045
| 92>    H       -0.93560       -14.78224        -1.33818
| 93>    H       -1.75062       -14.08396        -3.77111
| 94>    H       -2.13491       -12.72223        -5.93240
| 95>    H       -1.86782       -10.35766        -6.84310
| 96>    H        1.00232        -7.99643        -2.87238
| 97>    H        2.08811        -9.39527        -2.95109
| 98>    H        3.59858        -7.91187        -4.46938
| 99>    H        3.57394        -7.61088        -2.72375
|100>    H        1.79600        -5.82026        -3.15042
|101>    H        3.41823        -5.44640        -3.76434
|102>    H        0.28595        -4.40677        -7.01247
|103>    H       -1.98563        -5.56906        -8.72570
|104>    H       -0.72987        -2.76515        -8.55702
|105>    H       -1.77555        -1.09422       -10.25110
|106>    H       -3.55362        -0.98722       -12.10999
|107>    H       -5.24712        -1.43943       -13.67745
|108>    H       -7.06904        -2.48667       -15.16382
|109>    H       -8.30497        -4.82072       -15.52774
|110>    H       -7.80613        -6.22176       -14.44590
|111> *
|112>
|113>                          ****END OF INPUT****

CARTESIAN COORDINATES (ANGSTROEM)
---------------------------------
  C     -3.178290   -7.038900   -4.877510
  C     -2.326000   -6.231440   -4.226140
  C     -1.971090   -4.883950   -4.549720
  C     -1.095340   -4.312860   -3.686140
  C     -0.684900   -5.156120   -2.624230
  S     -1.447820   -6.731060   -2.772330
  C      0.177590   -4.851940   -1.587870
  C      0.782640   -3.611210   -1.292190
  C      1.551030   -3.626830   -0.165240
  C      1.613760   -4.878320    0.487410
  S      0.654290   -6.053780   -0.394950
  C      2.292810   -5.149630    1.656260
  C      2.390300   -6.379400    2.304170
  S      1.752020   -7.860410    1.652990
  C      2.306530   -8.787210    3.033250
  C      2.964180   -7.947750    3.946210
  C      3.031030   -6.617760    3.537540
  O      3.665020   -5.579400    4.161110
  C      3.244580   -5.236820    5.467830
  C      3.844980   -6.103460    6.575850
  C      3.190340   -7.471020    6.684580
  S      3.713820   -8.641220    5.383880
  C      2.074880  -10.160200    3.102590
  C      1.490220  -10.817030    2.040120
  C      1.120990  -12.143200    1.904360
  C      0.563050  -12.589510    0.708510
  C      0.026220  -13.838270    0.364680
  C     -0.479380  -13.904680   -0.914890
  C     -0.340760  -12.714240   -1.636380
  S      0.437370  -11.499050   -0.657550
  C     -0.712020  -12.363830   -2.934980
  C     -1.406560  -13.075920   -3.921030
  C     -1.608730  -12.352350   -5.069630
  C     -1.055850  -11.055480   -5.045750
  S     -0.279370  -10.775960   -3.514750
  C     -1.193870  -10.096510   -6.035220
  C     -0.660690   -8.810930   -6.110060
  S     -1.393030   -7.711030   -7.255800
  C     -0.317660   -6.421030   -6.809420
  C      0.621400   -6.867620   -5.856400
  C      0.434680   -8.192600   -5.461960
  O      1.228660   -8.973040   -4.683690
  C      1.778810   -8.486170   -3.472470
  C      2.981100   -7.561570   -3.639370
  C      2.566250   -6.120580   -3.860300
  S      1.961850   -5.766310   -5.539180
  C     -0.407650   -5.151680   -7.378940
  C     -1.309280   -4.805920   -8.358540
  C     -1.397690   -3.536590   -8.919070
  C     -2.274110   -3.185220   -9.926150
  C     -2.393560   -1.924000  -10.547330
  C     -3.335510   -1.867520  -11.532410
  C     -4.016230   -3.087050  -11.742440
  S     -3.419190   -4.309440  -10.637750
  C     -5.007910   -3.356020  -12.662170
  C     -5.572940   -2.462370  -13.608980
  C     -6.531700   -3.009520  -14.392620
  C     -6.799240   -4.391150  -14.122020
  S     -5.750880   -4.937260  -12.803730
  C     -7.685350   -5.193010  -14.731220
  H     -3.715820   -6.685020   -5.738650
  H     -3.367490   -8.044670   -4.549220
  H     -2.392750   -4.397520   -5.410980
  H     -0.720730   -3.309030   -3.780360
  H      0.625290   -2.741060   -1.903830
  H      2.077860   -2.771460    0.220290
  H      2.803810   -4.324510    2.135490
  H      3.584190   -4.204870    5.595390
  H      2.147150   -5.255990    5.529290
  H      3.714320   -5.576470    7.524000
  H      4.914810   -6.221820    6.392440
  H      3.487010   -7.965640    7.609290
  H      2.102190   -7.398720    6.651160
  H      2.374940  -10.684340    3.998700
  H      1.282270  -10.192530    1.176660
  H      1.241970  -12.843890    2.718190
  H      0.008920  -14.659140    1.060450
  H     -0.935600  -14.782240   -1.338180
  H     -1.750620  -14.083960   -3.771110
  H     -2.134910  -12.722230   -5.932400
  H     -1.867820  -10.357660   -6.843100
  H      1.002320   -7.996430   -2.872380
  H      2.088110   -9.395270   -2.951090
  H      3.598580   -7.911870   -4.469380
  H      3.573940   -7.610880   -2.723750
  H      1.796000   -5.820260   -3.150420
  H      3.418230   -5.446400   -3.764340
  H      0.285950   -4.406770   -7.012470
  H     -1.985630   -5.569060   -8.725700
  H     -0.729870   -2.765150   -8.557020
  H     -1.775550   -1.094220  -10.251100
  H     -3.553620   -0.987220  -12.109990
  H     -5.247120   -1.439430  -13.677450
  H     -7.069040   -2.486670  -15.163820
  H     -8.304970   -4.820720  -15.527740
  H     -7.806130   -6.221760  -14.445900

 Total Charge           Charge          ....    0
 Multiplicity           Mult            ....    1
 Number of Electrons    NEL             ....  500
 Basis Dimension        Dim             .... 1060

ORBITAL ENERGIES
----------------

  NO   OCC          E(Eh)            E(eV)
   0   2.0000     -88.945308     -2420.3249
   1   2.0000     -88.942382     -2420.2453
   2   2.0000     -88.939851     -2420.1764
   3   2.0000     -88.933753     -2420.0105
   4   2.0000     -88.932252     -2419.9696
   5   2.0000     -88.931788     -2419.9570
   6   2.0000     -88.931286     -2419.9433
   7   2.0000     -88.929463     -2419.8937
   8   2.0000     -88.919835     -2419.6317
   9   2.0000     -88.917985     -2419.5814
  10   2.0000     -19.237328      -523.4743
  11   2.0000     -19.236693      -523.4570
  12   2.0000     -10.330571      -281.1091
  13   2.0000     -10.325372      -280.9677
  14   2.0000     -10.322246      -280.8826
  15   2.0000     -10.307834      -280.4904
  16   2.0000     -10.302230      -280.3379
  17   2.0000     -10.300289      -280.2851
  18   2.0000     -10.299464      -280.2627
  19   2.0000     -10.299395      -280.2608
  20   2.0000     -10.297854      -280.2189
  21   2.0000     -10.296652      -280.1862
  22   2.0000     -10.296640      -280.1858
  23   2.0000     -10.295860      -280.1646
  24   2.0000     -10.295375      -280.1514
  25   2.0000     -10.295354      -280.1508
  26   2.0000     -10.294927      -280.1392
  27   2.0000     -10.294745      -280.1343
  28   2.0000     -10.294504      -280.1277
  29   2.0000     -10.294186      -280.1190
  30   2.0000     -10.294134      -280.1176
  31   2.0000     -10.294028      -280.1147
  32   2.0000     -10.293407      -280.0978
  33   2.0000     -10.290572      -280.0207
  34   2.0000     -10.289196      -279.9833
  35   2.0000     -10.285785      -279.8904
  36   2.0000     -10.281024      -279.7609
  37   2.0000     -10.278709      -279.6979
  38   2.0000     -10.277714      -279.6708
  39   2.0000     -10.276276      -279.6317
  40   2.0000     -10.276119      -279.6274
  41   2.0000     -10.275930      -279.6223
  42   2.0000     -10.275444      -279.6091
  43   2.0000     -10.275149      -279.6010
  44   2.0000     -10.274545      -279.5846
  45   2.0000     -10.274177      -279.5746
  46   2.0000     -10.273500      -279.5561
  47   2.0000     -10.273247      -279.5493
  48   2.0000     -10.272767      -279.5362
  49   2.0000     -10.272023      -279.5160
  50   2.0000     -10.271549      -279.5031
  51   2.0000     -10.271180      -279.4930
  52   2.0000     -10.270433      -279.4727
  53   2.0000     -10.267410      -279.3904
  54   2.0000     -10.266734      -279.3720
  55   2.0000     -10.266635      -279.3694
  56   2.0000     -10.263880      -279.2944
  57   2.0000     -10.262491      -279.2566
  58   2.0000     -10.261520      -279.2302
  59   2.0000     -10.260781      -279.2101
  60   2.0000      -8.040072      -218.7815
  61   2.0000      -8.037480      -218.7110
  62   2.0000      -8.035067      -218.6453
  63   2.0000      -8.030086      -218.5098
  64   2.0000      -8.028422      -218.4645
  65   2.0000      -8.027233      -218.4321
  66   2.0000      -8.027105      -218.4286
  67   2.0000      -8.026231      -218.4049
  68   2.0000      -8.014565      -218.0874
  69   2.0000      -8.012911      -218.0424
  70   2.0000      -6.009360      -163.5230
  71   2.0000      -6.006829      -163.4541
  72   2.0000      -6.005692      -163.4232
  73   2.0000      -6.004846      -163.4002
  74   2.0000      -6.003018      -163.3504
  75   2.0000      -6.001811      -163.3176
  76   2.0000      -6.000704      -163.2874
  77   2.0000      -5.999821      -163.2634
  78   2.0000      -5.999117      -163.2443
  79   2.0000      -5.998030      -163.2147
  80   2.0000      -5.996919      -163.1845
  81   2.0000      -5.996901      -163.1840
  82   2.0000      -5.996152      -163.1636
  83   2.0000      -5.996051      -163.1608
  84   2.0000      -5.995871      -163.1560
  85   2.0000      -5.994000      -163.1050
  86   2.0000      -5.992992      -163.0776
  87   2.0000      -5.992681      -163.0691
  88   2.0000      -5.992144      -163.0545
  89   2.0000      -5.990921      -163.0212
  90   2.0000      -5.989622      -162.9859
  91   2.0000      -5.988475      -162.9547
  92   2.0000      -5.987801      -162.9364
  93   2.0000      -5.986753      -162.9078
  94   2.0000      -5.985103      -162.8629
  95   2.0000      -5.983503      -162.8194
  96   2.0000      -5.980759      -162.7447
  97   2.0000      -5.979432      -162.7086
  98   2.0000      -5.974393      -162.5715
  99   2.0000      -5.972351      -162.5159
 100   2.0000      -1.141546       -31.0630
 101   2.0000      -1.140599       -31.0373
 102   2.0000      -0.985328       -26.8121
 103   2.0000      -0.984174       -26.7807
 104   2.0000      -0.983187       -26.7539
 105   2.0000      -0.978451       -26.6250
 106   2.0000      -0.974559       -26.5191
 107   2.0000      -0.961347       -26.1596
 108   2.0000      -0.960284       -26.1307
 109   2.0000      -0.957847       -26.0643
 110   2.0000      -0.910714       -24.7818
 111   2.0000      -0.909976       -24.7617
 112   2.0000      -0.899660       -24.4810
 113   2.0000      -0.898335       -24.4449
 114   2.0000      -0.881754       -23.9938
 115   2.0000      -0.877075       -23.8664
 116   2.0000      -0.866384       -23.5755
 117   2.0000      -0.859940       -23.4002
 118   2.0000      -0.859521       -23.3888
 119   2.0000      -0.850745       -23.1499
 120   2.0000      -0.842666       -22.9301
 121   2.0000      -0.835206       -22.7271
 122   2.0000      -0.834637       -22.7116
 123   2.0000      -0.832048       -22.6412
 124   2.0000      -0.830088       -22.5878
 125   2.0000      -0.813632       -22.1400
 126   2.0000      -0.811374       -22.0786
 127   2.0000      -0.806458       -21.9448
 128   2.0000      -0.804733       -21.8979
 129   2.0000      -0.796401       -21.6712
 130   2.0000      -0.782694       -21.2982
 131   2.0000      -0.779586       -21.2136
 132   2.0000      -0.776692       -21.1349
 133   2.0000      -0.767831       -20.8937
 134   2.0000      -0.766645       -20.8615
 135   2.0000      -0.747073       -20.3289
 136   2.0000      -0.732703       -19.9379
 137   2.0000      -0.729810       -19.8591
 138   2.0000      -0.707914       -19.2633
 139   2.0000      -0.692980       -18.8569
 140   2.0000      -0.686182       -18.6720
 141   2.0000      -0.675722       -18.3873
 142   2.0000      -0.674895       -18.3648
 143   2.0000      -0.670130       -18.2352
 144   2.0000      -0.669440       -18.2164
 145   2.0000      -0.659431       -17.9440
 146   2.0000      -0.657378       -17.8882
 147   2.0000      -0.635877       -17.3031
 148   2.0000      -0.632420       -17.2090
 149   2.0000      -0.629107       -17.1189
 150   2.0000      -0.623875       -16.9765
 151   2.0000      -0.623112       -16.9557
 152   2.0000      -0.619017       -16.8443
 153   2.0000      -0.615174       -16.7397
 154   2.0000      -0.613122       -16.6839
 155   2.0000      -0.608523       -16.5587
 156   2.0000      -0.605013       -16.4632
 157   2.0000      -0.601796       -16.3757
 158   2.0000      -0.595195       -16.1961
 159   2.0000      -0.590970       -16.0811
 160   2.0000      -0.588898       -16.0247
 161   2.0000      -0.588474       -16.0132
 162   2.0000      -0.582492       -15.8504
 163   2.0000      -0.578346       -15.7376
 164   2.0000      -0.568447       -15.4682
 165   2.0000      -0.561991       -15.2926
 166   2.0000      -0.555702       -15.1214
 167   2.0000      -0.545266       -14.8374
 168   2.0000      -0.543476       -14.7887
 169   2.0000      -0.536930       -14.6106
 170   2.0000      -0.532350       -14.4860
 171   2.0000      -0.529897       -14.4192
 172   2.0000      -0.529492       -14.4082
 173   2.0000      -0.526003       -14.3133
 174   2.0000      -0.521182       -14.1821
 175   2.0000      -0.517591       -14.0844
 176   2.0000      -0.512306       -13.9405
 177   2.0000      -0.509212       -13.8564
 178   2.0000      -0.504930       -13.7398
 179   2.0000      -0.503069       -13.6892
 180   2.0000      -0.502811       -13.6822
 181   2.0000      -0.498178       -13.5561
 182   2.0000      -0.494055       -13.4439
 183   2.0000      -0.491748       -13.3811
 184   2.0000      -0.489728       -13.3262
 185   2.0000      -0.486656       -13.2426
 186   2.0000      -0.485845       -13.2205
 187   2.0000      -0.483791       -13.1646
 188   2.0000      -0.479452       -13.0466
 189   2.0000      -0.478397       -13.0178
 190   2.0000      -0.477931       -13.0052
 191   2.0000      -0.476340       -12.9619
 192   2.0000      -0.475416       -12.9367
 193   2.0000      -0.472988       -12.8707
 194   2.0000      -0.470833       -12.8120
 195   2.0000      -0.467289       -12.7156
 196   2.0000      -0.464102       -12.6289
 197   2.0000      -0.462682       -12.5902
 198   2.0000      -0.457443       -12.4477
 199   2.0000      -0.456529       -12.4228
 200   2.0000      -0.454533       -12.3685
 201   2.0000      -0.452857       -12.3229
 202   2.0000      -0.450472       -12.2580
 203   2.0000      -0.447236       -12.1699
 204   2.0000      -0.445630       -12.1262
 205   2.0000      -0.444278       -12.0894
 206   2.0000      -0.443402       -12.0656
 207   2.0000      -0.441977       -12.0268
 208   2.0000      -0.433952       -11.8084
 209   2.0000      -0.433011       -11.7828
 210   2.0000      -0.421629       -11.4731
 211   2.0000      -0.421077       -11.4581
 212   2.0000      -0.419189       -11.4067
 213   2.0000      -0.418346       -11.3838
 214   2.0000      -0.412792       -11.2327
 215   2.0000      -0.411781       -11.2051
 216   2.0000      -0.410168       -11.1612
 217   2.0000      -0.409241       -11.1360
 218   2.0000      -0.404169       -10.9980
 219   2.0000      -0.400019       -10.8851
 220   2.0000      -0.398239       -10.8366
 221   2.0000      -0.393201       -10.6996
 222   2.0000      -0.392247       -10.6736
 223   2.0000      -0.387905       -10.5554
 224   2.0000      -0.386400       -10.5145
 225   2.0000      -0.382011       -10.3950
 226   2.0000      -0.376503       -10.2452
 227   2.0000      -0.372432       -10.1344
 228   2.0000      -0.369071       -10.0429
 229   2.0000      -0.360917        -9.8211
 230   2.0000      -0.356002        -9.6873
 231   2.0000      -0.350208        -9.5296
 232   2.0000      -0.343308        -9.3419
 233   2.0000      -0.340539        -9.2665
 234   2.0000      -0.328164        -8.9298
 235   2.0000      -0.328119        -8.9286
 236   2.0000      -0.326874        -8.8947
 237   2.0000      -0.322034        -8.7630
 238   2.0000      -0.318849        -8.6763
 239   2.0000      -0.315122        -8.5749
 240   2.0000      -0.306765        -8.3475
 241   2.0000      -0.304371        -8.2824
 242   2.0000      -0.291319        -7.9272
 243   2.0000      -0.280562        -7.6345
 244   2.0000      -0.275794        -7.5047
 245   2.0000      -0.265088        -7.2134
 246   2.0000      -0.250309        -6.8113
 247   2.0000      -0.214739        -5.8434
 248   2.0000      -0.201076        -5.4716
 249   2.0000      -0.174021        -4.7354
 250   0.0000      -0.088851        -2.4178
 251   0.0000      -0.066608        -1.8125
 252   0.0000      -0.047898        -1.3034
 253   0.0000      -0.012529        -0.3409
 254   0.0000       0.003725         0.1014

MULLIKEN ATOMIC CHARGES
-----------------------
   0 C :    0.027135
   1 C :   -0.114897
   2 C :    0.093245
   3 C :    0.021525
   4 C :   -0.091046
   5 S :    0.082562
   6 C :   -0.057235
   7 C :    0.025452
   8 C :    0.032799
   9 C :   -0.033204
  10 S :    0.056626
  11 C :   -0.020468
  12 C :   -0.096956
  13 S :    0.059785
  14 C :   -0.078294
  15 C :   -0.050802
  16 C :    0.175919
  17 O :   -0.323054
  18 C :    0.218094
  19 C :    0.034404
  20 C :   -0.097399
  21 S :    0.000769
  22 C :   -0.001375
  23 C :   -0.024835
  24 C :    0.015904
  25 C :   -0.027776
  26 C :    0.020771
  27 C :    0.025359
  28 C :   -0.037234
  29 S :    0.040175
  30 C :   -0.025406
  31 C :    0.019611
  32 C :    0.021910
  33 C :   -0.016224
  34 S :    0.081706
  35 C :    0.011233
  36 C :   -0.141941
  37 S :    0.100011
  38 C :   -0.086598
  39 C :   -0.043029
  40 C :    0.204282
  41 O :   -0.326649
  42 C :    0.204526
  43 C :    0.041884
  44 C :   -0.082625
  45 S :   -0.016420
  46 C :   -0.008780
  47 C :   -0.010522
  48 C :   -0.013731
  49 C :   -0.022906
  50 C :    0.032993
  51 C :    0.019545
  52 C :   -0.042230
  53 S :    0.067918
  54 C :   -0.070892
  55 C :    0.028733
  56 C :    0.046725
  57 C :   -0.062317
  58 S :    0.074622
  59 C :   -0.033395
  60 H :    0.018775
  61 H :    0.021753
  62 H :   -0.010444
  63 H :   -0.020449
  64 H :   -0.018523
  65 H :   -0.017787
  66 H :   -0.010533
  67 H :    0.018047
  68 H :    0.002028
  69 H :    0.013533
  70 H :    0.025882
  71 H :    0.049467
  72 H :    0.051101
  73 H :   -0.012756
  74 H :    0.026672
  75 H :   -0.020535
  76 H :   -0.017507
  77 H :   -0.018637
  78 H :   -0.020221
  79 H :   -0.017324
  80 H :   -0.015924
  81 H :    0.007974
  82 H :    0.021014
  83 H :    0.024004
  84 H :    0.021332
  85 H :    0.077776
  86 H :    0.048406
  87 H :   -0.005519
  88 H :    0.001709
  89 H :   -0.021704
  90 H :   -0.017454
  91 H :   -0.018024
  92 H :   -0.014836
  93 H :   -0.014761
  94 H :    0.016848
  95 H :    0.018631
Sum of atomic charges:   -0.0000000

LOEWDIN ATOMIC CHARGES
----------------------
   0 C :   -0.069845
   1 C :   -0.151679
   2 C :   -0.021146
   3 C :   -0.038270
   4 C :   -0.178664
   5 S :    0.367655
   6 C :   -0.194708
   7 C :   -0.045022
   8 C :   -0.038398
   9 C :   -0.161867
  10 S :    0.364646
  11 C :   -0.071165
  12 C :   -0.193505
  13 S :    0.421890
  14 C :   -0.169271
  15 C :   -0.227802
  16 C :    0.000602
  17 O :   -0.113632
  18 C :    0.084762
  19 C :   -0.066415
  20 C :   -0.132717
  21 S :    0.286405
  22 C :   -0.054613
  23 C :   -0.043355
  24 C :   -0.060373
  25 C :   -0.142776
  26 C :   -0.048515
  27 C :   -0.036355
  28 C :   -0.185811
  29 S :    0.384641
  30 C :   -0.180115
  31 C :   -0.046012
  32 C :   -0.036045
  33 C :   -0.159283
  34 S :    0.433330
  35 C :   -0.074135
  36 C :   -0.185493
  37 S :    0.456003
  38 C :   -0.183249
  39 C :   -0.211085
  40 C :    0.000562
  41 O :   -0.104165
  42 C :    0.070941
  43 C :   -0.060968
  44 C :   -0.133584
  45 S :    0.305928
  46 C :   -0.044534
  47 C :   -0.049611
  48 C :   -0.057810
  49 C :   -0.152708
  50 C :   -0.036734
  51 C :   -0.038645
  52 C :   -0.178471
  53 S :    0.364903
  54 C :   -0.182942
  55 C :   -0.027345
  56 C :   -0.037710
  57 C :   -0.139036
  58 S :    0.348349
  59 C :   -0.083695
  60 H :    0.024382
  61 H :    0.026548
  62 H :    0.033907
  63 H :    0.029711
  64 H :    0.029710
  65 H :    0.031660
  66 H :    0.039307
  67 H :    0.024463
  68 H :    0.012123
  69 H :    0.031333
  70 H :    0.029233
  71 H :    0.028703
  72 H :    0.022861
  73 H :    0.027099
  74 H :    0.004321
  75 H :    0.030899
  76 H :    0.030868
  77 H :    0.030232
  78 H :    0.029460
  79 H :    0.030411
  80 H :    0.032505
  81 H :   -0.003121
  82 H :    0.018347
  83 H :    0.027566
  84 H :    0.036691
  85 H :    0.022736
  86 H :    0.030547
  87 H :    0.024553
  88 H :    0.013902
  89 H :    0.031553
  90 H :    0.031704
  91 H :    0.029586
  92 H :    0.031181
  93 H :    0.031801
  94 H :    0.027124
  95 H :    0.024754

  Mayer bond orders larger than 0.100000
B(  0-C ,  1-C ) :   1.8566 B(  0-C , 60-H ) :   0.9375 B(  0-C , 61-H ) :   0.9336
B(  1-C ,  2-C ) :   1.0907 B(  1-C ,  5-S ) :   1.0050 B(  2-C ,  3-C ) :   1.6163
B(  2-C , 62-H ) :   0.9835 B(  3-C ,  4-C ) :   1.1840 B(  3-C , 63-H ) :   0.9929
B(  4-C ,  5-S ) :   1.0515 B(  4-C ,  6-C ) :   1.4895 B(  6-C ,  7-C ) :   1.2001
B(  6-C , 10-S ) :   1.0348 B(  7-C ,  8-C ) :   1.5573 B(  7-C , 64-H ) :   0.9938
B(  8-C ,  9-C ) :   1.1793 B(  8-C , 65-H ) :   0.9999 B(  9-C , 10-S ) :   1.0332
B(  9-C , 11-C ) :   1.4704 B( 11-C , 12-C ) :   1.2637 B( 11-C , 66-H ) :   0.9721
B( 12-C , 13-S ) :   1.0705 B( 12-C , 16-C ) :   1.3829 B( 13-S , 14-C ) :   1.0889
B( 14-C , 15-C ) :   1.3888 B( 14-C , 22-C ) :   1.2799 B( 15-C , 16-C ) :   1.3367
B( 15-C , 21-S ) :   1.0045 B( 16-C , 17-O ) :   1.1508 B( 17-O , 18-C ) :   0.9595
B( 18-C , 19-C ) :   1.0783 B( 18-C , 67-H ) :   0.9548 B( 18-C , 68-H ) :   0.9381
B( 19-C , 20-C ) :   1.0322 B( 19-C , 69-H ) :   0.9319 B( 19-C , 70-H ) :   0.9323
B( 20-C , 21-S ) :   1.0177 B( 20-C , 71-H ) :   0.9512 B( 20-C , 72-H ) :   0.9504
B( 22-C , 23-C ) :   1.4712 B( 22-C , 73-H ) :   0.9762 B( 23-C , 24-C ) :   1.2725
B( 23-C , 74-H ) :   0.9501 B( 24-C , 25-C ) :   1.4295 B( 24-C , 75-H ) :   0.9902
B( 25-C , 26-C ) :   1.2242 B( 25-C , 29-S ) :   1.0584 B( 26-C , 27-C ) :   1.4895
B( 26-C , 76-H ) :   0.9981 B( 27-C , 28-C ) :   1.2732 B( 27-C , 77-H ) :   0.9959
B( 28-C , 29-S ) :   1.0596 B( 28-C , 30-C ) :   1.3837 B( 30-C , 31-C ) :   1.2532
B( 30-C , 34-S ) :   1.0709 B( 31-C , 32-C ) :   1.5147 B( 31-C , 78-H ) :   0.9956
B( 32-C , 33-C ) :   1.2040 B( 32-C , 79-H ) :   0.9985 B( 33-C , 34-S ) :   1.0627
B( 33-C , 35-C ) :   1.5021 B( 35-C , 36-C ) :   1.2383 B( 35-C , 80-H ) :   0.9430
B( 36-C , 37-S ) :   1.0829 B( 36-C , 40-C ) :   1.3687 B( 37-S , 38-C ) :   1.1092
B( 38-C , 39-C ) :   1.4016 B( 38-C , 46-C ) :   1.2201 B( 39-C , 40-C ) :   1.3160
B( 39-C , 45-S ) :   1.0114 B( 40-C , 41-O ) :   1.1571 B( 41-O , 42-C ) :   0.9179
B( 42-C , 43-C ) :   1.0807 B( 42-C , 81-H ) :   0.9386 B( 42-C , 82-H ) :   0.9447
B( 43-C , 44-C ) :   1.0462 B( 43-C , 83-H ) :   0.9359 B( 43-C , 84-H ) :   0.9280
B( 44-C , 45-S ) :   1.0120 B( 44-C , 85-H ) :   0.9412 B( 44-C , 86-H ) :   0.9416
B( 46-C , 47-C ) :   1.5284 B( 46-C , 87-H ) :   0.9707 B( 47-C , 48-C ) :   1.2106
B( 47-C , 88-H ) :   0.9702 B( 48-C , 49-C ) :   1.5114 B( 48-C , 89-H ) :   0.9858
B( 49-C , 50-C ) :   1.1642 B( 49-C , 53-S ) :   1.0318 B( 50-C , 51-C ) :   1.5727
B( 50-C , 90-H ) :   0.9991 B( 51-C , 52-C ) :   1.1934 B( 51-C , 91-H ) :   0.9929
B( 52-C , 53-S ) :   1.0411 B( 52-C , 54-C ) :   1.5288 B( 54-C , 55-C ) :   1.1677
B( 54-C , 58-S ) :   1.0418 B( 55-C , 56-C ) :   1.6472 B( 55-C , 92-H ) :   0.9909
B( 56-C , 57-C ) :   1.0848 B( 56-C , 93-H ) :   0.9936 B( 57-C , 58-S ) :   1.0097
B( 57-C , 59-C ) :   1.8557 B( 59-C , 94-H ) :   0.9508 B( 59-C , 95-H ) :   0.9417

-----------------------------------------------------------------------------
         ABSORPTION SPECTRUM VIA TRANSITION ELECTRIC DIPOLE MOMENTS
-----------------------------------------------------------------------------
State   Energy  Wavelength   fosc         T2         TX        TY        TZ
        (cm-1)    (nm)                  (au**2)     (au)      (au)      (au)
-----------------------------------------------------------------------------
   0    5846.7   1710.4   0.342152055  19.26572  -1.27572   0.22823  -4.19359
   1    8867.3   1127.7   0.019840211   0.73660  -0.45120   0.48927  -0.54188
   2   12723.4    786.0   2.030771921  52.54517   3.00183  -4.24703   5.04945
   3   14293.2    699.6   0.017400088   0.40077  -0.30492   0.50657  -0.22624
   4   15326.2    652.5   0.023229167   0.49897  -0.03613   0.67807  -0.19464
   5   18714.6    534.3   0.281618942   4.95400   0.06741   0.66586  -2.12276
   6   19125.8    522.9   0.053156581   0.91498   0.36212   0.52628   0.71196
   7   20612.1    485.2   0.051490367   0.82239  -0.27834  -0.80205  -0.31880
   8   21012.1    475.9   0.362627706   5.68155  -1.40605  -0.76672  -1.76542
   9   23028.2    434.2   0.941169812  13.45497   1.99577   2.34398   1.99440
  10   24024.5    416.2   0.621035469   8.51016  -1.71848  -2.03528  -1.18939
  11   24640.0    405.8   0.366573863   4.89775   1.28421   1.39366   1.14292
  12   24801.1    403.2   0.136042554   1.80584  -0.50318  -1.20493  -0.31749
  13   25641.4    390.0   0.038847399   0.49877   0.19666   0.65366  -0.18117
  14   27021.6    370.1   0.075095552   0.91491   0.77207   0.15340   0.54341
  15   27751.5    360.3   0.084054579   0.99713   0.85724   0.09113   0.50394
  16   27948.8    357.8   0.011834621   0.13940   0.01696   0.28672  -0.23855
  17   28438.2    351.6   0.085108580   0.98525   0.77211   0.20298   0.58982
  18   28660.7    348.9   0.001127292   0.01295   0.09644   0.00445   0.06023
  19   28932.6    345.6   0.001735832   0.01975   0.01360  -0.01799   0.13872
  20   29413.2    340.0   0.010467605   0.11716   0.06563   0.08900  -0.32393
  21   30079.0    332.5   0.031125137   0.34066  -0.36257  -0.42148   0.17765
  22   31153.7    321.0   0.031316819   0.33094   0.48980   0.14912   0.26228
  23   31550.3    317.0   0.002369579   0.02473  -0.03526  -0.11598  -0.10015
  24   31711.5    315.3   0.090700541   0.94160   0.38266   0.86292   0.22482
  25   31889.1    313.6   0.002157513   0.02227  -0.06447  -0.13075  -0.03195
  26   32016.8    312.3   0.007251394   0.07456  -0.07021  -0.25113   0.08105
  27   32256.2    310.0   0.008927866   0.09112  -0.06275  -0.29329   0.03413
  28   32603.2    306.7   0.004340749   0.04383   0.16247  -0.05704  -0.11908
  29   32766.5    305.2   0.063568351   0.63869   0.25056   0.74985  -0.11674
  30   33129.9    301.8   0.015168572   0.15073  -0.22010   0.00681  -0.31975
  31   33370.9    299.7   0.000649225   0.00640  -0.02800   0.03403  -0.06681
  32   33851.6    295.4   0.015998624   0.15559   0.02985   0.16039   0.35913
  33   34292.9    291.6   0.010158692   0.09752   0.02249  -0.08107  -0.30074
  34   34458.3    290.2   0.008062227   0.07703  -0.11589  -0.20176   0.15128
  35   34616.3    288.9   0.054665887   0.51989  -0.04141   0.59970  -0.39816
  36   34639.6    288.7   0.001547187   0.01470   0.11430   0.04012  -0.00555
  37   34866.0    286.8   0.028588531   0.26994  -0.03636  -0.42178   0.30120
  38   35179.2    284.3   0.006889750   0.06448   0.06966   0.18020   0.16478
  39   35561.2    281.2   0.004378290   0.04053  -0.06901   0.18206  -0.05122
  40   36115.1    276.9   0.020931207   0.19080  -0.07121   0.28590  -0.32248
  41   36752.3    272.1   0.105488744   0.94492  -0.56921   0.39632  -0.68107
  42   36854.5    271.3   0.032170086   0.28737  -0.29046   0.31587  -0.32129
  43   37310.5    268.0   0.033724361   0.29757   0.03501   0.48099  -0.25493
  44   37653.5    265.6   0.001805543   0.01579   0.01634  -0.11772  -0.04075
  45   37926.0    263.7   0.008472756   0.07355   0.04180   0.03392   0.26580
  46   38055.7    262.8   0.041567579   0.35959  -0.21408   0.13742  -0.54303
  47   38415.2    260.3   0.003694733   0.03166   0.00217   0.16932   0.05467
  48   38569.6    259.3   0.021953762   0.18739  -0.33089  -0.24919  -0.12569
  49   38799.0    257.7   0.060911805   0.51684   0.42721   0.55770   0.15266
  50   39077.8    255.9   0.001336837   0.01126   0.10380   0.00131   0.02204
  51   39442.2    253.5   0.004958410   0.04139  -0.03367   0.01376  -0.20016
  52   39605.4    252.5   0.009674259   0.08042   0.02776   0.08804  -0.26813
  53   40068.6    249.6   0.005155086   0.04236   0.11541  -0.15172   0.07757

FINAL SINGLE POINT ENERGY     -5979.173981877667

DIPOLE MOMENT
-------------
                                X             Y             Z
Electronic contribution:     -4.86326     -12.68345     -13.16082
Nuclear contribution   :      4.60193      13.90654      13.99647
                        -----------------------------------------
Total Dipole Moment    :     -0.26134       1.22309       0.83565
                        -----------------------------------------
Magnitude (a.u.)       :      1.50417
Magnitude (Debye)      :      3.82331

Rotational constants in cm-1:     0.002037     0.000428     0.000373
Rotational constants in MHz :    61.057965    12.823211    11.178465

                             ****ORCA TERMINATED NORMALLY****
TOTAL RUN TIME: 0 days 0 hours 19 minutes 10 seconds 921 msec
