                         Program Version 4.2.0 -  RELEASE  -
|  1> # ORCA input file
|  2> # SCF done       -190.123084924546          0.000960006540
|  3> ! CAM-B3LYP def2-SVP def2/J RIJCOSX Grid4 TightSCF
|  4> %maxcore 5000
|  5> %tddft
|  6>     Mode sTDDFT
|  7>     Ethresh 5.0
|  8>     maxcore 5000
|  9> end
| 10>
| 11> %pal
| 12>   nprocs 6
| 13>   end
| 14> * xyz 0 1
| 15>    C       -2.15483         1.60596         1.78264
| 16>    C       -1.10563         1.72439         2.63172
| 17>    C       -0.18289         0.66146         2.50474
| 18>    C       -0.53218        -0.24153         1.54784
| 19>    S       -2.04302         0.19228         0.80921
| 20>    C        0.14974        -1.50148         1.23255
| 21>    C        1.27065        -1.60049         0.39397
| 22>    C        1.82461        -0.51335        -0.43659
| 23>    O        2.93011        -0.58501        -0.93184
| 24>    C        0.98407         0.69393        -0.70963
| 25>    C        1.11212         1.85443        -0.01687
| 26>    S        0.13409         3.12164        -0.65313
| 27>    C       -0.39954         2.10966        -1.91612
| 28>    C        0.11626         0.84271        -1.83822
| 29>    C       -0.14451        -0.15417        -2.89273
| 30>    O       -0.47436         0.18021        -4.01081
| 31>    C        0.00633        -1.59313        -2.52709
| 32>    C        0.99575        -2.36681        -3.12132
| 33>    C        1.06815        -3.72110        -2.84946
| 34>    C        0.13538        -4.31366        -2.01511
| 35>    C       -0.86244        -3.54872        -1.43480
| 36>    C       -0.92134        -2.18890        -1.67941
| 37>    C        1.91709        -2.83607         0.28569
| 38>    C        1.44361        -3.95566         0.92619
| 39>    C        0.29254        -3.88139         1.71259
| 40>    C       -0.32117        -2.64150         1.86863
| 41>    C       -0.26248        -5.08107         2.34360
| 42>    C       -0.30141        -6.26011         1.64981
| 43>    C       -0.85371        -7.41592         2.24579
| 44>    C       -1.01748        -8.70192         1.75997
| 45>    C       -0.64405        -9.18263         0.39573
| 46>    C        0.44850       -10.26491         0.44949
| 47>    N        1.16733       -10.28822        -0.81169
| 48>    C       -1.88750        -9.65331        -0.37891
| 49>    N       -1.57292        -9.86503        -1.78561
| 50>    C       -1.61641        -9.47340         2.82211
| 51>    C       -1.95967       -10.77347         2.91052
| 52>    C       -2.58639       -11.33506         4.13471
| 53>    C       -2.72720       -10.37989         5.26763
| 54>    C       -2.37922        -9.08255         5.17093
| 55>    C       -1.82046        -8.58001         3.97376
| 56>    C       -1.35278        -7.33221         3.61079
| 57>    C       -1.29265        -6.09953         4.29985
| 58>    C       -0.77342        -5.00984         3.67816
| 59>    C       -1.90810       -12.62674         4.51140
| 60>    C       -1.08223       -12.77187         5.54269
| 61>    C       -0.49270       -14.05272         5.92021
| 62>    C       -1.21655       -15.24984         5.79257
| 63>    C       -2.66092       -15.26218         5.45411
| 64>    O       -3.14614       -15.98527         4.60796
| 65>    C       -3.49596       -14.36328         6.28228
| 66>    C       -3.20720       -13.97139         7.55889
| 67>    S       -4.40749       -12.94452         8.21567
| 68>    C       -5.31625       -13.01607         6.75174
| 69>    C       -4.73574       -13.81830         5.82500
| 70>    C       -5.25090       -14.04594         4.43991
| 71>    O       -5.02957       -13.23520         3.56269
| 72>    C       -6.01836       -15.28253         4.22587
| 73>    C       -6.39423       -15.61641         2.92404
| 74>    C       -7.10586       -16.77344         2.68010
| 75>    C       -7.45247       -17.60601         3.73284
| 76>    C       -7.08622       -17.27913         5.02976
| 77>    C       -6.37092       -16.12473         5.28009
| 78>    C       -0.58355       -16.46379         6.04298
| 79>    C        0.72383       -16.49975         6.47448
| 80>    C        1.44671       -15.31653         6.66181
| 81>    C        0.81988       -14.10432         6.37187
| 82>    C        2.81384       -15.35719         7.13558
| 83>    C        3.71568       -14.33323         7.26618
| 84>    C        4.96514       -14.74646         7.76523
| 85>    C        5.01291       -16.08071         8.01637
| 86>    S        3.53431       -16.86185         7.64117
| 87>    H       -2.99462         2.25974         1.65830
| 88>    H       -0.98769         2.53595         3.32706
| 89>    H        0.71072         0.56800         3.09646
| 90>    H        1.71736         2.03795         0.84834
| 91>    H       -1.07753         2.47398        -2.66238
| 92>    H        1.70746        -1.90039        -3.78571
| 93>    H        1.84589        -4.31812        -3.30198
| 94>    H        0.18374        -5.37559        -1.82342
| 95>    H       -1.59378        -4.00941        -0.78713
| 96>    H       -1.70288        -1.58945        -1.23506
| 97>    H        2.79871        -2.88639        -0.33574
| 98>    H        1.96468        -4.89596         0.82902
| 99>    H       -1.20457        -2.55845         2.48588
|100>    H        0.06732        -6.30348         0.63570
|101>    H       -0.21061        -8.34273        -0.15662
|102>    H       -0.00731       -11.23403         0.71141
|103>    H        1.16310       -10.01014         1.24037
|104>    H        0.49769       -10.45066        -1.55988
|105>    H        1.84407       -11.04416        -0.81822
|106>    H       -2.68942        -8.91030        -0.22611
|107>    H       -2.24061       -10.60543         0.02452
|108>    H       -1.31423        -8.98326        -2.21813
|109>    H       -2.38608       -10.22170        -2.27677
|110>    H       -1.79726       -11.46980         2.10073
|111>    H       -3.60703       -11.64300         3.83078
|112>    H       -3.15269       -10.78025         6.17613
|113>    H       -2.51361        -8.41121         6.00740
|114>    H       -1.66012        -6.03667         5.31402
|115>    H       -0.70685        -4.06568         4.19866
|116>    H       -2.12673       -13.46559         3.86408
|117>    H       -0.79632       -11.91156         6.13389
|118>    H       -2.35678       -14.24569         8.15131
|119>    H       -6.23507       -12.47035         6.66907
|120>    H       -6.10950       -14.95484         2.11968
|121>    H       -7.39075       -17.03054         1.67078
|122>    H       -8.00809       -18.51260         3.54354
|123>    H       -7.35901       -17.93064         5.84684
|124>    H       -6.08649       -15.87446         6.29162
|125>    H       -1.14414       -17.37806         5.91649
|126>    H        1.19776       -17.44857         6.67742
|127>    H        1.36155       -13.17756         6.48131
|128>    H        3.50304       -13.31239         7.00616
|129>    H        5.79197       -14.07909         7.93031
|130>    H        5.83029       -16.65999         8.39749
|131> *
|132>
|133>                          ****END OF INPUT****

CARTESIAN COORDINATES (ANGSTROEM)
---------------------------------
  C     -2.154830    1.605960    1.782640
  C     -1.105630    1.724390    2.631720
  C     -0.182890    0.661460    2.504740
  C     -0.532180   -0.241530    1.547840
  S     -2.043020    0.192280    0.809210
  C      0.149740   -1.501480    1.232550
  C      1.270650   -1.600490    0.393970
  C      1.824610   -0.513350   -0.436590
  O      2.930110   -0.585010   -0.931840
  C      0.984070    0.693930   -0.709630
  C      1.112120    1.854430   -0.016870
  S      0.134090    3.121640   -0.653130
  C     -0.399540    2.109660   -1.916120
  C      0.116260    0.842710   -1.838220
  C     -0.144510   -0.154170   -2.892730
  O     -0.474360    0.180210   -4.010810
  C      0.006330   -1.593130   -2.527090
  C      0.995750   -2.366810   -3.121320
  C      1.068150   -3.721100   -2.849460
  C      0.135380   -4.313660   -2.015110
  C     -0.862440   -3.548720   -1.434800
  C     -0.921340   -2.188900   -1.679410
  C      1.917090   -2.836070    0.285690
  C      1.443610   -3.955660    0.926190
  C      0.292540   -3.881390    1.712590
  C     -0.321170   -2.641500    1.868630
  C     -0.262480   -5.081070    2.343600
  C     -0.301410   -6.260110    1.649810
  C     -0.853710   -7.415920    2.245790
  C     -1.017480   -8.701920    1.759970
  C     -0.644050   -9.182630    0.395730
  C      0.448500  -10.264910    0.449490
  N      1.167330  -10.288220   -0.811690
  C     -1.887500   -9.653310   -0.378910
  N     -1.572920   -9.865030   -1.785610
  C     -1.616410   -9.473400    2.822110
  C     -1.959670  -10.773470    2.910520
  C     -2.586390  -11.335060    4.134710
  C     -2.727200  -10.379890    5.267630
  C     -2.379220   -9.082550    5.170930
  C     -1.820460   -8.580010    3.973760
  C     -1.352780   -7.332210    3.610790
  C     -1.292650   -6.099530    4.299850
  C     -0.773420   -5.009840    3.678160
  C     -1.908100  -12.626740    4.511400
  C     -1.082230  -12.771870    5.542690
  C     -0.492700  -14.052720    5.920210
  C     -1.216550  -15.249840    5.792570
  C     -2.660920  -15.262180    5.454110
  O     -3.146140  -15.985270    4.607960
  C     -3.495960  -14.363280    6.282280
  C     -3.207200  -13.971390    7.558890
  S     -4.407490  -12.944520    8.215670
  C     -5.316250  -13.016070    6.751740
  C     -4.735740  -13.818300    5.825000
  C     -5.250900  -14.045940    4.439910
  O     -5.029570  -13.235200    3.562690
  C     -6.018360  -15.282530    4.225870
  C     -6.394230  -15.616410    2.924040
  C     -7.105860  -16.773440    2.680100
  C     -7.452470  -17.606010    3.732840
  C     -7.086220  -17.279130    5.029760
  C     -6.370920  -16.124730    5.280090
  C     -0.583550  -16.463790    6.042980
  C      0.723830  -16.499750    6.474480
  C      1.446710  -15.316530    6.661810
  C      0.819880  -14.104320    6.371870
  C      2.813840  -15.357190    7.135580
  C      3.715680  -14.333230    7.266180
  C      4.965140  -14.746460    7.765230
  C      5.012910  -16.080710    8.016370
  S      3.534310  -16.861850    7.641170
  H     -2.994620    2.259740    1.658300
  H     -0.987690    2.535950    3.327060
  H      0.710720    0.568000    3.096460
  H      1.717360    2.037950    0.848340
  H     -1.077530    2.473980   -2.662380
  H      1.707460   -1.900390   -3.785710
  H      1.845890   -4.318120   -3.301980
  H      0.183740   -5.375590   -1.823420
  H     -1.593780   -4.009410   -0.787130
  H     -1.702880   -1.589450   -1.235060
  H      2.798710   -2.886390   -0.335740
  H      1.964680   -4.895960    0.829020
  H     -1.204570   -2.558450    2.485880
  H      0.067320   -6.303480    0.635700
  H     -0.210610   -8.342730   -0.156620
  H     -0.007310  -11.234030    0.711410
  H      1.163100  -10.010140    1.240370
  H      0.497690  -10.450660   -1.559880
  H      1.844070  -11.044160   -0.818220
  H     -2.689420   -8.910300   -0.226110
  H     -2.240610  -10.605430    0.024520
  H     -1.314230   -8.983260   -2.218130
  H     -2.386080  -10.221700   -2.276770
  H     -1.797260  -11.469800    2.100730
  H     -3.607030  -11.643000    3.830780
  H     -3.152690  -10.780250    6.176130
  H     -2.513610   -8.411210    6.007400
  H     -1.660120   -6.036670    5.314020
  H     -0.706850   -4.065680    4.198660
  H     -2.126730  -13.465590    3.864080
  H     -0.796320  -11.911560    6.133890
  H     -2.356780  -14.245690    8.151310
  H     -6.235070  -12.470350    6.669070
  H     -6.109500  -14.954840    2.119680
  H     -7.390750  -17.030540    1.670780
  H     -8.008090  -18.512600    3.543540
  H     -7.359010  -17.930640    5.846840
  H     -6.086490  -15.874460    6.291620
  H     -1.144140  -17.378060    5.916490
  H      1.197760  -17.448570    6.677420
  H      1.361550  -13.177560    6.481310
  H      3.503040  -13.312390    7.006160
  H      5.791970  -14.079090    7.930310
  H      5.830290  -16.659990    8.397490

 Total Charge           Charge          ....    0
 Multiplicity           Mult            ....    1
 Number of Electrons    NEL             ....  526
 Basis Dimension        Dim             .... 1244

ORBITAL ENERGIES
----------------

  NO   OCC          E(Eh)            E(eV)
   0   2.0000     -88.973422     -2421.0899
   1   2.0000     -88.954628     -2420.5785
   2   2.0000     -88.954275     -2420.5689
   3   2.0000     -88.948057     -2420.3997
   4   2.0000     -19.217425      -522.9327
   5   2.0000     -19.211052      -522.7593
   6   2.0000     -19.197267      -522.3842
   7   2.0000     -19.190493      -522.1999
   8   2.0000     -14.382682      -391.3727
   9   2.0000     -14.348331      -390.4379
  10   2.0000     -10.368908      -282.1523
  11   2.0000     -10.365654      -282.0638
  12   2.0000     -10.353084      -281.7217
  13   2.0000     -10.345181      -281.5067
  14   2.0000     -10.310137      -280.5531
  15   2.0000     -10.308696      -280.5139
  16   2.0000     -10.299483      -280.2632
  17   2.0000     -10.295213      -280.1470
  18   2.0000     -10.292537      -280.0742
  19   2.0000     -10.292420      -280.0710
  20   2.0000     -10.290974      -280.0316
  21   2.0000     -10.290692      -280.0240
  22   2.0000     -10.290649      -280.0228
  23   2.0000     -10.289684      -279.9965
  24   2.0000     -10.289569      -279.9934
  25   2.0000     -10.287179      -279.9284
  26   2.0000     -10.285532      -279.8835
  27   2.0000     -10.283205      -279.8202
  28   2.0000     -10.281747      -279.7806
  29   2.0000     -10.280059      -279.7346
  30   2.0000     -10.278241      -279.6851
  31   2.0000     -10.277918      -279.6764
  32   2.0000     -10.277871      -279.6751
  33   2.0000     -10.277351      -279.6609
  34   2.0000     -10.276893      -279.6485
  35   2.0000     -10.276744      -279.6444
  36   2.0000     -10.276308      -279.6326
  37   2.0000     -10.275284      -279.6047
  38   2.0000     -10.274102      -279.5725
  39   2.0000     -10.273117      -279.5457
  40   2.0000     -10.273067      -279.5444
  41   2.0000     -10.272184      -279.5203
  42   2.0000     -10.271753      -279.5086
  43   2.0000     -10.271725      -279.5079
  44   2.0000     -10.271687      -279.5068
  45   2.0000     -10.270870      -279.4846
  46   2.0000     -10.269886      -279.4578
  47   2.0000     -10.268868      -279.4301
  48   2.0000     -10.266720      -279.3716
  49   2.0000     -10.264808      -279.3196
  50   2.0000     -10.264581      -279.3135
  51   2.0000     -10.264343      -279.3070
  52   2.0000     -10.264192      -279.3029
  53   2.0000     -10.263647      -279.2880
  54   2.0000     -10.263339      -279.2797
  55   2.0000     -10.261926      -279.2412
  56   2.0000     -10.261877      -279.2399
  57   2.0000     -10.261825      -279.2385
  58   2.0000     -10.261472      -279.2289
  59   2.0000     -10.261469      -279.2288
  60   2.0000     -10.261168      -279.2206
  61   2.0000     -10.260116      -279.1919
  62   2.0000     -10.260107      -279.1917
  63   2.0000     -10.259673      -279.1799
  64   2.0000     -10.259409      -279.1727
  65   2.0000     -10.257633      -279.1244
  66   2.0000     -10.256455      -279.0923
  67   2.0000     -10.254224      -279.0316
  68   2.0000     -10.251754      -278.9644
  69   2.0000     -10.250847      -278.9397
  70   2.0000     -10.249110      -278.8925
  71   2.0000     -10.246702      -278.8269
  72   2.0000      -8.069133      -219.5723
  73   2.0000      -8.050577      -219.0673
  74   2.0000      -8.050096      -219.0542
  75   2.0000      -8.043073      -218.8631
  76   2.0000      -6.038339      -164.3115
  77   2.0000      -6.033929      -164.1916
  78   2.0000      -6.031673      -164.1302
  79   2.0000      -6.019707      -163.8046
  80   2.0000      -6.019305      -163.7936
  81   2.0000      -6.015307      -163.6848
  82   2.0000      -6.015038      -163.6775
  83   2.0000      -6.013243      -163.6287
  84   2.0000      -6.012549      -163.6098
  85   2.0000      -6.012382      -163.6052
  86   2.0000      -6.007970      -163.4852
  87   2.0000      -6.005611      -163.4210
  88   2.0000      -1.133605       -30.8470
  89   2.0000      -1.126692       -30.6588
  90   2.0000      -1.114707       -30.3327
  91   2.0000      -1.106995       -30.1229
  92   2.0000      -0.996710       -27.1218
  93   2.0000      -0.985428       -26.8149
  94   2.0000      -0.980558       -26.6823
  95   2.0000      -0.973614       -26.4934
  96   2.0000      -0.971497       -26.4358
  97   2.0000      -0.963723       -26.2242
  98   2.0000      -0.962054       -26.1788
  99   2.0000      -0.951935       -25.9035
 100   2.0000      -0.951596       -25.8943
 101   2.0000      -0.940177       -25.5835
 102   2.0000      -0.931358       -25.3435
 103   2.0000      -0.929041       -25.2805
 104   2.0000      -0.906205       -24.6591
 105   2.0000      -0.890559       -24.2333
 106   2.0000      -0.870216       -23.6798
 107   2.0000      -0.869364       -23.6566
 108   2.0000      -0.868312       -23.6280
 109   2.0000      -0.857132       -23.3237
 110   2.0000      -0.850922       -23.1548
 111   2.0000      -0.848026       -23.0760
 112   2.0000      -0.845219       -22.9996
 113   2.0000      -0.836787       -22.7701
 114   2.0000      -0.831927       -22.6379
 115   2.0000      -0.831419       -22.6241
 116   2.0000      -0.828150       -22.5351
 117   2.0000      -0.825204       -22.4549
 118   2.0000      -0.824215       -22.4280
 119   2.0000      -0.820899       -22.3378
 120   2.0000      -0.818645       -22.2765
 121   2.0000      -0.815621       -22.1942
 122   2.0000      -0.812467       -22.1084
 123   2.0000      -0.800677       -21.7875
 124   2.0000      -0.788672       -21.4609
 125   2.0000      -0.780773       -21.2459
 126   2.0000      -0.745452       -20.2848
 127   2.0000      -0.742757       -20.2114
 128   2.0000      -0.736495       -20.0411
 129   2.0000      -0.730471       -19.8771
 130   2.0000      -0.717563       -19.5259
 131   2.0000      -0.712972       -19.4009
 132   2.0000      -0.708080       -19.2678
 133   2.0000      -0.699200       -19.0262
 134   2.0000      -0.694190       -18.8899
 135   2.0000      -0.692176       -18.8351
 136   2.0000      -0.686772       -18.6880
 137   2.0000      -0.680972       -18.5302
 138   2.0000      -0.679445       -18.4886
 139   2.0000      -0.671631       -18.2760
 140   2.0000      -0.668826       -18.1997
 141   2.0000      -0.659727       -17.9521
 142   2.0000      -0.655363       -17.8333
 143   2.0000      -0.654132       -17.7998
 144   2.0000      -0.650849       -17.7105
 145   2.0000      -0.645768       -17.5723
 146   2.0000      -0.641234       -17.4489
 147   2.0000      -0.637916       -17.3586
 148   2.0000      -0.633203       -17.2303
 149   2.0000      -0.630189       -17.1483
 150   2.0000      -0.624431       -16.9916
 151   2.0000      -0.622271       -16.9329
 152   2.0000      -0.617427       -16.8011
 153   2.0000      -0.609305       -16.5800
 154   2.0000      -0.606335       -16.4992
 155   2.0000      -0.601074       -16.3560
 156   2.0000      -0.597920       -16.2702
 157   2.0000      -0.586541       -15.9606
 158   2.0000      -0.581027       -15.8105
 159   2.0000      -0.576621       -15.6907
 160   2.0000      -0.570199       -15.5159
 161   2.0000      -0.566579       -15.4174
 162   2.0000      -0.560190       -15.2435
 163   2.0000      -0.556962       -15.1557
 164   2.0000      -0.554243       -15.0817
 165   2.0000      -0.552970       -15.0471
 166   2.0000      -0.550704       -14.9854
 167   2.0000      -0.548291       -14.9198
 168   2.0000      -0.540381       -14.7045
 169   2.0000      -0.536547       -14.6002
 170   2.0000      -0.534483       -14.5440
 171   2.0000      -0.533232       -14.5100
 172   2.0000      -0.530967       -14.4483
 173   2.0000      -0.528728       -14.3874
 174   2.0000      -0.524189       -14.2639
 175   2.0000      -0.524040       -14.2598
 176   2.0000      -0.519377       -14.1330
 177   2.0000      -0.517323       -14.0771
 178   2.0000      -0.513102       -13.9622
 179   2.0000      -0.511395       -13.9158
 180   2.0000      -0.510484       -13.8910
 181   2.0000      -0.507968       -13.8225
 182   2.0000      -0.505796       -13.7634
 183   2.0000      -0.504901       -13.7391
 184   2.0000      -0.503476       -13.7003
 185   2.0000      -0.502210       -13.6658
 186   2.0000      -0.501211       -13.6387
 187   2.0000      -0.498998       -13.5784
 188   2.0000      -0.494884       -13.4665
 189   2.0000      -0.493796       -13.4369
 190   2.0000      -0.491984       -13.3876
 191   2.0000      -0.491249       -13.3676
 192   2.0000      -0.487642       -13.2694
 193   2.0000      -0.486125       -13.2281
 194   2.0000      -0.485137       -13.2012
 195   2.0000      -0.484443       -13.1824
 196   2.0000      -0.483039       -13.1442
 197   2.0000      -0.480456       -13.0739
 198   2.0000      -0.476997       -12.9797
 199   2.0000      -0.475943       -12.9511
 200   2.0000      -0.474825       -12.9206
 201   2.0000      -0.474120       -12.9014
 202   2.0000      -0.471355       -12.8262
 203   2.0000      -0.467592       -12.7238
 204   2.0000      -0.466706       -12.6997
 205   2.0000      -0.463390       -12.6095
 206   2.0000      -0.459593       -12.5061
 207   2.0000      -0.459280       -12.4976
 208   2.0000      -0.457708       -12.4549
 209   2.0000      -0.456869       -12.4320
 210   2.0000      -0.452719       -12.3191
 211   2.0000      -0.449532       -12.2324
 212   2.0000      -0.446692       -12.1551
 213   2.0000      -0.445429       -12.1207
 214   2.0000      -0.442161       -12.0318
 215   2.0000      -0.437870       -11.9151
 216   2.0000      -0.436541       -11.8789
 217   2.0000      -0.435650       -11.8546
 218   2.0000      -0.434582       -11.8256
 219   2.0000      -0.432494       -11.7688
 220   2.0000      -0.429536       -11.6883
 221   2.0000      -0.427176       -11.6241
 222   2.0000      -0.423046       -11.5117
 223   2.0000      -0.419772       -11.4226
 224   2.0000      -0.418144       -11.3783
 225   2.0000      -0.417947       -11.3729
 226   2.0000      -0.415036       -11.2937
 227   2.0000      -0.413676       -11.2567
 228   2.0000      -0.411038       -11.1849
 229   2.0000      -0.406213       -11.0536
 230   2.0000      -0.404097       -10.9960
 231   2.0000      -0.401977       -10.9383
 232   2.0000      -0.396093       -10.7782
 233   2.0000      -0.391333       -10.6487
 234   2.0000      -0.384178       -10.4540
 235   2.0000      -0.380675       -10.3587
 236   2.0000      -0.372552       -10.1376
 237   2.0000      -0.357984        -9.7412
 238   2.0000      -0.354429        -9.6445
 239   2.0000      -0.344217        -9.3666
 240   2.0000      -0.339461        -9.2372
 241   2.0000      -0.337507        -9.1840
 242   2.0000      -0.332184        -9.0392
 243   2.0000      -0.328534        -8.9399
 244   2.0000      -0.326494        -8.8844
 245   2.0000      -0.324849        -8.8396
 246   2.0000      -0.323528        -8.8036
 247   2.0000      -0.321978        -8.7615
 248   2.0000      -0.320520        -8.7218
 249   2.0000      -0.317271        -8.6334
 250   2.0000      -0.315468        -8.5843
 251   2.0000      -0.314895        -8.5687
 252   2.0000      -0.312422        -8.5014
 253   2.0000      -0.307054        -8.3554
 254   2.0000      -0.304592        -8.2884
 255   2.0000      -0.298652        -8.1267
 256   2.0000      -0.296092        -8.0571
 257   2.0000      -0.292122        -7.9490
 258   2.0000      -0.279721        -7.6116
 259   2.0000      -0.277355        -7.5472
 260   2.0000      -0.277202        -7.5431
 261   2.0000      -0.275510        -7.4970
 262   2.0000      -0.212256        -5.7758
 263   0.0000      -0.055704        -1.5158
 264   0.0000      -0.034914        -0.9500
 265   0.0000      -0.025227        -0.6865
 266   0.0000      -0.018251        -0.4966
 267   0.0000      -0.015999        -0.4354

MULLIKEN ATOMIC CHARGES
-----------------------
   0 C :   -0.060394
   1 C :    0.021014
   2 C :    0.072697
   3 C :   -0.202832
   4 S :    0.114470
   5 C :    0.062611
   6 C :    0.047990
   7 C :    0.082605
   8 O :   -0.162457
   9 C :    0.012700
  10 C :   -0.091721
  11 S :    0.136076
  12 C :   -0.117427
  13 C :    0.059396
  14 C :    0.103401
  15 O :   -0.172665
  16 C :   -0.073743
  17 C :    0.038793
  18 C :    0.010793
  19 C :    0.034265
  20 C :    0.018426
  21 C :    0.051809
  22 C :    0.008899
  23 C :    0.004869
  24 C :    0.089415
  25 C :   -0.052992
  26 C :    0.088758
  27 C :   -0.085311
  28 C :    0.051672
  29 C :   -0.031979
  30 C :   -0.056197
  31 C :    0.160102
  32 N :   -0.225911
  33 C :    0.137966
  34 N :   -0.218488
  35 C :    0.084690
  36 C :   -0.110857
  37 C :    0.170814
  38 C :   -0.055857
  39 C :    0.010190
  40 C :    0.011614
  41 C :    0.033300
  42 C :   -0.003145
  43 C :   -0.017173
  44 C :   -0.095726
  45 C :   -0.002639
  46 C :    0.130927
  47 C :   -0.045365
  48 C :    0.072142
  49 O :   -0.177083
  50 C :    0.063870
  51 C :   -0.110819
  52 S :    0.131666
  53 C :   -0.118602
  54 C :   -0.045894
  55 C :    0.150992
  56 O :   -0.181314
  57 C :    0.036237
  58 C :    0.001566
  59 C :    0.027936
  60 C :    0.037708
  61 C :    0.024003
  62 C :    0.027588
  63 C :    0.018079
  64 C :   -0.053498
  65 C :    0.205995
  66 C :   -0.114692
  67 C :   -0.112084
  68 C :   -0.003853
  69 C :    0.049774
  70 C :   -0.063069
  71 S :    0.100130
  72 H :    0.025393
  73 H :   -0.011770
  74 H :   -0.019518
  75 H :    0.018121
  76 H :    0.032790
  77 H :   -0.012358
  78 H :   -0.014190
  79 H :   -0.012490
  80 H :   -0.012455
  81 H :   -0.022910
  82 H :   -0.004025
  83 H :   -0.018229
  84 H :   -0.028337
  85 H :   -0.055673
  86 H :   -0.034865
  87 H :   -0.032372
  88 H :   -0.005379
  89 H :    0.078536
  90 H :    0.079225
  91 H :   -0.001073
  92 H :   -0.015487
  93 H :    0.101149
  94 H :    0.096627
  95 H :   -0.004959
  96 H :    0.067636
  97 H :   -0.023668
  98 H :   -0.044306
  99 H :   -0.041996
 100 H :   -0.029045
 101 H :    0.029521
 102 H :    0.005488
 103 H :    0.042066
 104 H :    0.028866
 105 H :   -0.005011
 106 H :   -0.011704
 107 H :   -0.009155
 108 H :   -0.015121
 109 H :   -0.004727
 110 H :   -0.011884
 111 H :   -0.008573
 112 H :   -0.036788
 113 H :   -0.012038
 114 H :   -0.008297
 115 H :    0.028829
Sum of atomic charges:   -0.0000000

LOEWDIN ATOMIC CHARGES
----------------------
   0 C :   -0.187891
   1 C :   -0.070520
   2 C :   -0.064683
   3 C :   -0.167400
   4 S :    0.446422
   5 C :   -0.023215
   6 C :   -0.067705
   7 C :    0.091405
   8 O :   -0.133237
   9 C :   -0.079635
  10 C :   -0.163967
  11 S :    0.469113
  12 C :   -0.149902
  13 C :   -0.108180
  14 C :    0.090021
  15 O :   -0.139729
  16 C :   -0.062012
  17 C :    0.000100
  18 C :   -0.022840
  19 C :   -0.016882
  20 C :   -0.016186
  21 C :   -0.012649
  22 C :    0.028904
  23 C :   -0.013241
  24 C :    0.002559
  25 C :   -0.016169
  26 C :   -0.024404
  27 C :   -0.016326
  28 C :   -0.021890
  29 C :   -0.038544
  30 C :   -0.039531
  31 C :    0.030387
  32 N :   -0.132909
  33 C :    0.025658
  34 N :   -0.103688
  35 C :   -0.022956
  36 C :    0.077378
  37 C :   -0.038784
  38 C :   -0.030661
  39 C :   -0.023388
  40 C :   -0.032066
  41 C :   -0.037643
  42 C :   -0.007251
  43 C :   -0.035625
  44 C :    0.008898
  45 C :   -0.028426
  46 C :   -0.005158
  47 C :   -0.062714
  48 C :    0.084569
  49 O :   -0.140278
  50 C :   -0.093266
  51 C :   -0.161970
  52 S :    0.461271
  53 C :   -0.173869
  54 C :   -0.074768
  55 C :    0.106754
  56 O :   -0.136598
  57 C :   -0.065287
  58 C :    0.020582
  59 C :   -0.023241
  60 C :   -0.002227
  61 C :   -0.025723
  62 C :    0.005580
  63 C :    0.008414
  64 C :   -0.031187
  65 C :   -0.019034
  66 C :   -0.013216
  67 C :   -0.171484
  68 C :   -0.055790
  69 C :   -0.063524
  70 C :   -0.181143
  71 S :    0.436379
  72 H :    0.021731
  73 H :    0.028154
  74 H :    0.026798
  75 H :    0.022533
  76 H :    0.029999
  77 H :    0.033531
  78 H :    0.029025
  79 H :    0.024996
  80 H :    0.028709
  81 H :    0.016053
  82 H :    0.033979
  83 H :    0.029967
  84 H :    0.028842
  85 H :    0.022012
  86 H :    0.022200
  87 H :   -0.006180
  88 H :    0.016206
  89 H :    0.033613
  90 H :    0.048377
  91 H :    0.004695
  92 H :    0.013284
  93 H :    0.056025
  94 H :    0.057183
  95 H :    0.026508
  96 H :    0.071834
  97 H :    0.018127
  98 H :    0.026845
  99 H :    0.025223
 100 H :    0.024699
 101 H :    0.029888
 102 H :    0.030901
 103 H :    0.030443
 104 H :    0.028306
 105 H :    0.033059
 106 H :    0.029597
 107 H :    0.029820
 108 H :    0.028986
 109 H :    0.031358
 110 H :    0.035562
 111 H :    0.021761
 112 H :    0.027943
 113 H :    0.028516
 114 H :    0.030937
 115 H :    0.024168

  Mayer bond orders larger than 0.100000
B(  0-C ,  1-C ) :   1.5903 B(  0-C ,  4-S ) :   1.1555 B(  0-C , 72-H ) :   0.9739
B(  1-C ,  2-C ) :   1.2254 B(  1-C , 73-H ) :   0.9958 B(  2-C ,  3-C ) :   1.6237
B(  2-C , 74-H ) :   0.9987 B(  3-C ,  4-S ) :   1.1689 B(  3-C ,  5-C ) :   0.9491
B(  5-C ,  6-C ) :   1.3537 B(  5-C , 25-C ) :   1.4077 B(  6-C ,  7-C ) :   0.9462
B(  6-C , 22-C ) :   1.3710 B(  7-C ,  8-O ) :   2.2232 B(  7-C ,  9-C ) :   0.8964
B(  9-C , 10-C ) :   1.6131 B(  9-C , 13-C ) :   1.2839 B( 10-C , 11-S ) :   1.1648
B( 10-C , 75-H ) :   0.9543 B( 11-S , 12-C ) :   1.2210 B( 12-C , 13-C ) :   1.5067
B( 12-C , 76-H ) :   0.9664 B( 13-C , 14-C ) :   0.9416 B( 14-C , 15-O ) :   2.2455
B( 14-C , 16-C ) :   0.9127 B( 16-C , 17-C ) :   1.3930 B( 16-C , 21-C ) :   1.4065
B( 17-C , 18-C ) :   1.3754 B( 17-C , 77-H ) :   1.0001 B( 18-C , 19-C ) :   1.3855
B( 18-C , 78-H ) :   0.9944 B( 19-C , 20-C ) :   1.3856 B( 19-C , 79-H ) :   0.9871
B( 20-C , 21-C ) :   1.4019 B( 20-C , 80-H ) :   0.9854 B( 21-C , 81-H ) :   0.9809
B( 22-C , 23-C ) :   1.3580 B( 22-C , 82-H ) :   0.9867 B( 23-C , 24-C ) :   1.3700
B( 23-C , 83-H ) :   0.9989 B( 24-C , 25-C ) :   1.3397 B( 24-C , 26-C ) :   0.9533
B( 25-C , 84-H ) :   0.9989 B( 26-C , 27-C ) :   1.5690 B( 26-C , 43-C ) :   1.1495
B( 27-C , 28-C ) :   1.1284 B( 27-C , 85-H ) :   0.9923 B( 28-C , 29-C ) :   1.5037
B( 28-C , 41-C ) :   1.1203 B( 29-C , 30-C ) :   1.0306 B( 29-C , 35-C ) :   1.0911
B( 30-C , 31-C ) :   1.0322 B( 30-C , 33-C ) :   1.0440 B( 30-C , 86-H ) :   0.8775
B( 31-C , 32-N ) :   1.1056 B( 31-C , 87-H ) :   0.9245 B( 31-C , 88-H ) :   0.9446
B( 32-N , 89-H ) :   0.9420 B( 32-N , 90-H ) :   0.9672 B( 33-C , 34-N ) :   1.0766
B( 33-C , 91-H ) :   0.9482 B( 33-C , 92-H ) :   0.9312 B( 34-N , 89-H ) :   0.1040
B( 34-N , 93-H ) :   0.9635 B( 34-N , 94-H ) :   0.9674 B( 35-C , 36-C ) :   1.6514
B( 35-C , 40-C ) :   1.0565 B( 36-C , 37-C ) :   0.9755 B( 36-C , 95-H ) :   0.9630
B( 37-C , 38-C ) :   1.0091 B( 37-C , 44-C ) :   0.9535 B( 37-C , 96-H ) :   0.7988
B( 38-C , 39-C ) :   1.6934 B( 38-C , 97-H ) :   0.9680 B( 39-C , 40-C ) :   1.1325
B( 39-C , 98-H ) :   0.9917 B( 40-C , 41-C ) :   1.4244 B( 41-C , 42-C ) :   1.1481
B( 42-C , 43-C ) :   1.5910 B( 42-C , 99-H ) :   0.9913 B( 43-C ,100-H ) :   0.9850
B( 44-C , 45-C ) :   1.8726 B( 44-C ,101-H ) :   0.9567 B( 45-C , 46-C ) :   1.0242
B( 45-C ,102-H ) :   0.9478 B( 46-C , 47-C ) :   1.3698 B( 46-C , 66-C ) :   1.3542
B( 47-C , 48-C ) :   0.9298 B( 47-C , 63-C ) :   1.3810 B( 48-C , 49-O ) :   2.1758
B( 48-C , 50-C ) :   0.9164 B( 50-C , 51-C ) :   1.5447 B( 50-C , 54-C ) :   1.2935
B( 51-C , 52-S ) :   1.1970 B( 51-C ,103-H ) :   0.9517 B( 52-S , 53-C ) :   1.1558
B( 53-C , 54-C ) :   1.5964 B( 53-C ,104-H ) :   0.9746 B( 54-C , 55-C ) :   0.8848
B( 55-C , 56-O ) :   2.1283 B( 55-C , 57-C ) :   0.9766 B( 57-C , 58-C ) :   1.3735
B( 57-C , 62-C ) :   1.3747 B( 58-C , 59-C ) :   1.3814 B( 58-C ,105-H ) :   0.9972
B( 59-C , 60-C ) :   1.3770 B( 59-C ,106-H ) :   0.9923 B( 60-C , 61-C ) :   1.3856
B( 60-C ,107-H ) :   0.9906 B( 61-C , 62-C ) :   1.3947 B( 61-C ,108-H ) :   0.9877
B( 62-C ,109-H ) :   0.9743 B( 63-C , 64-C ) :   1.3919 B( 63-C ,110-H ) :   0.9963
B( 64-C , 65-C ) :   1.3230 B( 64-C ,111-H ) :   0.9890 B( 65-C , 66-C ) :   1.3373
B( 65-C , 67-C ) :   1.0596 B( 66-C ,112-H ) :   1.0049 B( 67-C , 68-C ) :   1.5551
B( 67-C , 71-S ) :   1.1385 B( 68-C , 69-C ) :   1.2548 B( 68-C ,113-H ) :   0.9907
B( 69-C , 70-C ) :   1.5733 B( 69-C ,114-H ) :   0.9936 B( 70-C , 71-S ) :   1.1663
B( 70-C ,115-H ) :   0.9741

-----------------------------------------------------------------------------
         ABSORPTION SPECTRUM VIA TRANSITION ELECTRIC DIPOLE MOMENTS
-----------------------------------------------------------------------------
State   Energy  Wavelength   fosc         T2         TX        TY        TZ
        (cm-1)    (nm)                  (au**2)     (au)      (au)      (au)
-----------------------------------------------------------------------------
   0   15386.8    649.9   0.060943782   1.30393  -0.40377  -0.00809   1.06810
   1   25422.2    393.4   0.006603343   0.08551   0.07648   0.21660  -0.18096
   2   26970.1    370.8   0.174576101   2.13097  -0.42866  -1.18139   0.74265
   3   27436.3    364.5   0.006052471   0.07262   0.19010  -0.09762   0.16419
   4   28057.4    356.4   0.005184503   0.06083   0.16659  -0.07870   0.16397
   5   29301.2    341.3   0.118901054   1.33590   0.07059   1.15354  -0.01625
   6   30752.1    325.2   0.562800808   6.02498   0.60541   2.33385  -0.46002
   7   32937.6    303.6   0.010528691   0.10523  -0.17268   0.22337   0.15975
   8   33869.9    295.2   0.067318752   0.65433   0.01099   0.67505  -0.44555
   9   34077.0    293.5   0.133147759   1.28632   0.47330   0.91684  -0.47086
  10   34259.6    291.9   0.019098294   0.18352   0.10085   0.38464  -0.15939
  11   34849.6    286.9   0.271385850   2.56369  -1.56027   0.12132  -0.33840
  12   35111.0    284.8   0.010503274   0.09848   0.15942   0.16854  -0.21133
  13   35507.4    281.6   0.004466729   0.04141   0.15716  -0.08889  -0.09388
  14   35723.1    279.9   0.012651097   0.11659   0.20322  -0.27099  -0.04307
  15   36315.2    275.4   0.184183884   1.66970   1.10708  -0.40274   0.53092
  16   36524.4    273.8   0.064959532   0.58551   0.18449   0.09270  -0.73680
  17   36830.9    271.5   0.212810227   1.90220   1.19565  -0.31581   0.61063
  18   37091.7    269.6   0.018252568   0.16200   0.39796  -0.05786   0.01681
  19   38235.6    261.5   0.035562893   0.30620  -0.18610  -0.42372   0.30337
  20   38513.3    259.7   0.006451705   0.05515   0.09909   0.16556  -0.13387
  21   38658.3    258.7   0.093386315   0.79527   0.42880   0.66553  -0.41046
  22   38779.8    257.9   0.098628630   0.83728   0.69779  -0.06184   0.58869
  23   38949.0    256.7   0.021137158   0.17866  -0.05449  -0.39033  -0.15275
  24   39132.4    255.5   0.959395638   8.07118  -0.98004  -2.53191   0.83676
  25   39864.9    250.8   0.136999973   1.13137  -0.44440  -0.73206   0.63085
  26   39987.7    250.1   0.044645043   0.36756  -0.59736  -0.07408  -0.07227

FINAL SINGLE POINT ENERGY     -4388.113774648854

DIPOLE MOMENT
-------------
                                X             Y             Z
Electronic contribution:      0.48440      30.14379      14.48594
Nuclear contribution   :     -1.81352     -32.52371     -11.25830
                        -----------------------------------------
Total Dipole Moment    :     -1.32912      -2.37992       3.22764
                        -----------------------------------------
Magnitude (a.u.)       :      4.22472
Magnitude (Debye)      :     10.73839

Rotational constants in cm-1:     0.001554     0.000305     0.000287
Rotational constants in MHz :    46.574992     9.136238     8.601113

                             ****ORCA TERMINATED NORMALLY****
TOTAL RUN TIME: 0 days 0 hours 12 minutes 37 seconds 734 msec
