                         Program Version 4.2.0 -  RELEASE  -
|  1> # ORCA input file
|  2> # SCF done       -215.602434555812          0.000286682062
|  3> ! CAM-B3LYP def2-SVP def2/J RIJCOSX Grid4 TightSCF
|  4> %maxcore 5000
|  5> %tddft
|  6>     Mode sTDDFT
|  7>     Ethresh 5.0
|  8>     maxcore 5000
|  9> end
| 10>
| 11> %pal
| 12>   nprocs 6
| 13>   end
| 14> * xyz 0 1
| 15>    C       -2.23931        -2.32381       -10.21565
| 16>    C       -2.72391        -1.28425       -10.99566
| 17>    C       -3.53588        -0.29978       -10.45175
| 18>    C       -3.88066        -0.32206        -9.10829
| 19>    C       -3.40244        -1.35482        -8.31993
| 20>    C       -2.58280        -2.36355        -8.87333
| 21>    C       -2.24993        -3.32342        -7.82870
| 22>    C       -1.36978        -4.36404        -7.95466
| 23>    C       -0.65034        -4.65237        -9.13498
| 24>    N       -0.03046        -4.94656       -10.05506
| 25>    C       -1.00758        -5.27479        -6.93911
| 26>    N       -0.65385        -6.05357        -6.17257
| 27>    C       -3.02679        -2.94815        -6.64808
| 28>    C       -3.57057        -1.62659        -6.90029
| 29>    C       -3.94738        -0.70598        -5.95714
| 30>    C       -3.82260        -0.90560        -4.56972
| 31>    N       -3.72536        -1.03155        -3.43255
| 32>    C       -4.42351         0.58626        -6.25961
| 33>    N       -4.83598         1.64211        -6.44009
| 34>    C       -3.22780        -3.78771        -5.58472
| 35>    C       -4.20918        -3.76540        -4.57282
| 36>    S       -3.93059        -4.70300        -3.13307
| 37>    C       -5.45296        -4.27460        -2.45047
| 38>    C       -6.15982        -3.44614        -3.31576
| 39>    C       -5.46976        -3.16576        -4.51828
| 40>    O       -5.93166        -2.46466        -5.56532
| 41>    C       -7.47247        -2.82177        -2.97808
| 42>    F       -7.59576        -2.47193        -1.69620
| 43>    F       -7.70398        -1.69612        -3.68939
| 44>    F       -8.53158        -3.61993        -3.25826
| 45>    C       -5.80859        -4.77370        -1.14343
| 46>    C       -7.10521        -5.08622        -0.81041
| 47>    C       -7.40847        -5.52021         0.49476
| 48>    C       -8.62744        -5.81956         1.08749
| 49>    C       -9.95390        -5.82393         0.41143
| 50>    C      -10.43235        -7.25928         0.09011
| 51>    N      -10.40233        -8.11673         1.26665
| 52>    C      -11.05244        -5.07348         1.18397
| 53>    N      -12.10607        -4.69970         0.25510
| 54>    C       -8.34275        -6.13987         2.46764
| 55>    C       -9.15547        -6.45078         3.49447
| 56>    C       -8.62703        -6.69603         4.86123
| 57>    C       -7.12917        -6.69028         4.96671
| 58>    C       -6.33335        -6.36863         3.93172
| 59>    C       -6.88885        -6.05761         2.66666
| 60>    C       -6.33249        -5.66780         1.46617
| 61>    C       -5.00060        -5.40436         1.06922
| 62>    C       -4.75242        -4.97373        -0.19158
| 63>    C       -9.18888        -7.93475         5.50620
| 64>    C       -9.87893        -8.87750         4.85960
| 65>    C      -10.43781       -10.04784         5.48770
| 66>    S      -11.90698       -10.73085         4.88345
| 67>    C      -12.00831       -11.86144         6.19203
| 68>    C      -10.88594       -11.77046         6.99660
| 69>    C      -10.00018       -10.73843         6.60341
| 70>    O       -8.85438       -10.52365         7.27362
| 71>    C      -10.50634       -12.69511         8.10757
| 72>    F      -11.24095       -13.82392         8.13438
| 73>    F       -9.23402       -13.09600         8.01218
| 74>    F      -10.64137       -12.14106         9.32682
| 75>    C      -13.15871       -12.70810         6.26036
| 76>    C      -13.85445       -13.07221         7.36547
| 77>    C      -14.80415       -14.18805         7.41303
| 78>    C      -15.46677       -14.74958         6.35918
| 79>    C      -15.38201       -14.30913         5.02015
| 80>    N      -15.36439       -13.99286         3.91697
| 81>    C      -16.37670       -15.82332         6.48210
| 82>    N      -17.12804       -16.68949         6.51369
| 83>    C      -14.91635       -14.57434         8.81056
| 84>    C      -14.23794       -13.62263         9.60673
| 85>    C      -14.16643       -13.77177        10.98199
| 86>    C      -14.78273       -14.87157        11.55900
| 87>    C      -15.46089       -15.80071        10.78120
| 88>    C      -15.53449       -15.66499         9.40328
| 89>    C      -13.71487       -12.58168         8.73942
| 90>    C      -13.38714       -11.31419         9.12475
| 91>    C      -13.39085       -10.87932        10.46992
| 92>    N      -13.39083       -10.46503        11.53895
| 93>    C      -13.10289       -10.25030         8.24382
| 94>    N      -12.91018        -9.33108         7.58388
| 95>    H       -1.61465        -3.08209       -10.65788
| 96>    H       -2.46616        -1.24616       -12.04301
| 97>    H       -3.90710         0.49515       -11.08039
| 98>    H       -4.51788         0.44455        -8.69858
| 99>    H       -2.56946        -4.64437        -5.51535
|100>    H       -6.81444        -2.10453        -5.40747
|101>    H       -7.89611        -5.02922        -1.54023
|102>    H       -9.84288        -5.31594        -0.55211
|103>    H       -9.81777        -7.65318        -0.73409
|104>    H      -11.46502        -7.17846        -0.25382
|105>    H       -9.44841        -8.41363         1.44813
|106>    H      -10.96141        -8.94650         1.10230
|107>    H      -10.60327        -4.21339         1.70866
|108>    H      -11.49934        -5.74022         1.92248
|109>    H      -11.76681        -4.00930        -0.40705
|110>    H      -12.89056        -4.29267         0.75145
|111>    H      -10.22442        -6.51349         3.37255
|112>    H       -8.98837        -5.85127         5.47659
|113>    H       -6.71814        -6.93219         5.93519
|114>    H       -5.25984        -6.34919         4.05068
|115>    H       -4.19555        -5.53593         1.77629
|116>    H       -3.74497        -4.74651        -0.50592
|117>    H       -9.01071        -8.00233         6.57127
|118>    H      -10.11637        -8.75616         3.81141
|119>    H       -8.28638        -9.91563         6.78294
|120>    H      -13.48460       -13.09217         5.30246
|121>    H      -13.63017       -13.06336        11.59215
|122>    H      -14.73011       -15.00710        12.62830
|123>    H      -15.93366       -16.64804        11.25366
|124>    H      -16.05462       -16.40224         8.81404
|125> *
|126>
|127>                          ****END OF INPUT****

CARTESIAN COORDINATES (ANGSTROEM)
---------------------------------
  C     -2.239310   -2.323810  -10.215650
  C     -2.723910   -1.284250  -10.995660
  C     -3.535880   -0.299780  -10.451750
  C     -3.880660   -0.322060   -9.108290
  C     -3.402440   -1.354820   -8.319930
  C     -2.582800   -2.363550   -8.873330
  C     -2.249930   -3.323420   -7.828700
  C     -1.369780   -4.364040   -7.954660
  C     -0.650340   -4.652370   -9.134980
  N     -0.030460   -4.946560  -10.055060
  C     -1.007580   -5.274790   -6.939110
  N     -0.653850   -6.053570   -6.172570
  C     -3.026790   -2.948150   -6.648080
  C     -3.570570   -1.626590   -6.900290
  C     -3.947380   -0.705980   -5.957140
  C     -3.822600   -0.905600   -4.569720
  N     -3.725360   -1.031550   -3.432550
  C     -4.423510    0.586260   -6.259610
  N     -4.835980    1.642110   -6.440090
  C     -3.227800   -3.787710   -5.584720
  C     -4.209180   -3.765400   -4.572820
  S     -3.930590   -4.703000   -3.133070
  C     -5.452960   -4.274600   -2.450470
  C     -6.159820   -3.446140   -3.315760
  C     -5.469760   -3.165760   -4.518280
  O     -5.931660   -2.464660   -5.565320
  C     -7.472470   -2.821770   -2.978080
  F     -7.595760   -2.471930   -1.696200
  F     -7.703980   -1.696120   -3.689390
  F     -8.531580   -3.619930   -3.258260
  C     -5.808590   -4.773700   -1.143430
  C     -7.105210   -5.086220   -0.810410
  C     -7.408470   -5.520210    0.494760
  C     -8.627440   -5.819560    1.087490
  C     -9.953900   -5.823930    0.411430
  C    -10.432350   -7.259280    0.090110
  N    -10.402330   -8.116730    1.266650
  C    -11.052440   -5.073480    1.183970
  N    -12.106070   -4.699700    0.255100
  C     -8.342750   -6.139870    2.467640
  C     -9.155470   -6.450780    3.494470
  C     -8.627030   -6.696030    4.861230
  C     -7.129170   -6.690280    4.966710
  C     -6.333350   -6.368630    3.931720
  C     -6.888850   -6.057610    2.666660
  C     -6.332490   -5.667800    1.466170
  C     -5.000600   -5.404360    1.069220
  C     -4.752420   -4.973730   -0.191580
  C     -9.188880   -7.934750    5.506200
  C     -9.878930   -8.877500    4.859600
  C    -10.437810  -10.047840    5.487700
  S    -11.906980  -10.730850    4.883450
  C    -12.008310  -11.861440    6.192030
  C    -10.885940  -11.770460    6.996600
  C    -10.000180  -10.738430    6.603410
  O     -8.854380  -10.523650    7.273620
  C    -10.506340  -12.695110    8.107570
  F    -11.240950  -13.823920    8.134380
  F     -9.234020  -13.096000    8.012180
  F    -10.641370  -12.141060    9.326820
  C    -13.158710  -12.708100    6.260360
  C    -13.854450  -13.072210    7.365470
  C    -14.804150  -14.188050    7.413030
  C    -15.466770  -14.749580    6.359180
  C    -15.382010  -14.309130    5.020150
  N    -15.364390  -13.992860    3.916970
  C    -16.376700  -15.823320    6.482100
  N    -17.128040  -16.689490    6.513690
  C    -14.916350  -14.574340    8.810560
  C    -14.237940  -13.622630    9.606730
  C    -14.166430  -13.771770   10.981990
  C    -14.782730  -14.871570   11.559000
  C    -15.460890  -15.800710   10.781200
  C    -15.534490  -15.664990    9.403280
  C    -13.714870  -12.581680    8.739420
  C    -13.387140  -11.314190    9.124750
  C    -13.390850  -10.879320   10.469920
  N    -13.390830  -10.465030   11.538950
  C    -13.102890  -10.250300    8.243820
  N    -12.910180   -9.331080    7.583880
  H     -1.614650   -3.082090  -10.657880
  H     -2.466160   -1.246160  -12.043010
  H     -3.907100    0.495150  -11.080390
  H     -4.517880    0.444550   -8.698580
  H     -2.569460   -4.644370   -5.515350
  H     -6.814440   -2.104530   -5.407470
  H     -7.896110   -5.029220   -1.540230
  H     -9.842880   -5.315940   -0.552110
  H     -9.817770   -7.653180   -0.734090
  H    -11.465020   -7.178460   -0.253820
  H     -9.448410   -8.413630    1.448130
  H    -10.961410   -8.946500    1.102300
  H    -10.603270   -4.213390    1.708660
  H    -11.499340   -5.740220    1.922480
  H    -11.766810   -4.009300   -0.407050
  H    -12.890560   -4.292670    0.751450
  H    -10.224420   -6.513490    3.372550
  H     -8.988370   -5.851270    5.476590
  H     -6.718140   -6.932190    5.935190
  H     -5.259840   -6.349190    4.050680
  H     -4.195550   -5.535930    1.776290
  H     -3.744970   -4.746510   -0.505920
  H     -9.010710   -8.002330    6.571270
  H    -10.116370   -8.756160    3.811410
  H     -8.286380   -9.915630    6.782940
  H    -13.484600  -13.092170    5.302460
  H    -13.630170  -13.063360   11.592150
  H    -14.730110  -15.007100   12.628300
  H    -15.933660  -16.648040   11.253660
  H    -16.054620  -16.402240    8.814040

 Total Charge           Charge          ....    0
 Multiplicity           Mult            ....    1
 Number of Electrons    NEL             ....  562
 Basis Dimension        Dim             .... 1278

ORBITAL ENERGIES
----------------

  NO   OCC          E(Eh)            E(eV)
   0   2.0000     -88.985369     -2421.4150
   1   2.0000     -88.982098     -2421.3260
   2   2.0000     -24.830229      -675.6649
   3   2.0000     -24.816926      -675.3029
   4   2.0000     -24.815437      -675.2624
   5   2.0000     -24.814015      -675.2237
   6   2.0000     -24.808970      -675.0864
   7   2.0000     -24.804686      -674.9698
   8   2.0000     -19.290194      -524.9129
   9   2.0000     -19.273890      -524.4692
  10   2.0000     -14.431844      -392.7104
  11   2.0000     -14.428250      -392.6126
  12   2.0000     -14.428170      -392.6105
  13   2.0000     -14.427493      -392.5920
  14   2.0000     -14.421724      -392.4351
  15   2.0000     -14.418392      -392.3444
  16   2.0000     -14.417842      -392.3294
  17   2.0000     -14.417440      -392.3185
  18   2.0000     -14.398649      -391.8072
  19   2.0000     -14.385535      -391.4503
  20   2.0000     -10.542495      -286.8759
  21   2.0000     -10.533546      -286.6324
  22   2.0000     -10.383701      -282.5549
  23   2.0000     -10.365380      -282.0563
  24   2.0000     -10.361115      -281.9403
  25   2.0000     -10.360963      -281.9361
  26   2.0000     -10.358203      -281.8610
  27   2.0000     -10.354796      -281.7683
  28   2.0000     -10.347872      -281.5799
  29   2.0000     -10.347200      -281.5616
  30   2.0000     -10.345726      -281.5215
  31   2.0000     -10.344825      -281.4970
  32   2.0000     -10.344567      -281.4900
  33   2.0000     -10.339245      -281.3452
  34   2.0000     -10.338385      -281.3218
  35   2.0000     -10.334153      -281.2066
  36   2.0000     -10.333536      -281.1898
  37   2.0000     -10.330287      -281.1014
  38   2.0000     -10.329945      -281.0921
  39   2.0000     -10.328865      -281.0627
  40   2.0000     -10.328314      -281.0477
  41   2.0000     -10.324039      -280.9314
  42   2.0000     -10.322564      -280.8913
  43   2.0000     -10.322441      -280.8879
  44   2.0000     -10.320957      -280.8475
  45   2.0000     -10.320509      -280.8353
  46   2.0000     -10.320354      -280.8311
  47   2.0000     -10.320312      -280.8300
  48   2.0000     -10.319528      -280.8086
  49   2.0000     -10.319378      -280.8045
  50   2.0000     -10.316430      -280.7243
  51   2.0000     -10.314525      -280.6725
  52   2.0000     -10.311205      -280.5821
  53   2.0000     -10.309459      -280.5346
  54   2.0000     -10.308184      -280.4999
  55   2.0000     -10.308047      -280.4962
  56   2.0000     -10.307716      -280.4872
  57   2.0000     -10.307433      -280.4795
  58   2.0000     -10.306835      -280.4632
  59   2.0000     -10.306750      -280.4609
  60   2.0000     -10.305995      -280.4404
  61   2.0000     -10.304991      -280.4131
  62   2.0000     -10.300129      -280.2808
  63   2.0000     -10.297313      -280.2041
  64   2.0000     -10.296640      -280.1858
  65   2.0000     -10.296218      -280.1743
  66   2.0000     -10.294753      -280.1345
  67   2.0000     -10.289298      -279.9860
  68   2.0000     -10.288859      -279.9741
  69   2.0000     -10.287019      -279.9240
  70   2.0000     -10.283917      -279.8396
  71   2.0000     -10.283870      -279.8383
  72   2.0000     -10.283082      -279.8169
  73   2.0000     -10.280681      -279.7515
  74   2.0000     -10.279966      -279.7321
  75   2.0000     -10.275306      -279.6053
  76   2.0000     -10.274036      -279.5707
  77   2.0000     -10.273846      -279.5656
  78   2.0000     -10.272973      -279.5418
  79   2.0000     -10.272472      -279.5282
  80   2.0000      -8.080711      -219.8873
  81   2.0000      -8.077717      -219.8059
  82   2.0000      -6.050016      -164.6293
  83   2.0000      -6.046953      -164.5460
  84   2.0000      -6.045939      -164.5184
  85   2.0000      -6.042954      -164.4371
  86   2.0000      -6.042689      -164.4299
  87   2.0000      -6.039643      -164.3470
  88   2.0000      -1.411150       -38.3993
  89   2.0000      -1.400458       -38.1084
  90   2.0000      -1.316299       -35.8183
  91   2.0000      -1.306769       -35.5590
  92   2.0000      -1.302743       -35.4494
  93   2.0000      -1.299342       -35.3569
  94   2.0000      -1.187938       -32.3254
  95   2.0000      -1.172804       -31.9136
  96   2.0000      -1.045824       -28.4583
  97   2.0000      -1.032511       -28.0961
  98   2.0000      -1.026913       -27.9437
  99   2.0000      -1.018342       -27.7105
 100   2.0000      -1.017060       -27.6756
 101   2.0000      -1.015478       -27.6326
 102   2.0000      -1.015112       -27.6226
 103   2.0000      -1.008045       -27.4303
 104   2.0000      -1.005120       -27.3507
 105   2.0000      -1.004256       -27.3272
 106   2.0000      -0.997641       -27.1472
 107   2.0000      -0.996933       -27.1279
 108   2.0000      -0.995598       -27.0916
 109   2.0000      -0.977328       -26.5944
 110   2.0000      -0.967139       -26.3172
 111   2.0000      -0.960910       -26.1477
 112   2.0000      -0.959645       -26.1133
 113   2.0000      -0.955232       -25.9932
 114   2.0000      -0.949418       -25.8350
 115   2.0000      -0.936389       -25.4804
 116   2.0000      -0.933861       -25.4117
 117   2.0000      -0.919132       -25.0109
 118   2.0000      -0.910141       -24.7662
 119   2.0000      -0.904156       -24.6033
 120   2.0000      -0.896236       -24.3878
 121   2.0000      -0.891290       -24.2532
 122   2.0000      -0.885170       -24.0867
 123   2.0000      -0.880019       -23.9465
 124   2.0000      -0.873623       -23.7725
 125   2.0000      -0.871536       -23.7157
 126   2.0000      -0.862369       -23.4663
 127   2.0000      -0.852726       -23.2039
 128   2.0000      -0.849001       -23.1025
 129   2.0000      -0.840773       -22.8786
 130   2.0000      -0.834958       -22.7204
 131   2.0000      -0.813854       -22.1461
 132   2.0000      -0.806249       -21.9392
 133   2.0000      -0.800087       -21.7715
 134   2.0000      -0.798101       -21.7174
 135   2.0000      -0.787895       -21.4397
 136   2.0000      -0.783713       -21.3259
 137   2.0000      -0.773749       -21.0548
 138   2.0000      -0.769075       -20.9276
 139   2.0000      -0.758818       -20.6485
 140   2.0000      -0.732223       -19.9248
 141   2.0000      -0.729840       -19.8600
 142   2.0000      -0.727626       -19.7997
 143   2.0000      -0.725543       -19.7430
 144   2.0000      -0.721643       -19.6369
 145   2.0000      -0.718409       -19.5489
 146   2.0000      -0.716134       -19.4870
 147   2.0000      -0.712155       -19.3787
 148   2.0000      -0.709411       -19.3041
 149   2.0000      -0.708239       -19.2722
 150   2.0000      -0.695084       -18.9142
 151   2.0000      -0.692164       -18.8348
 152   2.0000      -0.691011       -18.8034
 153   2.0000      -0.688237       -18.7279
 154   2.0000      -0.684575       -18.6282
 155   2.0000      -0.682609       -18.5747
 156   2.0000      -0.679504       -18.4902
 157   2.0000      -0.675337       -18.3769
 158   2.0000      -0.674743       -18.3607
 159   2.0000      -0.670733       -18.2516
 160   2.0000      -0.664248       -18.0751
 161   2.0000      -0.662810       -18.0360
 162   2.0000      -0.660725       -17.9792
 163   2.0000      -0.653176       -17.7738
 164   2.0000      -0.651536       -17.7292
 165   2.0000      -0.637534       -17.3482
 166   2.0000      -0.631747       -17.1907
 167   2.0000      -0.625505       -17.0209
 168   2.0000      -0.613212       -16.6863
 169   2.0000      -0.607432       -16.5291
 170   2.0000      -0.602553       -16.3963
 171   2.0000      -0.596907       -16.2427
 172   2.0000      -0.595719       -16.2103
 173   2.0000      -0.592180       -16.1140
 174   2.0000      -0.590499       -16.0683
 175   2.0000      -0.581973       -15.8363
 176   2.0000      -0.575503       -15.6602
 177   2.0000      -0.574227       -15.6255
 178   2.0000      -0.572489       -15.5782
 179   2.0000      -0.569424       -15.4948
 180   2.0000      -0.568404       -15.4671
 181   2.0000      -0.567237       -15.4353
 182   2.0000      -0.566167       -15.4062
 183   2.0000      -0.561271       -15.2730
 184   2.0000      -0.557170       -15.1614
 185   2.0000      -0.556439       -15.1415
 186   2.0000      -0.553149       -15.0520
 187   2.0000      -0.552277       -15.0282
 188   2.0000      -0.550372       -14.9764
 189   2.0000      -0.547637       -14.9020
 190   2.0000      -0.545333       -14.8393
 191   2.0000      -0.544542       -14.8177
 192   2.0000      -0.541989       -14.7483
 193   2.0000      -0.539916       -14.6919
 194   2.0000      -0.537992       -14.6395
 195   2.0000      -0.535043       -14.5593
 196   2.0000      -0.533870       -14.5274
 197   2.0000      -0.530068       -14.4239
 198   2.0000      -0.525491       -14.2993
 199   2.0000      -0.525146       -14.2899
 200   2.0000      -0.524374       -14.2689
 201   2.0000      -0.522009       -14.2046
 202   2.0000      -0.518649       -14.1131
 203   2.0000      -0.518207       -14.1011
 204   2.0000      -0.515847       -14.0369
 205   2.0000      -0.515119       -14.0171
 206   2.0000      -0.513698       -13.9784
 207   2.0000      -0.512880       -13.9562
 208   2.0000      -0.511120       -13.9083
 209   2.0000      -0.510403       -13.8888
 210   2.0000      -0.506193       -13.7742
 211   2.0000      -0.503516       -13.7014
 212   2.0000      -0.501867       -13.6565
 213   2.0000      -0.500494       -13.6191
 214   2.0000      -0.497042       -13.5252
 215   2.0000      -0.495877       -13.4935
 216   2.0000      -0.489902       -13.3309
 217   2.0000      -0.487608       -13.2685
 218   2.0000      -0.486816       -13.2469
 219   2.0000      -0.483154       -13.1473
 220   2.0000      -0.478128       -13.0105
 221   2.0000      -0.476595       -12.9688
 222   2.0000      -0.472122       -12.8471
 223   2.0000      -0.469527       -12.7765
 224   2.0000      -0.468754       -12.7554
 225   2.0000      -0.465781       -12.6745
 226   2.0000      -0.464331       -12.6351
 227   2.0000      -0.462792       -12.5932
 228   2.0000      -0.462016       -12.5721
 229   2.0000      -0.461508       -12.5583
 230   2.0000      -0.460758       -12.5379
 231   2.0000      -0.457766       -12.4564
 232   2.0000      -0.456121       -12.4117
 233   2.0000      -0.455260       -12.3883
 234   2.0000      -0.453745       -12.3470
 235   2.0000      -0.452614       -12.3163
 236   2.0000      -0.451553       -12.2874
 237   2.0000      -0.450739       -12.2652
 238   2.0000      -0.446545       -12.1511
 239   2.0000      -0.446023       -12.1369
 240   2.0000      -0.445212       -12.1148
 241   2.0000      -0.444806       -12.1038
 242   2.0000      -0.442304       -12.0357
 243   2.0000      -0.441805       -12.0221
 244   2.0000      -0.440171       -11.9777
 245   2.0000      -0.439425       -11.9574
 246   2.0000      -0.438008       -11.9188
 247   2.0000      -0.436504       -11.8779
 248   2.0000      -0.436472       -11.8770
 249   2.0000      -0.430814       -11.7231
 250   2.0000      -0.428698       -11.6655
 251   2.0000      -0.427441       -11.6313
 252   2.0000      -0.424825       -11.5601
 253   2.0000      -0.424479       -11.5506
 254   2.0000      -0.421801       -11.4778
 255   2.0000      -0.419296       -11.4096
 256   2.0000      -0.418030       -11.3752
 257   2.0000      -0.413362       -11.2482
 258   2.0000      -0.412079       -11.2133
 259   2.0000      -0.409265       -11.1367
 260   2.0000      -0.403200       -10.9716
 261   2.0000      -0.395962       -10.7747
 262   2.0000      -0.394589       -10.7373
 263   2.0000      -0.392121       -10.6702
 264   2.0000      -0.381060       -10.3692
 265   2.0000      -0.377262       -10.2658
 266   2.0000      -0.377046       -10.2599
 267   2.0000      -0.362138        -9.8543
 268   2.0000      -0.343890        -9.3577
 269   2.0000      -0.341532        -9.2936
 270   2.0000      -0.339795        -9.2463
 271   2.0000      -0.336725        -9.1628
 272   2.0000      -0.332643        -9.0517
 273   2.0000      -0.327520        -8.9123
 274   2.0000      -0.319338        -8.6896
 275   2.0000      -0.317567        -8.6414
 276   2.0000      -0.308854        -8.4044
 277   2.0000      -0.305340        -8.3087
 278   2.0000      -0.284589        -7.7441
 279   2.0000      -0.281000        -7.6464
 280   2.0000      -0.235088        -6.3971
 281   0.0000      -0.105269        -2.8645
 282   0.0000      -0.095468        -2.5978
 283   0.0000      -0.092713        -2.5229
 284   0.0000      -0.082793        -2.2529
 285   0.0000      -0.074780        -2.0349

MULLIKEN ATOMIC CHARGES
-----------------------
   0 C :   -0.033253
   1 C :    0.045103
   2 C :    0.048332
   3 C :   -0.038691
   4 C :    0.010210
   5 C :    0.006182
   6 C :    0.295011
   7 C :   -0.347970
   8 C :   -0.187887
   9 N :    0.157646
  10 C :   -0.176500
  11 N :    0.151257
  12 C :   -0.061271
  13 C :    0.262772
  14 C :   -0.325540
  15 C :   -0.208158
  16 N :    0.168916
  17 C :   -0.193554
  18 N :    0.159983
  19 C :    0.075282
  20 C :   -0.193908
  21 S :    0.195586
  22 C :   -0.068413
  23 C :   -0.103857
  24 C :    0.142677
  25 O :   -0.153062
  26 C :    0.502468
  27 F :   -0.135541
  28 F :   -0.174049
  29 F :   -0.166512
  30 C :    0.068761
  31 C :   -0.070829
  32 C :    0.035153
  33 C :   -0.046218
  34 C :   -0.017755
  35 C :    0.143729
  36 N :   -0.242287
  37 C :    0.117485
  38 N :   -0.220646
  39 C :    0.056557
  40 C :   -0.131984
  41 C :    0.195522
  42 C :   -0.052558
  43 C :    0.019469
  44 C :    0.014617
  45 C :    0.038799
  46 C :    0.000920
  47 C :   -0.014473
  48 C :   -0.138254
  49 C :    0.072275
  50 C :   -0.131513
  51 S :    0.207315
  52 C :   -0.204455
  53 C :   -0.076275
  54 C :    0.113590
  55 O :   -0.160236
  56 C :    0.546271
  57 F :   -0.163746
  58 F :   -0.143994
  59 F :   -0.159979
  60 C :    0.048088
  61 C :   -0.041730
  62 C :    0.280259
  63 C :   -0.333249
  64 C :   -0.184290
  65 N :    0.163253
  66 C :   -0.190558
  67 N :    0.168118
  68 C :    0.020399
  69 C :    0.009855
  70 C :   -0.025170
  71 C :    0.046716
  72 C :    0.048167
  73 C :   -0.033071
  74 C :    0.234886
  75 C :   -0.337544
  76 C :   -0.193429
  77 N :    0.175037
  78 C :   -0.174792
  79 N :    0.183408
  80 H :    0.004566
  81 H :    0.002125
  82 H :    0.002602
  83 H :    0.002987
  84 H :    0.009010
  85 H :    0.201846
  86 H :   -0.021815
  87 H :   -0.027661
  88 H :   -0.010599
  89 H :    0.009263
  90 H :    0.116097
  91 H :    0.105064
  92 H :   -0.005033
  93 H :    0.003512
  94 H :    0.093526
  95 H :    0.093859
  96 H :    0.022410
  97 H :    0.057975
  98 H :   -0.016218
  99 H :   -0.030768
 100 H :   -0.029735
 101 H :   -0.009039
 102 H :    0.013188
 103 H :   -0.018290
 104 H :    0.188716
 105 H :    0.032586
 106 H :    0.011963
 107 H :    0.009466
 108 H :    0.006952
 109 H :    0.008572
Sum of atomic charges:   -0.0000000

LOEWDIN ATOMIC CHARGES
----------------------
   0 C :    0.005285
   1 C :   -0.002846
   2 C :    0.003842
   3 C :   -0.002348
   4 C :   -0.006807
   5 C :   -0.017243
   6 C :    0.082455
   7 C :   -0.135144
   8 C :   -0.018421
   9 N :   -0.048265
  10 C :   -0.022081
  11 N :   -0.046840
  12 C :   -0.060825
  13 C :    0.066810
  14 C :   -0.131813
  15 C :   -0.018914
  16 N :   -0.050641
  17 C :   -0.021025
  18 N :   -0.052038
  19 C :    0.036254
  20 C :   -0.221674
  21 S :    0.503223
  22 C :   -0.096226
  23 C :   -0.164713
  24 C :    0.061368
  25 O :   -0.002042
  26 C :    0.176553
  27 F :   -0.035020
  28 F :   -0.058995
  29 F :   -0.072600
  30 C :   -0.063619
  31 C :    0.010631
  32 C :   -0.024695
  33 C :   -0.026431
  34 C :   -0.039835
  35 C :    0.032235
  36 N :   -0.111922
  37 C :    0.024327
  38 N :   -0.115869
  39 C :   -0.023985
  40 C :    0.083290
  41 C :   -0.031893
  42 C :   -0.036178
  43 C :   -0.014360
  44 C :   -0.036868
  45 C :   -0.031991
  46 C :   -0.002716
  47 C :   -0.035108
  48 C :   -0.009731
  49 C :   -0.047512
  50 C :   -0.209296
  51 S :    0.501501
  52 C :   -0.166230
  53 C :   -0.128872
  54 C :    0.031847
  55 O :   -0.032741
  56 C :    0.171752
  57 F :   -0.058486
  58 F :   -0.044754
  59 F :   -0.058154
  60 C :    0.027554
  61 C :   -0.032558
  62 C :    0.079966
  63 C :   -0.126196
  64 C :   -0.021508
  65 N :   -0.039863
  66 C :   -0.019329
  67 N :   -0.039264
  68 C :   -0.012471
  69 C :   -0.005855
  70 C :    0.006463
  71 C :    0.008714
  72 C :    0.004556
  73 C :    0.006910
  74 C :    0.062641
  75 C :   -0.118355
  76 C :   -0.017900
  77 N :   -0.036191
  78 C :   -0.018722
  79 N :   -0.043908
  80 H :    0.040865
  81 H :    0.036740
  82 H :    0.036819
  83 H :    0.039843
  84 H :    0.044968
  85 H :    0.091655
  86 H :    0.021014
  87 H :    0.026356
  88 H :    0.003235
  89 H :    0.021695
  90 H :    0.053745
  91 H :    0.059177
  92 H :    0.000874
  93 H :    0.016832
  94 H :    0.053018
  95 H :    0.056429
  96 H :    0.034665
  97 H :    0.073584
  98 H :    0.022231
  99 H :    0.031814
 100 H :    0.030546
 101 H :    0.022636
 102 H :    0.025995
 103 H :    0.030006
 104 H :    0.094108
 105 H :    0.049188
 106 H :    0.043072
 107 H :    0.039466
 108 H :    0.038905
 109 H :    0.042231

  Mayer bond orders larger than 0.100000
B(  0-C ,  1-C ) :   1.3698 B(  0-C ,  5-C ) :   1.3806 B(  0-C , 80-H ) :   0.9838
B(  1-C ,  2-C ) :   1.3806 B(  1-C , 81-H ) :   0.9858 B(  2-C ,  3-C ) :   1.3606
B(  2-C , 82-H ) :   0.9863 B(  3-C ,  4-C ) :   1.3853 B(  3-C , 83-H ) :   0.9868
B(  4-C ,  5-C ) :   1.3119 B(  4-C , 13-C ) :   1.0070 B(  5-C ,  6-C ) :   0.9957
B(  6-C ,  7-C ) :   1.6337 B(  6-C , 12-C ) :   1.0615 B(  7-C ,  8-C ) :   1.1470
B(  7-C , 10-C ) :   1.1332 B(  8-C ,  9-N ) :   2.9768 B( 10-C , 11-N ) :   2.9643
B( 12-C , 13-C ) :   1.0522 B( 12-C , 19-C ) :   1.5902 B( 13-C , 14-C ) :   1.6250
B( 14-C , 15-C ) :   1.1674 B( 14-C , 17-C ) :   1.1478 B( 15-C , 16-N ) :   3.0047
B( 17-C , 18-N ) :   2.9902 B( 19-C , 20-C ) :   1.2189 B( 19-C , 84-H ) :   0.9034
B( 20-C , 21-S ) :   1.0921 B( 20-C , 24-C ) :   1.3992 B( 21-S , 22-C ) :   1.2040
B( 22-C , 23-C ) :   1.5037 B( 22-C , 30-C ) :   1.0483 B( 23-C , 24-C ) :   1.2295
B( 23-C , 26-C ) :   0.9441 B( 24-C , 25-O ) :   1.3072 B( 25-O , 85-H ) :   0.9244
B( 26-C , 27-F ) :   1.1843 B( 26-C , 28-F ) :   1.1062 B( 26-C , 29-F ) :   1.1346
B( 30-C , 31-C ) :   1.5211 B( 30-C , 47-C ) :   1.1183 B( 31-C , 32-C ) :   1.1685
B( 31-C , 86-H ) :   0.9730 B( 32-C , 33-C ) :   1.4828 B( 32-C , 45-C ) :   1.1209
B( 33-C , 34-C ) :   1.0190 B( 33-C , 39-C ) :   1.0988 B( 34-C , 35-C ) :   1.0249
B( 34-C , 37-C ) :   1.0313 B( 34-C , 87-H ) :   0.8902 B( 35-C , 36-N ) :   1.0858
B( 35-C , 88-H ) :   0.9414 B( 35-C , 89-H ) :   0.9314 B( 36-N , 90-H ) :   0.9445
B( 36-N , 91-H ) :   0.9638 B( 37-C , 38-N ) :   1.0865 B( 37-C , 92-H ) :   0.9551
B( 37-C , 93-H ) :   0.9219 B( 38-N , 94-H ) :   0.9700 B( 38-N , 95-H ) :   0.9673
B( 39-C , 40-C ) :   1.6478 B( 39-C , 44-C ) :   1.0653 B( 40-C , 41-C ) :   0.9665
B( 40-C , 96-H ) :   0.9648 B( 41-C , 42-C ) :   0.9772 B( 41-C , 48-C ) :   0.9595
B( 41-C , 97-H ) :   0.8267 B( 42-C , 43-C ) :   1.7398 B( 42-C , 98-H ) :   0.9690
B( 43-C , 44-C ) :   1.1283 B( 43-C , 99-H ) :   0.9890 B( 44-C , 45-C ) :   1.4329
B( 45-C , 46-C ) :   1.1414 B( 46-C , 47-C ) :   1.6167 B( 46-C ,100-H ) :   0.9934
B( 47-C ,101-H ) :   0.9780 B( 48-C , 49-C ) :   1.8614 B( 48-C ,102-H ) :   0.9683
B( 49-C , 50-C ) :   1.0387 B( 49-C ,103-H ) :   0.9157 B( 50-C , 51-S ) :   1.1076
B( 50-C , 52-C ) :   0.1168 B( 50-C , 54-C ) :   1.4721 B( 51-S , 52-C ) :   1.1800
B( 52-C , 53-C ) :   1.5112 B( 52-C , 60-C ) :   1.0754 B( 53-C , 54-C ) :   1.2505
B( 53-C , 56-C ) :   0.9441 B( 54-C , 55-O ) :   1.3071 B( 55-O ,104-H ) :   0.9416
B( 56-C , 57-F ) :   1.1281 B( 56-C , 58-F ) :   1.1940 B( 56-C , 59-F ) :   1.1570
B( 60-C , 61-C ) :   1.7280 B( 60-C ,105-H ) :   0.9151 B( 61-C , 62-C ) :   1.0341
B( 61-C , 74-C ) :   0.9896 B( 62-C , 63-C ) :   1.6603 B( 62-C , 68-C ) :   1.0108
B( 63-C , 64-C ) :   1.1346 B( 63-C , 66-C ) :   1.1418 B( 64-C , 65-N ) :   2.9830
B( 66-C , 67-N ) :   2.9864 B( 68-C , 69-C ) :   1.3066 B( 68-C , 73-C ) :   1.3730
B( 69-C , 70-C ) :   1.3821 B( 69-C , 74-C ) :   1.0105 B( 70-C , 71-C ) :   1.3697
B( 70-C ,106-H ) :   0.9871 B( 71-C , 72-C ) :   1.3706 B( 71-C ,107-H ) :   0.9867
B( 72-C , 73-C ) :   1.3770 B( 72-C ,108-H ) :   0.9858 B( 73-C ,109-H ) :   0.9852
B( 74-C , 75-C ) :   1.6890 B( 75-C , 76-C ) :   1.1347 B( 75-C , 78-C ) :   1.1596
B( 76-C , 77-N ) :   3.0062 B( 78-C , 79-N ) :   3.0068

-----------------------------------------------------------------------------
         ABSORPTION SPECTRUM VIA TRANSITION ELECTRIC DIPOLE MOMENTS
-----------------------------------------------------------------------------
State   Energy  Wavelength   fosc         T2         TX        TY        TZ
        (cm-1)    (nm)                  (au**2)     (au)      (au)      (au)
-----------------------------------------------------------------------------
   0   14415.9    693.7   0.068729391   1.56955  -1.22294  -0.23826   0.13119
   1   17756.6    563.2   0.110043036   2.04023   0.79006   0.71161  -0.95376
   2   18834.2    530.9   0.506844488   8.85936   1.11680   0.98738  -2.57628
   3   20982.6    476.6   0.358865581   5.63052  -1.76171  -1.15478   1.09243
   4   21777.6    459.2   0.043283792   0.65432   0.32508  -0.72623  -0.14572
   5   22257.2    449.3   0.030246772   0.44739  -0.48538  -0.44453   0.11909
   6   23757.0    420.9   0.739857077  10.25253   1.96409   1.00293  -2.32142
   7   24701.4    404.8   0.156215830   2.08200  -0.83697  -1.05412  -0.51992
   8   26065.6    383.6   0.101690377   1.28436  -0.36375   1.06962   0.08921
   9   27490.5    363.8   0.058650331   0.70237   0.20580   0.53979  -0.60716
  10   27587.8    362.5   0.097824108   1.16736   0.28702   0.80299  -0.66346
  11   28464.4    351.3   0.009586470   0.11087   0.26132  -0.20263   0.03903
  12   28625.7    349.3   0.006765846   0.07781  -0.27547   0.03623  -0.02476
  13   29806.3    335.5   0.041166650   0.45469   0.40817   0.23196  -0.48402
  14   30529.8    327.5   0.409721067   4.41815  -1.04148  -0.61666   1.71849
  15   30775.1    324.9   0.043881257   0.46941  -0.14666   0.43464   0.50891
  16   30835.9    324.3   0.020176996   0.21541  -0.00507   0.26199   0.38308
  17   31015.2    322.4   0.105973197   1.12485   0.34498   0.25513  -0.96992
  18   31449.5    318.0   0.152591400   1.59732  -0.80281  -0.73765  -0.63929
  19   31496.4    317.5   0.289022525   3.02097   0.88205  -0.96777  -1.14297
  20   31556.6    316.9   0.172620895   1.80086  -0.46103   1.00602   0.75910
  21   33351.2    299.8   0.571294138   5.63928  -0.73155  -2.01878  -1.01422
  22   33422.2    299.2   0.213606249   2.10404  -0.86732   0.61191  -0.98862
  23   33763.9    296.2   0.001810107   0.01765  -0.03948  -0.12591   0.01538
  24   34140.6    292.9   0.109366084   1.05460  -0.32157   0.85814  -0.46345
  25   34337.1    291.2   0.000992130   0.00951   0.01085   0.09666  -0.00716
  26   34708.3    288.1   0.119702980   1.13539  -0.58636   0.52141   0.72091
  27   34744.1    287.8   0.003093484   0.02931   0.03603  -0.15595  -0.06078
  28   34899.4    286.5   0.156307009   1.47447   0.04374   0.99649  -0.69251
  29   35090.2    285.0   0.147709203   1.38579   0.06242   0.59458  -1.01408
  30   35603.7    280.9   0.002746698   0.02540  -0.00330   0.01669   0.15846
  31   35882.8    278.7   0.355000124   3.25700   0.23254  -0.69589   1.64884
  32   36392.7    274.8   0.107289486   0.97055   0.39995  -0.02738   0.89991
  33   36810.3    271.7   0.041714389   0.37307   0.20923  -0.34010   0.46220
  34   37379.3    267.5   0.042390669   0.37335  -0.15752   0.32168   0.49503
  35   37424.4    267.2   0.002084090   0.01833   0.04345   0.01399  -0.12747
  36   37780.1    264.7   0.009255470   0.08065  -0.00860   0.05398  -0.27868
  37   38010.7    263.1   0.000174998   0.00152   0.01047  -0.00791  -0.03665
  38   38069.4    262.7   0.047970776   0.41484   0.22087   0.23983  -0.55546
  39   38132.5    262.2   0.029657125   0.25604  -0.16471  -0.14171   0.45698
  40   38741.4    258.1   0.085733777   0.72854  -0.36468  -0.29402   0.71351
  41   39069.9    256.0   0.033174339   0.27953  -0.23404  -0.27775   0.38421
  42   39118.7    255.6   0.026015463   0.21894   0.15829  -0.18653  -0.39886
  43   39397.5    253.8   0.640054519   5.34840   0.93249   1.22222  -1.72772
  44   39443.5    253.5   0.408573629   3.41013  -0.67263  -1.21463   1.21753
  45   39841.6    251.0   0.050520065   0.41745  -0.11063  -0.62390  -0.12631

FINAL SINGLE POINT ENERGY     -4392.951084366712

DIPOLE MOMENT
-------------
                                X             Y             Z
Electronic contribution:      7.72302     -15.02129       8.14085
Nuclear contribution   :     -9.04754      14.68396      -6.94474
                        -----------------------------------------
Total Dipole Moment    :     -1.32452      -0.33733       1.19611
                        -----------------------------------------
Magnitude (a.u.)       :      1.81627
Magnitude (Debye)      :      4.61658

Rotational constants in cm-1:     0.002244     0.000190     0.000189
Rotational constants in MHz :    67.279284     5.697909     5.676937

                             ****ORCA TERMINATED NORMALLY****
TOTAL RUN TIME: 0 days 0 hours 12 minutes 44 seconds 340 msec
