                         Program Version 4.2.0 -  RELEASE  -
|  1> # ORCA input file
|  2> # SCF done       -173.597026648948          0.000715083780
|  3> ! CAM-B3LYP def2-SVP def2/J RIJCOSX Grid4 TightSCF
|  4> %maxcore 5000
|  5> %tddft
|  6>     Mode sTDDFT
|  7>     Ethresh 5.0
|  8>     maxcore 5000
|  9> end
| 10>
| 11> %pal
| 12>   nprocs 6
| 13>   end
| 14> * xyz 0 1
| 15>    C        1.96056         0.71168         5.83249
| 16>    S        2.93811        -0.59957         5.27555
| 17>    C        4.41825         0.35163         5.25229
| 18>    C        4.10502         1.61076         5.67405
| 19>    C        2.73804         1.80981         5.98924
| 20>    O        2.58668         3.10974         6.35636
| 21>    C        3.81805         3.69724         6.25606
| 22>    O        4.03395         4.83668         6.48503
| 23>    O        4.74521         2.79716         5.82995
| 24>    C        5.68718        -0.21775         4.90786
| 25>    C        6.88154        -0.08950         5.59364
| 26>    N        7.11936         0.60000         6.79964
| 27>    O        6.16453         1.05088         7.40840
| 28>    O        8.27323         0.67019         7.18074
| 29>    C        7.88898        -0.88920         4.94236
| 30>    C        7.31203        -1.54774         3.90830
| 31>    C        5.93072        -1.14673         3.81434
| 32>    C        5.06085        -1.41658         2.76912
| 33>    C        4.07087        -0.53633         2.25910
| 34>    C        3.62887        -1.00687         1.04883
| 35>    C        4.26056        -2.24547         0.77249
| 36>    N        4.01396        -2.98765        -0.38509
| 37>    O        3.16056        -2.57324        -1.15255
| 38>    O        4.67169        -4.00425        -0.59010
| 39>    C        5.12198        -2.56749         1.84654
| 40>    C        5.71195        -3.80666         2.05048
| 41>    C        6.27147        -4.27589         3.22843
| 42>    C        6.94160        -5.47944         3.38440
| 43>    S        7.27883        -6.00713         5.01572
| 44>    C        7.96178        -7.51114         4.49501
| 45>    C        7.96382        -7.59153         3.07584
| 46>    C        7.42283        -6.43996         2.44262
| 47>    C        7.44230        -6.35595         1.04683
| 48>    C        7.91425        -7.41007         0.28887
| 49>    C        7.91935        -7.33225        -1.20190
| 50>    C        8.40653        -8.55908         0.92946
| 51>    C        8.44777        -8.65096         2.29713
| 52>    C        8.43826        -8.47090         5.38963
| 53>    C        8.45865        -8.31648         6.75337
| 54>    C        8.94068        -9.26747         7.66604
| 55>    C        9.01052        -9.09832         9.04511
| 56>    C        9.56515       -10.25722         9.63494
| 57>    C        9.83384       -11.19014         8.52451
| 58>    C        9.46262       -10.59119         7.36323
| 59>    C       10.37565       -12.47798         8.61578
| 60>    N       10.81379       -13.53923         8.64405
| 61>    C        9.82965       -10.48378        10.97336
| 62>    C       10.40522       -11.63454        11.56666
| 63>    C       10.51892       -11.44080        12.93073
| 64>    C        9.99150       -10.11667        13.23508
| 65>    C        9.57599        -9.53766        12.07936
| 66>    C        9.00713        -8.26333        11.98068
| 67>    N        8.53907        -7.21512        11.93348
| 68>    C       11.05838       -12.36872        13.85529
| 69>    C       11.18314       -12.14704        15.18913
| 70>    C       11.73414       -13.09965        16.08444
| 71>    S       11.89088       -12.76816        17.80228
| 72>    C       12.59582       -14.30040        18.16646
| 73>    C       12.70078       -15.02247        17.02174
| 74>    C       12.22617       -14.36406        15.86554
| 75>    O       12.39618       -15.20538        14.80912
| 76>    C       12.95779       -16.35089        15.29876
| 77>    O       13.23951       -17.29309        14.64364
| 78>    O       13.14997       -16.25113        16.64489
| 79>    H        0.91403         0.57620         6.00559
| 80>    H        8.91151        -0.92616         5.26468
| 81>    H        7.80737        -2.17812         3.19570
| 82>    H        3.81780         0.41328         2.68789
| 83>    H        2.93046        -0.53122         0.38600
| 84>    H        5.62166        -4.49132         1.21998
| 85>    H        6.12825        -3.69241         4.12998
| 86>    H        7.10769        -5.46780         0.53931
| 87>    H        7.48426        -8.23348        -1.62991
| 88>    H        8.94265        -7.25405        -1.56932
| 89>    H        7.35753        -6.47013        -1.55016
| 90>    H        8.77292        -9.37623         0.32624
| 91>    H        8.85145        -9.53267         2.76921
| 92>    H        8.81916        -9.38529         4.95858
| 93>    H        8.08775        -7.38940         7.17392
| 94>    H        8.70001        -8.22096         9.57762
| 95>    H        9.53746       -11.02664         6.38449
| 96>    H       10.70885       -12.51530        11.03556
| 97>    H        9.93884        -9.67424        14.21187
| 98>    H       11.39268       -13.31368        13.44750
| 99>    H       10.86443       -11.21563        15.63286
|100>    H       12.87482       -14.55346        19.16733
|101> *
|102>
|103>                          ****END OF INPUT****

CARTESIAN COORDINATES (ANGSTROEM)
---------------------------------
  C      1.960560    0.711680    5.832490
  S      2.938110   -0.599570    5.275550
  C      4.418250    0.351630    5.252290
  C      4.105020    1.610760    5.674050
  C      2.738040    1.809810    5.989240
  O      2.586680    3.109740    6.356360
  C      3.818050    3.697240    6.256060
  O      4.033950    4.836680    6.485030
  O      4.745210    2.797160    5.829950
  C      5.687180   -0.217750    4.907860
  C      6.881540   -0.089500    5.593640
  N      7.119360    0.600000    6.799640
  O      6.164530    1.050880    7.408400
  O      8.273230    0.670190    7.180740
  C      7.888980   -0.889200    4.942360
  C      7.312030   -1.547740    3.908300
  C      5.930720   -1.146730    3.814340
  C      5.060850   -1.416580    2.769120
  C      4.070870   -0.536330    2.259100
  C      3.628870   -1.006870    1.048830
  C      4.260560   -2.245470    0.772490
  N      4.013960   -2.987650   -0.385090
  O      3.160560   -2.573240   -1.152550
  O      4.671690   -4.004250   -0.590100
  C      5.121980   -2.567490    1.846540
  C      5.711950   -3.806660    2.050480
  C      6.271470   -4.275890    3.228430
  C      6.941600   -5.479440    3.384400
  S      7.278830   -6.007130    5.015720
  C      7.961780   -7.511140    4.495010
  C      7.963820   -7.591530    3.075840
  C      7.422830   -6.439960    2.442620
  C      7.442300   -6.355950    1.046830
  C      7.914250   -7.410070    0.288870
  C      7.919350   -7.332250   -1.201900
  C      8.406530   -8.559080    0.929460
  C      8.447770   -8.650960    2.297130
  C      8.438260   -8.470900    5.389630
  C      8.458650   -8.316480    6.753370
  C      8.940680   -9.267470    7.666040
  C      9.010520   -9.098320    9.045110
  C      9.565150  -10.257220    9.634940
  C      9.833840  -11.190140    8.524510
  C      9.462620  -10.591190    7.363230
  C     10.375650  -12.477980    8.615780
  N     10.813790  -13.539230    8.644050
  C      9.829650  -10.483780   10.973360
  C     10.405220  -11.634540   11.566660
  C     10.518920  -11.440800   12.930730
  C      9.991500  -10.116670   13.235080
  C      9.575990   -9.537660   12.079360
  C      9.007130   -8.263330   11.980680
  N      8.539070   -7.215120   11.933480
  C     11.058380  -12.368720   13.855290
  C     11.183140  -12.147040   15.189130
  C     11.734140  -13.099650   16.084440
  S     11.890880  -12.768160   17.802280
  C     12.595820  -14.300400   18.166460
  C     12.700780  -15.022470   17.021740
  C     12.226170  -14.364060   15.865540
  O     12.396180  -15.205380   14.809120
  C     12.957790  -16.350890   15.298760
  O     13.239510  -17.293090   14.643640
  O     13.149970  -16.251130   16.644890
  H      0.914030    0.576200    6.005590
  H      8.911510   -0.926160    5.264680
  H      7.807370   -2.178120    3.195700
  H      3.817800    0.413280    2.687890
  H      2.930460   -0.531220    0.386000
  H      5.621660   -4.491320    1.219980
  H      6.128250   -3.692410    4.129980
  H      7.107690   -5.467800    0.539310
  H      7.484260   -8.233480   -1.629910
  H      8.942650   -7.254050   -1.569320
  H      7.357530   -6.470130   -1.550160
  H      8.772920   -9.376230    0.326240
  H      8.851450   -9.532670    2.769210
  H      8.819160   -9.385290    4.958580
  H      8.087750   -7.389400    7.173920
  H      8.700010   -8.220960    9.577620
  H      9.537460  -11.026640    6.384490
  H     10.708850  -12.515300   11.035560
  H      9.938840   -9.674240   14.211870
  H     11.392680  -13.313680   13.447500
  H     10.864430  -11.215630   15.632860
  H     12.874820  -14.553460   19.167330

 Total Charge           Charge          ....    0
 Multiplicity           Mult            ....    1
 Number of Electrons    NEL             ....  460
 Basis Dimension        Dim             .... 1018

ORBITAL ENERGIES
----------------

  NO   OCC          E(Eh)            E(eV)
   0   2.0000     -88.994445     -2421.6619
   1   2.0000     -88.989882     -2421.5378
   2   2.0000     -88.971594     -2421.0402
   3   2.0000     -19.324908      -525.8575
   4   2.0000     -19.320639      -525.7413
   5   2.0000     -19.302698      -525.2531
   6   2.0000     -19.300928      -525.2050
   7   2.0000     -19.233695      -523.3754
   8   2.0000     -19.230019      -523.2754
   9   2.0000     -19.229195      -523.2530
  10   2.0000     -19.221731      -523.0499
  11   2.0000     -19.221614      -523.0467
  12   2.0000     -19.214901      -522.8640
  13   2.0000     -14.638651      -398.3379
  14   2.0000     -14.631977      -398.1563
  15   2.0000     -14.418597      -392.3500
  16   2.0000     -14.418017      -392.3342
  17   2.0000     -10.478268      -285.1282
  18   2.0000     -10.459038      -284.6049
  19   2.0000     -10.369658      -282.1727
  20   2.0000     -10.369328      -282.1638
  21   2.0000     -10.350497      -281.6514
  22   2.0000     -10.350013      -281.6382
  23   2.0000     -10.348839      -281.6062
  24   2.0000     -10.340450      -281.3779
  25   2.0000     -10.335787      -281.2511
  26   2.0000     -10.333081      -281.1774
  27   2.0000     -10.332785      -281.1694
  28   2.0000     -10.330059      -281.0952
  29   2.0000     -10.327254      -281.0189
  30   2.0000     -10.326880      -281.0087
  31   2.0000     -10.325445      -280.9697
  32   2.0000     -10.323360      -280.9129
  33   2.0000     -10.322815      -280.8981
  34   2.0000     -10.320572      -280.8371
  35   2.0000     -10.320333      -280.8305
  36   2.0000     -10.320256      -280.8284
  37   2.0000     -10.319855      -280.8175
  38   2.0000     -10.319513      -280.8082
  39   2.0000     -10.319440      -280.8062
  40   2.0000     -10.319354      -280.8039
  41   2.0000     -10.319250      -280.8011
  42   2.0000     -10.318150      -280.7711
  43   2.0000     -10.315216      -280.6913
  44   2.0000     -10.315191      -280.6906
  45   2.0000     -10.314411      -280.6694
  46   2.0000     -10.314230      -280.6645
  47   2.0000     -10.313703      -280.6501
  48   2.0000     -10.313482      -280.6441
  49   2.0000     -10.312983      -280.6305
  50   2.0000     -10.309919      -280.5471
  51   2.0000     -10.306587      -280.4565
  52   2.0000     -10.305396      -280.4241
  53   2.0000     -10.305268      -280.4206
  54   2.0000     -10.298758      -280.2434
  55   2.0000     -10.297079      -280.1978
  56   2.0000     -10.296615      -280.1851
  57   2.0000     -10.296338      -280.1776
  58   2.0000     -10.292660      -280.0775
  59   2.0000     -10.290208      -280.0108
  60   2.0000     -10.283895      -279.8390
  61   2.0000     -10.280825      -279.7555
  62   2.0000     -10.277639      -279.6688
  63   2.0000     -10.275671      -279.6152
  64   2.0000      -8.089607      -220.1294
  65   2.0000      -8.085118      -220.0073
  66   2.0000      -8.066349      -219.4965
  67   2.0000      -6.058561      -164.8618
  68   2.0000      -6.054742      -164.7579
  69   2.0000      -6.054574      -164.7533
  70   2.0000      -6.052275      -164.6908
  71   2.0000      -6.050528      -164.6432
  72   2.0000      -6.046625      -164.5370
  73   2.0000      -6.036056      -164.2494
  74   2.0000      -6.031769      -164.1328
  75   2.0000      -6.027799      -164.0248
  76   2.0000      -1.309575       -35.6353
  77   2.0000      -1.299472       -35.3604
  78   2.0000      -1.298854       -35.3436
  79   2.0000      -1.279307       -34.8117
  80   2.0000      -1.184111       -32.2213
  81   2.0000      -1.164630       -31.6912
  82   2.0000      -1.157881       -31.5076
  83   2.0000      -1.138869       -30.9902
  84   2.0000      -1.127058       -30.6688
  85   2.0000      -1.116174       -30.3726
  86   2.0000      -1.027362       -27.9559
  87   2.0000      -1.025326       -27.9005
  88   2.0000      -1.017044       -27.6752
  89   2.0000      -1.014257       -27.5993
  90   2.0000      -1.010255       -27.4904
  91   2.0000      -0.997133       -27.1334
  92   2.0000      -0.995327       -27.0842
  93   2.0000      -0.991671       -26.9847
  94   2.0000      -0.984005       -26.7761
  95   2.0000      -0.963490       -26.2179
  96   2.0000      -0.943638       -25.6777
  97   2.0000      -0.929524       -25.2936
  98   2.0000      -0.913281       -24.8516
  99   2.0000      -0.902178       -24.5495
 100   2.0000      -0.886502       -24.1229
 101   2.0000      -0.880892       -23.9703
 102   2.0000      -0.874717       -23.8023
 103   2.0000      -0.872875       -23.7521
 104   2.0000      -0.866197       -23.5704
 105   2.0000      -0.862759       -23.4769
 106   2.0000      -0.861295       -23.4370
 107   2.0000      -0.855766       -23.2866
 108   2.0000      -0.842413       -22.9232
 109   2.0000      -0.841720       -22.9044
 110   2.0000      -0.831734       -22.6326
 111   2.0000      -0.816465       -22.2171
 112   2.0000      -0.804767       -21.8988
 113   2.0000      -0.793108       -21.5816
 114   2.0000      -0.785613       -21.3776
 115   2.0000      -0.772190       -21.0124
 116   2.0000      -0.760983       -20.7074
 117   2.0000      -0.753656       -20.5080
 118   2.0000      -0.747471       -20.3397
 119   2.0000      -0.734129       -19.9767
 120   2.0000      -0.733853       -19.9692
 121   2.0000      -0.729873       -19.8609
 122   2.0000      -0.726495       -19.7689
 123   2.0000      -0.724364       -19.7109
 124   2.0000      -0.721975       -19.6459
 125   2.0000      -0.710935       -19.3455
 126   2.0000      -0.700776       -19.0691
 127   2.0000      -0.699264       -19.0279
 128   2.0000      -0.684768       -18.6335
 129   2.0000      -0.677067       -18.4239
 130   2.0000      -0.670220       -18.2376
 131   2.0000      -0.663615       -18.0579
 132   2.0000      -0.658940       -17.9307
 133   2.0000      -0.651022       -17.7152
 134   2.0000      -0.645745       -17.5716
 135   2.0000      -0.640832       -17.4379
 136   2.0000      -0.635166       -17.2837
 137   2.0000      -0.633291       -17.2327
 138   2.0000      -0.628721       -17.1084
 139   2.0000      -0.625363       -17.0170
 140   2.0000      -0.620573       -16.8866
 141   2.0000      -0.617602       -16.8058
 142   2.0000      -0.614476       -16.7207
 143   2.0000      -0.612778       -16.6745
 144   2.0000      -0.610399       -16.6098
 145   2.0000      -0.606943       -16.5158
 146   2.0000      -0.602481       -16.3944
 147   2.0000      -0.596019       -16.2185
 148   2.0000      -0.587819       -15.9954
 149   2.0000      -0.577922       -15.7261
 150   2.0000      -0.575270       -15.6539
 151   2.0000      -0.571958       -15.5638
 152   2.0000      -0.565810       -15.3965
 153   2.0000      -0.561175       -15.2703
 154   2.0000      -0.555317       -15.1109
 155   2.0000      -0.552163       -15.0251
 156   2.0000      -0.549862       -14.9625
 157   2.0000      -0.542657       -14.7665
 158   2.0000      -0.539571       -14.6825
 159   2.0000      -0.536205       -14.5909
 160   2.0000      -0.535359       -14.5679
 161   2.0000      -0.531887       -14.4734
 162   2.0000      -0.531089       -14.4517
 163   2.0000      -0.530007       -14.4222
 164   2.0000      -0.526779       -14.3344
 165   2.0000      -0.523089       -14.2340
 166   2.0000      -0.521062       -14.1788
 167   2.0000      -0.518036       -14.0965
 168   2.0000      -0.516232       -14.0474
 169   2.0000      -0.511598       -13.9213
 170   2.0000      -0.511020       -13.9056
 171   2.0000      -0.509561       -13.8659
 172   2.0000      -0.508049       -13.8247
 173   2.0000      -0.507377       -13.8064
 174   2.0000      -0.505290       -13.7496
 175   2.0000      -0.502943       -13.6858
 176   2.0000      -0.499310       -13.5869
 177   2.0000      -0.497433       -13.5358
 178   2.0000      -0.491877       -13.3847
 179   2.0000      -0.490662       -13.3516
 180   2.0000      -0.490367       -13.3436
 181   2.0000      -0.488224       -13.2853
 182   2.0000      -0.486419       -13.2361
 183   2.0000      -0.481348       -13.0982
 184   2.0000      -0.478578       -13.0228
 185   2.0000      -0.475133       -12.9290
 186   2.0000      -0.473556       -12.8861
 187   2.0000      -0.472292       -12.8517
 188   2.0000      -0.468632       -12.7521
 189   2.0000      -0.464215       -12.6319
 190   2.0000      -0.460190       -12.5224
 191   2.0000      -0.456682       -12.4270
 192   2.0000      -0.455224       -12.3873
 193   2.0000      -0.453463       -12.3394
 194   2.0000      -0.453382       -12.3371
 195   2.0000      -0.448934       -12.2161
 196   2.0000      -0.447863       -12.1870
 197   2.0000      -0.446399       -12.1471
 198   2.0000      -0.442790       -12.0489
 199   2.0000      -0.440204       -11.9786
 200   2.0000      -0.439668       -11.9640
 201   2.0000      -0.436109       -11.8671
 202   2.0000      -0.432504       -11.7690
 203   2.0000      -0.429483       -11.6868
 204   2.0000      -0.425586       -11.5808
 205   2.0000      -0.415517       -11.3068
 206   2.0000      -0.410068       -11.1585
 207   2.0000      -0.406877       -11.0717
 208   2.0000      -0.406074       -11.0498
 209   2.0000      -0.387958       -10.5569
 210   2.0000      -0.385419       -10.4878
 211   2.0000      -0.378936       -10.3114
 212   2.0000      -0.371359       -10.1052
 213   2.0000      -0.369597       -10.0573
 214   2.0000      -0.368409       -10.0249
 215   2.0000      -0.362070        -9.8524
 216   2.0000      -0.358678        -9.7601
 217   2.0000      -0.350212        -9.5298
 218   2.0000      -0.347539        -9.4570
 219   2.0000      -0.338594        -9.2136
 220   2.0000      -0.337131        -9.1738
 221   2.0000      -0.333771        -9.0824
 222   2.0000      -0.332027        -9.0349
 223   2.0000      -0.327348        -8.9076
 224   2.0000      -0.321433        -8.7466
 225   2.0000      -0.308356        -8.3908
 226   2.0000      -0.299513        -8.1502
 227   2.0000      -0.285777        -7.7764
 228   2.0000      -0.277811        -7.5596
 229   2.0000      -0.238381        -6.4867
 230   0.0000      -0.149516        -4.0685
 231   0.0000      -0.121779        -3.3138
 232   0.0000      -0.082359        -2.2411
 233   0.0000      -0.046415        -1.2630
 234   0.0000      -0.038962        -1.0602

MULLIKEN ATOMIC CHARGES
-----------------------
   0 C :   -0.192302
   1 S :    0.154507
   2 C :   -0.338432
   3 C :    0.255143
   4 C :    0.219443
   5 O :   -0.209128
   6 C :    0.297120
   7 O :   -0.123621
   8 O :   -0.195785
   9 C :    0.091435
  10 C :    0.077423
  11 N :    0.266090
  12 O :   -0.246161
  13 O :   -0.246722
  14 C :   -0.001175
  15 C :   -0.011693
  16 C :   -0.004537
  17 C :    0.023376
  18 C :    0.001220
  19 C :    0.019006
  20 C :    0.067198
  21 N :    0.279808
  22 O :   -0.263857
  23 O :   -0.285473
  24 C :    0.055699
  25 C :   -0.087383
  26 C :    0.053639
  27 C :   -0.120935
  28 S :    0.177825
  29 C :   -0.050191
  30 C :    0.097962
  31 C :    0.153060
  32 C :   -0.086877
  33 C :   -0.039735
  34 C :    0.084076
  35 C :    0.005453
  36 C :   -0.029188
  37 C :   -0.015076
  38 C :    0.007677
  39 C :    0.113368
  40 C :   -0.105393
  41 C :    0.118580
  42 C :   -0.092790
  43 C :   -0.015345
  44 C :   -0.177780
  45 N :    0.141122
  46 C :    0.127737
  47 C :   -0.116433
  48 C :    0.120942
  49 C :   -0.009893
  50 C :   -0.095839
  51 C :   -0.173770
  52 N :    0.137023
  53 C :   -0.013677
  54 C :    0.079352
  55 C :   -0.188525
  56 S :    0.143023
  57 C :   -0.178634
  58 C :    0.234864
  59 C :    0.161589
  60 O :   -0.214370
  61 C :    0.296601
  62 O :   -0.116396
  63 O :   -0.202494
  64 H :    0.041974
  65 H :   -0.004327
  66 H :   -0.001432
  67 H :   -0.003918
  68 H :    0.004761
  69 H :    0.029844
  70 H :    0.020859
  71 H :   -0.013873
  72 H :    0.031840
  73 H :    0.038220
  74 H :    0.035880
  75 H :   -0.016729
  76 H :   -0.021094
  77 H :   -0.008226
  78 H :    0.006764
  79 H :    0.004203
  80 H :   -0.003705
  81 H :    0.005126
  82 H :   -0.000587
  83 H :    0.013570
  84 H :   -0.018461
  85 H :    0.047565
Sum of atomic charges:   -0.0000000

LOEWDIN ATOMIC CHARGES
----------------------
   0 C :   -0.201626
   1 S :    0.460334
   2 C :   -0.200818
   3 C :    0.002591
   4 C :   -0.011493
   5 O :   -0.033710
   6 C :    0.111146
   7 O :   -0.118061
   8 O :   -0.017393
   9 C :   -0.029335
  10 C :   -0.033891
  11 N :    0.283588
  12 O :   -0.208233
  13 O :   -0.210240
  14 C :   -0.015788
  15 C :   -0.043152
  16 C :    0.000948
  17 C :    0.046131
  18 C :   -0.066606
  19 C :    0.040672
  20 C :   -0.086959
  21 N :    0.287260
  22 O :   -0.228255
  23 O :   -0.252041
  24 C :    0.017330
  25 C :   -0.021669
  26 C :   -0.001446
  27 C :   -0.166035
  28 S :    0.491738
  29 C :   -0.133596
  30 C :   -0.044641
  31 C :   -0.019378
  32 C :   -0.019621
  33 C :    0.003084
  34 C :   -0.041752
  35 C :   -0.013171
  36 C :   -0.003197
  37 C :   -0.038071
  38 C :    0.010483
  39 C :   -0.023802
  40 C :   -0.014568
  41 C :    0.024233
  42 C :   -0.072063
  43 C :    0.044791
  44 C :   -0.031864
  45 N :   -0.056336
  46 C :    0.042432
  47 C :   -0.033088
  48 C :   -0.006693
  49 C :    0.051135
  50 C :   -0.075121
  51 C :   -0.030863
  52 N :   -0.059089
  53 C :   -0.008448
  54 C :   -0.019327
  55 C :   -0.196069
  56 S :    0.457864
  57 C :   -0.195138
  58 C :   -0.009833
  59 C :   -0.002406
  60 O :   -0.029810
  61 C :    0.110049
  62 O :   -0.111703
  63 O :   -0.028387
  64 H :    0.035407
  65 H :    0.035112
  66 H :    0.028948
  67 H :    0.026912
  68 H :    0.039585
  69 H :    0.035595
  70 H :    0.037484
  71 H :    0.035264
  72 H :    0.039363
  73 H :    0.042007
  74 H :    0.039484
  75 H :    0.032557
  76 H :    0.030341
  77 H :    0.034579
  78 H :    0.033621
  79 H :    0.036137
  80 H :    0.034099
  81 H :    0.036576
  82 H :    0.035285
  83 H :    0.041300
  84 H :    0.031293
  85 H :    0.038027

  Mayer bond orders larger than 0.100000
B(  0-C ,  1-S ) :   1.1242 B(  0-C ,  2-C ) :   0.1102 B(  0-C ,  4-C ) :   1.5393
B(  0-C , 64-H ) :   0.9883 B(  1-S ,  2-C ) :   1.1236 B(  2-C ,  3-C ) :   1.5504
B(  2-C ,  9-C ) :   1.0159 B(  3-C ,  4-C ) :   1.2110 B(  3-C ,  8-O ) :   1.1083
B(  4-C ,  5-O ) :   1.0768 B(  5-O ,  6-C ) :   1.0618 B(  6-C ,  7-O ) :   2.2642
B(  6-C ,  8-O ) :   1.0656 B(  9-C , 10-C ) :   1.5647 B(  9-C , 16-C ) :   1.1158
B( 10-C , 11-N ) :   0.9381 B( 10-C , 14-C ) :   1.1383 B( 11-N , 12-O ) :   1.5139
B( 11-N , 13-O ) :   1.5293 B( 12-O , 13-O ) :   0.2661 B( 14-C , 15-C ) :   1.5744
B( 14-C , 65-H ) :   1.0152 B( 15-C , 16-C ) :   1.1217 B( 15-C , 66-H ) :   1.0012
B( 16-C , 17-C ) :   1.4074 B( 17-C , 18-C ) :   1.2273 B( 17-C , 24-C ) :   0.9853
B( 18-C , 19-C ) :   1.4679 B( 18-C , 67-H ) :   1.0041 B( 19-C , 20-C ) :   1.1915
B( 19-C , 68-H ) :   1.0116 B( 20-C , 21-N ) :   0.9915 B( 20-C , 24-C ) :   1.3439
B( 21-N , 22-O ) :   1.5223 B( 21-N , 23-O ) :   1.4621 B( 22-O , 23-O ) :   0.2339
B( 24-C , 25-C ) :   1.3700 B( 25-C , 26-C ) :   1.3579 B( 25-C , 69-H ) :   0.9433
B( 26-C , 27-C ) :   1.3410 B( 26-C , 70-H ) :   0.9352 B( 27-C , 28-S ) :   1.1085
B( 27-C , 31-C ) :   1.2013 B( 28-S , 29-C ) :   1.1687 B( 29-C , 30-C ) :   1.2252
B( 29-C , 37-C ) :   1.2483 B( 30-C , 31-C ) :   1.2485 B( 30-C , 36-C ) :   1.2428
B( 31-C , 32-C ) :   1.2448 B( 32-C , 33-C ) :   1.4801 B( 32-C , 71-H ) :   0.9932
B( 33-C , 34-C ) :   1.0504 B( 33-C , 35-C ) :   1.2600 B( 34-C , 72-H ) :   0.9544
B( 34-C , 73-H ) :   0.9513 B( 34-C , 74-H ) :   0.9613 B( 35-C , 36-C ) :   1.5059
B( 35-C , 75-H ) :   0.9909 B( 36-C , 76-H ) :   0.9917 B( 37-C , 38-C ) :   1.5270
B( 37-C , 77-H ) :   0.9698 B( 38-C , 39-C ) :   1.1796 B( 38-C , 78-H ) :   0.9741
B( 39-C , 40-C ) :   1.4519 B( 39-C , 43-C ) :   1.0462 B( 40-C , 41-C ) :   1.1521
B( 40-C , 79-H ) :   1.0069 B( 41-C , 42-C ) :   1.1100 B( 41-C , 46-C ) :   1.3641
B( 42-C , 43-C ) :   1.6835 B( 42-C , 44-C ) :   1.0864 B( 43-C , 80-H ) :   1.0154
B( 44-C , 45-N ) :   2.9712 B( 46-C , 47-C ) :   1.1429 B( 46-C , 50-C ) :   1.1027
B( 47-C , 48-C ) :   1.4952 B( 47-C , 81-H ) :   1.0092 B( 48-C , 49-C ) :   1.0371
B( 48-C , 53-C ) :   1.1347 B( 49-C , 50-C ) :   1.6838 B( 49-C , 82-H ) :   1.0158
B( 50-C , 51-C ) :   1.0902 B( 51-C , 52-N ) :   2.9636 B( 53-C , 54-C ) :   1.6309
B( 53-C , 83-H ) :   0.9774 B( 54-C , 55-C ) :   1.1363 B( 54-C , 84-H ) :   0.9596
B( 55-C , 56-S ) :   1.1052 B( 55-C , 59-C ) :   1.4922 B( 56-S , 57-C ) :   1.1285
B( 57-C , 58-C ) :   1.5343 B( 57-C , 85-H ) :   0.9901 B( 58-C , 59-C ) :   1.2436
B( 58-C , 63-O ) :   1.0727 B( 59-C , 60-O ) :   1.0781 B( 60-O , 61-C ) :   1.0507
B( 61-C , 62-O ) :   2.2700 B( 61-C , 63-O ) :   1.0711

-----------------------------------------------------------------------------
         ABSORPTION SPECTRUM VIA TRANSITION ELECTRIC DIPOLE MOMENTS
-----------------------------------------------------------------------------
State   Energy  Wavelength   fosc         T2         TX        TY        TZ
        (cm-1)    (nm)                  (au**2)     (au)      (au)      (au)
-----------------------------------------------------------------------------
   0    5722.3   1747.6   0.436893782  25.13525  -1.84211   3.95893  -2.46348
   1   11338.3    882.0   0.580247273  16.84765   0.92467  -0.77471   3.92332
   2   13249.9    754.7   0.065337301   1.62340  -0.05478   0.63721  -1.10198
   3   14354.7    696.6   0.159603130   3.66035   0.62286  -0.51472   1.73420
   4   17414.4    574.2   0.040067262   0.75746   0.30158  -0.65693   0.48471
   5   18401.0    543.4   0.300921697   5.38377  -1.04121   1.72482  -1.15093
   6   19643.0    509.1   0.048342546   0.81021   0.43236   0.10234   0.78282
   7   20975.5    476.7   0.114397093   1.79547  -0.68465   0.95226  -0.64802
   8   22171.8    451.0   0.013678255   0.20310  -0.44729  -0.02718  -0.04786
   9   23120.7    432.5   0.237783657   3.38576  -0.47578   0.73669  -1.61762
  10   23892.4    418.5   0.267384306   3.68427   0.17701   0.00029   1.91126
  11   24354.8    410.6   0.020256479   0.27381   0.42050  -0.31003  -0.02957
  12   25593.9    390.7   0.041203418   0.53000   0.26658   0.50108   0.45591
  13   25801.1    387.6   0.039331736   0.50186   0.22001  -0.63351   0.22830
  14   26155.0    382.3   0.304843797   3.83706   0.26598   0.35135   1.90863
  15   26410.4    378.6   0.087209392   1.08709  -0.53459   0.14895  -0.88268
  16   27053.2    369.6   0.014286855   0.17386   0.07640  -0.15093  -0.38110
  17   27464.3    364.1   0.060101416   0.72043  -0.54681  -0.21870  -0.61123
  18   27721.9    360.7   0.018242704   0.21664  -0.36463   0.03066  -0.28765
  19   27947.5    357.8   0.117717169   1.38667   0.22127   0.11005   1.15135
  20   28516.7    350.7   0.013072299   0.15091   0.31177  -0.05783  -0.22444
  21   28966.5    345.2   0.002923947   0.03323   0.03588   0.16608  -0.06605
  22   29757.1    336.1   0.053448600   0.59132  -0.71559   0.12871  -0.25037
  23   30257.1    330.5   0.011018918   0.11989  -0.24734  -0.17597  -0.16658
  24   30909.8    323.5   0.025455747   0.27112  -0.36542  -0.31754  -0.19173
  25   31111.1    321.4   0.022990310   0.24328  -0.23849   0.09177   0.42188
  26   31457.3    317.9   0.054616727   0.57158   0.58387   0.22944   0.42195
  27   31759.2    314.9   0.550238469   5.70370  -0.98935   1.20089  -1.81184
  28   31989.7    312.6   0.007942503   0.08174   0.15936  -0.23732  -0.00487
  29   32226.6    310.3   0.022911902   0.23406  -0.28824   0.38142  -0.07411
  30   32613.5    306.6   0.076305079   0.77025   0.09356  -0.83180  -0.26383
  31   33195.3    301.2   0.007839489   0.07775   0.06122   0.15257   0.22521
  32   33505.3    298.5   0.140576262   1.38126   0.69098   0.09635   0.94579
  33   33626.9    297.4   0.003202088   0.03135   0.00940   0.17111   0.04452
  34   33776.7    296.1   0.039497183   0.38497  -0.49875  -0.06664  -0.36301
  35   33982.5    294.3   0.141437600   1.37020   0.11556   0.02389   1.16459
  36   34342.8    291.2   0.050610251   0.48515  -0.30781   0.25047  -0.57243
  37   34948.4    286.1   0.002377146   0.02239   0.14384   0.03443   0.02273
  38   35178.1    284.3   0.077102927   0.72156   0.74352  -0.14145   0.38566
  39   35665.4    280.4   0.263475733   2.43203   1.03115  -0.50443   1.05561
  40   35897.3    278.6   0.131918691   1.20982  -0.14682  -0.93379   0.56241
  41   36381.1    274.9   0.083864700   0.75889   0.50042  -0.23638   0.67275
  42   36685.8    272.6   0.240488882   2.15811   0.06975   0.88510   1.17040
  43   36746.2    272.1   0.002770958   0.02483  -0.03050  -0.05796  -0.14330
  44   36822.5    271.6   0.000860712   0.00770   0.03998  -0.07807   0.00159
  45   36828.5    271.5   0.008967001   0.08016  -0.08817  -0.05261  -0.26385
  46   36971.1    270.5   0.004182644   0.03724   0.12418  -0.13504   0.05991
  47   37232.6    268.6   0.210654245   1.86261   0.41573  -0.14789   1.29147
  48   37735.1    265.0   0.010308614   0.08994  -0.01915  -0.23121  -0.19002
  49   37987.8    263.2   0.022982235   0.19917   0.29854  -0.27045  -0.19209
  50   38267.3    261.3   0.013092458   0.11263   0.29711  -0.15530   0.01551
  51   39139.7    255.5   0.044469402   0.37404  -0.07291   0.45451   0.40267
  52   39397.5    253.8   0.043466493   0.36321  -0.35747  -0.07102  -0.47999
  53   39590.4    252.6   0.015372061   0.12783  -0.12778   0.24213   0.22994
  54   39728.1    251.7   0.004521371   0.03747  -0.12534   0.14657  -0.01653
  55   40127.1    249.2   0.022539461   0.18492   0.29257   0.09980   0.29894

FINAL SINGLE POINT ENERGY     -3965.897711910856

DIPOLE MOMENT
-------------
                                X             Y             Z
Electronic contribution:     -4.06322      12.78416      37.28218
Nuclear contribution   :      5.01218     -16.50204     -36.17049
                        -----------------------------------------
Total Dipole Moment    :      0.94896      -3.71788       1.11169
                        -----------------------------------------
Magnitude (a.u.)       :      3.99488
Magnitude (Debye)      :     10.15417

Rotational constants in cm-1:     0.001585     0.000301     0.000260
Rotational constants in MHz :    47.531306     9.036218     7.789604

                             ****ORCA TERMINATED NORMALLY****
TOTAL RUN TIME: 0 days 0 hours 8 minutes 48 seconds 317 msec
