                         Program Version 4.2.0 -  RELEASE  -
|  1> # ORCA input file
|  2> # SCF done       -220.196783861995          0.000250654015
|  3> ! CAM-B3LYP def2-SVP def2/J RIJCOSX Grid4 TightSCF
|  4> %maxcore 5000
|  5> %tddft
|  6>     Mode sTDDFT
|  7>     Ethresh 5.0
|  8>     maxcore 5000
|  9> end
| 10>
| 11> %pal
| 12>   nprocs 6
| 13>   end
| 14> * xyz 0 1
| 15>    C       -6.25514         1.57726         6.44498
| 16>    C       -7.33121         2.40245         6.61577
| 17>    F       -7.27737         3.40352         7.50184
| 18>    C       -8.50904         2.21170         5.86414
| 19>    F       -9.54694         3.03496         6.05362
| 20>    C       -8.59393         1.19749         4.95176
| 21>    C       -7.50231         0.32988         4.75363
| 22>    C       -6.31020         0.52235         5.51163
| 23>    C       -5.20117        -0.33427         5.32752
| 24>    C       -5.27942        -1.34968         4.40981
| 25>    C       -6.47581        -1.53693         3.66152
| 26>    C       -7.56520        -0.72949         3.82194
| 27>    C       -6.32410        -2.69599         2.76545
| 28>    O       -7.17933        -3.20920         2.08323
| 29>    C       -4.93768        -3.19951         3.00000
| 30>    C       -4.31038        -2.36310         4.00657
| 31>    C       -3.01478        -2.45524         4.44037
| 32>    C       -2.08140        -3.40808         3.97889
| 33>    N       -1.27497        -4.14952         3.63651
| 34>    C       -2.43840        -1.59234         5.39727
| 35>    N       -1.92001        -0.92620         6.17444
| 36>    C       -4.46461        -4.36523         2.48167
| 37>    C       -5.02503        -5.03209         1.35849
| 38>    O       -4.89449        -6.37479         1.25652
| 39>    C       -5.43272        -6.78795         0.08772
| 40>    C       -5.90469        -5.67399        -0.60459
| 41>    C       -5.64543        -4.55918         0.20469
| 42>    F       -5.85572        -3.29488        -0.11475
| 43>    F       -6.54747        -5.67069        -1.75547
| 44>    C       -5.50316        -8.16698        -0.25244
| 45>    N       -5.43037        -9.18177         0.66433
| 46>    C       -5.23434        -9.06002         2.08323
| 47>    C       -5.64223       -10.44123         0.06255
| 48>    O       -5.64760       -11.48064         0.68431
| 49>    C       -5.81776       -10.13770        -1.34070
| 50>    C       -5.71280        -8.73725        -1.50756
| 51>    C       -5.78486        -8.44686        -2.93280
| 52>    O       -5.64473        -7.43439        -3.57281
| 53>    N       -6.01476        -9.70961        -3.51922
| 54>    C       -6.17815        -9.85545        -4.94040
| 55>    C       -6.03370       -10.72235        -2.59606
| 56>    C       -6.27304       -12.07075        -2.93262
| 57>    C       -6.29096       -13.06569        -1.99852
| 58>    C       -6.58526       -14.42411        -2.26643
| 59>    C       -6.61059       -15.34957        -1.18426
| 60>    C       -7.00748       -16.71760        -1.35286
| 61>    N       -7.00007       -17.55398        -0.30002
| 62>    C       -6.66028       -17.09404         0.87617
| 63>    C       -6.30243       -15.71477         1.05239
| 64>    N       -6.27067       -14.89927         0.03087
| 65>    C       -5.95353       -15.23143         2.33980
| 66>    N       -5.68138       -14.88795         3.39749
| 67>    C       -6.62536       -17.97971         1.98449
| 68>    N       -6.58687       -18.66141         2.90345
| 69>    C       -7.46552       -17.21580        -2.59698
| 70>    C       -7.36149       -16.32774        -3.68794
| 71>    C       -6.91702       -14.96056        -3.53257
| 72>    N       -6.89743       -14.32164        -4.70381
| 73>    S       -7.36800       -15.31998        -5.86662
| 74>    N       -7.63175       -16.61750        -4.96265
| 75>    C       -7.94963       -18.55078        -2.68343
| 76>    C       -8.81340       -19.10302        -3.57649
| 77>    C       -8.85784       -20.58916        -3.72019
| 78>    O       -8.35647       -21.40210        -2.98242
| 79>    C       -9.59157       -20.83236        -4.97897
| 80>    C       -9.81650       -22.01333        -5.62556
| 81>    C      -10.53560       -22.00424        -6.84202
| 82>    C      -11.00085       -20.76459        -7.37006
| 83>    C      -11.71085       -20.76163        -8.58759
| 84>    C      -11.95158       -21.93391        -9.24748
| 85>    C      -11.49364       -23.15962        -8.72292
| 86>    C      -10.80022       -23.19538        -7.54553
| 87>    F      -11.74381       -24.29245        -9.39153
| 88>    F      -12.62712       -21.92874       -10.40339
| 89>    C      -10.75774       -19.55809        -6.67486
| 90>    C      -10.06991       -19.59229        -5.49122
| 91>    C       -9.71452       -18.53273        -4.55232
| 92>    C      -10.30928       -17.29950        -4.49239
| 93>    C      -10.12884       -16.38795        -3.43444
| 94>    N      -10.02249       -15.61290        -2.59370
| 95>    C      -11.20453       -16.80746        -5.46355
| 96>    N      -11.90688       -16.33837        -6.24094
| 97>    H       -5.36159         1.73859         7.02755
| 98>    H       -9.50176         1.06427         4.38456
| 99>    H       -4.31735        -0.16738         5.92172
|100>    H       -8.45964        -0.89550         3.24121
|101>    H       -3.62019        -4.86839         2.93426
|102>    H       -5.99294        -8.41601         2.52932
|103>    H       -4.24594        -8.65768         2.30687
|104>    H       -5.31919       -10.06473         2.49843
|105>    H       -6.07699        -8.86004        -5.37317
|106>    H       -7.16525       -10.25386        -5.18082
|107>    H       -5.41032       -10.50927        -5.35713
|108>    H       -6.46917       -12.31116        -3.96723
|109>    H       -6.08859       -12.83617        -0.95984
|110>    H       -7.54302       -19.23392        -1.94321
|111>    H       -9.45258       -22.94248        -5.21421
|112>    H      -12.07225       -19.83300        -9.00096
|113>    H      -10.45671       -24.14147        -7.15751
|114>    H      -11.11553       -18.63413        -7.10028
|115> *
|116>
|117>                          ****END OF INPUT****

CARTESIAN COORDINATES (ANGSTROEM)
---------------------------------
  C     -6.255140    1.577260    6.444980
  C     -7.331210    2.402450    6.615770
  F     -7.277370    3.403520    7.501840
  C     -8.509040    2.211700    5.864140
  F     -9.546940    3.034960    6.053620
  C     -8.593930    1.197490    4.951760
  C     -7.502310    0.329880    4.753630
  C     -6.310200    0.522350    5.511630
  C     -5.201170   -0.334270    5.327520
  C     -5.279420   -1.349680    4.409810
  C     -6.475810   -1.536930    3.661520
  C     -7.565200   -0.729490    3.821940
  C     -6.324100   -2.695990    2.765450
  O     -7.179330   -3.209200    2.083230
  C     -4.937680   -3.199510    3.000000
  C     -4.310380   -2.363100    4.006570
  C     -3.014780   -2.455240    4.440370
  C     -2.081400   -3.408080    3.978890
  N     -1.274970   -4.149520    3.636510
  C     -2.438400   -1.592340    5.397270
  N     -1.920010   -0.926200    6.174440
  C     -4.464610   -4.365230    2.481670
  C     -5.025030   -5.032090    1.358490
  O     -4.894490   -6.374790    1.256520
  C     -5.432720   -6.787950    0.087720
  C     -5.904690   -5.673990   -0.604590
  C     -5.645430   -4.559180    0.204690
  F     -5.855720   -3.294880   -0.114750
  F     -6.547470   -5.670690   -1.755470
  C     -5.503160   -8.166980   -0.252440
  N     -5.430370   -9.181770    0.664330
  C     -5.234340   -9.060020    2.083230
  C     -5.642230  -10.441230    0.062550
  O     -5.647600  -11.480640    0.684310
  C     -5.817760  -10.137700   -1.340700
  C     -5.712800   -8.737250   -1.507560
  C     -5.784860   -8.446860   -2.932800
  O     -5.644730   -7.434390   -3.572810
  N     -6.014760   -9.709610   -3.519220
  C     -6.178150   -9.855450   -4.940400
  C     -6.033700  -10.722350   -2.596060
  C     -6.273040  -12.070750   -2.932620
  C     -6.290960  -13.065690   -1.998520
  C     -6.585260  -14.424110   -2.266430
  C     -6.610590  -15.349570   -1.184260
  C     -7.007480  -16.717600   -1.352860
  N     -7.000070  -17.553980   -0.300020
  C     -6.660280  -17.094040    0.876170
  C     -6.302430  -15.714770    1.052390
  N     -6.270670  -14.899270    0.030870
  C     -5.953530  -15.231430    2.339800
  N     -5.681380  -14.887950    3.397490
  C     -6.625360  -17.979710    1.984490
  N     -6.586870  -18.661410    2.903450
  C     -7.465520  -17.215800   -2.596980
  C     -7.361490  -16.327740   -3.687940
  C     -6.917020  -14.960560   -3.532570
  N     -6.897430  -14.321640   -4.703810
  S     -7.368000  -15.319980   -5.866620
  N     -7.631750  -16.617500   -4.962650
  C     -7.949630  -18.550780   -2.683430
  C     -8.813400  -19.103020   -3.576490
  C     -8.857840  -20.589160   -3.720190
  O     -8.356470  -21.402100   -2.982420
  C     -9.591570  -20.832360   -4.978970
  C     -9.816500  -22.013330   -5.625560
  C    -10.535600  -22.004240   -6.842020
  C    -11.000850  -20.764590   -7.370060
  C    -11.710850  -20.761630   -8.587590
  C    -11.951580  -21.933910   -9.247480
  C    -11.493640  -23.159620   -8.722920
  C    -10.800220  -23.195380   -7.545530
  F    -11.743810  -24.292450   -9.391530
  F    -12.627120  -21.928740  -10.403390
  C    -10.757740  -19.558090   -6.674860
  C    -10.069910  -19.592290   -5.491220
  C     -9.714520  -18.532730   -4.552320
  C    -10.309280  -17.299500   -4.492390
  C    -10.128840  -16.387950   -3.434440
  N    -10.022490  -15.612900   -2.593700
  C    -11.204530  -16.807460   -5.463550
  N    -11.906880  -16.338370   -6.240940
  H     -5.361590    1.738590    7.027550
  H     -9.501760    1.064270    4.384560
  H     -4.317350   -0.167380    5.921720
  H     -8.459640   -0.895500    3.241210
  H     -3.620190   -4.868390    2.934260
  H     -5.992940   -8.416010    2.529320
  H     -4.245940   -8.657680    2.306870
  H     -5.319190  -10.064730    2.498430
  H     -6.076990   -8.860040   -5.373170
  H     -7.165250  -10.253860   -5.180820
  H     -5.410320  -10.509270   -5.357130
  H     -6.469170  -12.311160   -3.967230
  H     -6.088590  -12.836170   -0.959840
  H     -7.543020  -19.233920   -1.943210
  H     -9.452580  -22.942480   -5.214210
  H    -12.072250  -19.833000   -9.000960
  H    -10.456710  -24.141470   -7.157510
  H    -11.115530  -18.634130   -7.100280

 Total Charge           Charge          ....    0
 Multiplicity           Mult            ....    1
 Number of Electrons    NEL             ....  560
 Basis Dimension        Dim             .... 1242

ORBITAL ENERGIES
----------------

  NO   OCC          E(Eh)            E(eV)
   0   2.0000     -89.060831     -2423.4684
   1   2.0000     -24.824223      -675.5015
   2   2.0000     -24.819492      -675.3727
   3   2.0000     -24.805127      -674.9818
   4   2.0000     -24.804078      -674.9533
   5   2.0000     -24.802336      -674.9059
   6   2.0000     -24.802046      -674.8980
   7   2.0000     -19.336373      -526.1695
   8   2.0000     -19.230687      -523.2936
   9   2.0000     -19.222558      -523.0724
  10   2.0000     -19.208904      -522.7009
  11   2.0000     -19.201839      -522.5086
  12   2.0000     -14.474819      -393.8798
  13   2.0000     -14.471311      -393.7844
  14   2.0000     -14.469978      -393.7481
  15   2.0000     -14.468408      -393.7054
  16   2.0000     -14.467446      -393.6792
  17   2.0000     -14.465786      -393.6341
  18   2.0000     -14.435633      -392.8135
  19   2.0000     -14.429990      -392.6600
  20   2.0000     -14.428629      -392.6230
  21   2.0000     -14.427502      -392.5923
  22   2.0000     -14.427498      -392.5922
  23   2.0000     -14.425166      -392.5287
  24   2.0000     -10.400286      -283.0062
  25   2.0000     -10.398324      -282.9528
  26   2.0000     -10.392645      -282.7982
  27   2.0000     -10.391107      -282.7564
  28   2.0000     -10.388988      -282.6987
  29   2.0000     -10.388869      -282.6955
  30   2.0000     -10.388306      -282.6802
  31   2.0000     -10.387198      -282.6500
  32   2.0000     -10.385821      -282.6126
  33   2.0000     -10.385485      -282.6034
  34   2.0000     -10.382906      -282.5332
  35   2.0000     -10.381350      -282.4909
  36   2.0000     -10.376073      -282.3473
  37   2.0000     -10.373086      -282.2660
  38   2.0000     -10.368273      -282.1350
  39   2.0000     -10.362832      -281.9870
  40   2.0000     -10.359520      -281.8969
  41   2.0000     -10.357637      -281.8456
  42   2.0000     -10.357618      -281.8451
  43   2.0000     -10.356604      -281.8175
  44   2.0000     -10.354571      -281.7622
  45   2.0000     -10.354550      -281.7616
  46   2.0000     -10.350158      -281.6421
  47   2.0000     -10.348174      -281.5881
  48   2.0000     -10.339942      -281.3641
  49   2.0000     -10.335851      -281.2528
  50   2.0000     -10.330582      -281.1094
  51   2.0000     -10.329767      -281.0872
  52   2.0000     -10.329550      -281.0813
  53   2.0000     -10.328000      -281.0392
  54   2.0000     -10.327873      -281.0357
  55   2.0000     -10.325954      -280.9835
  56   2.0000     -10.323311      -280.9116
  57   2.0000     -10.322568      -280.8914
  58   2.0000     -10.320113      -280.8245
  59   2.0000     -10.319125      -280.7977
  60   2.0000     -10.318863      -280.7905
  61   2.0000     -10.317870      -280.7635
  62   2.0000     -10.315730      -280.7053
  63   2.0000     -10.315588      -280.7014
  64   2.0000     -10.315217      -280.6913
  65   2.0000     -10.313447      -280.6432
  66   2.0000     -10.312047      -280.6051
  67   2.0000     -10.312013      -280.6041
  68   2.0000     -10.311694      -280.5955
  69   2.0000     -10.308376      -280.5052
  70   2.0000     -10.308372      -280.5051
  71   2.0000     -10.308196      -280.5003
  72   2.0000     -10.307934      -280.4931
  73   2.0000     -10.307750      -280.4881
  74   2.0000     -10.307717      -280.4872
  75   2.0000     -10.305566      -280.4287
  76   2.0000     -10.305062      -280.4150
  77   2.0000     -10.304303      -280.3943
  78   2.0000     -10.303425      -280.3705
  79   2.0000     -10.299059      -280.2516
  80   2.0000     -10.287656      -279.9414
  81   2.0000     -10.284841      -279.8647
  82   2.0000      -8.151897      -221.8244
  83   2.0000      -6.122941      -166.6137
  84   2.0000      -6.115124      -166.4010
  85   2.0000      -6.114788      -166.3918
  86   2.0000      -1.344640       -36.5895
  87   2.0000      -1.334128       -36.3035
  88   2.0000      -1.328092       -36.1392
  89   2.0000      -1.325380       -36.0654
  90   2.0000      -1.313145       -35.7325
  91   2.0000      -1.310500       -35.6605
  92   2.0000      -1.257099       -34.2074
  93   2.0000      -1.157089       -31.4860
  94   2.0000      -1.150894       -31.3174
  95   2.0000      -1.147266       -31.2187
  96   2.0000      -1.142860       -31.0988
  97   2.0000      -1.138370       -30.9766
  98   2.0000      -1.130139       -30.7526
  99   2.0000      -1.082059       -29.4443
 100   2.0000      -1.071459       -29.1559
 101   2.0000      -1.056010       -28.7355
 102   2.0000      -1.031738       -28.0750
 103   2.0000      -1.030176       -28.0325
 104   2.0000      -1.018639       -27.7186
 105   2.0000      -1.014449       -27.6046
 106   2.0000      -1.012025       -27.5386
 107   2.0000      -1.011177       -27.5155
 108   2.0000      -1.006431       -27.3864
 109   2.0000      -1.006379       -27.3850
 110   2.0000      -1.004699       -27.3392
 111   2.0000      -0.992182       -26.9986
 112   2.0000      -0.991251       -26.9733
 113   2.0000      -0.985340       -26.8125
 114   2.0000      -0.950077       -25.8529
 115   2.0000      -0.943602       -25.6767
 116   2.0000      -0.939486       -25.5647
 117   2.0000      -0.935559       -25.4579
 118   2.0000      -0.933900       -25.4127
 119   2.0000      -0.930049       -25.3079
 120   2.0000      -0.918341       -24.9893
 121   2.0000      -0.909073       -24.7371
 122   2.0000      -0.907240       -24.6873
 123   2.0000      -0.900660       -24.5082
 124   2.0000      -0.898639       -24.4532
 125   2.0000      -0.893552       -24.3148
 126   2.0000      -0.880415       -23.9573
 127   2.0000      -0.865710       -23.5572
 128   2.0000      -0.855127       -23.2692
 129   2.0000      -0.849559       -23.1177
 130   2.0000      -0.846153       -23.0250
 131   2.0000      -0.844889       -22.9906
 132   2.0000      -0.831241       -22.6192
 133   2.0000      -0.817521       -22.2459
 134   2.0000      -0.813162       -22.1273
 135   2.0000      -0.793901       -21.6031
 136   2.0000      -0.784182       -21.3387
 137   2.0000      -0.778232       -21.1768
 138   2.0000      -0.777151       -21.1473
 139   2.0000      -0.771555       -20.9951
 140   2.0000      -0.755341       -20.5539
 141   2.0000      -0.753187       -20.4953
 142   2.0000      -0.745084       -20.2748
 143   2.0000      -0.743341       -20.2273
 144   2.0000      -0.733441       -19.9580
 145   2.0000      -0.729259       -19.8441
 146   2.0000      -0.724876       -19.7249
 147   2.0000      -0.721370       -19.6295
 148   2.0000      -0.719599       -19.5813
 149   2.0000      -0.714506       -19.4427
 150   2.0000      -0.702771       -19.1234
 151   2.0000      -0.697996       -18.9934
 152   2.0000      -0.694701       -18.9038
 153   2.0000      -0.690918       -18.8008
 154   2.0000      -0.688432       -18.7332
 155   2.0000      -0.685643       -18.6573
 156   2.0000      -0.677576       -18.4378
 157   2.0000      -0.670964       -18.2579
 158   2.0000      -0.668315       -18.1858
 159   2.0000      -0.662887       -18.0381
 160   2.0000      -0.656856       -17.8740
 161   2.0000      -0.655514       -17.8374
 162   2.0000      -0.650349       -17.6969
 163   2.0000      -0.647844       -17.6287
 164   2.0000      -0.646142       -17.5824
 165   2.0000      -0.639272       -17.3955
 166   2.0000      -0.634820       -17.2743
 167   2.0000      -0.628895       -17.1131
 168   2.0000      -0.625618       -17.0239
 169   2.0000      -0.622877       -16.9493
 170   2.0000      -0.621296       -16.9063
 171   2.0000      -0.616034       -16.7631
 172   2.0000      -0.606596       -16.5063
 173   2.0000      -0.599412       -16.3108
 174   2.0000      -0.598641       -16.2899
 175   2.0000      -0.596124       -16.2214
 176   2.0000      -0.595072       -16.1927
 177   2.0000      -0.592409       -16.1203
 178   2.0000      -0.592371       -16.1192
 179   2.0000      -0.589850       -16.0506
 180   2.0000      -0.587343       -15.9824
 181   2.0000      -0.584722       -15.9111
 182   2.0000      -0.582980       -15.8637
 183   2.0000      -0.578373       -15.7383
 184   2.0000      -0.574250       -15.6261
 185   2.0000      -0.571234       -15.5441
 186   2.0000      -0.570822       -15.5329
 187   2.0000      -0.568565       -15.4714
 188   2.0000      -0.562678       -15.3112
 189   2.0000      -0.561446       -15.2777
 190   2.0000      -0.559322       -15.2199
 191   2.0000      -0.556583       -15.1454
 192   2.0000      -0.553824       -15.0703
 193   2.0000      -0.551702       -15.0126
 194   2.0000      -0.551447       -15.0056
 195   2.0000      -0.549795       -14.9607
 196   2.0000      -0.546578       -14.8731
 197   2.0000      -0.545212       -14.8360
 198   2.0000      -0.544983       -14.8297
 199   2.0000      -0.540993       -14.7212
 200   2.0000      -0.539110       -14.6699
 201   2.0000      -0.537166       -14.6170
 202   2.0000      -0.536072       -14.5873
 203   2.0000      -0.534750       -14.5513
 204   2.0000      -0.530750       -14.4424
 205   2.0000      -0.526944       -14.3389
 206   2.0000      -0.524956       -14.2848
 207   2.0000      -0.522829       -14.2269
 208   2.0000      -0.521707       -14.1964
 209   2.0000      -0.519671       -14.1410
 210   2.0000      -0.515364       -14.0238
 211   2.0000      -0.514363       -13.9965
 212   2.0000      -0.510438       -13.8897
 213   2.0000      -0.508246       -13.8301
 214   2.0000      -0.508135       -13.8270
 215   2.0000      -0.505673       -13.7601
 216   2.0000      -0.503217       -13.6932
 217   2.0000      -0.498143       -13.5552
 218   2.0000      -0.494299       -13.4505
 219   2.0000      -0.493418       -13.4266
 220   2.0000      -0.491667       -13.3789
 221   2.0000      -0.488592       -13.2953
 222   2.0000      -0.486487       -13.2380
 223   2.0000      -0.484314       -13.1789
 224   2.0000      -0.484085       -13.1726
 225   2.0000      -0.479443       -13.0463
 226   2.0000      -0.478715       -13.0265
 227   2.0000      -0.475141       -12.9292
 228   2.0000      -0.472690       -12.8625
 229   2.0000      -0.471981       -12.8433
 230   2.0000      -0.468847       -12.7580
 231   2.0000      -0.465413       -12.6645
 232   2.0000      -0.461322       -12.5532
 233   2.0000      -0.460429       -12.5289
 234   2.0000      -0.459651       -12.5077
 235   2.0000      -0.457672       -12.4539
 236   2.0000      -0.455407       -12.3923
 237   2.0000      -0.454663       -12.3720
 238   2.0000      -0.454520       -12.3681
 239   2.0000      -0.454033       -12.3549
 240   2.0000      -0.452473       -12.3124
 241   2.0000      -0.447766       -12.1843
 242   2.0000      -0.447558       -12.1787
 243   2.0000      -0.441449       -12.0124
 244   2.0000      -0.440655       -11.9908
 245   2.0000      -0.440064       -11.9748
 246   2.0000      -0.439126       -11.9492
 247   2.0000      -0.437453       -11.9037
 248   2.0000      -0.436616       -11.8809
 249   2.0000      -0.435441       -11.8490
 250   2.0000      -0.434411       -11.8209
 251   2.0000      -0.427208       -11.6249
 252   2.0000      -0.425277       -11.5724
 253   2.0000      -0.422437       -11.4951
 254   2.0000      -0.421848       -11.4791
 255   2.0000      -0.415628       -11.3098
 256   2.0000      -0.414211       -11.2713
 257   2.0000      -0.413693       -11.2572
 258   2.0000      -0.405618       -11.0374
 259   2.0000      -0.395128       -10.7520
 260   2.0000      -0.393777       -10.7152
 261   2.0000      -0.387122       -10.5341
 262   2.0000      -0.377685       -10.2773
 263   2.0000      -0.373679       -10.1683
 264   2.0000      -0.368831       -10.0364
 265   2.0000      -0.365683        -9.9507
 266   2.0000      -0.361974        -9.8498
 267   2.0000      -0.358488        -9.7550
 268   2.0000      -0.354496        -9.6463
 269   2.0000      -0.352564        -9.5938
 270   2.0000      -0.346865        -9.4387
 271   2.0000      -0.340141        -9.2557
 272   2.0000      -0.333687        -9.0801
 273   2.0000      -0.326782        -8.8922
 274   2.0000      -0.321108        -8.7378
 275   2.0000      -0.318178        -8.6581
 276   2.0000      -0.306823        -8.3491
 277   2.0000      -0.305323        -8.3083
 278   2.0000      -0.298346        -8.1184
 279   2.0000      -0.249946        -6.8014
 280   0.0000      -0.149447        -4.0667
 281   0.0000      -0.112689        -3.0664
 282   0.0000      -0.088217        -2.4005
 283   0.0000      -0.079424        -2.1612
 284   0.0000      -0.067829        -1.8457

MULLIKEN ATOMIC CHARGES
-----------------------
   0 C :   -0.105651
   1 C :    0.242353
   2 F :   -0.168278
   3 C :    0.239924
   4 F :   -0.168481
   5 C :   -0.101853
   6 C :    0.115031
   7 C :    0.112640
   8 C :   -0.081179
   9 C :    0.053859
  10 C :   -0.012280
  11 C :   -0.072273
  12 C :    0.144721
  13 O :   -0.138051
  14 C :   -0.094130
  15 C :    0.304334
  16 C :   -0.331480
  17 C :   -0.200041
  18 N :    0.164392
  19 C :   -0.180303
  20 N :    0.155421
  21 C :   -0.020156
  22 C :    0.112592
  23 O :   -0.195073
  24 C :    0.044407
  25 C :    0.159136
  26 C :    0.197514
  27 F :   -0.133856
  28 F :   -0.117518
  29 C :    0.143788
  30 N :   -0.270627
  31 C :    0.127518
  32 C :    0.169918
  33 O :   -0.174902
  34 C :   -0.069488
  35 C :   -0.061687
  36 C :    0.138409
  37 O :   -0.162047
  38 N :   -0.274241
  39 C :    0.119023
  40 C :    0.155022
  41 C :    0.007749
  42 C :   -0.088606
  43 C :    0.112150
  44 C :   -0.055074
  45 C :   -0.028577
  46 N :    0.064318
  47 C :   -0.126807
  48 C :   -0.145307
  49 N :    0.079738
  50 C :   -0.188406
  51 N :    0.238212
  52 C :   -0.202675
  53 N :    0.245443
  54 C :    0.086716
  55 C :   -0.034093
  56 C :    0.060468
  57 N :   -0.286887
  58 S :    0.564315
  59 N :   -0.283245
  60 C :   -0.037636
  61 C :   -0.101013
  62 C :    0.132437
  63 O :   -0.128369
  64 C :    0.013962
  65 C :   -0.082093
  66 C :    0.114440
  67 C :    0.115318
  68 C :   -0.109326
  69 C :    0.243902
  70 C :    0.240627
  71 C :   -0.105911
  72 F :   -0.170226
  73 F :   -0.169319
  74 C :   -0.088894
  75 C :    0.037085
  76 C :    0.337596
  77 C :   -0.346235
  78 C :   -0.193842
  79 N :    0.157689
  80 C :   -0.189099
  81 N :    0.153128
  82 H :    0.008938
  83 H :    0.001947
  84 H :   -0.003696
  85 H :   -0.007066
  86 H :    0.046415
  87 H :    0.034968
  88 H :    0.039501
  89 H :    0.067765
  90 H :    0.063118
  91 H :    0.039088
  92 H :    0.037768
  93 H :   -0.006141
  94 H :    0.035023
  95 H :    0.040532
  96 H :   -0.007346
  97 H :    0.004484
  98 H :    0.001084
  99 H :   -0.006442
Sum of atomic charges:   -0.0000000

LOEWDIN ATOMIC CHARGES
----------------------
   0 C :   -0.028681
   1 C :    0.068473
   2 F :   -0.045883
   3 C :    0.069361
   4 F :   -0.046200
   5 C :   -0.032073
   6 C :   -0.007522
   7 C :   -0.005428
   8 C :    0.019454
   9 C :   -0.023584
  10 C :   -0.053307
  11 C :    0.033383
  12 C :    0.078365
  13 O :   -0.130995
  14 C :   -0.075811
  15 C :    0.070739
  16 C :   -0.128211
  17 C :   -0.022929
  18 N :   -0.042345
  19 C :   -0.017741
  20 N :   -0.043848
  21 C :    0.046970
  22 C :    0.003599
  23 O :    0.032691
  24 C :    0.006569
  25 C :    0.044939
  26 C :    0.054324
  27 F :   -0.009610
  28 F :   -0.001505
  29 C :    0.058463
  30 N :    0.001190
  31 C :    0.028668
  32 C :    0.081156
  33 O :   -0.169759
  34 C :   -0.102693
  35 C :   -0.107984
  36 C :    0.075694
  37 O :   -0.173606
  38 N :   -0.008717
  39 C :    0.029628
  40 C :    0.073498
  41 C :   -0.007534
  42 C :    0.025817
  43 C :    0.007694
  44 C :    0.000437
  45 C :    0.018200
  46 N :   -0.001155
  47 C :   -0.011699
  48 C :   -0.025099
  49 N :    0.020733
  50 C :   -0.032928
  51 N :   -0.000070
  52 C :   -0.034645
  53 N :    0.006424
  54 C :   -0.042685
  55 C :   -0.036510
  56 C :   -0.032028
  57 N :   -0.273617
  58 S :    0.688829
  59 N :   -0.277805
  60 C :    0.073405
  61 C :   -0.072049
  62 C :    0.084192
  63 O :   -0.130174
  64 C :   -0.053958
  65 C :    0.032484
  66 C :   -0.008989
  67 C :   -0.005381
  68 C :   -0.030721
  69 C :    0.067407
  70 C :    0.067411
  71 C :   -0.031877
  72 F :   -0.048019
  73 F :   -0.047692
  74 C :    0.012969
  75 C :   -0.017769
  76 C :    0.078776
  77 C :   -0.140315
  78 C :   -0.014998
  79 N :   -0.059391
  80 C :   -0.021100
  81 N :   -0.054322
  82 H :    0.048427
  83 H :    0.045898
  84 H :    0.040703
  85 H :    0.041810
  86 H :    0.054668
  87 H :    0.027597
  88 H :    0.028384
  89 H :    0.043295
  90 H :    0.043463
  91 H :    0.028983
  92 H :    0.028508
  93 H :    0.031169
  94 H :    0.041104
  95 H :    0.052436
  96 H :    0.041481
  97 H :    0.046795
  98 H :    0.045473
  99 H :    0.038827

  Mayer bond orders larger than 0.100000
B(  0-C ,  1-C ) :   1.4431 B(  0-C ,  5-C ) :   0.1079 B(  0-C ,  7-C ) :   1.1867
B(  0-C , 82-H ) :   1.0063 B(  1-C ,  2-F ) :   1.1375 B(  1-C ,  3-C ) :   1.1901
B(  3-C ,  4-F ) :   1.1365 B(  3-C ,  5-C ) :   1.4428 B(  5-C ,  6-C ) :   1.1934
B(  5-C , 83-H ) :   1.0066 B(  6-C ,  7-C ) :   1.2534 B(  6-C , 11-C ) :   1.1906
B(  7-C ,  8-C ) :   1.2217 B(  8-C ,  9-C ) :   1.4460 B(  8-C , 84-H ) :   0.9892
B(  9-C , 10-C ) :   1.2194 B(  9-C , 15-C ) :   0.9947 B( 10-C , 11-C ) :   1.4750
B( 10-C , 12-C ) :   0.9398 B( 11-C , 85-H ) :   1.0158 B( 12-C , 13-O ) :   2.2311
B( 12-C , 14-C ) :   0.9354 B( 14-C , 15-C ) :   1.0624 B( 14-C , 21-C ) :   1.6250
B( 15-C , 16-C ) :   1.6518 B( 16-C , 17-C ) :   1.1408 B( 16-C , 19-C ) :   1.1411
B( 17-C , 18-N ) :   2.9870 B( 19-C , 20-N ) :   2.9650 B( 21-C , 22-C ) :   1.1376
B( 21-C , 86-H ) :   0.9374 B( 22-C , 23-O ) :   1.0963 B( 22-C , 24-C ) :   0.1350
B( 22-C , 26-C ) :   1.3625 B( 23-O , 24-C ) :   1.1422 B( 24-C , 25-C ) :   1.3599
B( 24-C , 29-C ) :   1.0494 B( 25-C , 26-C ) :   1.2259 B( 25-C , 28-F ) :   1.2248
B( 26-C , 27-F ) :   1.1901 B( 29-C , 30-N ) :   1.2142 B( 29-C , 35-C ) :   1.3923
B( 30-N , 31-C ) :   0.9559 B( 30-N , 32-C ) :   1.0355 B( 31-C , 87-H ) :   0.9728
B( 31-C , 88-H ) :   0.9741 B( 31-C , 89-H ) :   0.9508 B( 32-C , 33-O ) :   2.0646
B( 32-C , 34-C ) :   0.9875 B( 34-C , 35-C ) :   1.2704 B( 34-C , 40-C ) :   1.3085
B( 35-C , 36-C ) :   0.9552 B( 36-C , 37-O ) :   2.1846 B( 36-C , 38-N ) :   1.0247
B( 38-N , 39-C ) :   0.9622 B( 38-N , 40-C ) :   1.1764 B( 39-C , 90-H ) :   0.9503
B( 39-C , 91-H ) :   0.9722 B( 39-C , 92-H ) :   0.9726 B( 40-C , 41-C ) :   1.1698
B( 41-C , 42-C ) :   1.4781 B( 41-C , 93-H ) :   0.9507 B( 42-C , 43-C ) :   1.2401
B( 42-C , 94-H ) :   0.9445 B( 43-C , 44-C ) :   1.2045 B( 43-C , 54-C ) :   0.1292
B( 43-C , 56-C ) :   1.1624 B( 44-C , 45-C ) :   1.1302 B( 44-C , 49-N ) :   1.4719
B( 45-C , 46-N ) :   1.4648 B( 45-C , 54-C ) :   1.2622 B( 46-N , 47-C ) :   1.7467
B( 47-C , 48-C ) :   1.1991 B( 47-C , 52-C ) :   1.1497 B( 48-C , 49-N ) :   1.7518
B( 48-C , 50-C ) :   1.1488 B( 50-C , 51-N ) :   3.0442 B( 52-C , 53-N ) :   3.0508
B( 54-C , 55-C ) :   1.1939 B( 54-C , 60-C ) :   1.1271 B( 55-C , 56-C ) :   1.1127
B( 55-C , 59-N ) :   1.5156 B( 56-C , 57-N ) :   1.5026 B( 57-N , 58-S ) :   1.2847
B( 57-N , 59-N ) :   0.1438 B( 58-S , 59-N ) :   1.2746 B( 60-C , 61-C ) :   1.6273
B( 60-C , 95-H ) :   0.9360 B( 61-C , 62-C ) :   0.9344 B( 61-C , 76-C ) :   1.0424
B( 62-C , 63-O ) :   2.2828 B( 62-C , 64-C ) :   0.9149 B( 64-C , 65-C ) :   1.4726
B( 64-C , 75-C ) :   1.2188 B( 65-C , 66-C ) :   1.1922 B( 65-C , 96-H ) :   1.0170
B( 66-C , 67-C ) :   1.2578 B( 66-C , 71-C ) :   1.1916 B( 67-C , 68-C ) :   1.1870
B( 67-C , 74-C ) :   1.2153 B( 68-C , 69-C ) :   1.4421 B( 68-C , 71-C ) :   0.1088
B( 68-C , 97-H ) :   1.0076 B( 69-C , 70-C ) :   1.1901 B( 69-C , 73-F ) :   1.1370
B( 70-C , 71-C ) :   1.4430 B( 70-C , 72-F ) :   1.1347 B( 71-C , 98-H ) :   1.0079
B( 74-C , 75-C ) :   1.4502 B( 74-C , 99-H ) :   0.9933 B( 75-C , 76-C ) :   1.0088
B( 76-C , 77-C ) :   1.6289 B( 77-C , 78-C ) :   1.1767 B( 77-C , 80-C ) :   1.1418
B( 78-C , 79-N ) :   2.9857 B( 80-C , 81-N ) :   2.9805

-----------------------------------------------------------------------------
         ABSORPTION SPECTRUM VIA TRANSITION ELECTRIC DIPOLE MOMENTS
-----------------------------------------------------------------------------
State   Energy  Wavelength   fosc         T2         TX        TY        TZ
        (cm-1)    (nm)                  (au**2)     (au)      (au)      (au)
-----------------------------------------------------------------------------
   0    7624.4   1311.6   0.653070659  28.19891   1.25881   4.76231   1.98362
   1   16199.2    617.3   0.422747409   8.59138  -0.20014  -2.08406  -2.05135
   2   16638.3    601.0   0.074155864   1.46728  -0.83116  -0.82833  -0.30054
   3   19380.4    516.0   0.132019900   2.24261   0.60809   1.31026   0.39505
   4   21304.2    469.4   0.189866169   2.93399   0.99721   0.83096   1.11762
   5   22471.4    445.0   0.036817134   0.53938  -0.17056   0.66520   0.26038
   6   22992.7    434.9   0.170748239   2.44480   0.45091   1.28130   0.77443
   7   23125.0    432.4   0.023541075   0.33513   0.11985   0.44013   0.35645
   8   23220.3    430.7   0.024278639   0.34422   0.05188  -0.58423   0.01416
   9   24301.3    411.5   0.001794514   0.02431  -0.10242  -0.05346   0.10471
  10   24459.1    408.8   0.004684116   0.06305   0.13789   0.18315   0.10243
  11   25306.8    395.2   0.109744864   1.42765   0.24639  -0.97534  -0.64471
  12   25420.3    393.4   0.022364410   0.28964  -0.23086   0.15930  -0.45931
  13   26023.7    384.3   0.014164550   0.17919   0.22320   0.35535  -0.05563
  14   26406.6    378.7   0.087530058   1.09124  -0.56934   0.42696  -0.76472
  15   27050.0    369.7   0.022658832   0.27577  -0.39482   0.20426   0.27958
  16   27635.4    361.9   0.034210775   0.40754  -0.10809   0.17077  -0.60556
  17   27875.5    358.7   0.135003821   1.59441  -0.82242   0.80535   0.51908
  18   28125.4    355.6   0.136839539   1.60173  -0.32189   0.09968  -1.21991
  19   28284.7    353.5   0.012800289   0.14899  -0.20221  -0.01957  -0.32820
  20   28382.8    352.3   0.125061594   1.45059   0.14161   1.14970   0.32975
  21   28907.3    345.9   0.088444189   1.00725  -0.03590   0.41355  -0.91375
  22   29096.8    343.7   0.197942995   2.23960  -0.55289  -1.33446  -0.39132
  23   29371.0    340.5   0.055403336   0.62100  -0.49647  -0.35650  -0.49742
  24   29715.4    336.5   0.008707830   0.09647  -0.29358   0.09725   0.02872
  25   30166.3    331.5   0.281796213   3.07531   0.38105  -1.29492  -1.11950
  26   30555.0    327.3   0.437979846   4.71898   0.53674  -0.38799   2.06890
  27   30929.1    323.3   0.190676320   2.02957   0.22638   1.02624   0.96186
  28   31180.8    320.7   0.101392169   1.07051  -0.12548   1.01349  -0.16617
  29   31462.1    317.8   0.023221775   0.24299  -0.24242   0.12055   0.41193
  30   31787.3    314.6   0.076513599   0.79243  -0.54301   0.66277   0.24145
  31   32276.6    309.8   0.025904884   0.26422   0.46788   0.19508   0.08517
  32   32893.1    304.0   0.019476495   0.19493   0.34828  -0.25213  -0.10030
  33   33349.4    299.9   0.058562832   0.57811  -0.65308   0.24371   0.30364
  34   33365.0    299.7   0.011566729   0.11413  -0.13288  -0.29728  -0.08999
  35   33444.5    299.0   0.303646948   2.98896  -0.76160   1.35622   0.75472
  36   34039.4    293.8   0.318941068   3.08463   1.40724  -0.81901  -0.65844
  37   34242.2    292.0   0.377429310   3.62868   0.97733  -1.47914   0.69688
  38   34318.3    291.4   0.021739915   0.20855  -0.22220  -0.01811  -0.39856
  39   34468.7    290.1   0.042977437   0.41048   0.14014   0.61384   0.11849
  40   34543.5    289.5   0.007499068   0.07147  -0.18522  -0.14166   0.13075
  41   35596.1    280.9   0.599571117   5.54516   0.34679   1.86912   1.38971
  42   35928.8    278.3   0.042167175   0.38637   0.08604  -0.58311  -0.19736
  43   36060.1    277.3   0.175303009   1.60043   0.03433  -1.25883  -0.12081
  44   36123.4    276.8   0.019348877   0.17634  -0.05477  -0.41633   0.00319
  45   36143.6    276.7   0.044649348   0.40669  -0.29875  -0.56284   0.02545
  46   36436.7    274.4   0.151583203   1.36958  -0.11232  -0.02969   1.16451
  47   36733.4    272.2   0.051942579   0.46552   0.04278   0.10810   0.67231
  48   36780.0    271.9   0.031678341   0.28355   0.37034   0.33201   0.19018
  49   37191.6    268.9   0.055071265   0.48748  -0.35736  -0.33495  -0.49757
  50   37289.3    268.2   0.074266157   0.65567  -0.35380  -0.24574  -0.68564
  51   37551.2    266.3   0.041600882   0.36472  -0.16767   0.12651  -0.56622
  52   37904.7    263.8   0.085144430   0.73950   0.84200   0.13853   0.10649
  53   38181.3    261.9   0.018131006   0.15633   0.10651   0.09025  -0.36992
  54   38226.5    261.6   0.010513406   0.09054  -0.05606  -0.14831   0.25575
  55   38515.9    259.6   0.020142471   0.17217  -0.05930  -0.08392  -0.40200
  56   38698.7    258.4   0.052883921   0.44989   0.51454   0.30141   0.30706
  57   38873.1    257.2   0.017436936   0.14767  -0.30112  -0.23748  -0.02447
  58   39128.9    255.6   0.006897188   0.05803  -0.07674  -0.11045  -0.19985
  59   39650.2    252.2   0.038420411   0.31900   0.01429  -0.08671   0.55792
  60   39843.8    251.0   0.037397502   0.30900  -0.13089  -0.04013  -0.53875
  61   39996.4    250.0   0.030952793   0.25477   0.22333   0.43909  -0.10998
  62   40028.9    249.8   0.071564493   0.58857  -0.39287   0.34977  -0.55847

FINAL SINGLE POINT ENERGY     -4246.446489367941

DIPOLE MOMENT
-------------
                                X             Y             Z
Electronic contribution:    -11.35714       8.45320      -1.68514
Nuclear contribution   :     10.80383      -7.76325      -0.96967
                        -----------------------------------------
Total Dipole Moment    :     -0.55331       0.68995      -2.65481
                        -----------------------------------------
Magnitude (a.u.)       :      2.79825
Magnitude (Debye)      :      7.11258

Rotational constants in cm-1:     0.001866     0.000182     0.000176
Rotational constants in MHz :    55.930401     5.444981     5.276172

                             ****ORCA TERMINATED NORMALLY****
TOTAL RUN TIME: 0 days 0 hours 12 minutes 16 seconds 768 msec
