                         Program Version 4.2.0 -  RELEASE  -
|  1> # ORCA input file
|  2> # SCF done       -216.025939227056          0.000432691702
|  3> ! CAM-B3LYP def2-SVP def2/J RIJCOSX Grid4 TightSCF
|  4> %maxcore 5000
|  5> %tddft
|  6>     Mode sTDDFT
|  7>     Ethresh 5.0
|  8>     maxcore 5000
|  9> end
| 10>
| 11> %pal
| 12>   nprocs 6
| 13>   end
| 14> * xyz 0 1
| 15>    C        4.25571         8.31114         1.20957
| 16>    C        3.40102         9.09135         1.93786
| 17>    F        2.89328        10.20926         1.38813
| 18>    C        3.02610         8.77314         3.25022
| 19>    C        3.52938         7.63945         3.82540
| 20>    C        4.41228         6.79720         3.11929
| 21>    C        4.78646         7.14199         1.78761
| 22>    C        5.68260         6.32034         1.06368
| 23>    C        6.17797         5.18987         1.65336
| 24>    C        5.77770         4.83400         2.97405
| 25>    C        4.92575         5.61526         3.69948
| 26>    C        6.40085         3.54840         3.34018
| 27>    O        6.33199         2.95670         4.39339
| 28>    C        7.09878         3.08791         2.10758
| 29>    C        7.12241         4.18500         1.17072
| 30>    C        8.02618         4.37846         0.15522
| 31>    C        9.09401         3.50453        -0.12134
| 32>    N       10.00108         2.84027        -0.35647
| 33>    C        8.04747         5.51981        -0.67161
| 34>    N        8.10884         6.42009        -1.38093
| 35>    C        7.52425         1.79088         2.03330
| 36>    C        7.86249         1.03474         0.89892
| 37>    S        8.88584        -0.36779         1.07826
| 38>    C        8.92627        -0.68915        -0.63021
| 39>    C        8.12673         0.23085        -1.29286
| 40>    C        7.50832         1.18828        -0.44632
| 41>    C        6.64299         2.04162        -1.16758
| 42>    C        6.65386         1.77221        -2.50509
| 43>    C        5.88626         2.49807        -3.52368
| 44>    O        5.12477         3.39998        -3.27639
| 45>    O        6.14385         2.03062        -4.74733
| 46>    C        5.46698         2.66855        -5.82030
| 47>    S        7.69622         0.45286        -2.95616
| 48>    C        9.69255        -1.74583        -1.17177
| 49>    C        9.89117        -2.04144        -2.51198
| 50>    C       10.70454        -3.15856        -2.68073
| 51>    C       11.12404        -3.72283        -1.45988
| 52>    S       10.52667        -2.86934        -0.10847
| 53>    C       11.92869        -4.85103        -1.73849
| 54>    C       12.03079        -5.00160        -3.13304
| 55>    C       11.26500        -3.94030        -3.77107
| 56>    C       11.10794        -3.72694        -5.10862
| 57>    C       10.32768        -2.66561        -5.61524
| 58>    N        9.69259        -1.80792        -6.03363
| 59>    C       11.71559        -4.55793        -6.07370
| 60>    N       12.20995        -5.23517        -6.85561
| 61>    C       12.80203        -6.09984        -3.50600
| 62>    C       13.28577        -6.79580        -2.41046
| 63>    S       12.77666        -6.06491        -0.89002
| 64>    C       14.08700        -7.97305        -2.40562
| 65>    C       14.44402        -8.61106        -1.23832
| 66>    C       15.20455        -9.77177        -1.15637
| 67>    C       15.77603       -10.36931        -2.37029
| 68>    C       15.54858        -9.91372        -3.62291
| 69>    S       14.56680        -8.55926        -3.98850
| 70>    C       16.55686       -11.47129        -1.92704
| 71>    C       16.47796       -11.56971        -0.53835
| 72>    C       17.21208       -12.66793        -0.04074
| 73>    C       17.81989       -13.35533        -1.04340
| 74>    S       17.52515       -12.70816        -2.62080
| 75>    C       15.61699       -10.52848        -0.03467
| 76>    C       15.26893       -10.46495         1.32835
| 77>    C       14.30100        -9.71684         1.93820
| 78>    C       14.00593        -9.75290         3.31467
| 79>    C       14.30247       -10.67778         4.28332
| 80>    C       14.24372       -10.23786         5.70215
| 81>    O       13.78179        -9.19795         6.11859
| 82>    C       14.90568       -11.30575         6.47509
| 83>    C       15.20301       -11.34665         7.80589
| 84>    C       15.86803       -12.47864         8.32882
| 85>    C       16.21920       -13.54642         7.45305
| 86>    C       16.88693       -14.66935         7.97874
| 87>    C       17.17843       -14.71282         9.31373
| 88>    C       16.83949       -13.67449        10.19140
| 89>    C       16.19330       -12.57564         9.69696
| 90>    F       17.81488       -15.78653         9.81784
| 91>    C       15.89198       -13.47815         6.07801
| 92>    C       15.23714       -12.37716         5.59756
| 93>    C       14.73896       -12.05143         4.26042
| 94>    C       14.51964       -12.97793         3.26812
| 95>    C       13.79129       -12.71468         2.09311
| 96>    N       13.18035       -12.55823         1.13334
| 97>    C       14.95023       -14.31671         3.32837
| 98>    N       15.31188       -15.40671         3.29986
| 99>    H        4.52510         8.58827         0.20241
|100>    H        2.34923         9.42744         3.77635
|101>    H        3.25412         7.37250         4.83468
|102>    H        5.94318         6.59871         0.05472
|103>    H        4.64344         5.33434         4.70305
|104>    H        7.56552         1.27058         2.98574
|105>    H        6.01148         2.80065        -0.74500
|106>    H        5.71750         3.73088        -5.84572
|107>    H        4.38664         2.56417        -5.70076
|108>    H        5.80376         2.17198        -6.72615
|109>    H        9.46505        -1.46039        -3.30867
|110>    H       13.00460        -6.39428        -4.51996
|111>    H       14.10275        -8.14646        -0.32511
|112>    H       15.96955       -10.38825        -4.49528
|113>    H       17.29182       -12.94672         0.99442
|114>    H       18.43733       -14.22801        -0.95839
|115>    H       15.86024       -11.11582         1.96116
|116>    H       13.72856        -9.00503         1.36464
|117>    H       13.50422        -8.87277         3.70933
|118>    H       14.93257       -10.52628         8.45367
|119>    H       17.15960       -15.48967         7.33323
|120>    H       17.09476       -13.76460        11.23532
|121>    H       15.92153       -11.76251        10.35319
|122>    H       16.17517       -14.29997         5.43958
|123> *
|124>
|125>                          ****END OF INPUT****

CARTESIAN COORDINATES (ANGSTROEM)
---------------------------------
  C      4.255710    8.311140    1.209570
  C      3.401020    9.091350    1.937860
  F      2.893280   10.209260    1.388130
  C      3.026100    8.773140    3.250220
  C      3.529380    7.639450    3.825400
  C      4.412280    6.797200    3.119290
  C      4.786460    7.141990    1.787610
  C      5.682600    6.320340    1.063680
  C      6.177970    5.189870    1.653360
  C      5.777700    4.834000    2.974050
  C      4.925750    5.615260    3.699480
  C      6.400850    3.548400    3.340180
  O      6.331990    2.956700    4.393390
  C      7.098780    3.087910    2.107580
  C      7.122410    4.185000    1.170720
  C      8.026180    4.378460    0.155220
  C      9.094010    3.504530   -0.121340
  N     10.001080    2.840270   -0.356470
  C      8.047470    5.519810   -0.671610
  N      8.108840    6.420090   -1.380930
  C      7.524250    1.790880    2.033300
  C      7.862490    1.034740    0.898920
  S      8.885840   -0.367790    1.078260
  C      8.926270   -0.689150   -0.630210
  C      8.126730    0.230850   -1.292860
  C      7.508320    1.188280   -0.446320
  C      6.642990    2.041620   -1.167580
  C      6.653860    1.772210   -2.505090
  C      5.886260    2.498070   -3.523680
  O      5.124770    3.399980   -3.276390
  O      6.143850    2.030620   -4.747330
  C      5.466980    2.668550   -5.820300
  S      7.696220    0.452860   -2.956160
  C      9.692550   -1.745830   -1.171770
  C      9.891170   -2.041440   -2.511980
  C     10.704540   -3.158560   -2.680730
  C     11.124040   -3.722830   -1.459880
  S     10.526670   -2.869340   -0.108470
  C     11.928690   -4.851030   -1.738490
  C     12.030790   -5.001600   -3.133040
  C     11.265000   -3.940300   -3.771070
  C     11.107940   -3.726940   -5.108620
  C     10.327680   -2.665610   -5.615240
  N      9.692590   -1.807920   -6.033630
  C     11.715590   -4.557930   -6.073700
  N     12.209950   -5.235170   -6.855610
  C     12.802030   -6.099840   -3.506000
  C     13.285770   -6.795800   -2.410460
  S     12.776660   -6.064910   -0.890020
  C     14.087000   -7.973050   -2.405620
  C     14.444020   -8.611060   -1.238320
  C     15.204550   -9.771770   -1.156370
  C     15.776030  -10.369310   -2.370290
  C     15.548580   -9.913720   -3.622910
  S     14.566800   -8.559260   -3.988500
  C     16.556860  -11.471290   -1.927040
  C     16.477960  -11.569710   -0.538350
  C     17.212080  -12.667930   -0.040740
  C     17.819890  -13.355330   -1.043400
  S     17.525150  -12.708160   -2.620800
  C     15.616990  -10.528480   -0.034670
  C     15.268930  -10.464950    1.328350
  C     14.301000   -9.716840    1.938200
  C     14.005930   -9.752900    3.314670
  C     14.302470  -10.677780    4.283320
  C     14.243720  -10.237860    5.702150
  O     13.781790   -9.197950    6.118590
  C     14.905680  -11.305750    6.475090
  C     15.203010  -11.346650    7.805890
  C     15.868030  -12.478640    8.328820
  C     16.219200  -13.546420    7.453050
  C     16.886930  -14.669350    7.978740
  C     17.178430  -14.712820    9.313730
  C     16.839490  -13.674490   10.191400
  C     16.193300  -12.575640    9.696960
  F     17.814880  -15.786530    9.817840
  C     15.891980  -13.478150    6.078010
  C     15.237140  -12.377160    5.597560
  C     14.738960  -12.051430    4.260420
  C     14.519640  -12.977930    3.268120
  C     13.791290  -12.714680    2.093110
  N     13.180350  -12.558230    1.133340
  C     14.950230  -14.316710    3.328370
  N     15.311880  -15.406710    3.299860
  H      4.525100    8.588270    0.202410
  H      2.349230    9.427440    3.776350
  H      3.254120    7.372500    4.834680
  H      5.943180    6.598710    0.054720
  H      4.643440    5.334340    4.703050
  H      7.565520    1.270580    2.985740
  H      6.011480    2.800650   -0.745000
  H      5.717500    3.730880   -5.845720
  H      4.386640    2.564170   -5.700760
  H      5.803760    2.171980   -6.726150
  H      9.465050   -1.460390   -3.308670
  H     13.004600   -6.394280   -4.519960
  H     14.102750   -8.146460   -0.325110
  H     15.969550  -10.388250   -4.495280
  H     17.291820  -12.946720    0.994420
  H     18.437330  -14.228010   -0.958390
  H     15.860240  -11.115820    1.961160
  H     13.728560   -9.005030    1.364640
  H     13.504220   -8.872770    3.709330
  H     14.932570  -10.526280    8.453670
  H     17.159600  -15.489670    7.333230
  H     17.094760  -13.764600   11.235320
  H     15.921530  -11.762510   10.353190
  H     16.175170  -14.299970    5.439580

 Total Charge           Charge          ....    0
 Multiplicity           Mult            ....    1
 Number of Electrons    NEL             ....  608
 Basis Dimension        Dim             .... 1320

ORBITAL ENERGIES
----------------

  NO   OCC          E(Eh)            E(eV)
   0   2.0000     -89.004132     -2421.9256
   1   2.0000     -89.003338     -2421.9040
   2   2.0000     -88.995533     -2421.6916
   3   2.0000     -88.988186     -2421.4917
   4   2.0000     -88.977129     -2421.1908
   5   2.0000     -88.962602     -2420.7955
   6   2.0000     -24.784051      -674.4083
   7   2.0000     -24.781332      -674.3343
   8   2.0000     -19.273064      -524.4467
   9   2.0000     -19.215125      -522.8701
  10   2.0000     -19.213055      -522.8138
  11   2.0000     -19.203503      -522.5539
  12   2.0000     -14.440622      -392.9493
  13   2.0000     -14.439761      -392.9259
  14   2.0000     -14.413894      -392.2220
  15   2.0000     -14.412825      -392.1929
  16   2.0000     -14.408993      -392.0886
  17   2.0000     -14.408335      -392.0707
  18   2.0000     -10.415717      -283.4261
  19   2.0000     -10.376504      -282.3590
  20   2.0000     -10.367638      -282.1178
  21   2.0000     -10.364483      -282.0319
  22   2.0000     -10.364467      -282.0315
  23   2.0000     -10.362963      -281.9906
  24   2.0000     -10.354834      -281.7694
  25   2.0000     -10.348607      -281.5999
  26   2.0000     -10.345940      -281.5273
  27   2.0000     -10.345804      -281.5236
  28   2.0000     -10.345710      -281.5211
  29   2.0000     -10.342102      -281.4229
  30   2.0000     -10.342008      -281.4203
  31   2.0000     -10.341794      -281.4145
  32   2.0000     -10.341292      -281.4009
  33   2.0000     -10.340542      -281.3805
  34   2.0000     -10.339440      -281.3505
  35   2.0000     -10.339025      -281.3392
  36   2.0000     -10.334176      -281.2072
  37   2.0000     -10.332383      -281.1584
  38   2.0000     -10.329766      -281.0872
  39   2.0000     -10.328862      -281.0626
  40   2.0000     -10.328115      -281.0423
  41   2.0000     -10.324759      -280.9510
  42   2.0000     -10.323505      -280.9169
  43   2.0000     -10.316840      -280.7355
  44   2.0000     -10.316477      -280.7256
  45   2.0000     -10.316005      -280.7128
  46   2.0000     -10.315746      -280.7057
  47   2.0000     -10.315712      -280.7048
  48   2.0000     -10.315623      -280.7024
  49   2.0000     -10.313683      -280.6496
  50   2.0000     -10.312886      -280.6279
  51   2.0000     -10.312628      -280.6209
  52   2.0000     -10.311980      -280.6032
  53   2.0000     -10.309473      -280.5350
  54   2.0000     -10.307185      -280.4728
  55   2.0000     -10.306732      -280.4604
  56   2.0000     -10.304331      -280.3951
  57   2.0000     -10.304241      -280.3927
  58   2.0000     -10.304092      -280.3886
  59   2.0000     -10.303325      -280.3677
  60   2.0000     -10.302258      -280.3387
  61   2.0000     -10.300334      -280.2863
  62   2.0000     -10.299265      -280.2573
  63   2.0000     -10.299136      -280.2537
  64   2.0000     -10.298735      -280.2428
  65   2.0000     -10.298488      -280.2361
  66   2.0000     -10.296073      -280.1704
  67   2.0000     -10.295993      -280.1682
  68   2.0000     -10.295240      -280.1477
  69   2.0000     -10.294032      -280.1148
  70   2.0000     -10.293123      -280.0901
  71   2.0000     -10.292763      -280.0803
  72   2.0000     -10.292702      -280.0786
  73   2.0000     -10.291668      -280.0505
  74   2.0000     -10.289637      -279.9953
  75   2.0000     -10.288238      -279.9572
  76   2.0000     -10.287049      -279.9248
  77   2.0000     -10.287018      -279.9240
  78   2.0000     -10.284200      -279.8473
  79   2.0000     -10.284048      -279.8432
  80   2.0000     -10.282370      -279.7975
  81   2.0000     -10.281950      -279.7861
  82   2.0000     -10.281672      -279.7785
  83   2.0000     -10.279960      -279.7319
  84   2.0000      -8.098293      -220.3658
  85   2.0000      -8.098021      -220.3584
  86   2.0000      -8.090558      -220.1553
  87   2.0000      -8.083392      -219.9603
  88   2.0000      -8.071768      -219.6440
  89   2.0000      -8.058046      -219.2706
  90   2.0000      -6.067566      -165.1069
  91   2.0000      -6.067315      -165.1000
  92   2.0000      -6.063489      -164.9959
  93   2.0000      -6.063106      -164.9855
  94   2.0000      -6.060570      -164.9165
  95   2.0000      -6.060299      -164.9091
  96   2.0000      -6.060088      -164.9034
  97   2.0000      -6.055470      -164.7777
  98   2.0000      -6.052766      -164.7041
  99   2.0000      -6.052621      -164.7002
 100   2.0000      -6.048522      -164.5887
 101   2.0000      -6.045445      -164.5049
 102   2.0000      -6.041493      -164.3974
 103   2.0000      -6.037140      -164.2789
 104   2.0000      -6.033212      -164.1720
 105   2.0000      -6.027503      -164.0167
 106   2.0000      -6.023233      -163.9005
 107   2.0000      -6.020044      -163.8137
 108   2.0000      -1.299003       -35.3477
 109   2.0000      -1.296065       -35.2677
 110   2.0000      -1.204457       -32.7749
 111   2.0000      -1.128309       -30.7029
 112   2.0000      -1.118521       -30.4365
 113   2.0000      -1.109258       -30.1844
 114   2.0000      -1.058019       -28.7901
 115   2.0000      -1.035957       -28.1898
 116   2.0000      -1.031995       -28.0820
 117   2.0000      -1.021258       -27.7898
 118   2.0000      -1.017468       -27.6867
 119   2.0000      -1.016234       -27.6531
 120   2.0000      -1.011463       -27.5233
 121   2.0000      -1.009427       -27.4679
 122   2.0000      -0.998882       -27.1810
 123   2.0000      -0.993916       -27.0458
 124   2.0000      -0.991625       -26.9835
 125   2.0000      -0.987538       -26.8723
 126   2.0000      -0.986619       -26.8473
 127   2.0000      -0.976074       -26.5603
 128   2.0000      -0.972496       -26.4630
 129   2.0000      -0.969393       -26.3785
 130   2.0000      -0.965405       -26.2700
 131   2.0000      -0.941553       -25.6210
 132   2.0000      -0.932844       -25.3840
 133   2.0000      -0.926303       -25.2060
 134   2.0000      -0.922334       -25.0980
 135   2.0000      -0.911999       -24.8167
 136   2.0000      -0.906333       -24.6626
 137   2.0000      -0.898396       -24.4466
 138   2.0000      -0.891438       -24.2573
 139   2.0000      -0.886456       -24.1217
 140   2.0000      -0.884583       -24.0707
 141   2.0000      -0.879875       -23.9426
 142   2.0000      -0.878803       -23.9134
 143   2.0000      -0.871347       -23.7106
 144   2.0000      -0.865742       -23.5580
 145   2.0000      -0.860777       -23.4229
 146   2.0000      -0.856238       -23.2994
 147   2.0000      -0.841409       -22.8959
 148   2.0000      -0.835462       -22.7341
 149   2.0000      -0.832901       -22.6644
 150   2.0000      -0.827874       -22.5276
 151   2.0000      -0.821875       -22.3644
 152   2.0000      -0.816238       -22.2110
 153   2.0000      -0.807514       -21.9736
 154   2.0000      -0.802080       -21.8257
 155   2.0000      -0.791863       -21.5477
 156   2.0000      -0.782133       -21.2829
 157   2.0000      -0.769410       -20.9367
 158   2.0000      -0.760319       -20.6893
 159   2.0000      -0.755472       -20.5574
 160   2.0000      -0.743423       -20.2296
 161   2.0000      -0.741351       -20.1732
 162   2.0000      -0.731091       -19.8940
 163   2.0000      -0.724236       -19.7075
 164   2.0000      -0.718136       -19.5415
 165   2.0000      -0.716742       -19.5035
 166   2.0000      -0.707699       -19.2575
 167   2.0000      -0.706766       -19.2321
 168   2.0000      -0.703300       -19.1378
 169   2.0000      -0.700157       -19.0523
 170   2.0000      -0.689600       -18.7650
 171   2.0000      -0.688115       -18.7246
 172   2.0000      -0.678416       -18.4606
 173   2.0000      -0.673687       -18.3319
 174   2.0000      -0.671585       -18.2747
 175   2.0000      -0.662912       -18.0387
 176   2.0000      -0.660808       -17.9815
 177   2.0000      -0.649593       -17.6763
 178   2.0000      -0.647028       -17.6065
 179   2.0000      -0.645446       -17.5635
 180   2.0000      -0.637152       -17.3378
 181   2.0000      -0.636014       -17.3068
 182   2.0000      -0.632254       -17.2045
 183   2.0000      -0.629528       -17.1303
 184   2.0000      -0.627174       -17.0663
 185   2.0000      -0.626701       -17.0534
 186   2.0000      -0.623744       -16.9729
 187   2.0000      -0.612458       -16.6658
 188   2.0000      -0.611025       -16.6268
 189   2.0000      -0.602760       -16.4019
 190   2.0000      -0.599501       -16.3133
 191   2.0000      -0.598527       -16.2868
 192   2.0000      -0.593628       -16.1534
 193   2.0000      -0.585781       -15.9399
 194   2.0000      -0.583797       -15.8859
 195   2.0000      -0.582112       -15.8401
 196   2.0000      -0.575604       -15.6630
 197   2.0000      -0.573595       -15.6083
 198   2.0000      -0.567987       -15.4557
 199   2.0000      -0.564561       -15.3625
 200   2.0000      -0.562967       -15.3191
 201   2.0000      -0.560357       -15.2481
 202   2.0000      -0.559353       -15.2208
 203   2.0000      -0.556956       -15.1555
 204   2.0000      -0.556526       -15.1438
 205   2.0000      -0.553785       -15.0692
 206   2.0000      -0.552690       -15.0395
 207   2.0000      -0.547554       -14.8997
 208   2.0000      -0.544974       -14.8295
 209   2.0000      -0.541807       -14.7433
 210   2.0000      -0.539513       -14.6809
 211   2.0000      -0.536951       -14.6112
 212   2.0000      -0.533169       -14.5083
 213   2.0000      -0.530835       -14.4448
 214   2.0000      -0.527429       -14.3521
 215   2.0000      -0.526640       -14.3306
 216   2.0000      -0.524646       -14.2764
 217   2.0000      -0.523250       -14.2384
 218   2.0000      -0.521788       -14.1986
 219   2.0000      -0.520028       -14.1507
 220   2.0000      -0.518226       -14.1016
 221   2.0000      -0.517432       -14.0800
 222   2.0000      -0.514588       -14.0026
 223   2.0000      -0.514351       -13.9962
 224   2.0000      -0.510926       -13.9030
 225   2.0000      -0.508927       -13.8486
 226   2.0000      -0.508627       -13.8405
 227   2.0000      -0.506556       -13.7841
 228   2.0000      -0.504206       -13.7201
 229   2.0000      -0.496832       -13.5195
 230   2.0000      -0.494019       -13.4429
 231   2.0000      -0.492937       -13.4135
 232   2.0000      -0.491215       -13.3666
 233   2.0000      -0.490468       -13.3463
 234   2.0000      -0.489946       -13.3321
 235   2.0000      -0.487831       -13.2746
 236   2.0000      -0.480993       -13.0885
 237   2.0000      -0.480382       -13.0719
 238   2.0000      -0.479029       -13.0350
 239   2.0000      -0.478175       -13.0118
 240   2.0000      -0.476739       -12.9727
 241   2.0000      -0.471672       -12.8348
 242   2.0000      -0.470754       -12.8099
 243   2.0000      -0.469272       -12.7695
 244   2.0000      -0.468068       -12.7368
 245   2.0000      -0.465333       -12.6624
 246   2.0000      -0.463563       -12.6142
 247   2.0000      -0.459690       -12.5088
 248   2.0000      -0.456228       -12.4146
 249   2.0000      -0.455552       -12.3962
 250   2.0000      -0.453064       -12.3285
 251   2.0000      -0.452290       -12.3074
 252   2.0000      -0.450617       -12.2619
 253   2.0000      -0.449934       -12.2433
 254   2.0000      -0.449664       -12.2360
 255   2.0000      -0.448992       -12.2177
 256   2.0000      -0.447188       -12.1686
 257   2.0000      -0.444874       -12.1056
 258   2.0000      -0.444040       -12.0829
 259   2.0000      -0.442687       -12.0461
 260   2.0000      -0.441127       -12.0037
 261   2.0000      -0.439958       -11.9719
 262   2.0000      -0.438184       -11.9236
 263   2.0000      -0.435786       -11.8583
 264   2.0000      -0.435369       -11.8470
 265   2.0000      -0.433396       -11.7933
 266   2.0000      -0.432123       -11.7587
 267   2.0000      -0.430130       -11.7044
 268   2.0000      -0.429235       -11.6801
 269   2.0000      -0.426936       -11.6175
 270   2.0000      -0.423533       -11.5249
 271   2.0000      -0.421480       -11.4691
 272   2.0000      -0.419783       -11.4229
 273   2.0000      -0.418200       -11.3798
 274   2.0000      -0.418018       -11.3748
 275   2.0000      -0.413077       -11.2404
 276   2.0000      -0.412336       -11.2202
 277   2.0000      -0.408949       -11.1281
 278   2.0000      -0.406946       -11.0736
 279   2.0000      -0.402300       -10.9471
 280   2.0000      -0.395899       -10.7730
 281   2.0000      -0.389203       -10.5908
 282   2.0000      -0.384705       -10.4683
 283   2.0000      -0.377564       -10.2740
 284   2.0000      -0.376342       -10.2408
 285   2.0000      -0.368016       -10.0142
 286   2.0000      -0.366706        -9.9786
 287   2.0000      -0.362831        -9.8731
 288   2.0000      -0.361003        -9.8234
 289   2.0000      -0.347054        -9.4438
 290   2.0000      -0.342267        -9.3136
 291   2.0000      -0.334385        -9.0991
 292   2.0000      -0.332937        -9.0597
 293   2.0000      -0.327838        -8.9209
 294   2.0000      -0.327728        -8.9179
 295   2.0000      -0.314627        -8.5614
 296   2.0000      -0.312261        -8.4971
 297   2.0000      -0.310211        -8.4413
 298   2.0000      -0.305700        -8.3185
 299   2.0000      -0.296368        -8.0646
 300   2.0000      -0.292942        -7.9714
 301   2.0000      -0.284551        -7.7430
 302   2.0000      -0.260490        -7.0883
 303   2.0000      -0.237859        -6.4725
 304   0.0000      -0.122148        -3.3238
 305   0.0000      -0.102313        -2.7841
 306   0.0000      -0.097028        -2.6403
 307   0.0000      -0.064105        -1.7444
 308   0.0000      -0.058944        -1.6039

MULLIKEN ATOMIC CHARGES
-----------------------
   0 C :   -0.094678
   1 C :    0.304089
   2 F :   -0.190462
   3 C :   -0.034875
   4 C :   -0.007037
   5 C :    0.098456
   6 C :    0.098920
   7 C :   -0.081589
   8 C :    0.040806
   9 C :    0.014073
  10 C :   -0.079873
  11 C :    0.135530
  12 O :   -0.145988
  13 C :   -0.142154
  14 C :    0.247423
  15 C :   -0.346192
  16 C :   -0.190336
  17 N :    0.161638
  18 C :   -0.179461
  19 N :    0.162874
  20 C :    0.068699
  21 C :   -0.138495
  22 S :    0.183259
  23 C :   -0.092120
  24 C :   -0.050953
  25 C :    0.131253
  26 C :    0.000757
  27 C :   -0.106613
  28 C :    0.203747
  29 O :   -0.189610
  30 O :   -0.300771
  31 C :    0.185286
  32 S :    0.181207
  33 C :   -0.071119
  34 C :   -0.044728
  35 C :    0.004817
  36 C :   -0.090848
  37 S :    0.203443
  38 C :   -0.092133
  39 C :    0.019333
  40 C :    0.304172
  41 C :   -0.289767
  42 C :   -0.184926
  43 N :    0.177899
  44 C :   -0.187509
  45 N :    0.176649
  46 C :   -0.053036
  47 C :   -0.064173
  48 S :    0.173009
  49 C :   -0.012852
  50 C :   -0.099080
  51 C :    0.079191
  52 C :    0.054609
  53 C :   -0.117700
  54 S :    0.155344
  55 C :   -0.104965
  56 C :    0.054175
  57 C :    0.010702
  58 C :   -0.062170
  59 S :    0.136102
  60 C :    0.078279
  61 C :    0.023720
  62 C :   -0.002051
  63 C :    0.040806
  64 C :   -0.138087
  65 C :    0.130859
  66 O :   -0.155169
  67 C :    0.018610
  68 C :   -0.085134
  69 C :    0.101066
  70 C :    0.102412
  71 C :   -0.098511
  72 C :    0.303245
  73 C :   -0.032373
  74 C :   -0.011615
  75 F :   -0.193113
  76 C :   -0.092102
  77 C :    0.036220
  78 C :    0.283853
  79 C :   -0.369533
  80 C :   -0.205936
  81 N :    0.170759
  82 C :   -0.166668
  83 N :    0.140350
  84 H :   -0.001892
  85 H :    0.004012
  86 H :   -0.009698
  87 H :   -0.000368
  88 H :   -0.012460
  89 H :    0.021515
  90 H :    0.018127
  91 H :    0.042270
  92 H :    0.037669
  93 H :    0.044284
  94 H :    0.014923
  95 H :    0.022743
  96 H :   -0.005664
  97 H :    0.044223
  98 H :   -0.010582
  99 H :    0.033540
 100 H :   -0.002363
 101 H :   -0.024984
 102 H :    0.019573
 103 H :   -0.014499
 104 H :   -0.003723
 105 H :    0.001841
 106 H :   -0.010646
 107 H :   -0.008980
Sum of atomic charges:    0.0000000

LOEWDIN ATOMIC CHARGES
----------------------
   0 C :   -0.041333
   1 C :    0.093278
   2 F :   -0.064935
   3 C :   -0.037818
   4 C :    0.004567
   5 C :   -0.019462
   6 C :    0.003949
   7 C :    0.011262
   8 C :   -0.017266
   9 C :   -0.060379
  10 C :    0.034587
  11 C :    0.082120
  12 O :   -0.146637
  13 C :   -0.095087
  14 C :    0.057050
  15 C :   -0.137913
  16 C :   -0.015251
  17 N :   -0.052657
  18 C :   -0.019806
  19 N :   -0.051241
  20 C :    0.038230
  21 C :   -0.179278
  22 S :    0.475368
  23 C :   -0.181929
  24 C :   -0.180213
  25 C :   -0.051999
  26 C :   -0.013555
  27 C :   -0.180822
  28 C :    0.067080
  29 O :   -0.166346
  30 O :   -0.090666
  31 C :    0.085892
  32 S :    0.458773
  33 C :   -0.181203
  34 C :   -0.022428
  35 C :   -0.065033
  36 C :   -0.176449
  37 S :    0.481048
  38 C :   -0.175967
  39 C :   -0.064581
  40 C :    0.080317
  41 C :   -0.094511
  42 C :   -0.017875
  43 N :   -0.024200
  44 C :   -0.016088
  45 N :   -0.027673
  46 C :   -0.033914
  47 C :   -0.179170
  48 S :    0.483445
  49 C :   -0.170726
  50 C :   -0.030921
  51 C :    0.008329
  52 C :   -0.040459
  53 C :   -0.137128
  54 S :    0.485701
  55 C :   -0.205786
  56 C :   -0.030461
  57 C :   -0.061794
  58 C :   -0.155009
  59 S :    0.428589
  60 C :   -0.055144
  61 C :    0.052469
  62 C :   -0.064369
  63 C :    0.068717
  64 C :   -0.111115
  65 C :    0.080192
  66 O :   -0.155201
  67 C :   -0.057847
  68 C :    0.031066
  69 C :   -0.019791
  70 C :    0.002302
  71 C :   -0.043328
  72 C :    0.091711
  73 C :   -0.039204
  74 C :    0.003450
  75 F :   -0.067161
  76 C :    0.006385
  77 C :   -0.016326
  78 C :    0.065630
  79 C :   -0.156210
  80 C :   -0.017778
  81 N :   -0.046282
  82 C :   -0.021243
  83 N :   -0.064180
  84 H :    0.043496
  85 H :    0.041793
  86 H :    0.035502
  87 H :    0.040439
  88 H :    0.039425
  89 H :    0.046466
  90 H :    0.042942
  91 H :    0.027975
  92 H :    0.025933
  93 H :    0.030625
  94 H :    0.032705
  95 H :    0.036449
  96 H :    0.025668
  97 H :    0.040692
  98 H :    0.032435
  99 H :    0.026934
 100 H :    0.036425
 101 H :    0.024803
 102 H :    0.044062
 103 H :    0.038603
 104 H :    0.042417
 105 H :    0.041064
 106 H :    0.035061
 107 H :    0.037723

  Mayer bond orders larger than 0.100000
B(  0-C ,  1-C ) :   1.4389 B(  0-C ,  6-C ) :   1.2054 B(  0-C , 84-H ) :   1.0062
B(  1-C ,  2-F ) :   1.0885 B(  1-C ,  3-C ) :   1.2565 B(  3-C ,  4-C ) :   1.4593
B(  3-C , 85-H ) :   0.9931 B(  4-C ,  5-C ) :   1.2358 B(  4-C , 86-H ) :   0.9966
B(  5-C ,  6-C ) :   1.2560 B(  5-C , 10-C ) :   1.1899 B(  6-C ,  7-C ) :   1.1997
B(  7-C ,  8-C ) :   1.4684 B(  7-C , 87-H ) :   0.9942 B(  8-C ,  9-C ) :   1.2170
B(  8-C , 14-C ) :   0.9938 B(  9-C , 10-C ) :   1.4715 B(  9-C , 11-C ) :   0.9214
B( 10-C , 88-H ) :   1.0149 B( 11-C , 12-O ) :   2.2677 B( 11-C , 13-C ) :   0.9435
B( 13-C , 14-C ) :   1.0625 B( 13-C , 20-C ) :   1.6133 B( 14-C , 15-C ) :   1.6327
B( 15-C , 16-C ) :   1.1636 B( 15-C , 18-C ) :   1.1398 B( 16-C , 17-N ) :   3.0016
B( 18-C , 19-N ) :   2.9905 B( 20-C , 21-C ) :   1.1776 B( 20-C , 89-H ) :   0.9306
B( 21-C , 22-S ) :   1.1018 B( 21-C , 23-C ) :   0.1078 B( 21-C , 25-C ) :   1.3316
B( 22-S , 23-C ) :   1.1558 B( 23-C , 24-C ) :   1.5072 B( 23-C , 33-C ) :   1.1608
B( 24-C , 25-C ) :   1.2725 B( 24-C , 32-S ) :   1.0572 B( 25-C , 26-C ) :   1.1561
B( 26-C , 27-C ) :   1.6120 B( 26-C , 90-H ) :   0.9940 B( 27-C , 28-C ) :   0.9414
B( 27-C , 32-S ) :   1.0859 B( 28-C , 29-O ) :   2.1442 B( 28-C , 30-O ) :   1.2505
B( 30-O , 31-C ) :   0.9117 B( 31-C , 91-H ) :   0.9768 B( 31-C , 92-H ) :   0.9768
B( 31-C , 93-H ) :   0.9812 B( 33-C , 34-C ) :   1.4605 B( 33-C , 37-S ) :   1.0932
B( 34-C , 35-C ) :   1.3191 B( 34-C , 94-H ) :   0.9809 B( 35-C , 36-C ) :   1.4281
B( 35-C , 40-C ) :   0.9949 B( 36-C , 37-S ) :   1.1286 B( 36-C , 38-C ) :   1.1963
B( 38-C , 39-C ) :   1.4379 B( 38-C , 48-S ) :   1.1291 B( 39-C , 40-C ) :   0.9959
B( 39-C , 46-C ) :   1.3114 B( 40-C , 41-C ) :   1.7167 B( 41-C , 42-C ) :   1.1336
B( 41-C , 44-C ) :   1.1327 B( 42-C , 43-N ) :   2.9871 B( 44-C , 45-N ) :   2.9899
B( 46-C , 47-C ) :   1.4488 B( 46-C , 95-H ) :   0.9802 B( 47-C , 48-S ) :   1.1055
B( 47-C , 49-C ) :   1.1704 B( 49-C , 50-C ) :   1.4932 B( 49-C , 54-S ) :   1.0827
B( 50-C , 51-C ) :   1.2718 B( 50-C , 96-H ) :   0.9641 B( 51-C , 52-C ) :   1.0694
B( 51-C , 60-C ) :   1.3254 B( 52-C , 53-C ) :   1.5912 B( 52-C , 55-C ) :   1.1770
B( 53-C , 54-S ) :   1.1467 B( 53-C , 97-H ) :   0.9406 B( 55-C , 56-C ) :   1.4468
B( 55-C , 59-S ) :   1.0756 B( 56-C , 57-C ) :   1.2240 B( 56-C , 60-C ) :   1.0946
B( 57-C , 58-C ) :   1.5851 B( 57-C , 98-H ) :   0.9972 B( 58-C , 59-S ) :   1.1592
B( 58-C , 99-H ) :   0.9655 B( 60-C , 61-C ) :   1.2591 B( 61-C , 62-C ) :   1.5133
B( 61-C ,100-H ) :   0.9430 B( 62-C , 63-C ) :   1.2310 B( 62-C ,101-H ) :   0.9593
B( 63-C , 64-C ) :   1.5708 B( 63-C ,102-H ) :   0.9268 B( 64-C , 65-C ) :   0.9596
B( 64-C , 78-C ) :   1.0715 B( 65-C , 66-O ) :   2.2517 B( 65-C , 67-C ) :   0.9185
B( 67-C , 68-C ) :   1.4744 B( 67-C , 77-C ) :   1.2188 B( 68-C , 69-C ) :   1.1867
B( 68-C ,103-H ) :   1.0149 B( 69-C , 70-C ) :   1.2586 B( 69-C , 74-C ) :   1.2353
B( 70-C , 71-C ) :   1.2044 B( 70-C , 76-C ) :   1.1994 B( 71-C , 72-C ) :   1.4401
B( 71-C ,104-H ) :   1.0058 B( 72-C , 73-C ) :   1.2569 B( 72-C , 75-F ) :   1.0850
B( 73-C , 74-C ) :   1.4591 B( 73-C ,105-H ) :   0.9931 B( 74-C ,106-H ) :   0.9966
B( 76-C , 77-C ) :   1.4658 B( 76-C ,107-H ) :   0.9935 B( 77-C , 78-C ) :   0.9945
B( 78-C , 79-C ) :   1.6046 B( 79-C , 80-C ) :   1.1811 B( 79-C , 82-C ) :   1.1315
B( 80-C , 81-N ) :   2.9839 B( 82-C , 83-N ) :   2.9718

-----------------------------------------------------------------------------
         ABSORPTION SPECTRUM VIA TRANSITION ELECTRIC DIPOLE MOMENTS
-----------------------------------------------------------------------------
State   Energy  Wavelength   fosc         T2         TX        TY        TZ
        (cm-1)    (nm)                  (au**2)     (au)      (au)      (au)
-----------------------------------------------------------------------------
   0   10102.2    989.9   0.425945964  13.88077  -1.74328   3.25947  -0.46646
   1   14233.2    702.6   0.700612063  16.20509   0.82785  -2.92251   2.64172
   2   15753.4    634.8   0.246136816   5.14372   0.88669  -1.92729  -0.80192
   3   16613.6    601.9   0.679032489  13.45555   1.25893  -2.40028  -2.47170
   4   21624.4    462.4   0.168072685   2.55875  -1.40802   0.52632   0.54702
   5   21834.0    458.0   0.018336156   0.27647  -0.05514   0.32035   0.41329
   6   22004.4    454.5   0.052559983   0.78636  -0.00340   0.28321   0.84032
   7   22931.6    436.1   0.029654472   0.42573   0.47791  -0.28002  -0.34484
   8   24479.3    408.5   0.015498000   0.20843  -0.12948  -0.20006   0.38941
   9   24704.4    404.8   0.177970474   2.37165   0.41305  -0.91719   1.16611
  10   25485.1    392.4   0.055720606   0.71979  -0.60800   0.59125   0.02323
  11   26174.9    382.0   0.146854137   1.84704  -1.01862   0.87335   0.21614
  12   26405.2    378.7   0.042909622   0.53498  -0.47188   0.12920  -0.54371
  13   26681.0    374.8   0.250368353   3.08925  -0.81890   0.89469   1.27208
  14   27117.8    368.8   0.129467792   1.57175   0.55305  -0.04757  -1.12411
  15   27571.2    362.7   0.062361636   0.74463  -0.02904   0.59931   0.62017
  16   27671.8    361.4   0.036729190   0.43697  -0.36452   0.51986   0.18396
  17   28205.2    354.5   0.054797380   0.63960  -0.53340   0.48198  -0.35040
  18   28504.5    350.8   0.085399180   0.98632  -0.79227   0.59819   0.02804
  19   29038.4    344.4   0.028950367   0.32821  -0.10941   0.15640  -0.54017
  20   29193.9    342.5   0.050357175   0.56786  -0.37793   0.22603   0.61151
  21   29701.2    336.7   0.122280826   1.35538  -0.14940   0.29049  -1.11744
  22   30009.6    333.2   0.056409604   0.61883   0.42819   0.06935   0.65625
  23   30278.0    330.3   0.192854041   2.09690   0.63110  -0.79571  -1.03221
  24   30829.9    324.4   0.095187325   1.01644   0.23498  -0.57584  -0.79350
  25   31081.2    321.7   0.426365672   4.51607   0.30068  -0.14597   2.09866
  26   31297.2    319.5   0.006967151   0.07329   0.25373  -0.03204  -0.08878
  27   31356.2    318.9   0.015428420   0.16198   0.18145   0.25577  -0.25227
  28   31604.5    316.4   0.052204617   0.54380  -0.03590   0.14502  -0.72213
  29   32098.1    311.5   0.046505477   0.47698   0.43776  -0.52875   0.07592
  30   32315.8    309.4   0.147027720   1.49782  -0.27158   0.46787  -1.09780
  31   32639.4    306.4   0.117642596   1.18658  -0.82643   0.67253  -0.22649
  32   32771.0    305.1   0.328886070   3.30393   1.01270  -1.07820   1.05634
  33   32998.5    303.0   0.295225016   2.94533   0.82961  -1.32027  -0.71691
  34   33185.6    301.3   0.044540723   0.44186  -0.30213   0.50664   0.30642
  35   33399.5    299.4   0.107083294   1.05550  -0.25522   0.00726  -0.99514
  36   33595.9    297.7   0.280047546   2.74424   1.07424  -0.86277  -0.91971
  37   33901.0    295.0   0.295982721   2.87428  -0.70807   1.37639  -0.69172
  38   34071.2    293.5   0.427385513   4.12961   0.39609  -0.49251   1.93136
  39   34140.6    292.9   0.119426688   1.15161  -0.65317   0.84121   0.13173
  40   34548.2    289.5   0.027620059   0.26319   0.29432  -0.32986  -0.26031
  41   34630.3    288.8   0.025051683   0.23815   0.06456  -0.00438   0.48370
  42   34936.4    286.2   0.037266289   0.35117  -0.49967   0.07701  -0.30913
  43   35022.6    285.5   0.050074494   0.47070   0.06681   0.30339   0.61171
  44   35253.5    283.7   0.014100956   0.13168  -0.22184   0.19886  -0.20718
  45   35587.7    281.0   0.050473624   0.46692  -0.13852  -0.13319  -0.65574
  46   35754.3    279.7   0.131575117   1.21149  -0.73298   0.72569  -0.38419
  47   36156.0    276.6   0.013095326   0.11924  -0.17333  -0.29375  -0.05392
  48   36233.1    276.0   0.022379770   0.20334  -0.22170   0.38778  -0.06176
  49   36494.8    274.0   0.318651457   2.87448   0.77905  -0.88941  -1.21513
  50   36662.4    272.8   0.033632963   0.30201   0.38006  -0.16444  -0.36128
  51   36933.8    270.8   0.009187550   0.08189   0.24183  -0.09008   0.12368
  52   37056.9    269.9   0.001824058   0.01620  -0.12711  -0.00550  -0.00420
  53   37149.2    269.2   0.025840706   0.22900   0.25473  -0.38946  -0.11150
  54   37302.9    268.1   0.026528092   0.23412   0.01951  -0.44991  -0.17698
  55   37550.5    266.3   0.000935350   0.00820  -0.01640   0.07752   0.04385
  56   37698.0    265.3   0.139263930   1.21618   0.77711  -0.28085  -0.73034
  57   38132.2    262.2   0.048325133   0.41721   0.44370  -0.45019   0.13291
  58   38270.3    261.3   0.056358976   0.48482  -0.45525   0.23963  -0.46919
  59   38356.7    260.7   0.020546796   0.17635  -0.03159   0.41834   0.01850
  60   38423.3    260.3   0.038157845   0.32694  -0.31757   0.09728  -0.46543
  61   39025.0    256.2   0.043998940   0.37117   0.08535   0.40065   0.45097
  62   39186.6    255.2   0.005685957   0.04777  -0.02264  -0.19833  -0.08899
  63   39301.6    254.4   0.107029794   0.89654  -0.05027   0.66449   0.67265
  64   39544.3    252.9   0.079635545   0.66298  -0.18025   0.19717   0.76916
  65   39667.4    252.1   0.008267909   0.06862  -0.03082   0.18211  -0.18575
  66   39860.9    250.9   0.040597581   0.33530  -0.33282  -0.36082   0.30714
  67   40109.4    249.3   0.040972879   0.33630   0.30963   0.01472  -0.49011
  68   40232.7    248.6   0.185329353   1.51649  -0.18304   0.53823  -1.09238

FINAL SINGLE POINT ENERGY     -5742.633323512385

DIPOLE MOMENT
-------------
                                X             Y             Z
Electronic contribution:      3.44092       2.05555      -9.80860
Nuclear contribution   :     -3.42660      -1.82642      10.15730
                        -----------------------------------------
Total Dipole Moment    :      0.01431       0.22913       0.34870
                        -----------------------------------------
Magnitude (a.u.)       :      0.41750
Magnitude (Debye)      :      1.06119

Rotational constants in cm-1:     0.000924     0.000189     0.000160
Rotational constants in MHz :    27.711828     5.674627     4.793836

                             ****ORCA TERMINATED NORMALLY****
TOTAL RUN TIME: 0 days 0 hours 12 minutes 40 seconds 645 msec
