                         Program Version 4.2.0 -  RELEASE  -
|  1> # ORCA input file
|  2> # SCF done       -170.333171440492          0.000189332867
|  3> ! CAM-B3LYP def2-SVP def2/J RIJCOSX Grid4 TightSCF
|  4> %maxcore 5000
|  5> %tddft
|  6>     Mode sTDDFT
|  7>     Ethresh 5.0
|  8>     maxcore 5000
|  9> end
| 10>
| 11> %pal
| 12>   nprocs 6
| 13>   end
| 14> * xyz 0 1
| 15>    C       -4.73426        -5.43704         5.33704
| 16>    N       -3.60001        -5.69985         4.74877
| 17>    N       -3.51974        -5.98205         3.47408
| 18>    C       -4.57432        -6.02420         2.67813
| 19>    C       -5.86792        -5.75508         3.21010
| 20>    C       -5.94297        -5.44778         4.60804
| 21>    N       -7.19499        -5.21456         5.00116
| 22>    S       -8.16811        -5.36926         3.73336
| 23>    N       -7.06164        -5.73762         2.62526
| 24>    C       -4.34757        -6.34290         1.30579
| 25>    C       -5.26465        -6.43941         0.27920
| 26>    C       -4.64628        -6.76980        -0.92638
| 27>    C       -3.25120        -6.92291        -0.79643
| 28>    S       -2.70198        -6.66107         0.79567
| 29>    C       -2.72016        -7.25384        -2.07097
| 30>    C       -3.77081        -7.30726        -2.99990
| 31>    C       -5.01784        -7.00655        -2.30995
| 32>    C       -6.26904        -6.95904        -2.85132
| 33>    C       -6.50827        -7.20902        -4.21910
| 34>    N       -6.71340        -7.41147        -5.32897
| 35>    C       -7.41288        -6.65758        -2.08197
| 36>    N       -8.35093        -6.41379        -1.46919
| 37>    C       -3.34085        -7.62340        -4.28976
| 38>    C       -1.97359        -7.81216        -4.34644
| 39>    S       -1.20534        -7.59597        -2.78268
| 40>    C       -1.19106        -8.13784        -5.48820
| 41>    C        0.15997        -8.34829        -5.54073
| 42>    C        0.62679        -8.64548        -6.84014
| 43>    C       -0.41210        -8.65513        -7.78612
| 44>    S       -1.95199        -8.30381        -7.06115
| 45>    C       -0.22836        -8.91062        -9.14092
| 46>    O       -1.37914        -8.86634        -9.85785
| 47>    C       -1.44245        -9.13915       -11.23551
| 48>    C        1.09307        -9.16507        -9.55556
| 49>    C        2.15226        -9.16446        -8.58646
| 50>    C        1.95513        -8.91369        -7.23965
| 51>    O        2.85492        -8.88188        -6.22541
| 52>    C        4.22091        -9.13820        -6.44939
| 53>    S        3.69162        -9.50892        -9.35919
| 54>    C        2.93748        -9.63396       -10.92467
| 55>    C        1.58771        -9.43256       -10.85788
| 56>    C        3.71466        -9.90697       -12.08467
| 57>    C        3.26991        -9.99197       -13.39170
| 58>    C        4.31125       -10.26266       -14.27847
| 59>    C        5.55688       -10.38707       -13.64309
| 60>    S        5.44390       -10.16894       -11.95259
| 61>    C        6.54517       -10.65358       -14.62633
| 62>    C        5.91420       -10.69416       -15.88709
| 63>    C        4.49536       -10.45221       -15.71070
| 64>    C        3.52946       -10.40623       -16.67456
| 65>    C        3.81447       -10.60142       -18.04207
| 66>    N        4.03227       -10.75798       -19.15695
| 67>    C        2.17802       -10.15797       -16.35876
| 68>    N        1.08014        -9.95537       -16.09458
| 69>    C        6.80890       -10.94414       -16.92765
| 70>    C        8.09792       -11.09169       -16.45910
| 71>    S        8.22561       -10.92461       -14.71927
| 72>    C        9.29161       -11.34970       -17.19733
| 73>    N       10.41696       -11.46070       -16.51288
| 74>    N       11.57396       -11.69326       -17.07707
| 75>    C       11.70774       -11.83215       -18.36719
| 76>    C       10.58829       -11.73621       -19.22175
| 77>    C        9.31442       -11.48432       -18.61510
| 78>    N        8.33462       -11.41304       -19.51084
| 79>    S        8.96273       -11.64184       -20.97422
| 80>    N       10.49765       -11.84126       -20.54734
| 81>    H       -4.70300        -5.21476         6.39208
| 82>    H       -6.31646        -6.27331         0.42732
| 83>    H       -3.97306        -7.71591        -5.15437
| 84>    H        0.80724        -8.29363        -4.68445
| 85>    H       -2.50104        -9.07136       -11.48528
| 86>    H       -1.08673       -10.14729       -11.46586
| 87>    H       -0.89295        -8.39622       -11.82076
| 88>    H        4.68862        -9.05791        -5.46881
| 89>    H        4.66851        -8.40113        -7.12100
| 90>    H        4.38675       -10.14384        -6.84414
| 91>    H        0.98333        -9.47646       -11.74115
| 92>    H        2.24320        -9.85900       -13.67702
| 93>    H        6.56160       -11.01772       -17.97135
| 94>    H       12.70113       -12.02058       -18.74287
| 95> *
| 96>
| 97>                          ****END OF INPUT****

CARTESIAN COORDINATES (ANGSTROEM)
---------------------------------
  C     -4.734260   -5.437040    5.337040
  N     -3.600010   -5.699850    4.748770
  N     -3.519740   -5.982050    3.474080
  C     -4.574320   -6.024200    2.678130
  C     -5.867920   -5.755080    3.210100
  C     -5.942970   -5.447780    4.608040
  N     -7.194990   -5.214560    5.001160
  S     -8.168110   -5.369260    3.733360
  N     -7.061640   -5.737620    2.625260
  C     -4.347570   -6.342900    1.305790
  C     -5.264650   -6.439410    0.279200
  C     -4.646280   -6.769800   -0.926380
  C     -3.251200   -6.922910   -0.796430
  S     -2.701980   -6.661070    0.795670
  C     -2.720160   -7.253840   -2.070970
  C     -3.770810   -7.307260   -2.999900
  C     -5.017840   -7.006550   -2.309950
  C     -6.269040   -6.959040   -2.851320
  C     -6.508270   -7.209020   -4.219100
  N     -6.713400   -7.411470   -5.328970
  C     -7.412880   -6.657580   -2.081970
  N     -8.350930   -6.413790   -1.469190
  C     -3.340850   -7.623400   -4.289760
  C     -1.973590   -7.812160   -4.346440
  S     -1.205340   -7.595970   -2.782680
  C     -1.191060   -8.137840   -5.488200
  C      0.159970   -8.348290   -5.540730
  C      0.626790   -8.645480   -6.840140
  C     -0.412100   -8.655130   -7.786120
  S     -1.951990   -8.303810   -7.061150
  C     -0.228360   -8.910620   -9.140920
  O     -1.379140   -8.866340   -9.857850
  C     -1.442450   -9.139150  -11.235510
  C      1.093070   -9.165070   -9.555560
  C      2.152260   -9.164460   -8.586460
  C      1.955130   -8.913690   -7.239650
  O      2.854920   -8.881880   -6.225410
  C      4.220910   -9.138200   -6.449390
  S      3.691620   -9.508920   -9.359190
  C      2.937480   -9.633960  -10.924670
  C      1.587710   -9.432560  -10.857880
  C      3.714660   -9.906970  -12.084670
  C      3.269910   -9.991970  -13.391700
  C      4.311250  -10.262660  -14.278470
  C      5.556880  -10.387070  -13.643090
  S      5.443900  -10.168940  -11.952590
  C      6.545170  -10.653580  -14.626330
  C      5.914200  -10.694160  -15.887090
  C      4.495360  -10.452210  -15.710700
  C      3.529460  -10.406230  -16.674560
  C      3.814470  -10.601420  -18.042070
  N      4.032270  -10.757980  -19.156950
  C      2.178020  -10.157970  -16.358760
  N      1.080140   -9.955370  -16.094580
  C      6.808900  -10.944140  -16.927650
  C      8.097920  -11.091690  -16.459100
  S      8.225610  -10.924610  -14.719270
  C      9.291610  -11.349700  -17.197330
  N     10.416960  -11.460700  -16.512880
  N     11.573960  -11.693260  -17.077070
  C     11.707740  -11.832150  -18.367190
  C     10.588290  -11.736210  -19.221750
  C      9.314420  -11.484320  -18.615100
  N      8.334620  -11.413040  -19.510840
  S      8.962730  -11.641840  -20.974220
  N     10.497650  -11.841260  -20.547340
  H     -4.703000   -5.214760    6.392080
  H     -6.316460   -6.273310    0.427320
  H     -3.973060   -7.715910   -5.154370
  H      0.807240   -8.293630   -4.684450
  H     -2.501040   -9.071360  -11.485280
  H     -1.086730  -10.147290  -11.465860
  H     -0.892950   -8.396220  -11.820760
  H      4.688620   -9.057910   -5.468810
  H      4.668510   -8.401130   -7.121000
  H      4.386750  -10.143840   -6.844140
  H      0.983330   -9.476460  -11.741150
  H      2.243200   -9.859000  -13.677020
  H      6.561600  -11.017720  -17.971350
  H     12.701130  -12.020580  -18.742870

 Total Charge           Charge          ....    0
 Multiplicity           Mult            ....    1
 Number of Electrons    NEL             ....  506
 Basis Dimension        Dim             .... 1026

ORBITAL ENERGIES
----------------

  NO   OCC          E(Eh)            E(eV)
   0   2.0000     -89.048050     -2423.1206
   1   2.0000     -89.045471     -2423.0505
   2   2.0000     -88.992182     -2421.6004
   3   2.0000     -88.986921     -2421.4572
   4   2.0000     -88.985777     -2421.4261
   5   2.0000     -88.983339     -2421.3598
   6   2.0000     -88.959867     -2420.7211
   7   2.0000     -88.952511     -2420.5209
   8   2.0000     -19.254492      -523.9414
   9   2.0000     -19.254396      -523.9388
  10   2.0000     -14.463538      -393.5729
  11   2.0000     -14.460911      -393.5014
  12   2.0000     -14.460885      -393.5007
  13   2.0000     -14.458437      -393.4341
  14   2.0000     -14.445950      -393.0943
  15   2.0000     -14.444088      -393.0436
  16   2.0000     -14.443456      -393.0264
  17   2.0000     -14.441281      -392.9672
  18   2.0000     -14.431853      -392.7107
  19   2.0000     -14.429510      -392.6469
  20   2.0000     -14.425315      -392.5328
  21   2.0000     -14.425209      -392.5299
  22   2.0000     -10.363853      -282.0148
  23   2.0000     -10.359418      -281.8941
  24   2.0000     -10.352090      -281.6947
  25   2.0000     -10.347412      -281.5674
  26   2.0000     -10.347204      -281.5617
  27   2.0000     -10.345841      -281.5246
  28   2.0000     -10.344600      -281.4909
  29   2.0000     -10.343981      -281.4740
  30   2.0000     -10.343729      -281.4672
  31   2.0000     -10.343227      -281.4535
  32   2.0000     -10.342791      -281.4417
  33   2.0000     -10.340337      -281.3749
  34   2.0000     -10.334342      -281.2117
  35   2.0000     -10.332787      -281.1694
  36   2.0000     -10.330924      -281.1187
  37   2.0000     -10.330136      -281.0973
  38   2.0000     -10.329970      -281.0928
  39   2.0000     -10.329916      -281.0913
  40   2.0000     -10.329819      -281.0887
  41   2.0000     -10.329726      -281.0861
  42   2.0000     -10.326229      -280.9910
  43   2.0000     -10.325690      -280.9763
  44   2.0000     -10.325648      -280.9752
  45   2.0000     -10.324915      -280.9552
  46   2.0000     -10.324020      -280.9309
  47   2.0000     -10.322396      -280.8867
  48   2.0000     -10.318789      -280.7885
  49   2.0000     -10.317291      -280.7478
  50   2.0000     -10.313932      -280.6564
  51   2.0000     -10.312814      -280.6259
  52   2.0000     -10.312153      -280.6079
  53   2.0000     -10.305894      -280.4376
  54   2.0000     -10.302122      -280.3350
  55   2.0000     -10.301390      -280.3151
  56   2.0000     -10.300792      -280.2988
  57   2.0000     -10.299562      -280.2653
  58   2.0000     -10.298094      -280.2254
  59   2.0000     -10.297843      -280.2186
  60   2.0000     -10.297732      -280.2155
  61   2.0000     -10.296240      -280.1749
  62   2.0000     -10.295888      -280.1653
  63   2.0000     -10.289120      -279.9812
  64   2.0000     -10.283351      -279.8242
  65   2.0000     -10.279271      -279.7132
  66   2.0000      -8.139724      -221.4932
  67   2.0000      -8.137144      -221.4229
  68   2.0000      -8.086765      -220.0521
  69   2.0000      -8.080737      -219.8880
  70   2.0000      -8.080264      -219.8752
  71   2.0000      -8.077147      -219.7903
  72   2.0000      -8.055205      -219.1933
  73   2.0000      -8.047352      -218.9796
  74   2.0000      -6.110808      -166.2836
  75   2.0000      -6.108212      -166.2129
  76   2.0000      -6.102950      -166.0697
  77   2.0000      -6.102434      -166.0557
  78   2.0000      -6.100382      -165.9998
  79   2.0000      -6.099861      -165.9857
  80   2.0000      -6.056033      -164.7930
  81   2.0000      -6.051794      -164.6777
  82   2.0000      -6.050004      -164.6290
  83   2.0000      -6.049523      -164.6159
  84   2.0000      -6.049167      -164.6062
  85   2.0000      -6.046419      -164.5314
  86   2.0000      -6.045626      -164.5098
  87   2.0000      -6.045372      -164.5029
  88   2.0000      -6.043316      -164.4470
  89   2.0000      -6.042604      -164.4276
  90   2.0000      -6.042030      -164.4120
  91   2.0000      -6.039741      -164.3497
  92   2.0000      -6.025167      -163.9531
  93   2.0000      -6.020853      -163.8357
  94   2.0000      -6.017076      -163.7330
  95   2.0000      -6.016106      -163.7066
  96   2.0000      -6.012937      -163.6203
  97   2.0000      -6.008615      -163.5027
  98   2.0000      -1.159170       -31.5426
  99   2.0000      -1.157699       -31.5026
 100   2.0000      -1.150536       -31.3077
 101   2.0000      -1.147927       -31.2367
 102   2.0000      -1.121070       -30.5059
 103   2.0000      -1.118411       -30.4335
 104   2.0000      -1.044756       -28.4293
 105   2.0000      -1.039947       -28.2984
 106   2.0000      -1.022586       -27.8260
 107   2.0000      -1.017269       -27.6813
 108   2.0000      -1.009291       -27.4642
 109   2.0000      -1.007498       -27.4154
 110   2.0000      -1.004546       -27.3351
 111   2.0000      -1.002513       -27.2798
 112   2.0000      -1.001246       -27.2453
 113   2.0000      -0.996151       -27.1067
 114   2.0000      -0.989832       -26.9347
 115   2.0000      -0.979140       -26.6437
 116   2.0000      -0.961025       -26.1508
 117   2.0000      -0.955817       -26.0091
 118   2.0000      -0.937056       -25.4986
 119   2.0000      -0.933551       -25.4032
 120   2.0000      -0.920081       -25.0367
 121   2.0000      -0.918678       -24.9985
 122   2.0000      -0.916499       -24.9392
 123   2.0000      -0.902943       -24.5703
 124   2.0000      -0.892916       -24.2975
 125   2.0000      -0.881050       -23.9746
 126   2.0000      -0.870455       -23.6863
 127   2.0000      -0.864140       -23.5145
 128   2.0000      -0.856415       -23.3042
 129   2.0000      -0.850842       -23.1526
 130   2.0000      -0.844334       -22.9755
 131   2.0000      -0.843594       -22.9553
 132   2.0000      -0.822361       -22.3776
 133   2.0000      -0.811630       -22.0856
 134   2.0000      -0.810103       -22.0440
 135   2.0000      -0.802889       -21.8477
 136   2.0000      -0.787914       -21.4402
 137   2.0000      -0.776866       -21.1396
 138   2.0000      -0.772325       -21.0160
 139   2.0000      -0.770501       -20.9664
 140   2.0000      -0.754170       -20.5220
 141   2.0000      -0.750037       -20.4095
 142   2.0000      -0.744171       -20.2499
 143   2.0000      -0.738917       -20.1070
 144   2.0000      -0.728804       -19.8318
 145   2.0000      -0.713410       -19.4129
 146   2.0000      -0.703290       -19.1375
 147   2.0000      -0.692855       -18.8535
 148   2.0000      -0.688357       -18.7312
 149   2.0000      -0.684021       -18.6132
 150   2.0000      -0.679418       -18.4879
 151   2.0000      -0.675726       -18.3874
 152   2.0000      -0.671064       -18.2606
 153   2.0000      -0.659171       -17.9369
 154   2.0000      -0.649149       -17.6642
 155   2.0000      -0.646443       -17.5906
 156   2.0000      -0.643671       -17.5152
 157   2.0000      -0.637100       -17.3364
 158   2.0000      -0.629736       -17.1360
 159   2.0000      -0.618875       -16.8405
 160   2.0000      -0.616594       -16.7784
 161   2.0000      -0.614289       -16.7157
 162   2.0000      -0.612730       -16.6732
 163   2.0000      -0.610009       -16.5992
 164   2.0000      -0.609830       -16.5943
 165   2.0000      -0.607461       -16.5299
 166   2.0000      -0.594845       -16.1866
 167   2.0000      -0.586694       -15.9648
 168   2.0000      -0.575535       -15.6611
 169   2.0000      -0.575202       -15.6520
 170   2.0000      -0.572924       -15.5901
 171   2.0000      -0.567419       -15.4403
 172   2.0000      -0.565563       -15.3897
 173   2.0000      -0.561274       -15.2730
 174   2.0000      -0.560200       -15.2438
 175   2.0000      -0.558421       -15.1954
 176   2.0000      -0.550859       -14.9896
 177   2.0000      -0.547254       -14.8915
 178   2.0000      -0.542520       -14.7627
 179   2.0000      -0.541742       -14.7416
 180   2.0000      -0.537993       -14.6395
 181   2.0000      -0.533934       -14.5291
 182   2.0000      -0.520416       -14.1612
 183   2.0000      -0.515491       -14.0272
 184   2.0000      -0.514311       -13.9951
 185   2.0000      -0.512579       -13.9480
 186   2.0000      -0.510510       -13.8917
 187   2.0000      -0.508655       -13.8412
 188   2.0000      -0.505334       -13.7508
 189   2.0000      -0.504582       -13.7304
 190   2.0000      -0.498517       -13.5653
 191   2.0000      -0.497731       -13.5439
 192   2.0000      -0.495799       -13.4914
 193   2.0000      -0.494131       -13.4460
 194   2.0000      -0.492352       -13.3976
 195   2.0000      -0.490150       -13.3377
 196   2.0000      -0.487975       -13.2785
 197   2.0000      -0.481864       -13.1122
 198   2.0000      -0.480390       -13.0721
 199   2.0000      -0.476710       -12.9719
 200   2.0000      -0.473442       -12.8830
 201   2.0000      -0.468085       -12.7373
 202   2.0000      -0.465792       -12.6748
 203   2.0000      -0.463928       -12.6241
 204   2.0000      -0.462846       -12.5947
 205   2.0000      -0.458835       -12.4855
 206   2.0000      -0.456768       -12.4293
 207   2.0000      -0.454165       -12.3585
 208   2.0000      -0.452601       -12.3159
 209   2.0000      -0.446087       -12.1386
 210   2.0000      -0.445559       -12.1243
 211   2.0000      -0.443787       -12.0761
 212   2.0000      -0.442817       -12.0497
 213   2.0000      -0.441357       -12.0099
 214   2.0000      -0.439914       -11.9707
 215   2.0000      -0.438903       -11.9432
 216   2.0000      -0.437431       -11.9031
 217   2.0000      -0.435502       -11.8506
 218   2.0000      -0.434955       -11.8357
 219   2.0000      -0.434631       -11.8269
 220   2.0000      -0.431839       -11.7509
 221   2.0000      -0.430068       -11.7027
 222   2.0000      -0.427169       -11.6239
 223   2.0000      -0.425934       -11.5903
 224   2.0000      -0.423756       -11.5310
 225   2.0000      -0.420418       -11.4402
 226   2.0000      -0.409776       -11.1506
 227   2.0000      -0.407090       -11.0775
 228   2.0000      -0.403928       -10.9914
 229   2.0000      -0.401495       -10.9252
 230   2.0000      -0.393346       -10.7035
 231   2.0000      -0.390788       -10.6339
 232   2.0000      -0.390024       -10.6131
 233   2.0000      -0.387343       -10.5401
 234   2.0000      -0.387102       -10.5336
 235   2.0000      -0.381120       -10.3708
 236   2.0000      -0.374508       -10.1909
 237   2.0000      -0.371504       -10.1091
 238   2.0000      -0.363503        -9.8914
 239   2.0000      -0.354755        -9.6534
 240   2.0000      -0.349441        -9.5088
 241   2.0000      -0.344474        -9.3736
 242   2.0000      -0.343785        -9.3549
 243   2.0000      -0.333862        -9.0849
 244   2.0000      -0.324229        -8.8227
 245   2.0000      -0.320742        -8.7278
 246   2.0000      -0.314191        -8.5496
 247   2.0000      -0.308894        -8.4054
 248   2.0000      -0.306242        -8.3333
 249   2.0000      -0.301743        -8.2109
 250   2.0000      -0.265875        -7.2348
 251   2.0000      -0.258666        -7.0387
 252   2.0000      -0.231194        -6.2911
 253   0.0000      -0.107318        -2.9203
 254   0.0000      -0.102004        -2.7757
 255   0.0000      -0.086341        -2.3495
 256   0.0000      -0.083021        -2.2591
 257   0.0000      -0.048534        -1.3207

MULLIKEN ATOMIC CHARGES
-----------------------
   0 C :   -0.020340
   1 N :   -0.036156
   2 N :   -0.078143
   3 C :    0.027786
   4 C :    0.005122
   5 C :    0.046074
   6 N :   -0.252921
   7 S :    0.544918
   8 N :   -0.253904
   9 C :   -0.134273
  10 C :   -0.044589
  11 C :    0.003335
  12 C :   -0.080719
  13 S :    0.242776
  14 C :   -0.109844
  15 C :    0.020365
  16 C :    0.305357
  17 C :   -0.303701
  18 C :   -0.190970
  19 N :    0.175357
  20 C :   -0.190033
  21 N :    0.173358
  22 C :   -0.066659
  23 C :   -0.036761
  24 S :    0.190538
  25 C :   -0.020225
  26 C :   -0.088863
  27 C :    0.068718
  28 C :   -0.111359
  29 S :    0.149684
  30 C :    0.128205
  31 O :   -0.309588
  32 C :    0.187046
  33 C :    0.063539
  34 C :   -0.124865
  35 C :    0.110365
  36 O :   -0.308243
  37 C :    0.170442
  38 S :    0.063744
  39 C :   -0.000075
  40 C :   -0.098145
  41 C :   -0.042679
  42 C :   -0.056531
  43 C :    0.018643
  44 C :   -0.113582
  45 S :    0.196007
  46 C :   -0.085005
  47 C :    0.002674
  48 C :    0.307142
  49 C :   -0.298537
  50 C :   -0.189531
  51 N :    0.174415
  52 C :   -0.182795
  53 N :    0.159478
  54 C :   -0.041480
  55 C :   -0.138547
  56 S :    0.244859
  57 C :    0.031664
  58 N :   -0.079371
  59 N :   -0.035926
  60 C :   -0.018321
  61 C :    0.045648
  62 C :    0.004034
  63 N :   -0.251967
  64 S :    0.546140
  65 N :   -0.253184
  66 H :    0.004525
  67 H :    0.018459
  68 H :    0.017362
  69 H :   -0.011526
  70 H :    0.042253
  71 H :    0.032147
  72 H :    0.035132
  73 H :    0.039980
  74 H :    0.037352
  75 H :    0.035930
  76 H :   -0.035721
  77 H :    0.001616
  78 H :    0.018025
  79 H :    0.004869
Sum of atomic charges:    0.0000000

LOEWDIN ATOMIC CHARGES
----------------------
   0 C :   -0.001016
   1 N :   -0.033367
   2 N :   -0.081499
   3 C :   -0.015418
   4 C :   -0.060315
   5 C :   -0.068065
   6 N :   -0.269864
   7 S :    0.679239
   8 N :   -0.267730
   9 C :   -0.188697
  10 C :   -0.006013
  11 C :   -0.081266
  12 C :   -0.165881
  13 S :    0.519276
  14 C :   -0.187430
  15 C :   -0.062075
  16 C :    0.082051
  17 C :   -0.103607
  18 C :   -0.017598
  19 N :   -0.033378
  20 C :   -0.016983
  21 N :   -0.033670
  22 C :   -0.036952
  23 C :   -0.168894
  24 S :    0.482552
  25 C :   -0.172502
  26 C :   -0.051001
  27 C :   -0.058408
  28 C :   -0.171278
  29 S :    0.426892
  30 C :    0.027553
  31 O :   -0.103417
  32 C :    0.080556
  33 C :   -0.072043
  34 C :   -0.182665
  35 C :    0.025551
  36 O :   -0.102134
  37 C :    0.064824
  38 S :    0.385499
  39 C :   -0.182566
  40 C :   -0.049530
  41 C :   -0.171812
  42 C :   -0.029912
  43 C :   -0.060715
  44 C :   -0.191901
  45 S :    0.476976
  46 C :   -0.164478
  47 C :   -0.083289
  48 C :    0.083475
  49 C :   -0.105854
  50 C :   -0.017966
  51 N :   -0.031957
  52 C :   -0.013428
  53 N :   -0.041611
  54 C :   -0.005335
  55 C :   -0.188124
  56 S :    0.520058
  57 C :   -0.015551
  58 N :   -0.081070
  59 N :   -0.033234
  60 C :    0.000069
  61 C :   -0.067880
  62 C :   -0.060550
  63 N :   -0.268007
  64 S :    0.680110
  65 N :   -0.269259
  66 H :    0.034848
  67 H :    0.041262
  68 H :    0.037999
  69 H :    0.027676
  70 H :    0.033957
  71 H :    0.018042
  72 H :    0.018138
  73 H :    0.031862
  74 H :    0.012870
  75 H :    0.012859
  76 H :    0.028348
  77 H :    0.038250
  78 H :    0.041364
  79 H :    0.035039

  Mayer bond orders larger than 0.100000
B(  0-C ,  1-N ) :   1.7388 B(  0-C ,  3-C ) :   0.1027 B(  0-C ,  5-C ) :   1.1253
B(  0-C , 66-H ) :   1.0146 B(  1-N ,  2-N ) :   1.1994 B(  2-N ,  3-C ) :   1.7430
B(  3-C ,  4-C ) :   1.1153 B(  3-C ,  9-C ) :   1.1520 B(  4-C ,  5-C ) :   1.2004
B(  4-C ,  8-N ) :   1.5530 B(  5-C ,  6-N ) :   1.5035 B(  6-N ,  7-S ) :   1.2966
B(  6-N ,  8-N ) :   0.1462 B(  7-S ,  8-N ) :   1.2697 B(  9-C , 10-C ) :   1.4884
B(  9-C , 13-S ) :   1.0791 B( 10-C , 11-C ) :   1.2659 B( 10-C , 67-H ) :   0.9831
B( 11-C , 12-C ) :   1.4265 B( 11-C , 16-C ) :   1.0006 B( 12-C , 13-S ) :   1.1353
B( 12-C , 14-C ) :   1.1864 B( 14-C , 15-C ) :   1.4557 B( 14-C , 24-S ) :   1.1155
B( 15-C , 16-C ) :   0.9892 B( 15-C , 22-C ) :   1.2877 B( 16-C , 17-C ) :   1.7112
B( 17-C , 18-C ) :   1.1333 B( 17-C , 20-C ) :   1.1377 B( 18-C , 19-N ) :   2.9945
B( 20-C , 21-N ) :   2.9915 B( 22-C , 23-C ) :   1.4623 B( 22-C , 68-H ) :   0.9920
B( 23-C , 24-S ) :   1.1147 B( 23-C , 25-C ) :   1.1553 B( 25-C , 26-C ) :   1.5330
B( 25-C , 29-S ) :   1.0725 B( 26-C , 27-C ) :   1.1871 B( 26-C , 69-H ) :   1.0031
B( 27-C , 28-C ) :   1.3835 B( 27-C , 35-C ) :   1.2636 B( 28-C , 29-S ) :   1.0394
B( 28-C , 30-C ) :   1.3827 B( 30-C , 31-O ) :   1.2662 B( 30-C , 33-C ) :   1.2342
B( 31-O , 32-C ) :   0.9459 B( 32-C , 70-H ) :   0.9728 B( 32-C , 71-H ) :   0.9675
B( 32-C , 72-H ) :   0.9672 B( 33-C , 34-C ) :   1.2591 B( 33-C , 40-C ) :   1.1539
B( 34-C , 35-C ) :   1.4035 B( 34-C , 38-S ) :   1.0026 B( 35-C , 36-O ) :   1.2314
B( 36-O , 37-C ) :   0.9443 B( 37-C , 73-H ) :   0.9754 B( 37-C , 74-H ) :   0.9667
B( 37-C , 75-H ) :   0.9669 B( 38-S , 39-C ) :   1.0445 B( 39-C , 40-C ) :   1.6025
B( 39-C , 41-C ) :   1.1064 B( 40-C , 76-H ) :   0.9935 B( 41-C , 42-C ) :   1.4827
B( 41-C , 45-S ) :   1.1121 B( 42-C , 43-C ) :   1.2945 B( 42-C , 77-H ) :   0.9912
B( 43-C , 44-C ) :   1.4461 B( 43-C , 48-C ) :   0.9904 B( 44-C , 45-S ) :   1.1145
B( 44-C , 46-C ) :   1.1928 B( 46-C , 47-C ) :   1.4226 B( 46-C , 56-S ) :   1.1370
B( 47-C , 48-C ) :   1.0038 B( 47-C , 54-C ) :   1.2627 B( 48-C , 49-C ) :   1.7059
B( 49-C , 50-C ) :   1.1358 B( 49-C , 52-C ) :   1.1351 B( 50-C , 51-N ) :   2.9927
B( 52-C , 53-N ) :   2.9809 B( 54-C , 55-C ) :   1.4937 B( 54-C , 78-H ) :   0.9832
B( 55-C , 56-S ) :   1.0772 B( 55-C , 57-C ) :   1.1495 B( 57-C , 58-N ) :   1.7417
B( 57-C , 60-C ) :   0.1029 B( 57-C , 62-C ) :   1.1164 B( 58-N , 59-N ) :   1.1994
B( 59-N , 60-C ) :   1.7379 B( 60-C , 61-C ) :   1.1243 B( 60-C , 79-H ) :   1.0155
B( 61-C , 62-C ) :   1.1997 B( 61-C , 65-N ) :   1.5031 B( 62-C , 63-N ) :   1.5551
B( 63-N , 64-S ) :   1.2694 B( 63-N , 65-N ) :   0.1461 B( 64-S , 65-N ) :   1.2970

-----------------------------------------------------------------------------
         ABSORPTION SPECTRUM VIA TRANSITION ELECTRIC DIPOLE MOMENTS
-----------------------------------------------------------------------------
State   Energy  Wavelength   fosc         T2         TX        TY        TZ
        (cm-1)    (nm)                  (au**2)     (au)      (au)      (au)
-----------------------------------------------------------------------------
   0   11982.1    834.6   0.401234604  11.02402   2.04010  -0.67809  -2.53026
   1   12869.8    777.0   0.092481062   2.36568  -0.64984   0.37351   1.34308
   2   17501.1    571.4   0.110701699   2.08240   1.02578  -0.30208  -0.96899
   3   18180.6    550.0   0.013416608   0.24295   0.38638  -0.10169  -0.28865
   4   20055.6    498.6   1.369379416  22.47834   2.94133  -0.98520  -3.58557
   5   20729.7    482.4   0.192607867   3.05883  -0.08869   0.41667   1.69628
   6   21128.1    473.3   0.000001589   0.00002  -0.00112  -0.00360   0.00324
   7   21148.1    472.9   0.000007156   0.00011  -0.00340  -0.00021   0.00999
   8   23729.3    421.4   0.017233142   0.23909   0.04712  -0.10040  -0.47622
   9   24391.5    410.0   0.139787278   1.88671  -1.17862   0.27703   0.64871
  10   25546.4    391.4   0.360444163   4.64499  -1.51911   0.41275   1.47205
  11   25699.4    389.1   0.046688248   0.59808  -0.10334  -0.14698  -0.75220
  12   26230.8    381.2   0.523543143   6.57078   1.58203  -0.54546  -1.94176
  13   28810.1    347.1   0.000230287   0.00263   0.02124   0.04669  -0.00007
  14   28979.3    345.1   0.017271406   0.19621   0.08248  -0.07369  -0.42892
  15   29217.3    342.3   0.000387259   0.00436   0.02696  -0.05620  -0.02187
  16   29271.2    341.6   0.067688044   0.76129   0.35150  -0.18013  -0.77800
  17   29718.3    336.5   0.347243669   3.84667  -0.87354   0.39714   1.71052
  18   30642.5    326.3   0.250045979   2.68640   1.29331  -0.09494   1.00236
  19   31014.8    322.4   0.027217959   0.28891   0.50860   0.06615   0.16080
  20   31317.8    319.3   0.339092073   3.56453  -1.86376   0.29381  -0.06772
  21   31483.8    317.6   0.480760765   5.02710   1.48005   0.09134   1.68173
  22   32401.7    308.6   0.090248204   0.91695  -0.48714   0.19078   0.80203
  23   32551.0    307.2   0.319684953   3.23320   0.50135  -0.37728  -1.68508
  24   32882.5    304.1   0.091167787   0.91275   0.80109  -0.13301  -0.50331
  25   33279.3    300.5   0.104014011   1.02895  -0.31358  -0.04269  -0.96374
  26   33981.4    294.3   0.017216084   0.16679  -0.05281   0.14791   0.37699
  27   34243.0    292.0   0.309586696   2.97637  -1.51244   0.08534  -0.82560
  28   34478.4    290.0   0.067924895   0.64857  -0.69771  -0.00195  -0.40220
  29   34978.6    285.9   0.101004435   0.95063   0.96684  -0.10154   0.07440
  30   36451.3    274.3   0.026077884   0.23552   0.18658  -0.12289  -0.43082
  31   36478.9    274.1   0.015763407   0.14226   0.15162  -0.08528  -0.33466
  32   36773.9    271.9   0.017190242   0.15389   0.26854   0.00133   0.28596
  33   36871.6    271.2   0.010665097   0.09522   0.02325   0.06218   0.30136
  34   37005.7    270.2   0.007901147   0.07029  -0.00936  -0.26467  -0.01233
  35   37019.1    270.1   0.025225030   0.22433  -0.34654   0.05738   0.31772
  36   37376.3    267.5   0.202750502   1.78583   0.67029  -0.29236  -1.11851
  37   37512.5    266.6   0.089700816   0.78722  -0.02018  -0.19053  -0.86632
  38   37826.8    264.4   0.006548633   0.05699   0.02417   0.23335  -0.04422
  39   38047.8    262.8   0.064592630   0.55889   0.21955  -0.12864  -0.70295
  40   38317.9    261.0   0.177915707   1.52858  -0.67406   0.26614   1.00169
  41   38440.7    260.1   0.000888286   0.00761   0.02398   0.07749  -0.03207
  42   39132.7    255.5   0.011047007   0.09294   0.24225   0.00770   0.18491
  43   39339.5    254.2   0.005203180   0.04354  -0.03603  -0.01779  -0.20476
  44   39980.9    250.1   0.000667342   0.00550   0.01998   0.03292   0.06334
  45   40004.4    250.0   0.009946898   0.08186  -0.08980  -0.02025  -0.27089
  46   40246.6    248.5   0.043786216   0.35817   0.46033  -0.13036  -0.35954

FINAL SINGLE POINT ENERGY     -5673.796951263996

DIPOLE MOMENT
-------------
                                X             Y             Z
Electronic contribution:     -1.82246       2.08808       4.54781
Nuclear contribution   :      3.34087      -2.33181      -4.57731
                        -----------------------------------------
Total Dipole Moment    :      1.51841      -0.24373      -0.02950
                        -----------------------------------------
Magnitude (a.u.)       :      1.53813
Magnitude (Debye)      :      3.90962

Rotational constants in cm-1:     0.003800     0.000185     0.000176
Rotational constants in MHz :   113.931303     5.536204     5.282577

                             ****ORCA TERMINATED NORMALLY****
TOTAL RUN TIME: 0 days 0 hours 7 minutes 41 seconds 782 msec
