                         Program Version 4.2.0 -  RELEASE  -
|  1> # ORCA input file
|  2> # SCF done       -175.403843119812          0.001097611893
|  3> ! CAM-B3LYP def2-SVP def2/J RIJCOSX Grid4 TightSCF
|  4> %maxcore 5000
|  5> %tddft
|  6>     Mode sTDDFT
|  7>     Ethresh 5.0
|  8>     maxcore 5000
|  9> end
| 10>
| 11> %pal
| 12>   nprocs 6
| 13>   end
| 14> * xyz 0 1
| 15>    C      -10.29752        12.74379         1.58594
| 16>    C       -9.71726        12.96549         0.37630
| 17>    C       -8.53631        12.21116         0.22493
| 18>    C       -8.25712        11.42512         1.35265
| 19>    S       -9.43038        11.61388         2.57961
| 20>    C       -7.06396        10.69493         1.11263
| 21>    C       -6.59144        11.02297        -0.16544
| 22>    C       -7.50603        11.99026        -0.76488
| 23>    C       -7.40309        12.55420        -2.00644
| 24>    C       -6.34574        12.24628        -2.88504
| 25>    N       -5.48752        11.99781        -3.60541
| 26>    C       -8.34955        13.47878        -2.49091
| 27>    N       -9.11812        14.23287        -2.88720
| 28>    C       -5.42276        10.34536        -0.50672
| 29>    C       -4.99762         9.49514         0.49988
| 30>    S       -6.06752         9.54837         1.89857
| 31>    C       -3.87007         8.62641         0.48705
| 32>    C       -3.56925         7.77650         1.52351
| 33>    C       -2.50850         6.87361         1.53454
| 34>    C       -1.60567         6.75180         0.38492
| 35>    C       -1.69714         7.50202        -0.73329
| 36>    S       -2.89789         8.70315        -0.98338
| 37>    C       -0.69996         5.71253         0.73207
| 38>    C       -1.01236         5.20748         1.99612
| 39>    C       -0.10404         4.19781         2.39006
| 40>    C        0.83344         3.96050         1.43585
| 41>    S        0.66781         4.94973         0.02559
| 42>    C       -2.14963         5.92756         2.51463
| 43>    C       -2.80222         5.75261         3.75673
| 44>    C       -2.69255         4.66000         4.55857
| 45>    C       -3.33071         4.51117         5.81291
| 46>    N       -3.34166         3.28689         6.45560
| 47>    C       -4.00975         3.41879         7.63246
| 48>    C       -4.43795         2.73818         8.75998
| 49>    C       -5.09087         3.69405         9.55978
| 50>    N       -5.06012         4.92218         8.92803
| 51>    C       -4.41188         4.78027         7.74821
| 52>    C       -3.99437         5.45651         6.60780
| 53>    C       -5.71509         3.57234        10.81650
| 54>    C       -5.87326         2.43429        11.55040
| 55>    C       -6.49516         2.39100        12.82728
| 56>    C       -6.91741         3.51133        13.50868
| 57>    C       -7.53233         3.52824        14.74931
| 58>    C       -7.80060         2.30107        15.49765
| 59>    C       -7.46703         1.07264        15.04244
| 60>    S       -6.69753         0.78860        13.52911
| 61>    C       -8.42655         2.73711        16.70001
| 62>    C       -8.54001         4.13121        16.70959
| 63>    C       -9.16306         4.60056        17.88679
| 64>    C       -9.49713         3.58067        18.72004
| 65>    S       -9.07384         2.01374        18.11926
| 66>    C       -7.98021         4.64873        15.49013
| 67>    C       -7.83298         5.95611        15.00048
| 68>    C       -8.13875         7.16826        15.54318
| 69>    C       -7.86169         8.36000        14.83192
| 70>    C       -7.32660         8.48273        13.55071
| 71>    C       -7.16076         9.80274        13.16634
| 72>    C       -7.56775        10.72398        14.14298
| 73>    S       -8.16330         9.93673        15.54843
| 74>    C       -7.34324        12.02604        13.63548
| 75>    C       -6.79676        11.92232        12.34080
| 76>    C       -6.66398        10.53254        12.00056
| 77>    C       -6.17650         9.98508        10.83950
| 78>    C       -5.72761        10.78453         9.76915
| 79>    N       -5.35897        11.41832         8.88620
| 80>    C       -6.07502         8.60618        10.59844
| 81>    N       -5.96475         7.48923        10.34271
| 82>    C       -6.53859        13.18611        11.76684
| 83>    C       -6.88132        14.19646        12.60590
| 84>    S       -7.53195        13.65053        14.12685
| 85>    H      -11.19783        13.17617         1.97402
| 86>    H      -10.11726        13.63339        -0.36461
| 87>    H       -4.89978        10.45106        -1.44020
| 88>    H       -4.22657         7.80979         2.38274
| 89>    H       -1.01901         7.39465        -1.56499
| 90>    H       -0.11577         3.67888         3.33089
| 91>    H        1.63812         3.25207         1.46924
| 92>    H       -3.46564         6.54795         4.06651
| 93>    H       -2.11450         3.81269         4.21699
| 94>    H       -2.95111         2.44208         6.07584
| 95>    H       -4.31002         1.70250         9.00141
| 96>    H       -5.43072         5.77778         9.32250
| 97>    H       -4.12407         6.49348         6.37419
| 98>    H       -6.10151         4.50790        11.19682
| 99>    H       -5.51907         1.49396        11.15319
|100>    H       -6.73935         4.45803        13.02440
|101>    H       -7.65905         0.16921        15.59922
|102>    H       -9.35981         5.63222        18.11321
|103>    H       -9.97859         3.64442        19.67638
|104>    H       -7.38234         5.99114        14.02013
|105>    H       -8.57878         7.25706        16.52423
|106>    H       -7.07365         7.64778        12.92475
|107>    H       -6.12181        13.33843        10.78774
|108>    H       -6.79795        15.25168        12.44028
|109> *
|110>
|111>                          ****END OF INPUT****

CARTESIAN COORDINATES (ANGSTROEM)
---------------------------------
  C    -10.297520   12.743790    1.585940
  C     -9.717260   12.965490    0.376300
  C     -8.536310   12.211160    0.224930
  C     -8.257120   11.425120    1.352650
  S     -9.430380   11.613880    2.579610
  C     -7.063960   10.694930    1.112630
  C     -6.591440   11.022970   -0.165440
  C     -7.506030   11.990260   -0.764880
  C     -7.403090   12.554200   -2.006440
  C     -6.345740   12.246280   -2.885040
  N     -5.487520   11.997810   -3.605410
  C     -8.349550   13.478780   -2.490910
  N     -9.118120   14.232870   -2.887200
  C     -5.422760   10.345360   -0.506720
  C     -4.997620    9.495140    0.499880
  S     -6.067520    9.548370    1.898570
  C     -3.870070    8.626410    0.487050
  C     -3.569250    7.776500    1.523510
  C     -2.508500    6.873610    1.534540
  C     -1.605670    6.751800    0.384920
  C     -1.697140    7.502020   -0.733290
  S     -2.897890    8.703150   -0.983380
  C     -0.699960    5.712530    0.732070
  C     -1.012360    5.207480    1.996120
  C     -0.104040    4.197810    2.390060
  C      0.833440    3.960500    1.435850
  S      0.667810    4.949730    0.025590
  C     -2.149630    5.927560    2.514630
  C     -2.802220    5.752610    3.756730
  C     -2.692550    4.660000    4.558570
  C     -3.330710    4.511170    5.812910
  N     -3.341660    3.286890    6.455600
  C     -4.009750    3.418790    7.632460
  C     -4.437950    2.738180    8.759980
  C     -5.090870    3.694050    9.559780
  N     -5.060120    4.922180    8.928030
  C     -4.411880    4.780270    7.748210
  C     -3.994370    5.456510    6.607800
  C     -5.715090    3.572340   10.816500
  C     -5.873260    2.434290   11.550400
  C     -6.495160    2.391000   12.827280
  C     -6.917410    3.511330   13.508680
  C     -7.532330    3.528240   14.749310
  C     -7.800600    2.301070   15.497650
  C     -7.467030    1.072640   15.042440
  S     -6.697530    0.788600   13.529110
  C     -8.426550    2.737110   16.700010
  C     -8.540010    4.131210   16.709590
  C     -9.163060    4.600560   17.886790
  C     -9.497130    3.580670   18.720040
  S     -9.073840    2.013740   18.119260
  C     -7.980210    4.648730   15.490130
  C     -7.832980    5.956110   15.000480
  C     -8.138750    7.168260   15.543180
  C     -7.861690    8.360000   14.831920
  C     -7.326600    8.482730   13.550710
  C     -7.160760    9.802740   13.166340
  C     -7.567750   10.723980   14.142980
  S     -8.163300    9.936730   15.548430
  C     -7.343240   12.026040   13.635480
  C     -6.796760   11.922320   12.340800
  C     -6.663980   10.532540   12.000560
  C     -6.176500    9.985080   10.839500
  C     -5.727610   10.784530    9.769150
  N     -5.358970   11.418320    8.886200
  C     -6.075020    8.606180   10.598440
  N     -5.964750    7.489230   10.342710
  C     -6.538590   13.186110   11.766840
  C     -6.881320   14.196460   12.605900
  S     -7.531950   13.650530   14.126850
  H    -11.197830   13.176170    1.974020
  H    -10.117260   13.633390   -0.364610
  H     -4.899780   10.451060   -1.440200
  H     -4.226570    7.809790    2.382740
  H     -1.019010    7.394650   -1.564990
  H     -0.115770    3.678880    3.330890
  H      1.638120    3.252070    1.469240
  H     -3.465640    6.547950    4.066510
  H     -2.114500    3.812690    4.216990
  H     -2.951110    2.442080    6.075840
  H     -4.310020    1.702500    9.001410
  H     -5.430720    5.777780    9.322500
  H     -4.124070    6.493480    6.374190
  H     -6.101510    4.507900   11.196820
  H     -5.519070    1.493960   11.153190
  H     -6.739350    4.458030   13.024400
  H     -7.659050    0.169210   15.599220
  H     -9.359810    5.632220   18.113210
  H     -9.978590    3.644420   19.676380
  H     -7.382340    5.991140   14.020130
  H     -8.578780    7.257060   16.524230
  H     -7.073650    7.647780   12.924750
  H     -6.121810   13.338430   10.787740
  H     -6.797950   15.251680   12.440280

 Total Charge           Charge          ....    0
 Multiplicity           Mult            ....    1
 Number of Electrons    NEL             ....  530
 Basis Dimension        Dim             .... 1132

ORBITAL ENERGIES
----------------

  NO   OCC          E(Eh)            E(eV)
   0   2.0000     -88.981952     -2421.3220
   1   2.0000     -88.980643     -2421.2864
   2   2.0000     -88.976537     -2421.1747
   3   2.0000     -88.972136     -2421.0549
   4   2.0000     -88.967555     -2420.9303
   5   2.0000     -88.967046     -2420.9164
   6   2.0000     -88.951902     -2420.5043
   7   2.0000     -88.949759     -2420.4460
   8   2.0000     -14.446174      -393.1004
   9   2.0000     -14.441030      -392.9604
  10   2.0000     -14.435791      -392.8178
  11   2.0000     -14.422990      -392.4695
  12   2.0000     -14.422962      -392.4688
  13   2.0000     -14.422739      -392.4627
  14   2.0000     -10.355913      -281.7987
  15   2.0000     -10.354590      -281.7627
  16   2.0000     -10.346403      -281.5399
  17   2.0000     -10.346072      -281.5309
  18   2.0000     -10.343821      -281.4697
  19   2.0000     -10.324615      -280.9471
  20   2.0000     -10.323586      -280.9191
  21   2.0000     -10.323397      -280.9139
  22   2.0000     -10.323253      -280.9100
  23   2.0000     -10.322952      -280.9018
  24   2.0000     -10.321279      -280.8563
  25   2.0000     -10.320387      -280.8320
  26   2.0000     -10.319885      -280.8183
  27   2.0000     -10.319726      -280.8140
  28   2.0000     -10.319676      -280.8127
  29   2.0000     -10.315756      -280.7060
  30   2.0000     -10.310920      -280.5744
  31   2.0000     -10.305549      -280.4282
  32   2.0000     -10.304286      -280.3939
  33   2.0000     -10.297975      -280.2221
  34   2.0000     -10.296283      -280.1761
  35   2.0000     -10.293955      -280.1128
  36   2.0000     -10.291713      -280.0518
  37   2.0000     -10.291644      -280.0499
  38   2.0000     -10.291337      -280.0415
  39   2.0000     -10.291065      -280.0341
  40   2.0000     -10.290989      -280.0320
  41   2.0000     -10.290971      -280.0315
  42   2.0000     -10.290532      -280.0196
  43   2.0000     -10.290226      -280.0113
  44   2.0000     -10.290114      -280.0082
  45   2.0000     -10.289958      -280.0040
  46   2.0000     -10.287556      -279.9386
  47   2.0000     -10.283673      -279.8330
  48   2.0000     -10.281993      -279.7873
  49   2.0000     -10.281704      -279.7794
  50   2.0000     -10.281584      -279.7761
  51   2.0000     -10.281056      -279.7618
  52   2.0000     -10.280503      -279.7467
  53   2.0000     -10.280080      -279.7352
  54   2.0000     -10.278984      -279.7054
  55   2.0000     -10.278441      -279.6906
  56   2.0000     -10.275414      -279.6082
  57   2.0000     -10.274070      -279.5717
  58   2.0000     -10.271996      -279.5152
  59   2.0000     -10.270775      -279.4820
  60   2.0000     -10.269037      -279.4347
  61   2.0000     -10.268978      -279.4331
  62   2.0000     -10.268615      -279.4232
  63   2.0000     -10.268556      -279.4216
  64   2.0000     -10.268331      -279.4155
  65   2.0000     -10.267762      -279.4000
  66   2.0000     -10.267020      -279.3798
  67   2.0000     -10.261269      -279.2233
  68   2.0000     -10.255145      -279.0567
  69   2.0000     -10.249799      -278.9112
  70   2.0000      -8.076139      -219.7629
  71   2.0000      -8.075503      -219.7456
  72   2.0000      -8.071529      -219.6375
  73   2.0000      -8.066579      -219.5028
  74   2.0000      -8.062882      -219.4022
  75   2.0000      -8.062181      -219.3831
  76   2.0000      -8.047403      -218.9810
  77   2.0000      -8.045079      -218.9177
  78   2.0000      -6.045448      -164.5050
  79   2.0000      -6.044761      -164.4863
  80   2.0000      -6.041345      -164.3934
  81   2.0000      -6.040796      -164.3784
  82   2.0000      -6.040336      -164.3659
  83   2.0000      -6.038396      -164.3131
  84   2.0000      -6.038144      -164.3063
  85   2.0000      -6.036396      -164.2587
  86   2.0000      -6.035821      -164.2430
  87   2.0000      -6.034099      -164.1962
  88   2.0000      -6.032335      -164.1482
  89   2.0000      -6.031929      -164.1371
  90   2.0000      -6.031772      -164.1328
  91   2.0000      -6.028937      -164.0557
  92   2.0000      -6.027926      -164.0282
  93   2.0000      -6.027296      -164.0111
  94   2.0000      -6.024902      -163.9459
  95   2.0000      -6.023826      -163.9166
  96   2.0000      -6.016819      -163.7260
  97   2.0000      -6.014528      -163.6636
  98   2.0000      -6.012585      -163.6108
  99   2.0000      -6.010281      -163.5481
 100   2.0000      -6.009446      -163.5254
 101   2.0000      -6.007149      -163.4628
 102   2.0000      -1.075778       -29.2734
 103   2.0000      -1.038850       -28.2685
 104   2.0000      -1.035098       -28.1664
 105   2.0000      -1.033741       -28.1295
 106   2.0000      -1.020985       -27.7824
 107   2.0000      -1.014074       -27.5943
 108   2.0000      -1.005304       -27.3557
 109   2.0000      -1.000610       -27.2280
 110   2.0000      -0.999813       -27.2063
 111   2.0000      -0.997677       -27.1482
 112   2.0000      -0.988525       -26.8991
 113   2.0000      -0.978965       -26.6390
 114   2.0000      -0.963981       -26.2313
 115   2.0000      -0.963557       -26.2197
 116   2.0000      -0.947979       -25.7958
 117   2.0000      -0.946643       -25.7595
 118   2.0000      -0.922604       -25.1053
 119   2.0000      -0.921626       -25.0787
 120   2.0000      -0.906449       -24.6657
 121   2.0000      -0.904138       -24.6028
 122   2.0000      -0.898293       -24.4438
 123   2.0000      -0.885410       -24.0932
 124   2.0000      -0.875407       -23.8210
 125   2.0000      -0.873180       -23.7604
 126   2.0000      -0.863842       -23.5063
 127   2.0000      -0.858043       -23.3485
 128   2.0000      -0.850196       -23.1350
 129   2.0000      -0.848964       -23.1015
 130   2.0000      -0.844976       -22.9930
 131   2.0000      -0.841253       -22.8917
 132   2.0000      -0.838461       -22.8157
 133   2.0000      -0.831722       -22.6323
 134   2.0000      -0.829595       -22.5744
 135   2.0000      -0.813879       -22.1468
 136   2.0000      -0.805856       -21.9285
 137   2.0000      -0.796432       -21.6720
 138   2.0000      -0.790815       -21.5192
 139   2.0000      -0.776152       -21.1202
 140   2.0000      -0.770319       -20.9615
 141   2.0000      -0.768809       -20.9204
 142   2.0000      -0.763571       -20.7778
 143   2.0000      -0.750117       -20.4117
 144   2.0000      -0.736818       -20.0498
 145   2.0000      -0.724244       -19.7077
 146   2.0000      -0.721592       -19.6355
 147   2.0000      -0.704253       -19.1637
 148   2.0000      -0.696586       -18.9551
 149   2.0000      -0.695292       -18.9199
 150   2.0000      -0.691690       -18.8218
 151   2.0000      -0.680648       -18.5214
 152   2.0000      -0.674907       -18.3651
 153   2.0000      -0.670935       -18.2571
 154   2.0000      -0.666111       -18.1258
 155   2.0000      -0.664321       -18.0771
 156   2.0000      -0.659046       -17.9336
 157   2.0000      -0.657686       -17.8965
 158   2.0000      -0.653329       -17.7780
 159   2.0000      -0.645288       -17.5592
 160   2.0000      -0.641731       -17.4624
 161   2.0000      -0.631769       -17.1913
 162   2.0000      -0.629474       -17.1289
 163   2.0000      -0.619732       -16.8638
 164   2.0000      -0.618404       -16.8276
 165   2.0000      -0.612739       -16.6735
 166   2.0000      -0.610522       -16.6131
 167   2.0000      -0.609097       -16.5744
 168   2.0000      -0.605281       -16.4705
 169   2.0000      -0.604366       -16.4456
 170   2.0000      -0.599298       -16.3077
 171   2.0000      -0.583139       -15.8680
 172   2.0000      -0.578293       -15.7362
 173   2.0000      -0.571978       -15.5643
 174   2.0000      -0.564096       -15.3498
 175   2.0000      -0.560065       -15.2402
 176   2.0000      -0.558506       -15.1977
 177   2.0000      -0.553044       -15.0491
 178   2.0000      -0.549921       -14.9641
 179   2.0000      -0.545511       -14.8441
 180   2.0000      -0.540677       -14.7126
 181   2.0000      -0.537798       -14.6342
 182   2.0000      -0.535430       -14.5698
 183   2.0000      -0.532630       -14.4936
 184   2.0000      -0.528571       -14.3832
 185   2.0000      -0.523667       -14.2497
 186   2.0000      -0.521869       -14.2008
 187   2.0000      -0.515941       -14.0395
 188   2.0000      -0.512296       -13.9403
 189   2.0000      -0.511216       -13.9109
 190   2.0000      -0.509354       -13.8602
 191   2.0000      -0.506594       -13.7851
 192   2.0000      -0.504161       -13.7189
 193   2.0000      -0.503033       -13.6882
 194   2.0000      -0.499949       -13.6043
 195   2.0000      -0.499001       -13.5785
 196   2.0000      -0.498793       -13.5729
 197   2.0000      -0.495625       -13.4866
 198   2.0000      -0.493367       -13.4252
 199   2.0000      -0.487714       -13.2714
 200   2.0000      -0.486092       -13.2272
 201   2.0000      -0.485227       -13.2037
 202   2.0000      -0.482039       -13.1169
 203   2.0000      -0.479702       -13.0533
 204   2.0000      -0.478856       -13.0303
 205   2.0000      -0.475398       -12.9362
 206   2.0000      -0.468452       -12.7472
 207   2.0000      -0.467822       -12.7301
 208   2.0000      -0.465788       -12.6747
 209   2.0000      -0.464756       -12.6467
 210   2.0000      -0.459526       -12.5043
 211   2.0000      -0.457729       -12.4554
 212   2.0000      -0.455140       -12.3850
 213   2.0000      -0.454468       -12.3667
 214   2.0000      -0.453591       -12.3428
 215   2.0000      -0.450609       -12.2617
 216   2.0000      -0.450115       -12.2483
 217   2.0000      -0.448186       -12.1958
 218   2.0000      -0.445512       -12.1230
 219   2.0000      -0.444625       -12.0988
 220   2.0000      -0.442266       -12.0347
 221   2.0000      -0.442027       -12.0282
 222   2.0000      -0.437722       -11.9110
 223   2.0000      -0.436818       -11.8864
 224   2.0000      -0.436496       -11.8777
 225   2.0000      -0.432979       -11.7820
 226   2.0000      -0.432758       -11.7759
 227   2.0000      -0.431604       -11.7445
 228   2.0000      -0.430539       -11.7156
 229   2.0000      -0.427195       -11.6246
 230   2.0000      -0.426300       -11.6002
 231   2.0000      -0.425657       -11.5827
 232   2.0000      -0.424042       -11.5388
 233   2.0000      -0.419999       -11.4287
 234   2.0000      -0.419583       -11.4174
 235   2.0000      -0.418344       -11.3837
 236   2.0000      -0.413846       -11.2613
 237   2.0000      -0.410088       -11.1591
 238   2.0000      -0.409397       -11.1403
 239   2.0000      -0.407591       -11.0911
 240   2.0000      -0.405049       -11.0219
 241   2.0000      -0.404555       -11.0085
 242   2.0000      -0.403066       -10.9680
 243   2.0000      -0.399365       -10.8673
 244   2.0000      -0.387812       -10.5529
 245   2.0000      -0.376298       -10.2396
 246   2.0000      -0.366599        -9.9757
 247   2.0000      -0.355441        -9.6721
 248   2.0000      -0.349912        -9.5216
 249   2.0000      -0.341649        -9.2967
 250   2.0000      -0.339336        -9.2338
 251   2.0000      -0.333725        -9.0811
 252   2.0000      -0.330518        -8.9939
 253   2.0000      -0.320593        -8.7238
 254   2.0000      -0.313206        -8.5228
 255   2.0000      -0.313072        -8.5191
 256   2.0000      -0.310585        -8.4515
 257   2.0000      -0.287489        -7.8230
 258   2.0000      -0.280439        -7.6311
 259   2.0000      -0.276698        -7.5293
 260   2.0000      -0.271768        -7.3952
 261   2.0000      -0.262749        -7.1498
 262   2.0000      -0.241578        -6.5737
 263   2.0000      -0.215878        -5.8743
 264   2.0000      -0.191683        -5.2160
 265   0.0000      -0.097743        -2.6597
 266   0.0000      -0.096241        -2.6188
 267   0.0000      -0.062907        -1.7118
 268   0.0000      -0.046223        -1.2578
 269   0.0000      -0.024671        -0.6713

MULLIKEN ATOMIC CHARGES
-----------------------
   0 C :   -0.082627
   1 C :    0.038484
   2 C :   -0.037590
   3 C :   -0.113339
   4 S :    0.180436
   5 C :   -0.099404
   6 C :    0.014217
   7 C :    0.299428
   8 C :   -0.296968
   9 C :   -0.185145
  10 N :    0.166656
  11 C :   -0.189646
  12 N :    0.168100
  13 C :   -0.058148
  14 C :   -0.064878
  15 S :    0.167994
  16 C :   -0.022321
  17 C :   -0.088110
  18 C :    0.050289
  19 C :    0.066748
  20 C :   -0.123294
  21 S :    0.119120
  22 C :   -0.114301
  23 C :    0.046744
  24 C :   -0.002097
  25 C :   -0.070794
  26 S :    0.126437
  27 C :    0.098526
  28 C :   -0.048567
  29 C :   -0.008983
  30 C :    0.112636
  31 N :   -0.044217
  32 C :    0.117450
  33 C :   -0.183543
  34 C :    0.104699
  35 N :   -0.035008
  36 C :    0.128063
  37 C :   -0.183693
  38 C :    0.028533
  39 C :    0.001441
  40 C :   -0.053749
  41 C :   -0.059611
  42 C :    0.070048
  43 C :    0.071605
  44 C :   -0.141264
  45 S :    0.137665
  46 C :   -0.123074
  47 C :    0.052918
  48 C :   -0.006929
  49 C :   -0.066286
  50 S :    0.120563
  51 C :    0.105448
  52 C :   -0.006625
  53 C :    0.014935
  54 C :   -0.068584
  55 C :   -0.063100
  56 C :    0.012269
  57 C :   -0.119596
  58 S :    0.174772
  59 C :   -0.110066
  60 C :   -0.060734
  61 C :    0.332536
  62 C :   -0.333401
  63 C :   -0.207382
  64 N :    0.169247
  65 C :   -0.135109
  66 N :    0.138984
  67 C :    0.050793
  68 C :   -0.095786
  69 S :    0.168329
  70 H :    0.033393
  71 H :    0.010582
  72 H :    0.019358
  73 H :   -0.011636
  74 H :    0.034908
  75 H :   -0.021222
  76 H :    0.024043
  77 H :   -0.030021
  78 H :   -0.044762
  79 H :    0.116615
  80 H :   -0.041505
  81 H :    0.111658
  82 H :   -0.034209
  83 H :   -0.018002
  84 H :   -0.026320
  85 H :   -0.036623
  86 H :    0.031734
  87 H :   -0.022780
  88 H :    0.021559
  89 H :   -0.054365
  90 H :   -0.047530
  91 H :   -0.004491
  92 H :    0.007047
  93 H :    0.030430
Sum of atomic charges:    0.0000000

LOEWDIN ATOMIC CHARGES
----------------------
   0 C :   -0.180373
   1 C :   -0.033964
   2 C :   -0.081379
   3 C :   -0.179492
   4 S :    0.474872
   5 C :   -0.184081
   6 C :   -0.068082
   7 C :    0.085414
   8 C :   -0.105958
   9 C :   -0.016121
  10 N :   -0.036906
  11 C :   -0.016333
  12 N :   -0.036448
  13 C :   -0.044912
  14 C :   -0.176710
  15 S :    0.473788
  16 C :   -0.186186
  17 C :   -0.028830
  18 C :   -0.031068
  19 C :   -0.050507
  20 C :   -0.140679
  21 S :    0.448784
  22 C :   -0.198858
  23 C :   -0.039845
  24 C :   -0.067377
  25 C :   -0.169312
  26 S :    0.421700
  27 C :   -0.044010
  28 C :   -0.020985
  29 C :   -0.046410
  30 C :    0.006221
  31 N :    0.062586
  32 C :   -0.022837
  33 C :   -0.089504
  34 C :   -0.012177
  35 N :    0.074939
  36 C :   -0.009922
  37 C :   -0.100747
  38 C :   -0.002431
  39 C :   -0.079667
  40 C :   -0.148021
  41 C :   -0.040974
  42 C :    0.004361
  43 C :   -0.050767
  44 C :   -0.146530
  45 S :    0.450349
  46 C :   -0.208605
  47 C :   -0.034431
  48 C :   -0.066769
  49 C :   -0.167879
  50 S :    0.416977
  51 C :   -0.076816
  52 C :    0.007338
  53 C :   -0.089191
  54 C :   -0.141946
  55 C :   -0.052072
  56 C :   -0.060966
  57 C :   -0.221024
  58 S :    0.459801
  59 C :   -0.158324
  60 C :   -0.103136
  61 C :    0.100134
  62 C :   -0.129755
  63 C :   -0.018269
  64 N :   -0.043633
  65 C :    0.027574
  66 N :   -0.065973
  67 C :   -0.031601
  68 C :   -0.191218
  69 S :    0.465483
  70 H :    0.026413
  71 H :    0.042059
  72 H :    0.033874
  73 H :    0.025965
  74 H :    0.036080
  75 H :    0.026616
  76 H :    0.022299
  77 H :    0.025646
  78 H :    0.022930
  79 H :    0.086133
  80 H :    0.021207
  81 H :    0.067555
  82 H :    0.022780
  83 H :    0.030231
  84 H :    0.022869
  85 H :    0.030746
  86 H :    0.034337
  87 H :    0.027550
  88 H :    0.021870
  89 H :    0.026042
  90 H :    0.021319
  91 H :    0.029900
  92 H :    0.040786
  93 H :    0.024482

  Mayer bond orders larger than 0.100000
B(  0-C ,  1-C ) :   1.5525 B(  0-C ,  4-S ) :   1.1431 B(  0-C , 70-H ) :   0.9644
B(  1-C ,  2-C ) :   1.2727 B(  1-C , 71-H ) :   0.9959 B(  2-C ,  3-C ) :   1.4517
B(  2-C ,  7-C ) :   1.0232 B(  3-C ,  4-S ) :   1.1386 B(  3-C ,  5-C ) :   1.1859
B(  5-C ,  6-C ) :   1.4665 B(  5-C , 15-S ) :   1.1176 B(  6-C ,  7-C ) :   0.9935
B(  6-C , 13-C ) :   1.2982 B(  7-C ,  8-C ) :   1.7026 B(  8-C ,  9-C ) :   1.1339
B(  8-C , 11-C ) :   1.1308 B(  9-C , 10-N ) :   2.9869 B( 11-C , 12-N ) :   3.0004
B( 13-C , 14-C ) :   1.4597 B( 13-C , 72-H ) :   0.9794 B( 14-C , 15-S ) :   1.1089
B( 14-C , 16-C ) :   1.1671 B( 16-C , 17-C ) :   1.5347 B( 16-C , 21-S ) :   1.0434
B( 17-C , 18-C ) :   1.2484 B( 17-C , 73-H ) :   0.9584 B( 18-C , 19-C ) :   1.0430
B( 18-C , 27-C ) :   1.3848 B( 19-C , 20-C ) :   1.6213 B( 19-C , 22-C ) :   1.1730
B( 20-C , 21-S ) :   1.1282 B( 20-C , 74-H ) :   0.9405 B( 22-C , 23-C ) :   1.4521
B( 22-C , 26-S ) :   1.0784 B( 23-C , 24-C ) :   1.2120 B( 23-C , 27-C ) :   1.0852
B( 24-C , 25-C ) :   1.5845 B( 24-C , 75-H ) :   0.9974 B( 25-C , 26-S ) :   1.1538
B( 25-C , 76-H ) :   0.9661 B( 27-C , 28-C ) :   1.1612 B( 28-C , 29-C ) :   1.6325
B( 28-C , 77-H ) :   0.9641 B( 29-C , 30-C ) :   1.1059 B( 29-C , 78-H ) :   0.9670
B( 30-C , 31-N ) :   1.1684 B( 30-C , 37-C ) :   1.4004 B( 31-N , 32-C ) :   1.1509
B( 31-N , 79-H ) :   0.9385 B( 32-C , 33-C ) :   1.2943 B( 32-C , 36-C ) :   1.2837
B( 33-C , 34-C ) :   1.3572 B( 33-C , 80-H ) :   1.0325 B( 34-C , 35-N ) :   1.1821
B( 34-C , 38-C ) :   1.1544 B( 35-N , 36-C ) :   1.2000 B( 35-N , 81-H ) :   0.8967
B( 36-C , 37-C ) :   1.2509 B( 37-C , 82-H ) :   1.0334 B( 38-C , 39-C ) :   1.6295
B( 38-C , 83-H ) :   0.9494 B( 39-C , 40-C ) :   1.1268 B( 39-C , 84-H ) :   0.9700
B( 40-C , 41-C ) :   1.5051 B( 40-C , 45-S ) :   1.0631 B( 41-C , 42-C ) :   1.2763
B( 41-C , 85-H ) :   0.9609 B( 42-C , 43-C ) :   1.0610 B( 42-C , 51-C ) :   1.3281
B( 43-C , 44-C ) :   1.6015 B( 43-C , 46-C ) :   1.1691 B( 44-C , 45-S ) :   1.1391
B( 44-C , 86-H ) :   0.9401 B( 46-C , 47-C ) :   1.4510 B( 46-C , 50-S ) :   1.0705
B( 47-C , 48-C ) :   1.2253 B( 47-C , 51-C ) :   1.0609 B( 48-C , 49-C ) :   1.5756
B( 48-C , 87-H ) :   1.0034 B( 49-C , 50-S ) :   1.1595 B( 49-C , 88-H ) :   0.9652
B( 51-C , 52-C ) :   1.2202 B( 52-C , 53-C ) :   1.5886 B( 52-C , 89-H ) :   0.9410
B( 53-C , 54-C ) :   1.1428 B( 53-C , 90-H ) :   0.9752 B( 54-C , 55-C ) :   1.4158
B( 54-C , 58-S ) :   1.1231 B( 55-C , 56-C ) :   1.3193 B( 55-C , 91-H ) :   0.9830
B( 56-C , 57-C ) :   1.4473 B( 56-C , 61-C ) :   0.9883 B( 57-C , 58-S ) :   1.0804
B( 57-C , 59-C ) :   1.2129 B( 59-C , 60-C ) :   1.4187 B( 59-C , 69-S ) :   1.1523
B( 60-C , 61-C ) :   1.0565 B( 60-C , 67-C ) :   1.2539 B( 61-C , 62-C ) :   1.6461
B( 62-C , 63-C ) :   1.1411 B( 62-C , 65-C ) :   1.1522 B( 63-C , 64-N ) :   3.0060
B( 65-C , 66-N ) :   2.9264 B( 66-N , 81-H ) :   0.1078 B( 67-C , 68-C ) :   1.5759
B( 67-C , 92-H ) :   0.9940 B( 68-C , 69-S ) :   1.1166 B( 68-C , 93-H ) :   0.9649

-----------------------------------------------------------------------------
         ABSORPTION SPECTRUM VIA TRANSITION ELECTRIC DIPOLE MOMENTS
-----------------------------------------------------------------------------
State   Energy  Wavelength   fosc         T2         TX        TY        TZ
        (cm-1)    (nm)                  (au**2)     (au)      (au)      (au)
-----------------------------------------------------------------------------
   0    6057.2   1650.9   0.061161147   3.32412   0.16304  -1.69702  -0.64627
   1    9052.8   1104.6   0.119166010   4.33354  -0.70652   1.31890  -1.44737
   2   11569.1    864.4   0.078868544   2.24430   0.47137   0.54886  -1.31182
   3   14087.7    709.8   1.083784038  25.32664   1.48842   0.07290  -4.80686
   4   15103.6    662.1   0.035082958   0.76470  -0.31408   0.28044  -0.76643
   5   18098.5    552.5   0.566850527  10.31102  -0.84527   2.75561  -1.41532
   6   18564.2    538.7   0.005974997   0.10596   0.07314   0.29160  -0.12482
   7   18721.2    534.2   0.003429600   0.06031  -0.14674  -0.19628   0.01582
   8   20193.1    495.2   0.153253602   2.49853  -0.78956   1.18973   0.67798
   9   21346.6    468.5   0.418198128   6.44953  -0.01774   2.18737  -1.29020
  10   21630.2    462.3   0.315990427   4.80939  -0.48504   1.91593  -0.95045
  11   22208.1    450.3   0.025590094   0.37935  -0.55850  -0.13406   0.22239
  12   23260.9    429.9   0.068309680   0.96679  -0.82604   0.17389   0.50418
  13   24759.1    403.9   0.225319742   2.99599  -1.59030  -0.15217   0.66616
  14   25405.6    393.6   0.040609474   0.52623   0.21113  -0.68860  -0.08652
  15   25892.3    386.2   0.789431872  10.03737  -1.25664  -2.06495   2.04798
  16   26420.7    378.5   0.132734441   1.65392   0.93153  -0.51116  -0.72450
  17   26535.1    376.9   0.268972103   3.33705  -1.25916   0.15482   1.31438
  18   26694.0    374.6   0.136876538   1.68807   0.40976   0.41812  -1.15989
  19   28375.3    352.4   0.081529517   0.94591  -0.02641  -0.87917   0.41505
  20   28408.1    352.0   0.006650497   0.07707   0.05414   0.19030  -0.19475
  21   28801.1    347.2   0.146053490   1.66947  -0.10226  -1.11836   0.63897
  22   29203.7    342.4   0.144836731   1.63274  -0.20137   1.15535  -0.50729
  23   30081.0    332.4   0.026745163   0.29270  -0.53334  -0.08952   0.01544
  24   30388.0    329.1   0.045241491   0.49013  -0.13602   0.65135  -0.21765
  25   30879.7    323.8   0.074196940   0.79102   0.08091  -0.49658  -0.73340
  26   31026.0    322.3   0.593244808   6.29482   0.89951  -0.34123  -2.31717
  27   31232.1    320.2   0.168781255   1.77909   0.07130  -0.42460   1.26243
  28   31311.5    319.4   0.001504536   0.01582  -0.00611  -0.00740   0.12541
  29   31494.8    317.5   0.487984705   5.10085  -0.12463   2.13126  -0.73691
  30   31632.4    316.1   0.394006111   4.10059   0.59086  -0.57359  -1.84999
  31   32016.4    312.3   0.089557411   0.92088   0.25088  -0.88988  -0.25702
  32   32183.0    310.7   0.041371154   0.42320   0.47997  -0.38815   0.20535
  33   32579.6    306.9   0.070384464   0.71122  -0.24233   0.69872  -0.40532
  34   32732.4    305.5   0.019867367   0.19982  -0.19115   0.26103   0.30846
  35   32858.7    304.3   0.150075489   1.50361  -0.23359  -0.94859   0.74110
  36   33211.0    301.1   0.040133174   0.39783  -0.05916  -0.55377  -0.29609
  37   33286.8    300.4   0.065351604   0.64634  -0.53950   0.51514   0.29984
  38   33675.9    296.9   0.035775726   0.34974   0.40211  -0.00169  -0.43364
  39   34030.0    293.9   0.553999430   5.35949  -1.77314   1.48503  -0.10075
  40   35067.5    285.2   0.033068001   0.31044   0.26777  -0.42348  -0.24374
  41   35140.7    284.6   0.128574654   1.20454   0.57335  -0.86689  -0.35256
  42   35320.3    283.1   0.188117766   1.75340  -0.87213   0.69551  -0.71348
  43   35800.8    279.3   0.015514158   0.14266  -0.03937   0.20993   0.31151
  44   36240.0    275.9   0.068616245   0.62333   0.66028  -0.13780  -0.41032
  45   36689.8    272.6   0.000077745   0.00070  -0.00727   0.02056  -0.01490
  46   36773.6    271.9   0.007088202   0.06346  -0.16373   0.19128  -0.00775
  47   36988.9    270.4   0.040863592   0.36370   0.03215   0.23483  -0.55455
  48   37134.5    269.3   0.038321448   0.33973   0.01929   0.47499  -0.33727
  49   37460.6    266.9   0.248754195   2.18611   0.94454  -1.09776   0.29811
  50   37622.2    265.8   0.130811162   1.14466   0.86342  -0.56633  -0.28006
  51   38087.0    262.6   0.110454910   0.95474   0.56283  -0.35049  -0.71772
  52   38291.0    261.2   0.002657363   0.02285  -0.12825   0.05946  -0.05352
  53   38403.9    260.4   0.066692912   0.57172  -0.64098   0.23149   0.32753
  54   38456.9    260.0   0.002141708   0.01833  -0.07617   0.07859   0.07973
  55   38699.4    258.4   0.009867458   0.08394  -0.11799   0.04428   0.26088
  56   39111.4    255.7   0.001508004   0.01269   0.07748   0.02420  -0.07813
  57   39427.1    253.6   0.165397641   1.38105   0.63072   0.09535  -0.98700
  58   39719.9    251.8   0.053157199   0.44058  -0.20349  -0.19805   0.59996
  59   40029.9    249.8   0.011576756   0.09521   0.04655   0.10534  -0.28626
  60   40050.0    249.7   0.066676929   0.54809  -0.22613  -0.13948   0.69101

FINAL SINGLE POINT ENERGY     -5658.107035597531

DIPOLE MOMENT
-------------
                                X             Y             Z
Electronic contribution:     -7.79458      24.03089     -16.96817
Nuclear contribution   :      7.56491     -25.46259      19.52067
                        -----------------------------------------
Total Dipole Moment    :     -0.22967      -1.43171       2.55249
                        -----------------------------------------
Magnitude (a.u.)       :      2.93560
Magnitude (Debye)      :      7.46170

Rotational constants in cm-1:     0.000889     0.000310     0.000251
Rotational constants in MHz :    26.636657     9.298363     7.528879

                             ****ORCA TERMINATED NORMALLY****
TOTAL RUN TIME: 0 days 0 hours 10 minutes 7 seconds 307 msec
