                         Program Version 4.2.0 -  RELEASE  -
|  1> # ORCA input file
|  2> # SCF done       -163.210414629017          0.000417836735
|  3> ! CAM-B3LYP def2-SVP def2/J RIJCOSX Grid4 TightSCF
|  4> %maxcore 5000
|  5> %tddft
|  6>     Mode sTDDFT
|  7>     Ethresh 5.0
|  8>     maxcore 5000
|  9> end
| 10>
| 11> %pal
| 12>   nprocs 6
| 13>   end
| 14> * xyz 0 1
| 15>    C       -0.75748         0.46421         0.56676
| 16>    C       -2.11430         0.61826         0.69915
| 17>    C       -2.87096         0.04031         1.73665
| 18>    N       -3.52730        -0.38953         2.57514
| 19>    C       -2.91123         1.29531        -0.24543
| 20>    N       -3.61061         1.78975        -1.01058
| 21>    C        0.06680        -0.47738         1.31522
| 22>    C        1.25801        -0.72129         0.56989
| 23>    C        2.20390        -1.60436         1.00299
| 24>    C        2.00337        -2.28577         2.22554
| 25>    C        0.82311        -2.03255         2.98248
| 26>    C       -0.14424        -1.11781         2.50570
| 27>    C        0.63875        -2.71447         4.20213
| 28>    C        1.57209        -3.60783         4.65297
| 29>    C        2.73281        -3.85826         3.90636
| 30>    C        2.94363        -3.21149         2.71869
| 31>    C        1.25004         0.11239        -0.64842
| 32>    O        2.06696         0.13690        -1.54142
| 33>    C        0.04496         0.97491        -0.51916
| 34>    C       -0.10190         2.08317        -1.29849
| 35>    C       -0.91152         3.22476        -1.05749
| 36>    C       -1.32305         4.03461        -2.09521
| 37>    C       -2.08937         5.17703        -1.75099
| 38>    C       -2.26272         5.40041        -0.40509
| 39>   Si       -1.38749         4.04722         0.55863
| 40>    C       -3.02164         6.46243         0.12894
| 41>    C       -3.17165         6.77640         1.47264
| 42>    C       -4.04074         7.84169         1.67749
| 43>    C       -4.57502         8.35213         0.47643
| 44>    S       -3.97990         7.53597        -0.89776
| 45>    C       -5.49086         9.38186         0.79138
| 46>    C       -5.53379         9.53274         2.19315
| 47>    C       -4.60903         8.58268         2.79178
| 48>    C       -4.32915         8.42263         4.11716
| 49>    C       -4.93772         9.21460         5.11344
| 50>    N       -5.42846         9.86126         5.92316
| 51>    C       -3.40359         7.46169         4.57548
| 52>    N       -2.64856         6.68225         4.94587
| 53>    C       -6.45070        10.49065         2.60901
| 54>    C       -7.12298        11.07865         1.54468
| 55>    S       -6.57768        10.43329        -0.00120
| 56>    C       -8.16926        12.02944         1.55990
| 57>    C       -8.68164        12.58989         2.71052
| 58>    C       -9.80644        13.43931         2.54121
| 59>    C      -10.26925        13.59113         1.25081
| 60>   Si       -9.11846        12.68951         0.08475
| 61>    C      -11.41762        14.32347         0.87072
| 62>    C      -12.58434        14.47402         1.57171
| 63>    C      -13.72945        15.24463         1.12952
| 64>    C      -13.71629        16.24981         0.19561
| 65>    C      -14.85531        16.98848        -0.18290
| 66>    N      -15.74906        17.61615        -0.53784
| 67>    C      -12.56487        16.70236        -0.48034
| 68>    N      -11.66805        17.13702        -1.05181
| 69>    C      -14.88497        14.82293         1.91141
| 70>    C      -14.45034        13.86710         2.87254
| 71>    C      -12.99765        13.65237         2.73762
| 72>    O      -12.31934        12.91129         3.41838
| 73>    C      -15.31451        13.28469         3.75353
| 74>    C      -16.68218        13.63774         3.71147
| 75>    C      -17.12669        14.58896         2.74863
| 76>    C      -16.20645        15.17664         1.84963
| 77>    C      -18.49433        14.92821         2.71188
| 78>    C      -19.38123        14.35801         3.58423
| 79>    C      -18.94202        13.42268         4.53277
| 80>    C      -17.62092        13.07077         4.59537
| 81>    H        3.09483        -1.78497         0.42007
| 82>    H       -1.02712        -0.93822         3.09950
| 83>    H       -0.25843        -2.52047         4.77144
| 84>    H        1.42041        -4.12711         5.58738
| 85>    H        3.45923        -4.56609         4.27669
| 86>    H        3.83573        -3.40073         2.13970
| 87>    H        0.54420         2.11253        -2.17286
| 88>    H       -1.13381         3.78901        -3.12991
| 89>    H       -2.50609         5.81906        -2.51365
| 90>    H       -2.28016         3.37816         1.49850
| 91>    H       -0.18683         4.53556         1.24195
| 92>    H       -2.66304         6.23032         2.24578
| 93>    H       -6.64244        10.74768         3.63425
| 94>    H       -8.28658        12.40048         3.69626
| 95>    H      -10.23028        13.95627         3.38590
| 96>    H       -8.30306        13.58618        -0.73336
| 97>    H       -9.75184        11.64206        -0.71654
| 98>    H      -11.38987        14.72369        -0.13662
| 99>    H      -14.95916        12.56312         4.47426
|100>    H      -16.57419        15.88811         1.12724
|101>    H      -18.82773        15.64994         1.98063
|102>    H      -20.42681        14.62500         3.54805
|103>    H      -19.65532        12.98202         5.21320
|104>    H      -17.27645        12.35080         5.32341
|105> *
|106>
|107>                          ****END OF INPUT****

CARTESIAN COORDINATES (ANGSTROEM)
---------------------------------
  C     -0.757480    0.464210    0.566760
  C     -2.114300    0.618260    0.699150
  C     -2.870960    0.040310    1.736650
  N     -3.527300   -0.389530    2.575140
  C     -2.911230    1.295310   -0.245430
  N     -3.610610    1.789750   -1.010580
  C      0.066800   -0.477380    1.315220
  C      1.258010   -0.721290    0.569890
  C      2.203900   -1.604360    1.002990
  C      2.003370   -2.285770    2.225540
  C      0.823110   -2.032550    2.982480
  C     -0.144240   -1.117810    2.505700
  C      0.638750   -2.714470    4.202130
  C      1.572090   -3.607830    4.652970
  C      2.732810   -3.858260    3.906360
  C      2.943630   -3.211490    2.718690
  C      1.250040    0.112390   -0.648420
  O      2.066960    0.136900   -1.541420
  C      0.044960    0.974910   -0.519160
  C     -0.101900    2.083170   -1.298490
  C     -0.911520    3.224760   -1.057490
  C     -1.323050    4.034610   -2.095210
  C     -2.089370    5.177030   -1.750990
  C     -2.262720    5.400410   -0.405090
  Si    -1.387490    4.047220    0.558630
  C     -3.021640    6.462430    0.128940
  C     -3.171650    6.776400    1.472640
  C     -4.040740    7.841690    1.677490
  C     -4.575020    8.352130    0.476430
  S     -3.979900    7.535970   -0.897760
  C     -5.490860    9.381860    0.791380
  C     -5.533790    9.532740    2.193150
  C     -4.609030    8.582680    2.791780
  C     -4.329150    8.422630    4.117160
  C     -4.937720    9.214600    5.113440
  N     -5.428460    9.861260    5.923160
  C     -3.403590    7.461690    4.575480
  N     -2.648560    6.682250    4.945870
  C     -6.450700   10.490650    2.609010
  C     -7.122980   11.078650    1.544680
  S     -6.577680   10.433290   -0.001200
  C     -8.169260   12.029440    1.559900
  C     -8.681640   12.589890    2.710520
  C     -9.806440   13.439310    2.541210
  C    -10.269250   13.591130    1.250810
  Si    -9.118460   12.689510    0.084750
  C    -11.417620   14.323470    0.870720
  C    -12.584340   14.474020    1.571710
  C    -13.729450   15.244630    1.129520
  C    -13.716290   16.249810    0.195610
  C    -14.855310   16.988480   -0.182900
  N    -15.749060   17.616150   -0.537840
  C    -12.564870   16.702360   -0.480340
  N    -11.668050   17.137020   -1.051810
  C    -14.884970   14.822930    1.911410
  C    -14.450340   13.867100    2.872540
  C    -12.997650   13.652370    2.737620
  O    -12.319340   12.911290    3.418380
  C    -15.314510   13.284690    3.753530
  C    -16.682180   13.637740    3.711470
  C    -17.126690   14.588960    2.748630
  C    -16.206450   15.176640    1.849630
  C    -18.494330   14.928210    2.711880
  C    -19.381230   14.358010    3.584230
  C    -18.942020   13.422680    4.532770
  C    -17.620920   13.070770    4.595370
  H      3.094830   -1.784970    0.420070
  H     -1.027120   -0.938220    3.099500
  H     -0.258430   -2.520470    4.771440
  H      1.420410   -4.127110    5.587380
  H      3.459230   -4.566090    4.276690
  H      3.835730   -3.400730    2.139700
  H      0.544200    2.112530   -2.172860
  H     -1.133810    3.789010   -3.129910
  H     -2.506090    5.819060   -2.513650
  H     -2.280160    3.378160    1.498500
  H     -0.186830    4.535560    1.241950
  H     -2.663040    6.230320    2.245780
  H     -6.642440   10.747680    3.634250
  H     -8.286580   12.400480    3.696260
  H    -10.230280   13.956270    3.385900
  H     -8.303060   13.586180   -0.733360
  H     -9.751840   11.642060   -0.716540
  H    -11.389870   14.723690   -0.136620
  H    -14.959160   12.563120    4.474260
  H    -16.574190   15.888110    1.127240
  H    -18.827730   15.649940    1.980630
  H    -20.426810   14.625000    3.548050
  H    -19.655320   12.982020    5.213200
  H    -17.276450   12.350800    5.323410

 Total Charge           Charge          ....    0
 Multiplicity           Mult            ....    1
 Number of Electrons    NEL             ....  466
 Basis Dimension        Dim             .... 1060

ORBITAL ENERGIES
----------------

  NO   OCC          E(Eh)            E(eV)
   0   2.0000     -88.998102     -2421.7615
   1   2.0000     -88.994398     -2421.6607
   2   2.0000     -66.212662     -1801.7381
   3   2.0000     -66.211652     -1801.7107
   4   2.0000     -19.211513      -522.7719
   5   2.0000     -19.210369      -522.7407
   6   2.0000     -14.436867      -392.8471
   7   2.0000     -14.436803      -392.8454
   8   2.0000     -14.414507      -392.2387
   9   2.0000     -14.413974      -392.2242
  10   2.0000     -14.409135      -392.0925
  11   2.0000     -14.408665      -392.0797
  12   2.0000     -10.372046      -282.2377
  13   2.0000     -10.363091      -281.9941
  14   2.0000     -10.361854      -281.9604
  15   2.0000     -10.359174      -281.8874
  16   2.0000     -10.342249      -281.4269
  17   2.0000     -10.341847      -281.4160
  18   2.0000     -10.341213      -281.3987
  19   2.0000     -10.338846      -281.3343
  20   2.0000     -10.336970      -281.2833
  21   2.0000     -10.336915      -281.2817
  22   2.0000     -10.334370      -281.2125
  23   2.0000     -10.333634      -281.1925
  24   2.0000     -10.331797      -281.1425
  25   2.0000     -10.329936      -281.0918
  26   2.0000     -10.316953      -280.7386
  27   2.0000     -10.316538      -280.7273
  28   2.0000     -10.314422      -280.6697
  29   2.0000     -10.313951      -280.6569
  30   2.0000     -10.313421      -280.6425
  31   2.0000     -10.312527      -280.6181
  32   2.0000     -10.311928      -280.6018
  33   2.0000     -10.311144      -280.5805
  34   2.0000     -10.309801      -280.5440
  35   2.0000     -10.309590      -280.5382
  36   2.0000     -10.309139      -280.5259
  37   2.0000     -10.307768      -280.4886
  38   2.0000     -10.301118      -280.3077
  39   2.0000     -10.298448      -280.2350
  40   2.0000     -10.297871      -280.2193
  41   2.0000     -10.297736      -280.2156
  42   2.0000     -10.297665      -280.2137
  43   2.0000     -10.295954      -280.1671
  44   2.0000     -10.295646      -280.1588
  45   2.0000     -10.295000      -280.1412
  46   2.0000     -10.294805      -280.1359
  47   2.0000     -10.294729      -280.1338
  48   2.0000     -10.294005      -280.1141
  49   2.0000     -10.293712      -280.1061
  50   2.0000     -10.292509      -280.0734
  51   2.0000     -10.292347      -280.0690
  52   2.0000     -10.291265      -280.0396
  53   2.0000     -10.291011      -280.0327
  54   2.0000     -10.287019      -279.9240
  55   2.0000     -10.284873      -279.8656
  56   2.0000     -10.284446      -279.8540
  57   2.0000     -10.284210      -279.8476
  58   2.0000     -10.284201      -279.8473
  59   2.0000     -10.283712      -279.8340
  60   2.0000     -10.283537      -279.8293
  61   2.0000     -10.282981      -279.8141
  62   2.0000     -10.282664      -279.8055
  63   2.0000     -10.282142      -279.7913
  64   2.0000     -10.281686      -279.7789
  65   2.0000     -10.275570      -279.6125
  66   2.0000      -8.092607      -220.2110
  67   2.0000      -8.088988      -220.1126
  68   2.0000      -6.061790      -164.9497
  69   2.0000      -6.058239      -164.8531
  70   2.0000      -6.057571      -164.8349
  71   2.0000      -6.055184      -164.7699
  72   2.0000      -6.053983      -164.7373
  73   2.0000      -6.051423      -164.6676
  74   2.0000      -5.382470      -146.4645
  75   2.0000      -5.382275      -146.4592
  76   2.0000      -3.745595      -101.9228
  77   2.0000      -3.745361      -101.9165
  78   2.0000      -3.744028      -101.8802
  79   2.0000      -3.743965      -101.8785
  80   2.0000      -3.743512      -101.8661
  81   2.0000      -3.743403      -101.8632
  82   2.0000      -1.126375       -30.6502
  83   2.0000      -1.124942       -30.6112
  84   2.0000      -1.051937       -28.6247
  85   2.0000      -1.028450       -27.9855
  86   2.0000      -1.016853       -27.6700
  87   2.0000      -1.014355       -27.6020
  88   2.0000      -1.012031       -27.5388
  89   2.0000      -1.004415       -27.3315
  90   2.0000      -0.996387       -27.1131
  91   2.0000      -0.993283       -27.0286
  92   2.0000      -0.992763       -27.0145
  93   2.0000      -0.987577       -26.8733
  94   2.0000      -0.970302       -26.4033
  95   2.0000      -0.968889       -26.3648
  96   2.0000      -0.967122       -26.3167
  97   2.0000      -0.948185       -25.8014
  98   2.0000      -0.946986       -25.7688
  99   2.0000      -0.923644       -25.1336
 100   2.0000      -0.920632       -25.0517
 101   2.0000      -0.916085       -24.9279
 102   2.0000      -0.899096       -24.4656
 103   2.0000      -0.895147       -24.3582
 104   2.0000      -0.880080       -23.9482
 105   2.0000      -0.879323       -23.9276
 106   2.0000      -0.877576       -23.8801
 107   2.0000      -0.875244       -23.8166
 108   2.0000      -0.868324       -23.6283
 109   2.0000      -0.862218       -23.4622
 110   2.0000      -0.846058       -23.0224
 111   2.0000      -0.826659       -22.4945
 112   2.0000      -0.826075       -22.4786
 113   2.0000      -0.824085       -22.4245
 114   2.0000      -0.806620       -21.9492
 115   2.0000      -0.795277       -21.6406
 116   2.0000      -0.782774       -21.3004
 117   2.0000      -0.765404       -20.8277
 118   2.0000      -0.757094       -20.6016
 119   2.0000      -0.756034       -20.5727
 120   2.0000      -0.747932       -20.3523
 121   2.0000      -0.734016       -19.9736
 122   2.0000      -0.710634       -19.3373
 123   2.0000      -0.708801       -19.2874
 124   2.0000      -0.702892       -19.1267
 125   2.0000      -0.700636       -19.0653
 126   2.0000      -0.700347       -19.0574
 127   2.0000      -0.697359       -18.9761
 128   2.0000      -0.690309       -18.7843
 129   2.0000      -0.688798       -18.7432
 130   2.0000      -0.683027       -18.5861
 131   2.0000      -0.675058       -18.3693
 132   2.0000      -0.669913       -18.2293
 133   2.0000      -0.663272       -18.0485
 134   2.0000      -0.642854       -17.4930
 135   2.0000      -0.638488       -17.3741
 136   2.0000      -0.631341       -17.1797
 137   2.0000      -0.625490       -17.0204
 138   2.0000      -0.624706       -16.9991
 139   2.0000      -0.622168       -16.9301
 140   2.0000      -0.618232       -16.8229
 141   2.0000      -0.609605       -16.5882
 142   2.0000      -0.605530       -16.4773
 143   2.0000      -0.602651       -16.3990
 144   2.0000      -0.599987       -16.3265
 145   2.0000      -0.592498       -16.1227
 146   2.0000      -0.590916       -16.0796
 147   2.0000      -0.585607       -15.9352
 148   2.0000      -0.572118       -15.5681
 149   2.0000      -0.564716       -15.3667
 150   2.0000      -0.554763       -15.0959
 151   2.0000      -0.551122       -14.9968
 152   2.0000      -0.548690       -14.9306
 153   2.0000      -0.545807       -14.8522
 154   2.0000      -0.544036       -14.8040
 155   2.0000      -0.542402       -14.7595
 156   2.0000      -0.539854       -14.6902
 157   2.0000      -0.535541       -14.5728
 158   2.0000      -0.531942       -14.4749
 159   2.0000      -0.530288       -14.4299
 160   2.0000      -0.530111       -14.4251
 161   2.0000      -0.519406       -14.1338
 162   2.0000      -0.518294       -14.1035
 163   2.0000      -0.515400       -14.0248
 164   2.0000      -0.513723       -13.9791
 165   2.0000      -0.512967       -13.9585
 166   2.0000      -0.510055       -13.8793
 167   2.0000      -0.509788       -13.8720
 168   2.0000      -0.507959       -13.8223
 169   2.0000      -0.505692       -13.7606
 170   2.0000      -0.502634       -13.6774
 171   2.0000      -0.501584       -13.6488
 172   2.0000      -0.498697       -13.5702
 173   2.0000      -0.497278       -13.5316
 174   2.0000      -0.491632       -13.3780
 175   2.0000      -0.490489       -13.3469
 176   2.0000      -0.484761       -13.1910
 177   2.0000      -0.483502       -13.1568
 178   2.0000      -0.481331       -13.0977
 179   2.0000      -0.480159       -13.0658
 180   2.0000      -0.478133       -13.0107
 181   2.0000      -0.475198       -12.9308
 182   2.0000      -0.467569       -12.7232
 183   2.0000      -0.465234       -12.6597
 184   2.0000      -0.463767       -12.6197
 185   2.0000      -0.462636       -12.5890
 186   2.0000      -0.461161       -12.5488
 187   2.0000      -0.459796       -12.5117
 188   2.0000      -0.450204       -12.2507
 189   2.0000      -0.449055       -12.2194
 190   2.0000      -0.446708       -12.1555
 191   2.0000      -0.445552       -12.1241
 192   2.0000      -0.443754       -12.0752
 193   2.0000      -0.443221       -12.0607
 194   2.0000      -0.439814       -11.9679
 195   2.0000      -0.439533       -11.9603
 196   2.0000      -0.436428       -11.8758
 197   2.0000      -0.434214       -11.8156
 198   2.0000      -0.433981       -11.8092
 199   2.0000      -0.432221       -11.7613
 200   2.0000      -0.430437       -11.7128
 201   2.0000      -0.428720       -11.6661
 202   2.0000      -0.427210       -11.6250
 203   2.0000      -0.426542       -11.6068
 204   2.0000      -0.423628       -11.5275
 205   2.0000      -0.422354       -11.4928
 206   2.0000      -0.420211       -11.4345
 207   2.0000      -0.417641       -11.3646
 208   2.0000      -0.416910       -11.3447
 209   2.0000      -0.413656       -11.2561
 210   2.0000      -0.413290       -11.2462
 211   2.0000      -0.408486       -11.1155
 212   2.0000      -0.406738       -11.0679
 213   2.0000      -0.403980       -10.9928
 214   2.0000      -0.401218       -10.9177
 215   2.0000      -0.393351       -10.7036
 216   2.0000      -0.391461       -10.6522
 217   2.0000      -0.385226       -10.4825
 218   2.0000      -0.374572       -10.1926
 219   2.0000      -0.371582       -10.1113
 220   2.0000      -0.361288        -9.8312
 221   2.0000      -0.356421        -9.6987
 222   2.0000      -0.344266        -9.3680
 223   2.0000      -0.335333        -9.1249
 224   2.0000      -0.331121        -9.0103
 225   2.0000      -0.328804        -8.9472
 226   2.0000      -0.317811        -8.6481
 227   2.0000      -0.313839        -8.5400
 228   2.0000      -0.309513        -8.4223
 229   2.0000      -0.293803        -7.9948
 230   2.0000      -0.291120        -7.9218
 231   2.0000      -0.276594        -7.5265
 232   2.0000      -0.246520        -6.7082
 233   0.0000      -0.119824        -3.2606
 234   0.0000      -0.097736        -2.6595
 235   0.0000      -0.092508        -2.5173
 236   0.0000      -0.061497        -1.6734
 237   0.0000      -0.056770        -1.5448

MULLIKEN ATOMIC CHARGES
-----------------------
   0 C :    0.264108
   1 C :   -0.350254
   2 C :   -0.165045
   3 N :    0.152146
   4 C :   -0.206348
   5 N :    0.162351
   6 C :    0.040084
   7 C :    0.009403
   8 C :   -0.083140
   9 C :    0.094640
  10 C :    0.094711
  11 C :   -0.083204
  12 C :   -0.017002
  13 C :    0.037530
  14 C :    0.033879
  15 C :   -0.014771
  16 C :    0.141191
  17 O :   -0.143332
  18 C :   -0.130535
  19 C :    0.039841
  20 C :   -0.179203
  21 C :    0.054260
  22 C :   -0.028459
  23 C :   -0.135145
  24 Si:    0.512858
  25 C :   -0.034719
  26 C :   -0.052502
  27 C :    0.018851
  28 C :   -0.094610
  29 S :    0.187420
  30 C :   -0.094057
  31 C :    0.006197
  32 C :    0.304531
  33 C :   -0.290670
  34 C :   -0.186011
  35 N :    0.175963
  36 C :   -0.185219
  37 N :    0.171095
  38 C :   -0.013801
  39 C :   -0.048497
  40 S :    0.175355
  41 C :   -0.129240
  42 C :   -0.046772
  43 C :    0.112910
  44 C :   -0.203604
  45 Si:    0.504970
  46 C :    0.017482
  47 C :   -0.105076
  48 C :    0.298270
  49 C :   -0.343860
  50 C :   -0.182031
  51 N :    0.142388
  52 C :   -0.207994
  53 N :    0.155618
  54 C :    0.052481
  55 C :   -0.008170
  56 C :    0.147714
  57 O :   -0.157024
  58 C :   -0.083684
  59 C :    0.097909
  60 C :    0.096175
  61 C :   -0.084994
  62 C :   -0.019889
  63 C :    0.036829
  64 C :    0.035764
  65 C :   -0.017613
  66 H :   -0.012929
  67 H :   -0.006791
  68 H :   -0.011167
  69 H :   -0.005722
  70 H :   -0.005614
  71 H :   -0.018591
  72 H :    0.022023
  73 H :    0.004706
  74 H :   -0.004928
  75 H :   -0.043580
  76 H :   -0.052796
  77 H :    0.017563
  78 H :    0.006436
  79 H :    0.002868
  80 H :    0.011191
  81 H :   -0.045438
  82 H :   -0.060800
  83 H :    0.021601
  84 H :   -0.015888
  85 H :   -0.009512
  86 H :   -0.009974
  87 H :   -0.005972
  88 H :   -0.006147
  89 H :   -0.018993
Sum of atomic charges:   -0.0000000

LOEWDIN ATOMIC CHARGES
----------------------
   0 C :    0.066830
   1 C :   -0.143778
   2 C :   -0.019882
   3 N :   -0.052581
   4 C :   -0.020461
   5 N :   -0.054637
   6 C :   -0.024168
   7 C :   -0.056303
   8 C :    0.031444
   9 C :   -0.009240
  10 C :   -0.006093
  11 C :    0.015340
  12 C :   -0.006427
  13 C :   -0.013389
  14 C :   -0.013692
  15 C :   -0.009405
  16 C :    0.081721
  17 O :   -0.146155
  18 C :   -0.101818
  19 C :    0.066149
  20 C :   -0.192703
  21 C :    0.043646
  22 C :   -0.036464
  23 C :   -0.152773
  24 Si:    0.563972
  25 C :   -0.163024
  26 C :   -0.021379
  27 C :   -0.069553
  28 C :   -0.172667
  29 S :    0.476742
  30 C :   -0.179342
  31 C :   -0.062712
  32 C :    0.080774
  33 C :   -0.098339
  34 C :   -0.016624
  35 N :   -0.029733
  36 C :   -0.015930
  37 N :   -0.029684
  38 C :   -0.014314
  39 C :   -0.168252
  40 S :    0.479590
  41 C :   -0.162841
  42 C :   -0.018591
  43 C :    0.068525
  44 C :   -0.205370
  45 Si:    0.548486
  46 C :    0.060376
  47 C :   -0.103560
  48 C :    0.075911
  49 C :   -0.146261
  50 C :   -0.017791
  51 N :   -0.058998
  52 C :   -0.024981
  53 N :   -0.058367
  54 C :   -0.025783
  55 C :   -0.054195
  56 C :    0.082197
  57 O :   -0.146640
  58 C :    0.029318
  59 C :   -0.008981
  60 C :   -0.007053
  61 C :    0.018103
  62 C :   -0.005933
  63 C :   -0.014788
  64 C :   -0.013709
  65 C :   -0.010472
  66 H :    0.038964
  67 H :    0.038448
  68 H :    0.034152
  69 H :    0.032879
  70 H :    0.032517
  71 H :    0.031499
  72 H :    0.045028
  73 H :    0.034535
  74 H :    0.022177
  75 H :   -0.076584
  76 H :   -0.078979
  77 H :    0.041413
  78 H :    0.041227
  79 H :    0.031860
  80 H :    0.036243
  81 H :   -0.074548
  82 H :   -0.082420
  83 H :    0.041193
  84 H :    0.037777
  85 H :    0.038633
  86 H :    0.034429
  87 H :    0.032662
  88 H :    0.032310
  89 H :    0.031297

  Mayer bond orders larger than 0.100000
B(  0-C ,  1-C ) :   1.6353 B(  0-C ,  6-C ) :   1.0012 B(  0-C , 18-C ) :   1.0465
B(  1-C ,  2-C ) :   1.1289 B(  1-C ,  4-C ) :   1.1661 B(  2-C ,  3-N ) :   2.9874
B(  4-C ,  5-N ) :   2.9901 B(  6-C ,  7-C ) :   1.2119 B(  6-C , 11-C ) :   1.4571
B(  7-C ,  8-C ) :   1.4787 B(  7-C , 16-C ) :   0.9200 B(  8-C ,  9-C ) :   1.1803
B(  8-C , 66-H ) :   1.0160 B(  9-C , 10-C ) :   1.2583 B(  9-C , 15-C ) :   1.2475
B( 10-C , 11-C ) :   1.2017 B( 10-C , 12-C ) :   1.2408 B( 11-C , 67-H ) :   0.9949
B( 12-C , 13-C ) :   1.4886 B( 12-C , 68-H ) :   0.9977 B( 13-C , 14-C ) :   1.2605
B( 13-C , 69-H ) :   0.9888 B( 14-C , 15-C ) :   1.4871 B( 14-C , 70-H ) :   0.9894
B( 15-C , 71-H ) :   0.9978 B( 16-C , 17-O ) :   2.2742 B( 16-C , 18-C ) :   0.9390
B( 18-C , 19-C ) :   1.6289 B( 19-C , 20-C ) :   1.1121 B( 19-C , 72-H ) :   0.9509
B( 20-C , 21-C ) :   1.5985 B( 20-C , 24-Si) :   0.9084 B( 21-C , 22-C ) :   1.1385
B( 21-C , 73-H ) :   0.9992 B( 22-C , 23-C ) :   1.6029 B( 22-C , 74-H ) :   0.9937
B( 23-C , 24-Si) :   0.8897 B( 23-C , 25-C ) :   1.1981 B( 24-Si, 75-H ) :   0.9577
B( 24-Si, 76-H ) :   0.9615 B( 25-C , 26-C ) :   1.4295 B( 25-C , 29-S ) :   1.0793
B( 26-C , 27-C ) :   1.2983 B( 26-C , 77-H ) :   0.9908 B( 27-C , 28-C ) :   1.4166
B( 27-C , 32-C ) :   0.9978 B( 28-C , 29-S ) :   1.1349 B( 28-C , 30-C ) :   1.2068
B( 30-C , 31-C ) :   1.4116 B( 30-C , 40-S ) :   1.1334 B( 31-C , 32-C ) :   0.9937
B( 31-C , 38-C ) :   1.3236 B( 32-C , 33-C ) :   1.7141 B( 33-C , 34-C ) :   1.1332
B( 33-C , 36-C ) :   1.1328 B( 34-C , 35-N ) :   2.9906 B( 36-C , 37-N ) :   2.9870
B( 38-C , 39-C ) :   1.4267 B( 38-C , 78-H ) :   0.9928 B( 39-C , 40-S ) :   1.1025
B( 39-C , 41-C ) :   1.1592 B( 41-C , 42-C ) :   1.6371 B( 41-C , 45-Si) :   0.8822
B( 42-C , 43-C ) :   1.1523 B( 42-C , 79-H ) :   0.9999 B( 43-C , 44-C ) :   1.5942
B( 43-C , 80-H ) :   0.9841 B( 44-C , 45-Si) :   0.9173 B( 44-C , 46-C ) :   1.1937
B( 45-Si, 81-H ) :   0.9583 B( 45-Si, 82-H ) :   0.9570 B( 46-C , 47-C ) :   1.5694
B( 46-C , 83-H ) :   0.9457 B( 47-C , 48-C ) :   1.0707 B( 47-C , 56-C ) :   0.9499
B( 48-C , 49-C ) :   1.6331 B( 48-C , 54-C ) :   0.9891 B( 49-C , 50-C ) :   1.1435
B( 49-C , 52-C ) :   1.1404 B( 50-C , 51-N ) :   2.9660 B( 52-C , 53-N ) :   3.0017
B( 54-C , 55-C ) :   1.2127 B( 54-C , 61-C ) :   1.4524 B( 55-C , 56-C ) :   0.9456
B( 55-C , 58-C ) :   1.4744 B( 56-C , 57-O ) :   2.2023 B( 58-C , 59-C ) :   1.1753
B( 58-C , 84-H ) :   1.0171 B( 59-C , 60-C ) :   1.2599 B( 59-C , 65-C ) :   1.2448
B( 60-C , 61-C ) :   1.2008 B( 60-C , 62-C ) :   1.2403 B( 61-C , 85-H ) :   0.9919
B( 62-C , 63-C ) :   1.4875 B( 62-C , 86-H ) :   0.9979 B( 63-C , 64-C ) :   1.2610
B( 63-C , 87-H ) :   0.9885 B( 64-C , 65-C ) :   1.4878 B( 64-C , 88-H ) :   0.9886
B( 65-C , 89-H ) :   0.9980

-----------------------------------------------------------------------------
         ABSORPTION SPECTRUM VIA TRANSITION ELECTRIC DIPOLE MOMENTS
-----------------------------------------------------------------------------
State   Energy  Wavelength   fosc         T2         TX        TY        TZ
        (cm-1)    (nm)                  (au**2)     (au)      (au)      (au)
-----------------------------------------------------------------------------
   0   10923.7    915.4   0.457665486  13.79289   2.48508  -2.74066  -0.32572
   1   16161.6    618.7   1.482346061  30.19536   3.50980  -4.22544  -0.14940
   2   18824.4    531.2   0.266130897   4.65426   2.14440   0.17480   0.15897
   3   20104.4    497.4   0.003673592   0.06016  -0.06973  -0.22183   0.07800
   4   24722.9    404.5   0.063627480   0.84727  -0.83778   0.28857   0.24925
   5   24939.3    401.0   0.033772158   0.44581   0.13639  -0.16019  -0.63368
   6   25793.8    387.7   0.049506501   0.63186   0.38547  -0.51945  -0.46201
   7   26156.4    382.3   0.183535216   2.31003  -1.13067   0.14473   1.00532
   8   26632.6    375.5   0.001513059   0.01870  -0.02099  -0.09509  -0.09603
   9   26940.2    371.2   0.070985868   0.86745  -0.14892   0.80654  -0.44132
  10   27570.3    362.7   0.033229862   0.39679   0.56268  -0.27965  -0.04449
  11   27950.2    357.8   0.049218946   0.57973   0.18851  -0.73637  -0.04412
  12   28798.5    347.2   0.041813912   0.47800   0.03675   0.56396  -0.39824
  13   29140.7    343.2   0.023619607   0.26684  -0.35748   0.28746   0.23751
  14   29567.2    338.2   0.223926543   2.49328   1.43692  -0.65086  -0.07012
  15   30150.7    331.7   0.034101902   0.37236   0.50446  -0.34299   0.01527
  16   30440.6    328.5   0.186854434   2.02081   0.12042   0.53300  -1.31233
  17   30778.7    324.9   0.371001978   3.96827  -0.55039   0.00760  -1.91449
  18   30970.0    322.9   0.080054817   0.85098   0.90422   0.09609   0.15535
  19   31475.1    317.7   0.046374352   0.48505   0.34143   0.20865  -0.57003
  20   32488.1    307.8   0.108940923   1.10393   0.04206  -0.78025   0.70241
  21   32557.5    307.1   0.306108857   3.09528  -1.60495   0.54624   0.47014
  22   33275.2    300.5   0.140954688   1.39455  -0.27787   0.67818  -0.92596
  23   33561.5    298.0   0.057881803   0.56778  -0.00045   0.68888   0.30531
  24   33719.0    296.6   0.037507368   0.36620  -0.37048  -0.12332  -0.46232
  25   33855.6    295.4   0.079719112   0.77519  -0.81525   0.05423  -0.32804
  26   34439.2    290.4   0.096140016   0.91902  -0.60242   0.65019  -0.36520
  27   34777.6    287.5   0.558916897   5.29082   0.15173   1.10739  -2.01035
  28   35083.8    285.0   0.263491342   2.47249  -1.51773  -0.12748   0.39082
  29   35222.5    283.9   0.124185247   1.16071   0.65539   0.31591  -0.79459
  30   35609.7    280.8   0.158118867   1.46181   0.91454  -0.08347   0.78643
  31   35687.6    280.2   0.226590999   2.09026  -0.09580   1.01223  -1.02785
  32   36115.1    276.9   0.019759524   0.18012   0.39983  -0.12460   0.06877
  33   36380.1    274.9   0.009028641   0.08170  -0.02793   0.17849   0.22150
  34   36626.5    273.0   0.023014266   0.20686  -0.39498   0.18119  -0.13425
  35   37149.9    269.2   0.036715957   0.32537  -0.08109  -0.41857   0.37893
  36   37397.2    267.4   0.001369951   0.01206   0.02124   0.04146  -0.09945
  37   37485.1    266.8   0.015925225   0.13986  -0.25233   0.08726   0.26187
  38   37610.0    265.9   0.016798808   0.14705   0.24660   0.23576  -0.17508
  39   38058.3    262.8   0.020740826   0.17941   0.36331  -0.17277   0.13254
  40   38537.5    259.5   0.046561511   0.39776   0.46646  -0.41035   0.10857
  41   38799.6    257.7   0.020533404   0.17422  -0.36585   0.11146  -0.16720
  42   38964.3    256.6   0.254382950   2.14930   0.61051   0.72079  -1.12118
  43   39466.4    253.4   0.115238814   0.96127   0.70141  -0.68256  -0.05838
  44   39929.6    250.4   0.204946886   1.68975  -0.39694  -0.55523   1.10631
  45   40069.5    249.6   0.074829555   0.61480   0.67212  -0.29216   0.27875

FINAL SINGLE POINT ENERGY     -3922.664535365127

DIPOLE MOMENT
-------------
                                X             Y             Z
Electronic contribution:      7.32625      13.80147     -11.42002
Nuclear contribution   :     -6.30853     -15.31450      11.89268
                        -----------------------------------------
Total Dipole Moment    :      1.01771      -1.51303       0.47266
                        -----------------------------------------
Magnitude (a.u.)       :      1.88372
Magnitude (Debye)      :      4.78803

Rotational constants in cm-1:     0.002465     0.000237     0.000230
Rotational constants in MHz :    73.909507     7.119302     6.886145

                             ****ORCA TERMINATED NORMALLY****
TOTAL RUN TIME: 0 days 0 hours 8 minutes 19 seconds 400 msec
