                         Program Version 4.2.0 -  RELEASE  -
|  1> # ORCA input file
|  2> # SCF done       -189.993496362342          0.000824316603
|  3> ! CAM-B3LYP def2-SVP def2/J RIJCOSX Grid4 TightSCF
|  4> %maxcore 5000
|  5> %tddft
|  6>     Mode sTDDFT
|  7>     Ethresh 5.0
|  8>     maxcore 5000
|  9> end
| 10>
| 11> %pal
| 12>   nprocs 6
| 13>   end
| 14> * xyz 0 1
| 15>    C        1.51209         1.15476         2.04997
| 16>    C        0.93826         0.86144         3.38881
| 17>    C        1.78967         0.51806         4.34519
| 18>    N        2.47197         0.17015         5.54335
| 19>    C       -0.45259         1.00520         3.57015
| 20>    N       -1.58440         1.13373         3.70083
| 21>    C        2.93909         0.98402         1.64827
| 22>    C        4.11722         0.66573         2.39331
| 23>    C        5.35019         0.57936         1.79389
| 24>    C        5.54243         0.78645         0.42160
| 25>    C        4.39610         1.09454        -0.35213
| 26>    C        3.15427         1.17838         0.29020
| 27>    C        4.54556         1.30149        -1.74131
| 28>    C        5.77738         1.20401        -2.32364
| 29>    C        6.91247         0.89818        -1.55205
| 30>    C        6.80156         0.69344        -0.20554
| 31>    C        3.17062         0.34362         4.46305
| 32>    O        4.24274         0.38733         3.78014
| 33>    C        0.63270         1.59988         1.17445
| 34>    C       -0.35037         2.03518         0.43616
| 35>    C       -0.78390         3.41658         0.36074
| 36>    C       -0.20443         4.44310         1.08080
| 37>    C       -0.67319         5.75637         1.03083
| 38>    C       -1.76174         6.13261         0.25781
| 39>    C       -2.38224         5.10508        -0.50835
| 40>    C       -1.89061         3.75093        -0.46184
| 41>    N       -2.55972         2.90088        -1.23108
| 42>   Se       -3.85013         3.74739        -2.04753
| 43>    N       -3.42478         5.27879        -1.30785
| 44>    C       -2.26669         7.47329         0.21437
| 45>    C       -1.76889         8.58686         0.86831
| 46>    C       -2.51803         9.73222         0.60254
| 47>    C       -3.59850         9.48309        -0.26096
| 48>    S       -3.68427         7.84832        -0.74668
| 49>    C       -4.29327        10.70312        -0.46656
| 50>    C       -3.65304        11.71943         0.26191
| 51>    C       -2.51460        11.14087         0.96017
| 52>    C       -1.63209        11.78603         1.77642
| 53>    C       -1.73348        13.16590         2.05008
| 54>    N       -1.81485        14.28791         2.27259
| 55>    C       -0.55838        11.11353         2.39603
| 56>    N        0.31777        10.57279         2.90134
| 57>    C       -4.26767        12.96356         0.11727
| 58>    C       -5.37175        12.90023        -0.71233
| 59>    S       -5.65319        11.27444        -1.32460
| 60>    C       -6.23926        13.95454        -1.09398
| 61>    C       -7.36307        13.86531        -1.89477
| 62>    C       -7.97929        15.10389        -2.06875
| 63>    C       -7.31772        16.14554        -1.39781
| 64>    S       -5.93955        15.59868        -0.54742
| 65>    C       -8.01613        17.35603        -1.64358
| 66>    C       -9.12055        17.07647        -2.46539
| 67>    C       -9.13541        15.65326        -2.75991
| 68>    C      -10.03939        14.97636        -3.52445
| 69>    C      -11.12715        15.62296        -4.14801
| 70>    N      -12.01449        16.14272        -4.65536
| 71>    C       -9.94439        13.58610        -3.74442
| 72>    N       -9.86908        12.45640        -3.92585
| 73>    C       -9.87232        18.21106        -2.77233
| 74>    C       -9.34697        19.35105        -2.19496
| 75>    S       -7.90131        19.01506        -1.25125
| 76>    C       -9.84092        20.67686        -2.30333
| 77>    C       -9.29971        21.83194        -1.77227
| 78>    C      -10.05718        22.95905        -2.09766
| 79>    C      -11.18082        22.65576        -2.87695
| 80>    S      -11.31114        20.98810        -3.21576
| 81>    C      -11.87875        23.86608        -3.15442
| 82>    C      -11.19180        24.92621        -2.55164
| 83>    C      -10.02502        24.39929        -1.86864
| 84>    C       -9.08829        25.09750        -1.16445
| 85>    C       -9.15255        26.49848        -1.01253
| 86>    N       -9.20013        27.63697        -0.88418
| 87>    C       -7.99028        24.46434        -0.54536
| 88>    N       -7.09723        23.95239        -0.03998
| 89>    C      -11.81609        26.16817        -2.77772
| 90>    C      -12.94113        26.02679        -3.53148
| 91>    S      -13.27366        24.38801        -3.98716
| 92>    H        6.19313         0.33551         2.42337
| 93>    H        2.29519         1.41264        -0.32273
| 94>    H        3.67108         1.53650        -2.33001
| 95>    H        5.89052         1.36111        -3.38590
| 96>    H        7.87488         0.82605        -2.03603
| 97>    H        7.66839         0.45785         0.39380
| 98>    H       -0.91728         1.34531        -0.17870
| 99>    H        0.63950         4.21668         1.71566
|100>    H       -0.16960         6.49866         1.62936
|101>    H       -0.90401         8.56528         1.50480
|102>    H       -3.94232        13.87550         0.58521
|103>    H       -7.70171        12.93793        -2.32063
|104>    H      -10.75563        18.22238        -3.38537
|105>    H       -8.39945        21.83673        -1.18426
|106>    H      -11.45971        27.11219        -2.40819
|107>    H      -13.61388        26.79429        -3.85794
|108> *
|109>
|110>                          ****END OF INPUT****

CARTESIAN COORDINATES (ANGSTROEM)
---------------------------------
  C      1.512090    1.154760    2.049970
  C      0.938260    0.861440    3.388810
  C      1.789670    0.518060    4.345190
  N      2.471970    0.170150    5.543350
  C     -0.452590    1.005200    3.570150
  N     -1.584400    1.133730    3.700830
  C      2.939090    0.984020    1.648270
  C      4.117220    0.665730    2.393310
  C      5.350190    0.579360    1.793890
  C      5.542430    0.786450    0.421600
  C      4.396100    1.094540   -0.352130
  C      3.154270    1.178380    0.290200
  C      4.545560    1.301490   -1.741310
  C      5.777380    1.204010   -2.323640
  C      6.912470    0.898180   -1.552050
  C      6.801560    0.693440   -0.205540
  C      3.170620    0.343620    4.463050
  O      4.242740    0.387330    3.780140
  C      0.632700    1.599880    1.174450
  C     -0.350370    2.035180    0.436160
  C     -0.783900    3.416580    0.360740
  C     -0.204430    4.443100    1.080800
  C     -0.673190    5.756370    1.030830
  C     -1.761740    6.132610    0.257810
  C     -2.382240    5.105080   -0.508350
  C     -1.890610    3.750930   -0.461840
  N     -2.559720    2.900880   -1.231080
  Se    -3.850130    3.747390   -2.047530
  N     -3.424780    5.278790   -1.307850
  C     -2.266690    7.473290    0.214370
  C     -1.768890    8.586860    0.868310
  C     -2.518030    9.732220    0.602540
  C     -3.598500    9.483090   -0.260960
  S     -3.684270    7.848320   -0.746680
  C     -4.293270   10.703120   -0.466560
  C     -3.653040   11.719430    0.261910
  C     -2.514600   11.140870    0.960170
  C     -1.632090   11.786030    1.776420
  C     -1.733480   13.165900    2.050080
  N     -1.814850   14.287910    2.272590
  C     -0.558380   11.113530    2.396030
  N      0.317770   10.572790    2.901340
  C     -4.267670   12.963560    0.117270
  C     -5.371750   12.900230   -0.712330
  S     -5.653190   11.274440   -1.324600
  C     -6.239260   13.954540   -1.093980
  C     -7.363070   13.865310   -1.894770
  C     -7.979290   15.103890   -2.068750
  C     -7.317720   16.145540   -1.397810
  S     -5.939550   15.598680   -0.547420
  C     -8.016130   17.356030   -1.643580
  C     -9.120550   17.076470   -2.465390
  C     -9.135410   15.653260   -2.759910
  C    -10.039390   14.976360   -3.524450
  C    -11.127150   15.622960   -4.148010
  N    -12.014490   16.142720   -4.655360
  C     -9.944390   13.586100   -3.744420
  N     -9.869080   12.456400   -3.925850
  C     -9.872320   18.211060   -2.772330
  C     -9.346970   19.351050   -2.194960
  S     -7.901310   19.015060   -1.251250
  C     -9.840920   20.676860   -2.303330
  C     -9.299710   21.831940   -1.772270
  C    -10.057180   22.959050   -2.097660
  C    -11.180820   22.655760   -2.876950
  S    -11.311140   20.988100   -3.215760
  C    -11.878750   23.866080   -3.154420
  C    -11.191800   24.926210   -2.551640
  C    -10.025020   24.399290   -1.868640
  C     -9.088290   25.097500   -1.164450
  C     -9.152550   26.498480   -1.012530
  N     -9.200130   27.636970   -0.884180
  C     -7.990280   24.464340   -0.545360
  N     -7.097230   23.952390   -0.039980
  C    -11.816090   26.168170   -2.777720
  C    -12.941130   26.026790   -3.531480
  S    -13.273660   24.388010   -3.987160
  H      6.193130    0.335510    2.423370
  H      2.295190    1.412640   -0.322730
  H      3.671080    1.536500   -2.330010
  H      5.890520    1.361110   -3.385900
  H      7.874880    0.826050   -2.036030
  H      7.668390    0.457850    0.393800
  H     -0.917280    1.345310   -0.178700
  H      0.639500    4.216680    1.715660
  H     -0.169600    6.498660    1.629360
  H     -0.904010    8.565280    1.504800
  H     -3.942320   13.875500    0.585210
  H     -7.701710   12.937930   -2.320630
  H    -10.755630   18.222380   -3.385370
  H     -8.399450   21.836730   -1.184260
  H    -11.459710   27.112190   -2.408190
  H    -13.613880   26.794290   -3.857940

 Total Charge           Charge          ....    0
 Multiplicity           Mult            ....    1
 Number of Electrons    NEL             ....  578
 Basis Dimension        Dim             .... 1200

ORBITAL ENERGIES
----------------

  NO   OCC          E(Eh)            E(eV)
   0   2.0000    -453.985458    -12353.5724
   1   2.0000     -88.991925     -2421.5934
   2   2.0000     -88.991292     -2421.5762
   3   2.0000     -88.990539     -2421.5557
   4   2.0000     -88.987912     -2421.4842
   5   2.0000     -88.986843     -2421.4551
   6   2.0000     -88.978403     -2421.2254
   7   2.0000     -58.199218     -1583.6812
   8   2.0000     -52.269922     -1422.3369
   9   2.0000     -52.267611     -1422.2740
  10   2.0000     -52.267041     -1422.2585
  11   2.0000     -19.340146      -526.2721
  12   2.0000     -14.472721      -393.8228
  13   2.0000     -14.442334      -392.9959
  14   2.0000     -14.441409      -392.9707
  15   2.0000     -14.432528      -392.7291
  16   2.0000     -14.432332      -392.7237
  17   2.0000     -14.429161      -392.6374
  18   2.0000     -14.428176      -392.6106
  19   2.0000     -14.426713      -392.5708
  20   2.0000     -14.426648      -392.5690
  21   2.0000     -14.389401      -391.5555
  22   2.0000     -10.422000      -283.5971
  23   2.0000     -10.375136      -282.3218
  24   2.0000     -10.366314      -282.0817
  25   2.0000     -10.362492      -281.9777
  26   2.0000     -10.359111      -281.8857
  27   2.0000     -10.353422      -281.7309
  28   2.0000     -10.350217      -281.6437
  29   2.0000     -10.349117      -281.6138
  30   2.0000     -10.347629      -281.5733
  31   2.0000     -10.333321      -281.1840
  32   2.0000     -10.332960      -281.1741
  33   2.0000     -10.332759      -281.1687
  34   2.0000     -10.332147      -281.1520
  35   2.0000     -10.330425      -281.1052
  36   2.0000     -10.330166      -281.0981
  37   2.0000     -10.329861      -281.0898
  38   2.0000     -10.329701      -281.0854
  39   2.0000     -10.329237      -281.0728
  40   2.0000     -10.329237      -281.0728
  41   2.0000     -10.328738      -281.0592
  42   2.0000     -10.328668      -281.0573
  43   2.0000     -10.328549      -281.0541
  44   2.0000     -10.327489      -281.0253
  45   2.0000     -10.327454      -281.0243
  46   2.0000     -10.327057      -281.0135
  47   2.0000     -10.326898      -281.0092
  48   2.0000     -10.323969      -280.9295
  49   2.0000     -10.318145      -280.7710
  50   2.0000     -10.317727      -280.7596
  51   2.0000     -10.316509      -280.7265
  52   2.0000     -10.313352      -280.6406
  53   2.0000     -10.310591      -280.5654
  54   2.0000     -10.305626      -280.4303
  55   2.0000     -10.303854      -280.3821
  56   2.0000     -10.303764      -280.3797
  57   2.0000     -10.302772      -280.3527
  58   2.0000     -10.302108      -280.3346
  59   2.0000     -10.301794      -280.3261
  60   2.0000     -10.301651      -280.3222
  61   2.0000     -10.300378      -280.2875
  62   2.0000     -10.299418      -280.2614
  63   2.0000     -10.298123      -280.2262
  64   2.0000     -10.298106      -280.2257
  65   2.0000     -10.297855      -280.2189
  66   2.0000     -10.296645      -280.1860
  67   2.0000     -10.296551      -280.1834
  68   2.0000     -10.294702      -280.1331
  69   2.0000     -10.294351      -280.1235
  70   2.0000     -10.294243      -280.1206
  71   2.0000     -10.293814      -280.1089
  72   2.0000     -10.292895      -280.0839
  73   2.0000     -10.292609      -280.0761
  74   2.0000     -10.292253      -280.0664
  75   2.0000     -10.291771      -280.0533
  76   2.0000     -10.289124      -279.9813
  77   2.0000     -10.287574      -279.9391
  78   2.0000     -10.287264      -279.9307
  79   2.0000     -10.286974      -279.9228
  80   2.0000     -10.285655      -279.8869
  81   2.0000      -8.086301      -220.0394
  82   2.0000      -8.085654      -220.0218
  83   2.0000      -8.084994      -220.0039
  84   2.0000      -8.082401      -219.9333
  85   2.0000      -8.081809      -219.9172
  86   2.0000      -8.071455      -219.6355
  87   2.0000      -7.974927      -217.0088
  88   2.0000      -6.055598      -164.7812
  89   2.0000      -6.054959      -164.7638
  90   2.0000      -6.054278      -164.7453
  91   2.0000      -6.051682      -164.6746
  92   2.0000      -6.051437      -164.6680
  93   2.0000      -6.051051      -164.6575
  94   2.0000      -6.050795      -164.6505
  95   2.0000      -6.050136      -164.6326
  96   2.0000      -6.048560      -164.5897
  97   2.0000      -6.047919      -164.5722
  98   2.0000      -6.047532      -164.5617
  99   2.0000      -6.047264      -164.5544
 100   2.0000      -6.046622      -164.5369
 101   2.0000      -6.044675      -164.4840
 102   2.0000      -6.044445      -164.4777
 103   2.0000      -6.040875      -164.3806
 104   2.0000      -6.036201      -164.2534
 105   2.0000      -6.034018      -164.1940
 106   2.0000      -5.925187      -161.2325
 107   2.0000      -5.918530      -161.0514
 108   2.0000      -5.914543      -160.9429
 109   2.0000      -2.279330       -62.0237
 110   2.0000      -2.278650       -62.0052
 111   2.0000      -2.274005       -61.8788
 112   2.0000      -2.268877       -61.7393
 113   2.0000      -2.268720       -61.7350
 114   2.0000      -1.255684       -34.1689
 115   2.0000      -1.138992       -30.9936
 116   2.0000      -1.096402       -29.8346
 117   2.0000      -1.046600       -28.4794
 118   2.0000      -1.041991       -28.3540
 119   2.0000      -1.038628       -28.2625
 120   2.0000      -1.024099       -27.8671
 121   2.0000      -1.020390       -27.7662
 122   2.0000      -1.018221       -27.7072
 123   2.0000      -1.010186       -27.4886
 124   2.0000      -1.006698       -27.3936
 125   2.0000      -1.005591       -27.3635
 126   2.0000      -1.004323       -27.3290
 127   2.0000      -0.996584       -27.1184
 128   2.0000      -0.995824       -27.0978
 129   2.0000      -0.987466       -26.8703
 130   2.0000      -0.980130       -26.6707
 131   2.0000      -0.975024       -26.5318
 132   2.0000      -0.966262       -26.2933
 133   2.0000      -0.959686       -26.1144
 134   2.0000      -0.953504       -25.9462
 135   2.0000      -0.952874       -25.9290
 136   2.0000      -0.947976       -25.7957
 137   2.0000      -0.927118       -25.2282
 138   2.0000      -0.920212       -25.0402
 139   2.0000      -0.908636       -24.7252
 140   2.0000      -0.899863       -24.4865
 141   2.0000      -0.890041       -24.2192
 142   2.0000      -0.887807       -24.1585
 143   2.0000      -0.871342       -23.7104
 144   2.0000      -0.869152       -23.6508
 145   2.0000      -0.864563       -23.5259
 146   2.0000      -0.859706       -23.3938
 147   2.0000      -0.858129       -23.3509
 148   2.0000      -0.854541       -23.2532
 149   2.0000      -0.852909       -23.2088
 150   2.0000      -0.848939       -23.1008
 151   2.0000      -0.844955       -22.9924
 152   2.0000      -0.841116       -22.8879
 153   2.0000      -0.829329       -22.5672
 154   2.0000      -0.807349       -21.9691
 155   2.0000      -0.792715       -21.5709
 156   2.0000      -0.779269       -21.2050
 157   2.0000      -0.775540       -21.1035
 158   2.0000      -0.771217       -20.9859
 159   2.0000      -0.768628       -20.9154
 160   2.0000      -0.763312       -20.7708
 161   2.0000      -0.749485       -20.3945
 162   2.0000      -0.743095       -20.2206
 163   2.0000      -0.735840       -20.0232
 164   2.0000      -0.715822       -19.4785
 165   2.0000      -0.708096       -19.2683
 166   2.0000      -0.706301       -19.2194
 167   2.0000      -0.703465       -19.1423
 168   2.0000      -0.701973       -19.1017
 169   2.0000      -0.698770       -19.0145
 170   2.0000      -0.695136       -18.9156
 171   2.0000      -0.687500       -18.7078
 172   2.0000      -0.681884       -18.5550
 173   2.0000      -0.679611       -18.4932
 174   2.0000      -0.677432       -18.4339
 175   2.0000      -0.671124       -18.2622
 176   2.0000      -0.659573       -17.9479
 177   2.0000      -0.647790       -17.6272
 178   2.0000      -0.640559       -17.4305
 179   2.0000      -0.630571       -17.1587
 180   2.0000      -0.630130       -17.1467
 181   2.0000      -0.625146       -17.0111
 182   2.0000      -0.621647       -16.9159
 183   2.0000      -0.619998       -16.8710
 184   2.0000      -0.616208       -16.7679
 185   2.0000      -0.614923       -16.7329
 186   2.0000      -0.611134       -16.6298
 187   2.0000      -0.608869       -16.5682
 188   2.0000      -0.608033       -16.5454
 189   2.0000      -0.605984       -16.4897
 190   2.0000      -0.599263       -16.3068
 191   2.0000      -0.596705       -16.2372
 192   2.0000      -0.586716       -15.9654
 193   2.0000      -0.578422       -15.7397
 194   2.0000      -0.571907       -15.5624
 195   2.0000      -0.568541       -15.4708
 196   2.0000      -0.565258       -15.3815
 197   2.0000      -0.552822       -15.0431
 198   2.0000      -0.549872       -14.9628
 199   2.0000      -0.547178       -14.8895
 200   2.0000      -0.545531       -14.8446
 201   2.0000      -0.544473       -14.8159
 202   2.0000      -0.543128       -14.7793
 203   2.0000      -0.540681       -14.7127
 204   2.0000      -0.537649       -14.6302
 205   2.0000      -0.536796       -14.6070
 206   2.0000      -0.534662       -14.5489
 207   2.0000      -0.531235       -14.4556
 208   2.0000      -0.520453       -14.1622
 209   2.0000      -0.517262       -14.0754
 210   2.0000      -0.515673       -14.0322
 211   2.0000      -0.512310       -13.9407
 212   2.0000      -0.511693       -13.9239
 213   2.0000      -0.509318       -13.8592
 214   2.0000      -0.507762       -13.8169
 215   2.0000      -0.506801       -13.7907
 216   2.0000      -0.505523       -13.7560
 217   2.0000      -0.500091       -13.6082
 218   2.0000      -0.498693       -13.5701
 219   2.0000      -0.497893       -13.5484
 220   2.0000      -0.494368       -13.4524
 221   2.0000      -0.493856       -13.4385
 222   2.0000      -0.492202       -13.3935
 223   2.0000      -0.490008       -13.3338
 224   2.0000      -0.486818       -13.2470
 225   2.0000      -0.483096       -13.1457
 226   2.0000      -0.481649       -13.1063
 227   2.0000      -0.480981       -13.0882
 228   2.0000      -0.479033       -13.0351
 229   2.0000      -0.476543       -12.9674
 230   2.0000      -0.470510       -12.8032
 231   2.0000      -0.467466       -12.7204
 232   2.0000      -0.466904       -12.7051
 233   2.0000      -0.463729       -12.6187
 234   2.0000      -0.462122       -12.5750
 235   2.0000      -0.460108       -12.5202
 236   2.0000      -0.459723       -12.5097
 237   2.0000      -0.458510       -12.4767
 238   2.0000      -0.456688       -12.4271
 239   2.0000      -0.456146       -12.4124
 240   2.0000      -0.454815       -12.3762
 241   2.0000      -0.451497       -12.2859
 242   2.0000      -0.448083       -12.1930
 243   2.0000      -0.445491       -12.1224
 244   2.0000      -0.443915       -12.0795
 245   2.0000      -0.442702       -12.0465
 246   2.0000      -0.442102       -12.0302
 247   2.0000      -0.441619       -12.0171
 248   2.0000      -0.439411       -11.9570
 249   2.0000      -0.439111       -11.9488
 250   2.0000      -0.438836       -11.9413
 251   2.0000      -0.437668       -11.9096
 252   2.0000      -0.437088       -11.8938
 253   2.0000      -0.436611       -11.8808
 254   2.0000      -0.435657       -11.8548
 255   2.0000      -0.433955       -11.8085
 256   2.0000      -0.427543       -11.6340
 257   2.0000      -0.427403       -11.6302
 258   2.0000      -0.424164       -11.5421
 259   2.0000      -0.422864       -11.5067
 260   2.0000      -0.422683       -11.5018
 261   2.0000      -0.421794       -11.4776
 262   2.0000      -0.420342       -11.4381
 263   2.0000      -0.407443       -11.0871
 264   2.0000      -0.401280       -10.9194
 265   2.0000      -0.399624       -10.8743
 266   2.0000      -0.393334       -10.7032
 267   2.0000      -0.389841       -10.6081
 268   2.0000      -0.385711       -10.4957
 269   2.0000      -0.377642       -10.2762
 270   2.0000      -0.370701       -10.0873
 271   2.0000      -0.370234       -10.0746
 272   2.0000      -0.362454        -9.8629
 273   2.0000      -0.359544        -9.7837
 274   2.0000      -0.351893        -9.5755
 275   2.0000      -0.349243        -9.5034
 276   2.0000      -0.345837        -9.4107
 277   2.0000      -0.342151        -9.3104
 278   2.0000      -0.330809        -9.0018
 279   2.0000      -0.324197        -8.8218
 280   2.0000      -0.321025        -8.7355
 281   2.0000      -0.319530        -8.6948
 282   2.0000      -0.317275        -8.6335
 283   2.0000      -0.315402        -8.5825
 284   2.0000      -0.307506        -8.3677
 285   2.0000      -0.288944        -7.8626
 286   2.0000      -0.275186        -7.4882
 287   2.0000      -0.259687        -7.0664
 288   2.0000      -0.234314        -6.3760
 289   0.0000      -0.107929        -2.9369
 290   0.0000      -0.100495        -2.7346
 291   0.0000      -0.099924        -2.7191
 292   0.0000      -0.078332        -2.1315
 293   0.0000      -0.044650        -1.2150

MULLIKEN ATOMIC CHARGES
-----------------------
   0 C :    0.069175
   1 C :   -0.282520
   2 C :    0.105103
   3 N :   -0.036304
   4 C :   -0.190396
   5 N :    0.169001
   6 C :    0.149089
   7 C :    0.119532
   8 C :   -0.075781
   9 C :    0.095031
  10 C :    0.116470
  11 C :   -0.110486
  12 C :   -0.011736
  13 C :    0.029504
  14 C :    0.033472
  15 C :   -0.009875
  16 C :    0.139918
  17 O :   -0.170692
  18 C :    0.093029
  19 C :   -0.183219
  20 C :    0.029562
  21 C :   -0.016015
  22 C :   -0.043141
  23 C :    0.150733
  24 C :    0.001195
  25 C :    0.016864
  26 N :   -0.273119
  27 Se:    0.544608
  28 N :   -0.332696
  29 C :   -0.099263
  30 C :   -0.055498
  31 C :    0.019190
  32 C :   -0.083375
  33 S :    0.216531
  34 C :   -0.101203
  35 C :    0.011161
  36 C :    0.307227
  37 C :   -0.301093
  38 C :   -0.190232
  39 N :    0.168267
  40 C :   -0.186893
  41 N :    0.166695
  42 C :   -0.064595
  43 C :   -0.054610
  44 S :    0.189177
  45 C :   -0.049095
  46 C :   -0.068621
  47 C :    0.014770
  48 C :   -0.100942
  49 S :    0.198464
  50 C :   -0.099278
  51 C :    0.014056
  52 C :    0.304443
  53 C :   -0.295858
  54 C :   -0.189248
  55 N :    0.173281
  56 C :   -0.188893
  57 N :    0.170837
  58 C :   -0.067583
  59 C :   -0.050122
  60 S :    0.198563
  61 C :   -0.055302
  62 C :   -0.063190
  63 C :    0.013870
  64 C :   -0.101383
  65 S :    0.189952
  66 C :   -0.116079
  67 C :   -0.032828
  68 C :    0.297936
  69 C :   -0.295395
  70 C :   -0.191160
  71 N :    0.172745
  72 C :   -0.187894
  73 N :    0.171745
  74 C :    0.038189
  75 C :   -0.082782
  76 S :    0.184151
  77 H :   -0.015645
  78 H :   -0.009561
  79 H :   -0.019925
  80 H :   -0.006312
  81 H :   -0.006292
  82 H :   -0.022000
  83 H :    0.036708
  84 H :   -0.009034
  85 H :   -0.014413
  86 H :    0.002391
  87 H :    0.008971
  88 H :    0.010554
  89 H :    0.011032
  90 H :    0.010475
  91 H :    0.011419
  92 H :    0.036495
Sum of atomic charges:   -0.0000000

LOEWDIN ATOMIC CHARGES
----------------------
   0 C :   -0.039492
   1 C :   -0.151561
   2 C :    0.028787
   3 N :   -0.037562
   4 C :   -0.029631
   5 N :   -0.067131
   6 C :   -0.032934
   7 C :    0.058349
   8 C :   -0.019357
   9 C :   -0.012008
  10 C :   -0.019329
  11 C :    0.020528
  12 C :   -0.006485
  13 C :   -0.019159
  14 C :   -0.013646
  15 C :   -0.012596
  16 C :    0.085129
  17 O :    0.021957
  18 C :    0.029914
  19 C :   -0.035064
  20 C :   -0.025826
  21 C :    0.000689
  22 C :   -0.003348
  23 C :   -0.043456
  24 C :   -0.039468
  25 C :   -0.033875
  26 N :   -0.247258
  27 Se:    0.580504
  28 N :   -0.274809
  29 C :   -0.161221
  30 C :   -0.025986
  31 C :   -0.073895
  32 C :   -0.191959
  33 S :    0.519207
  34 C :   -0.174171
  35 C :   -0.071247
  36 C :    0.085376
  37 C :   -0.108053
  38 C :   -0.016513
  39 N :   -0.037689
  40 C :   -0.015186
  41 N :   -0.038490
  42 C :   -0.038069
  43 C :   -0.183043
  44 S :    0.482106
  45 C :   -0.177745
  46 C :   -0.041677
  47 C :   -0.068952
  48 C :   -0.182168
  49 S :    0.485061
  50 C :   -0.178507
  51 C :   -0.070909
  52 C :    0.084231
  53 C :   -0.102459
  54 C :   -0.016101
  55 N :   -0.033811
  56 C :   -0.015971
  57 N :   -0.033573
  58 C :   -0.040503
  59 C :   -0.180284
  60 S :    0.485343
  61 C :   -0.180821
  62 C :   -0.039556
  63 C :   -0.069215
  64 C :   -0.180280
  65 S :    0.483255
  66 C :   -0.183976
  67 C :   -0.077820
  68 C :    0.083817
  69 C :   -0.103738
  70 C :   -0.016887
  71 N :   -0.032805
  72 C :   -0.016271
  73 N :   -0.035202
  74 C :   -0.033584
  75 C :   -0.178185
  76 S :    0.479351
  77 H :    0.039375
  78 H :    0.038974
  79 H :    0.031140
  80 H :    0.032234
  81 H :    0.032328
  82 H :    0.030682
  83 H :    0.052712
  84 H :    0.036273
  85 H :    0.035648
  86 H :    0.036935
  87 H :    0.035401
  88 H :    0.034652
  89 H :    0.034826
  90 H :    0.035475
  91 H :    0.042439
  92 H :    0.027816

  Mayer bond orders larger than 0.100000
B(  0-C ,  1-C ) :   1.1445 B(  0-C ,  6-C ) :   0.9742 B(  0-C , 18-C ) :   1.5216
B(  1-C ,  2-C ) :   1.6967 B(  1-C ,  3-N ) :   0.1228 B(  1-C ,  4-C ) :   1.0969
B(  2-C ,  3-N ) :   0.9512 B(  2-C , 16-C ) :   1.0325 B(  2-C , 18-C ) :   0.1003
B(  3-N , 16-C ) :   1.6483 B(  4-C ,  5-N ) :   3.0685 B(  6-C ,  7-C ) :   1.1804
B(  6-C , 11-C ) :   1.4473 B(  7-C ,  8-C ) :   1.4932 B(  7-C , 17-O ) :   0.9435
B(  8-C ,  9-C ) :   1.2098 B(  8-C , 77-H ) :   1.0005 B(  9-C , 10-C ) :   1.2565
B(  9-C , 15-C ) :   1.2280 B( 10-C , 11-C ) :   1.2279 B( 10-C , 12-C ) :   1.2209
B( 11-C , 78-H ) :   0.9836 B( 12-C , 13-C ) :   1.5130 B( 12-C , 79-H ) :   0.9968
B( 13-C , 14-C ) :   1.2452 B( 13-C , 80-H ) :   0.9880 B( 14-C , 15-C ) :   1.5111
B( 14-C , 81-H ) :   0.9885 B( 15-C , 82-H ) :   0.9979 B( 16-C , 17-O ) :   1.3056
B( 18-C , 19-C ) :   1.6209 B( 19-C , 20-C ) :   1.1226 B( 19-C , 83-H ) :   0.9611
B( 20-C , 21-C ) :   1.4848 B( 20-C , 23-C ) :   0.1050 B( 20-C , 25-C ) :   1.1598
B( 21-C , 22-C ) :   1.2068 B( 21-C , 84-H ) :   0.9862 B( 22-C , 23-C ) :   1.4617
B( 22-C , 85-H ) :   0.9973 B( 23-C , 24-C ) :   1.1481 B( 23-C , 29-C ) :   1.0981
B( 24-C , 25-C ) :   1.1246 B( 24-C , 28-N ) :   1.5534 B( 25-C , 26-N ) :   1.6057
B( 26-N , 27-Se) :   1.2457 B( 26-N , 28-N ) :   0.1292 B( 27-Se, 28-N ) :   1.2172
B( 29-C , 30-C ) :   1.4562 B( 29-C , 33-S ) :   1.1177 B( 30-C , 31-C ) :   1.2998
B( 30-C , 86-H ) :   0.9872 B( 31-C , 32-C ) :   1.4259 B( 31-C , 36-C ) :   0.9987
B( 32-C , 33-S ) :   1.0954 B( 32-C , 34-C ) :   1.1821 B( 34-C , 35-C ) :   1.4478
B( 34-C , 44-S ) :   1.1225 B( 35-C , 36-C ) :   0.9910 B( 35-C , 42-C ) :   1.2973
B( 36-C , 37-C ) :   1.7061 B( 37-C , 38-C ) :   1.1317 B( 37-C , 40-C ) :   1.1363
B( 38-C , 39-N ) :   2.9929 B( 40-C , 41-N ) :   2.9886 B( 42-C , 43-C ) :   1.4615
B( 42-C , 87-H ) :   0.9880 B( 43-C , 44-S ) :   1.1043 B( 43-C , 45-C ) :   1.1674
B( 45-C , 46-C ) :   1.4583 B( 45-C , 49-S ) :   1.1098 B( 46-C , 47-C ) :   1.2992
B( 46-C , 88-H ) :   0.9868 B( 47-C , 48-C ) :   1.4484 B( 47-C , 52-C ) :   0.9925
B( 48-C , 49-S ) :   1.1171 B( 48-C , 50-C ) :   1.1848 B( 50-C , 51-C ) :   1.4491
B( 50-C , 60-S ) :   1.1203 B( 51-C , 52-C ) :   0.9960 B( 51-C , 58-C ) :   1.2963
B( 52-C , 53-C ) :   1.7125 B( 53-C , 54-C ) :   1.1333 B( 53-C , 56-C ) :   1.1331
B( 54-C , 55-N ) :   2.9926 B( 56-C , 57-N ) :   2.9914 B( 58-C , 59-C ) :   1.4645
B( 58-C , 89-H ) :   0.9862 B( 59-C , 60-S ) :   1.1070 B( 59-C , 61-C ) :   1.1637
B( 61-C , 62-C ) :   1.4677 B( 61-C , 65-S ) :   1.1103 B( 62-C , 63-C ) :   1.2942
B( 62-C , 90-H ) :   0.9875 B( 63-C , 64-C ) :   1.4670 B( 63-C , 68-C ) :   0.9916
B( 64-C , 65-S ) :   1.1219 B( 64-C , 66-C ) :   1.1802 B( 66-C , 67-C ) :   1.4559
B( 66-C , 76-S ) :   1.1384 B( 67-C , 68-C ) :   1.0160 B( 67-C , 74-C ) :   1.2775
B( 68-C , 69-C ) :   1.7112 B( 69-C , 70-C ) :   1.1297 B( 69-C , 72-C ) :   1.1325
B( 70-C , 71-N ) :   3.0027 B( 72-C , 73-N ) :   2.9925 B( 74-C , 75-C ) :   1.5489
B( 74-C , 91-H ) :   0.9966 B( 75-C , 76-S ) :   1.1494 B( 75-C , 92-H ) :   0.9643

-----------------------------------------------------------------------------
         ABSORPTION SPECTRUM VIA TRANSITION ELECTRIC DIPOLE MOMENTS
-----------------------------------------------------------------------------
State   Energy  Wavelength   fosc         T2         TX        TY        TZ
        (cm-1)    (nm)                  (au**2)     (au)      (au)      (au)
-----------------------------------------------------------------------------
   0   10522.1    950.4   0.277157357   8.67157   1.44420  -2.52053   0.48246
   1   11811.1    846.7   0.121986345   3.40014   0.90209  -1.58946   0.24490
   2   13459.8    743.0   0.076884851   1.88051   0.58173  -1.22813   0.18382
   3   18959.0    527.5   0.835449259  14.50709   1.75845  -3.35777   0.37463
   4   19699.8    507.6   0.023063440   0.38542   0.19122  -0.59042   0.01619
   5   21664.5    461.6   0.002542029   0.03863   0.12344  -0.06444   0.13871
   6   22427.2    445.9   0.085229832   1.25110   0.57027  -0.93702   0.21883
   7   24658.6    405.5   0.000240858   0.00322   0.03779   0.02923  -0.03055
   8   25027.7    399.6   1.205138199  15.85226   1.94018  -3.41208   0.66760
   9   26753.0    373.8   0.371672005   4.57365   1.10806  -1.76876   0.46622
  10   27126.1    368.6   0.031382204   0.38087   0.13592  -0.58328  -0.14893
  11   28203.0    354.6   0.254460904   2.97031  -0.85076   1.47652  -0.25770
  12   28997.7    344.9   0.015866853   0.18014  -0.29421  -0.22146  -0.21103
  13   29812.1    335.4   0.000326461   0.00361  -0.05925   0.00372  -0.00900
  14   30390.5    329.1   0.364346901   3.94688  -1.47674  -0.89139  -0.98566
  15   31123.1    321.3   0.004590135   0.04855  -0.14630   0.15429  -0.05784
  16   31197.5    320.5   0.086613294   0.91399  -0.13967   0.92981   0.17302
  17   31268.6    319.8   0.001047963   0.01103  -0.00717   0.07716   0.07092
  18   31479.4    317.7   0.404615370   4.23147   0.73421   1.58752   1.08267
  19   31964.5    312.8   0.208608014   2.14852   1.27045  -0.25666   0.68455
  20   32310.4    309.5   0.781446984   7.96220   1.18502   2.11556   1.44303
  21   32497.6    307.7   0.593795328   6.01535   2.06154   0.01369   1.32862
  22   32629.9    306.5   0.103231155   1.04153  -0.99355  -0.23264   0.01638
  23   32694.0    305.9   0.002761331   0.02781   0.03212  -0.15830  -0.04142
  24   33168.8    301.5   0.024565267   0.24382   0.23825  -0.28509   0.32524
  25   33507.5    298.4   0.085672762   0.84174   0.46441  -0.78246   0.11758
  26   33574.8    297.8   0.048955998   0.48003  -0.22981  -0.62746  -0.18305
  27   33673.3    297.0   0.095332073   0.93203   0.19557  -0.94497  -0.02841
  28   33912.7    294.9   0.002775447   0.02694   0.03057   0.14840   0.06313
  29   33957.3    294.5   0.028652088   0.27778  -0.23704  -0.32486  -0.34068
  30   34133.0    293.0   0.104812505   1.01091   0.63584   0.56148   0.53979
  31   34447.1    290.3   0.095280087   0.91059   0.94690  -0.11762   0.01163
  32   34572.2    289.2   0.132857083   1.26512  -0.38422  -0.91647  -0.52687
  33   34796.9    287.4   0.230366091   2.17949  -0.87805   1.12129  -0.38886
  34   35039.2    285.4   0.092132076   0.86563   0.57480   0.38961   0.61923
  35   35152.7    284.5   0.090181976   0.84457  -0.12079  -0.88664  -0.20940
  36   35255.3    283.6   0.001033618   0.00965  -0.00424   0.03072  -0.09322
  37   35803.2    279.3   0.283033867   2.60251  -0.90408   1.26435  -0.43192
  38   36093.5    277.1   0.005988863   0.05462  -0.14298  -0.13221  -0.12924
  39   36454.4    274.3   0.039548416   0.35715   0.47211  -0.25731   0.26088
  40   36611.6    273.1   0.000081870   0.00074  -0.01060  -0.02266  -0.01050
  41   37292.2    268.2   0.003169417   0.02798  -0.07883   0.14621   0.01973
  42   37705.9    265.2   0.025538458   0.22298   0.28340  -0.37338   0.05699
  43   38020.8    263.0   0.000112753   0.00098  -0.00157  -0.03095  -0.00401
  44   38256.3    261.4   0.112803474   0.97072  -0.82371  -0.12955  -0.52483
  45   38479.1    259.9   0.000050182   0.00043  -0.01385  -0.01511   0.00305
  46   38612.7    259.0   0.009183425   0.07830   0.21458   0.14168   0.11035
  47   38922.2    256.9   0.080262840   0.67888  -0.65785  -0.28283  -0.40757
  48   39210.6    255.0   0.001241336   0.01042   0.09967  -0.00820   0.02050
  49   39416.7    253.7   0.003899079   0.03257  -0.14681   0.05833  -0.08723
  50   39612.3    252.4   0.163422854   1.35818   1.15500  -0.14595   0.05349
  51   39711.8    251.8   0.000669755   0.00555   0.02961  -0.03596  -0.05816
  52   40034.2    249.8   0.011193885   0.09205  -0.22393   0.09891  -0.17923
  53   40121.2    249.2   0.023041849   0.18907  -0.38849   0.11239  -0.15973
  54   40195.0    248.8   0.069129615   0.56620   0.50839  -0.28466   0.47613

FINAL SINGLE POINT ENERGY     -7666.421874783066

DIPOLE MOMENT
-------------
                                X             Y             Z
Electronic contribution:    -37.54443     -46.29689     -15.05507
Nuclear contribution   :     38.69010      44.83505      12.11005
                        -----------------------------------------
Total Dipole Moment    :      1.14567      -1.46183      -2.94502
                        -----------------------------------------
Magnitude (a.u.)       :      3.48176
Magnitude (Debye)      :      8.84993

Rotational constants in cm-1:     0.001898     0.000147     0.000141
Rotational constants in MHz :    56.889303     4.399303     4.223586

                             ****ORCA TERMINATED NORMALLY****
TOTAL RUN TIME: 0 days 0 hours 23 minutes 12 seconds 593 msec
