                         Program Version 4.2.0 -  RELEASE  -
|  1> # ORCA input file
|  2> # SCF done       -166.162049474556          0.000340372249
|  3> ! CAM-B3LYP def2-SVP def2/J RIJCOSX Grid4 TightSCF
|  4> %maxcore 5000
|  5> %tddft
|  6>     Mode sTDDFT
|  7>     Ethresh 5.0
|  8>     maxcore 5000
|  9> end
| 10>
| 11> %pal
| 12>   nprocs 6
| 13>   end
| 14> * xyz 0 1
| 15>    C       -0.86698         6.73184        -6.65567
| 16>    C       -0.54150         7.80972        -5.88584
| 17>    C       -0.65604         9.14731        -6.32352
| 18>    N       -0.74075        10.25065        -6.62737
| 19>    C        0.03130         7.73447        -4.59675
| 20>    N        0.55549         7.76161        -3.57678
| 21>    C       -1.28378         6.75054        -8.05000
| 22>    C       -1.23382         5.42035        -8.56283
| 23>    C       -1.56177         5.13645        -9.85814
| 24>    C       -1.97075         6.18473       -10.71095
| 25>    C       -2.02961         7.51560       -10.20349
| 26>    C       -1.67904         7.78179        -8.86084
| 27>    C       -2.44092         8.55286       -11.06556
| 28>    C       -2.77806         8.29114       -12.36535
| 29>    C       -2.72040         6.98063       -12.86380
| 30>    C       -2.32530         5.95056       -12.05461
| 31>    C       -0.80353         4.50364        -7.50103
| 32>    O       -0.50068         3.33367        -7.60545
| 33>    C       -0.77742         5.33061        -6.25938
| 34>    C       -0.84978         4.83805        -5.01260
| 35>    C       -0.88202         3.42020        -4.68878
| 36>    C       -1.79348         2.49208        -5.14342
| 37>    C       -2.92173         2.73044        -6.04866
| 38>    O       -3.32582         3.84849        -6.28539
| 39>    C       -3.51040         1.49590        -6.67465
| 40>    S       -1.46004         0.92230        -4.48803
| 41>    C       -0.11825         1.52048        -3.61055
| 42>    C        0.07956         2.85434        -3.79825
| 43>    C        1.09009         3.75508        -3.23454
| 44>    C        2.06556         4.37100        -3.99673
| 45>    C        2.64368         4.05170        -5.29723
| 46>    O        3.43630         4.81648        -5.81211
| 47>    C        2.26771         2.73983        -5.93179
| 48>    S        2.76505         5.72256        -3.16488
| 49>    C        1.78135         5.43928        -1.81009
| 50>    C        0.95184         4.35785        -1.95775
| 51>    C        0.08325         3.89095        -0.87540
| 52>    C       -0.94557         4.64935        -0.36774
| 53>    C       -1.48894         5.88525        -0.94291
| 54>    O       -1.31112         6.16250        -2.10866
| 55>    C       -2.30451         6.73291        -0.00720
| 56>    S       -1.69471         3.87797         0.99715
| 57>    C       -0.69272         2.51394         0.82179
| 58>    C        0.22805         2.64385        -0.18740
| 59>    C        1.09579         1.57048        -0.61596
| 60>    C        2.35513         1.72618        -1.07438
| 61>    C        3.09482         0.81809        -1.94557
| 62>    C        2.85462        -0.51216        -2.14920
| 63>    C        3.61001        -1.32018        -3.02655
| 64>    N        4.18885        -2.02280        -3.72475
| 65>    C        1.84872        -1.24799        -1.48769
| 66>    N        1.03369        -1.88217        -0.98622
| 67>    C        4.12331         1.61783        -2.59374
| 68>    C        4.22720         2.87023        -1.91938
| 69>    C        3.20272         2.93818        -0.86788
| 70>    O        3.09457         3.74156         0.03068
| 71>    C        5.11358         3.82869        -2.32131
| 72>    C        5.88962         3.60559        -3.48005
| 73>    C        5.76636         2.36863        -4.17778
| 74>    C        4.88859         1.36907        -3.70323
| 75>    C        6.52174         2.17249        -5.35145
| 76>    C        7.35155         3.15404        -5.81985
| 77>    C        7.46865         4.37229        -5.13439
| 78>    C        6.75649         4.59206        -3.98676
| 79>    H       -1.51477         4.12219       -10.22619
| 80>    H       -1.74009         8.79698        -8.50098
| 81>    H       -2.48227         9.56004       -10.67762
| 82>    H       -3.09142         9.09247       -13.01759
| 83>    H       -2.99077         6.79215       -13.89204
| 84>    H       -2.27857         4.93984       -12.43307
| 85>    H       -0.89368         5.50287        -4.15634
| 86>    H       -4.38196         1.76446        -7.26538
| 87>    H       -3.78580         0.77125        -5.91150
| 88>    H       -2.75975         1.04284        -7.32049
| 89>    H        0.45522         0.83980        -3.01543
| 90>    H        2.21748         1.94332        -5.19459
| 91>    H        3.00281         2.49704        -6.69531
| 92>    H        1.29397         2.82956        -6.41444
| 93>    H        1.86715         6.06166        -0.94186
| 94>    H       -3.18287         6.17908         0.32084
| 95>    H       -2.61671         7.64100        -0.51544
| 96>    H       -1.71649         6.98530         0.87277
| 97>    H       -0.79782         1.68246         1.49153
| 98>    H        0.62497         0.59502        -0.64761
| 99>    H        5.19839         4.76067        -1.78344
|100>    H        4.82061         0.43849        -4.24545
|101>    H        6.42562         1.23371        -5.87726
|102>    H        7.91904         2.99841        -6.72508
|103>    H        8.12248         5.13809        -5.52334
|104>    H        6.83597         5.53057        -3.45900
|105> *
|106>
|107>                          ****END OF INPUT****

CARTESIAN COORDINATES (ANGSTROEM)
---------------------------------
  C     -0.866980    6.731840   -6.655670
  C     -0.541500    7.809720   -5.885840
  C     -0.656040    9.147310   -6.323520
  N     -0.740750   10.250650   -6.627370
  C      0.031300    7.734470   -4.596750
  N      0.555490    7.761610   -3.576780
  C     -1.283780    6.750540   -8.050000
  C     -1.233820    5.420350   -8.562830
  C     -1.561770    5.136450   -9.858140
  C     -1.970750    6.184730  -10.710950
  C     -2.029610    7.515600  -10.203490
  C     -1.679040    7.781790   -8.860840
  C     -2.440920    8.552860  -11.065560
  C     -2.778060    8.291140  -12.365350
  C     -2.720400    6.980630  -12.863800
  C     -2.325300    5.950560  -12.054610
  C     -0.803530    4.503640   -7.501030
  O     -0.500680    3.333670   -7.605450
  C     -0.777420    5.330610   -6.259380
  C     -0.849780    4.838050   -5.012600
  C     -0.882020    3.420200   -4.688780
  C     -1.793480    2.492080   -5.143420
  C     -2.921730    2.730440   -6.048660
  O     -3.325820    3.848490   -6.285390
  C     -3.510400    1.495900   -6.674650
  S     -1.460040    0.922300   -4.488030
  C     -0.118250    1.520480   -3.610550
  C      0.079560    2.854340   -3.798250
  C      1.090090    3.755080   -3.234540
  C      2.065560    4.371000   -3.996730
  C      2.643680    4.051700   -5.297230
  O      3.436300    4.816480   -5.812110
  C      2.267710    2.739830   -5.931790
  S      2.765050    5.722560   -3.164880
  C      1.781350    5.439280   -1.810090
  C      0.951840    4.357850   -1.957750
  C      0.083250    3.890950   -0.875400
  C     -0.945570    4.649350   -0.367740
  C     -1.488940    5.885250   -0.942910
  O     -1.311120    6.162500   -2.108660
  C     -2.304510    6.732910   -0.007200
  S     -1.694710    3.877970    0.997150
  C     -0.692720    2.513940    0.821790
  C      0.228050    2.643850   -0.187400
  C      1.095790    1.570480   -0.615960
  C      2.355130    1.726180   -1.074380
  C      3.094820    0.818090   -1.945570
  C      2.854620   -0.512160   -2.149200
  C      3.610010   -1.320180   -3.026550
  N      4.188850   -2.022800   -3.724750
  C      1.848720   -1.247990   -1.487690
  N      1.033690   -1.882170   -0.986220
  C      4.123310    1.617830   -2.593740
  C      4.227200    2.870230   -1.919380
  C      3.202720    2.938180   -0.867880
  O      3.094570    3.741560    0.030680
  C      5.113580    3.828690   -2.321310
  C      5.889620    3.605590   -3.480050
  C      5.766360    2.368630   -4.177780
  C      4.888590    1.369070   -3.703230
  C      6.521740    2.172490   -5.351450
  C      7.351550    3.154040   -5.819850
  C      7.468650    4.372290   -5.134390
  C      6.756490    4.592060   -3.986760
  H     -1.514770    4.122190  -10.226190
  H     -1.740090    8.796980   -8.500980
  H     -2.482270    9.560040  -10.677620
  H     -3.091420    9.092470  -13.017590
  H     -2.990770    6.792150  -13.892040
  H     -2.278570    4.939840  -12.433070
  H     -0.893680    5.502870   -4.156340
  H     -4.381960    1.764460   -7.265380
  H     -3.785800    0.771250   -5.911500
  H     -2.759750    1.042840   -7.320490
  H      0.455220    0.839800   -3.015430
  H      2.217480    1.943320   -5.194590
  H      3.002810    2.497040   -6.695310
  H      1.293970    2.829560   -6.414440
  H      1.867150    6.061660   -0.941860
  H     -3.182870    6.179080    0.320840
  H     -2.616710    7.641000   -0.515440
  H     -1.716490    6.985300    0.872770
  H     -0.797820    1.682460    1.491530
  H      0.624970    0.595020   -0.647610
  H      5.198390    4.760670   -1.783440
  H      4.820610    0.438490   -4.245450
  H      6.425620    1.233710   -5.877260
  H      7.919040    2.998410   -6.725080
  H      8.122480    5.138090   -5.523340
  H      6.835970    5.530570   -3.459000

 Total Charge           Charge          ....    0
 Multiplicity           Mult            ....    1
 Number of Electrons    NEL             ....  454
 Basis Dimension        Dim             .... 1038

ORBITAL ENERGIES
----------------

  NO   OCC          E(Eh)            E(eV)
   0   2.0000     -88.979864     -2421.2652
   1   2.0000     -88.972070     -2421.0531
   2   2.0000     -88.956768     -2420.6367
   3   2.0000     -19.216241      -522.9005
   4   2.0000     -19.215224      -522.8728
   5   2.0000     -19.213812      -522.8344
   6   2.0000     -19.205384      -522.6051
   7   2.0000     -19.191356      -522.2233
   8   2.0000     -14.424561      -392.5123
   9   2.0000     -14.419189      -392.3661
  10   2.0000     -14.409772      -392.1098
  11   2.0000     -14.404879      -391.9767
  12   2.0000     -10.371353      -282.2189
  13   2.0000     -10.367904      -282.1250
  14   2.0000     -10.366483      -282.0863
  15   2.0000     -10.364972      -282.0452
  16   2.0000     -10.350940      -281.6634
  17   2.0000     -10.349104      -281.6134
  18   2.0000     -10.347851      -281.5793
  19   2.0000     -10.336701      -281.2759
  20   2.0000     -10.333083      -281.1775
  21   2.0000     -10.326756      -281.0053
  22   2.0000     -10.322590      -280.8919
  23   2.0000     -10.321727      -280.8685
  24   2.0000     -10.319863      -280.8177
  25   2.0000     -10.312188      -280.6089
  26   2.0000     -10.310604      -280.5658
  27   2.0000     -10.308703      -280.5141
  28   2.0000     -10.307273      -280.4752
  29   2.0000     -10.306910      -280.4653
  30   2.0000     -10.306409      -280.4517
  31   2.0000     -10.306270      -280.4479
  32   2.0000     -10.304850      -280.4092
  33   2.0000     -10.304143      -280.3900
  34   2.0000     -10.303619      -280.3757
  35   2.0000     -10.299218      -280.2560
  36   2.0000     -10.298969      -280.2492
  37   2.0000     -10.298323      -280.2316
  38   2.0000     -10.297738      -280.2157
  39   2.0000     -10.297084      -280.1979
  40   2.0000     -10.296138      -280.1722
  41   2.0000     -10.296129      -280.1719
  42   2.0000     -10.295728      -280.1610
  43   2.0000     -10.294919      -280.1390
  44   2.0000     -10.294686      -280.1327
  45   2.0000     -10.294572      -280.1295
  46   2.0000     -10.294290      -280.1219
  47   2.0000     -10.292439      -280.0715
  48   2.0000     -10.292015      -280.0600
  49   2.0000     -10.291678      -280.0508
  50   2.0000     -10.287820      -279.9458
  51   2.0000     -10.285903      -279.8936
  52   2.0000     -10.285724      -279.8888
  53   2.0000     -10.284137      -279.8456
  54   2.0000     -10.283640      -279.8321
  55   2.0000     -10.283279      -279.8223
  56   2.0000     -10.282510      -279.8013
  57   2.0000     -10.282378      -279.7977
  58   2.0000     -10.282018      -279.7879
  59   2.0000     -10.281754      -279.7807
  60   2.0000     -10.281266      -279.7675
  61   2.0000     -10.276043      -279.6253
  62   2.0000     -10.269856      -279.4570
  63   2.0000     -10.249818      -278.9117
  64   2.0000      -8.075701      -219.7510
  65   2.0000      -8.067618      -219.5310
  66   2.0000      -8.051079      -219.0810
  67   2.0000      -6.044785      -164.4870
  68   2.0000      -6.040491      -164.3701
  69   2.0000      -6.038321      -164.3111
  70   2.0000      -6.036796      -164.2696
  71   2.0000      -6.032422      -164.1505
  72   2.0000      -6.030193      -164.0899
  73   2.0000      -6.020217      -163.8184
  74   2.0000      -6.015879      -163.7004
  75   2.0000      -6.013763      -163.6428
  76   2.0000      -1.132720       -30.8229
  77   2.0000      -1.131787       -30.7975
  78   2.0000      -1.131141       -30.7799
  79   2.0000      -1.122616       -30.5479
  80   2.0000      -1.110111       -30.2076
  81   2.0000      -1.024136       -27.8682
  82   2.0000      -1.012423       -27.5494
  83   2.0000      -1.010618       -27.5003
  84   2.0000      -1.002288       -27.2736
  85   2.0000      -1.001817       -27.2608
  86   2.0000      -0.998510       -27.1708
  87   2.0000      -0.993185       -27.0259
  88   2.0000      -0.985586       -26.8192
  89   2.0000      -0.980760       -26.6878
  90   2.0000      -0.971211       -26.4280
  91   2.0000      -0.966879       -26.3101
  92   2.0000      -0.926343       -25.2071
  93   2.0000      -0.920704       -25.0536
  94   2.0000      -0.914153       -24.8754
  95   2.0000      -0.901977       -24.5440
  96   2.0000      -0.886811       -24.1314
  97   2.0000      -0.884183       -24.0598
  98   2.0000      -0.879877       -23.9427
  99   2.0000      -0.878375       -23.9018
 100   2.0000      -0.876457       -23.8496
 101   2.0000      -0.870938       -23.6994
 102   2.0000      -0.856472       -23.3058
 103   2.0000      -0.847456       -23.0604
 104   2.0000      -0.830028       -22.5862
 105   2.0000      -0.826903       -22.5012
 106   2.0000      -0.825368       -22.4594
 107   2.0000      -0.824840       -22.4450
 108   2.0000      -0.820245       -22.3200
 109   2.0000      -0.799591       -21.7580
 110   2.0000      -0.791189       -21.5293
 111   2.0000      -0.782449       -21.2915
 112   2.0000      -0.778761       -21.1912
 113   2.0000      -0.763107       -20.7652
 114   2.0000      -0.756976       -20.5984
 115   2.0000      -0.721869       -19.6430
 116   2.0000      -0.716987       -19.5102
 117   2.0000      -0.710190       -19.3253
 118   2.0000      -0.701971       -19.1016
 119   2.0000      -0.701246       -19.0819
 120   2.0000      -0.698996       -19.0206
 121   2.0000      -0.698554       -19.0086
 122   2.0000      -0.692311       -18.8387
 123   2.0000      -0.686350       -18.6765
 124   2.0000      -0.680416       -18.5151
 125   2.0000      -0.670382       -18.2420
 126   2.0000      -0.667473       -18.1629
 127   2.0000      -0.662231       -18.0202
 128   2.0000      -0.648183       -17.6380
 129   2.0000      -0.639530       -17.4025
 130   2.0000      -0.634703       -17.2711
 131   2.0000      -0.625998       -17.0343
 132   2.0000      -0.620054       -16.8725
 133   2.0000      -0.610888       -16.6231
 134   2.0000      -0.606181       -16.4950
 135   2.0000      -0.603964       -16.4347
 136   2.0000      -0.594511       -16.1775
 137   2.0000      -0.592191       -16.1143
 138   2.0000      -0.587835       -15.9958
 139   2.0000      -0.572390       -15.5755
 140   2.0000      -0.570147       -15.5145
 141   2.0000      -0.565810       -15.3965
 142   2.0000      -0.555046       -15.1036
 143   2.0000      -0.553307       -15.0562
 144   2.0000      -0.551732       -15.0134
 145   2.0000      -0.547254       -14.8915
 146   2.0000      -0.545322       -14.8390
 147   2.0000      -0.544537       -14.8176
 148   2.0000      -0.542731       -14.7684
 149   2.0000      -0.540470       -14.7069
 150   2.0000      -0.539649       -14.6846
 151   2.0000      -0.535811       -14.5802
 152   2.0000      -0.532368       -14.4865
 153   2.0000      -0.529876       -14.4187
 154   2.0000      -0.526995       -14.3403
 155   2.0000      -0.525252       -14.2928
 156   2.0000      -0.523145       -14.2355
 157   2.0000      -0.519211       -14.1284
 158   2.0000      -0.518419       -14.1069
 159   2.0000      -0.516372       -14.0512
 160   2.0000      -0.513926       -13.9846
 161   2.0000      -0.511215       -13.9109
 162   2.0000      -0.508676       -13.8418
 163   2.0000      -0.508285       -13.8311
 164   2.0000      -0.507706       -13.8154
 165   2.0000      -0.505654       -13.7595
 166   2.0000      -0.502648       -13.6778
 167   2.0000      -0.501302       -13.6411
 168   2.0000      -0.499511       -13.5924
 169   2.0000      -0.492079       -13.3901
 170   2.0000      -0.490184       -13.3386
 171   2.0000      -0.485245       -13.2042
 172   2.0000      -0.483681       -13.1616
 173   2.0000      -0.482172       -13.1206
 174   2.0000      -0.481596       -13.1049
 175   2.0000      -0.476492       -12.9660
 176   2.0000      -0.474287       -12.9060
 177   2.0000      -0.470916       -12.8143
 178   2.0000      -0.464374       -12.6363
 179   2.0000      -0.463713       -12.6183
 180   2.0000      -0.462021       -12.5722
 181   2.0000      -0.458885       -12.4869
 182   2.0000      -0.456535       -12.4230
 183   2.0000      -0.455577       -12.3969
 184   2.0000      -0.449264       -12.2251
 185   2.0000      -0.447995       -12.1906
 186   2.0000      -0.445190       -12.1142
 187   2.0000      -0.443491       -12.0680
 188   2.0000      -0.441311       -12.0087
 189   2.0000      -0.439447       -11.9580
 190   2.0000      -0.438227       -11.9248
 191   2.0000      -0.436254       -11.8711
 192   2.0000      -0.434708       -11.8290
 193   2.0000      -0.434444       -11.8218
 194   2.0000      -0.434037       -11.8108
 195   2.0000      -0.431949       -11.7539
 196   2.0000      -0.430498       -11.7145
 197   2.0000      -0.427085       -11.6216
 198   2.0000      -0.424719       -11.5572
 199   2.0000      -0.422877       -11.5071
 200   2.0000      -0.419218       -11.4075
 201   2.0000      -0.416053       -11.3214
 202   2.0000      -0.413524       -11.2526
 203   2.0000      -0.412478       -11.2241
 204   2.0000      -0.408132       -11.1058
 205   2.0000      -0.403947       -10.9920
 206   2.0000      -0.401054       -10.9132
 207   2.0000      -0.394904       -10.7459
 208   2.0000      -0.378202       -10.2914
 209   2.0000      -0.374825       -10.1995
 210   2.0000      -0.361462        -9.8359
 211   2.0000      -0.355425        -9.6716
 212   2.0000      -0.347205        -9.4479
 213   2.0000      -0.337190        -9.1754
 214   2.0000      -0.335618        -9.1326
 215   2.0000      -0.332745        -9.0544
 216   2.0000      -0.328264        -8.9325
 217   2.0000      -0.322724        -8.7818
 218   2.0000      -0.319356        -8.6901
 219   2.0000      -0.317582        -8.6418
 220   2.0000      -0.313846        -8.5402
 221   2.0000      -0.311447        -8.4749
 222   2.0000      -0.304348        -8.2817
 223   2.0000      -0.300548        -8.1783
 224   2.0000      -0.294160        -8.0045
 225   2.0000      -0.289014        -7.8645
 226   2.0000      -0.283741        -7.7210
 227   0.0000      -0.092188        -2.5086
 228   0.0000      -0.080387        -2.1875
 229   0.0000      -0.055681        -1.5152
 230   0.0000      -0.054245        -1.4761
 231   0.0000      -0.037089        -1.0092

MULLIKEN ATOMIC CHARGES
-----------------------
   0 C :    0.290135
   1 C :   -0.327988
   2 C :   -0.191658
   3 N :    0.145537
   4 C :   -0.180772
   5 N :    0.166163
   6 C :    0.059009
   7 C :    0.027182
   8 C :   -0.083105
   9 C :    0.097685
  10 C :    0.100415
  11 C :   -0.089902
  12 C :   -0.018902
  13 C :    0.037719
  14 C :    0.038057
  15 C :   -0.017551
  16 C :    0.159199
  17 O :   -0.166909
  18 C :   -0.010671
  19 C :   -0.035861
  20 C :    0.061818
  21 C :   -0.156083
  22 C :    0.027644
  23 O :   -0.191278
  24 C :    0.018324
  25 S :    0.148667
  26 C :   -0.110595
  27 C :    0.045234
  28 C :    0.080131
  29 C :   -0.225158
  30 C :   -0.001644
  31 O :   -0.198014
  32 C :    0.079071
  33 S :    0.187348
  34 C :   -0.020448
  35 C :   -0.025920
  36 C :    0.139063
  37 C :   -0.207901
  38 C :    0.039584
  39 O :   -0.158163
  40 C :    0.019521
  41 S :    0.150014
  42 C :   -0.108443
  43 C :    0.112702
  44 C :   -0.068582
  45 C :   -0.087999
  46 C :    0.288496
  47 C :   -0.345774
  48 C :   -0.188902
  49 N :    0.163684
  50 C :   -0.199193
  51 N :    0.158400
  52 C :    0.061754
  53 C :    0.007735
  54 C :    0.159666
  55 O :   -0.139198
  56 C :   -0.062421
  57 C :    0.091760
  58 C :    0.108031
  59 C :   -0.104003
  60 C :   -0.017409
  61 C :    0.044782
  62 C :    0.043144
  63 C :   -0.000489
  64 H :   -0.016873
  65 H :   -0.006743
  66 H :   -0.010263
  67 H :   -0.005312
  68 H :   -0.006485
  69 H :   -0.019380
  70 H :    0.049276
  71 H :    0.034712
  72 H :    0.039881
  73 H :    0.054751
  74 H :    0.007611
  75 H :    0.013729
  76 H :    0.020760
  77 H :    0.052278
  78 H :    0.024231
  79 H :    0.046281
  80 H :    0.045236
  81 H :    0.047370
  82 H :    0.037727
  83 H :    0.035362
  84 H :   -0.012665
  85 H :   -0.007810
  86 H :   -0.012967
  87 H :   -0.005201
  88 H :   -0.003974
  89 H :   -0.018268
Sum of atomic charges:   -0.0000000

LOEWDIN ATOMIC CHARGES
----------------------
   0 C :    0.080504
   1 C :   -0.125700
   2 C :   -0.015157
   3 N :   -0.054429
   4 C :   -0.018786
   5 N :   -0.049083
   6 C :   -0.017680
   7 C :   -0.049476
   8 C :    0.035101
   9 C :   -0.008047
  10 C :   -0.003636
  11 C :    0.019362
  12 C :   -0.005535
  13 C :   -0.013081
  14 C :   -0.013499
  15 C :   -0.009310
  16 C :    0.097677
  17 O :   -0.146333
  18 C :   -0.068399
  19 C :    0.086158
  20 C :   -0.021681
  21 C :   -0.208913
  22 C :    0.069895
  23 O :   -0.152715
  24 C :   -0.082488
  25 S :    0.477389
  26 C :   -0.170921
  27 C :   -0.048854
  28 C :   -0.042570
  29 C :   -0.224055
  30 C :    0.056994
  31 O :   -0.169749
  32 C :   -0.082315
  33 S :    0.546791
  34 C :   -0.128782
  35 C :   -0.073691
  36 C :    0.000207
  37 C :   -0.218332
  38 C :    0.074292
  39 O :   -0.129005
  40 C :   -0.081294
  41 S :    0.476738
  42 C :   -0.151930
  43 C :   -0.061832
  44 C :    0.062046
  45 C :   -0.070438
  46 C :    0.078558
  47 C :   -0.143990
  48 C :   -0.019911
  49 N :   -0.047007
  50 C :   -0.023138
  51 N :   -0.050550
  52 C :   -0.028892
  53 C :   -0.059477
  54 C :    0.083817
  55 O :   -0.135090
  56 C :    0.030257
  57 C :   -0.005488
  58 C :   -0.004350
  59 C :    0.019335
  60 C :   -0.004960
  61 C :   -0.006365
  62 C :   -0.003870
  63 C :   -0.000953
  64 H :    0.037686
  65 H :    0.039113
  66 H :    0.034564
  67 H :    0.032974
  68 H :    0.032276
  69 H :    0.031227
  70 H :    0.048833
  71 H :    0.039833
  72 H :    0.035211
  73 H :    0.049778
  74 H :    0.020739
  75 H :    0.029218
  76 H :    0.037671
  77 H :    0.046924
  78 H :    0.028877
  79 H :    0.041627
  80 H :    0.044513
  81 H :    0.044054
  82 H :    0.032422
  83 H :    0.044133
  84 H :    0.032933
  85 H :    0.038183
  86 H :    0.033620
  87 H :    0.033576
  88 H :    0.033853
  89 H :    0.032798

  Mayer bond orders larger than 0.100000
B(  0-C ,  1-C ) :   1.6837 B(  0-C ,  6-C ) :   1.0018 B(  0-C , 18-C ) :   1.0090
B(  1-C ,  2-C ) :   1.1330 B(  1-C ,  4-C ) :   1.1517 B(  2-C ,  3-N ) :   2.9788
B(  4-C ,  5-N ) :   2.9596 B(  6-C ,  7-C ) :   1.2177 B(  6-C , 11-C ) :   1.4442
B(  7-C ,  8-C ) :   1.4576 B(  7-C , 16-C ) :   0.9606 B(  8-C ,  9-C ) :   1.1874
B(  8-C , 64-H ) :   1.0167 B(  9-C , 10-C ) :   1.2570 B(  9-C , 15-C ) :   1.2391
B( 10-C , 11-C ) :   1.2073 B( 10-C , 12-C ) :   1.2381 B( 11-C , 65-H ) :   0.9927
B( 12-C , 13-C ) :   1.4913 B( 12-C , 66-H ) :   0.9977 B( 13-C , 14-C ) :   1.2582
B( 13-C , 67-H ) :   0.9879 B( 14-C , 15-C ) :   1.4935 B( 14-C , 68-H ) :   0.9878
B( 15-C , 69-H ) :   0.9977 B( 16-C , 17-O ) :   2.1306 B( 16-C , 18-C ) :   0.9118
B( 18-C , 19-C ) :   1.7577 B( 19-C , 20-C ) :   1.0337 B( 19-C , 70-H ) :   0.9055
B( 20-C , 21-C ) :   1.5212 B( 20-C , 27-C ) :   1.3219 B( 21-C , 22-C ) :   0.9598
B( 21-C , 25-S ) :   1.1337 B( 22-C , 23-O ) :   2.1585 B( 22-C , 24-C ) :   1.0566
B( 24-C , 71-H ) :   0.9481 B( 24-C , 72-H ) :   0.9429 B( 24-C , 73-H ) :   0.9501
B( 25-S , 26-C ) :   1.1776 B( 26-C , 27-C ) :   1.5412 B( 26-C , 74-H ) :   0.9561
B( 27-C , 28-C ) :   0.9588 B( 28-C , 29-C ) :   1.4390 B( 28-C , 35-C ) :   1.3434
B( 29-C , 30-C ) :   0.9654 B( 29-C , 33-S ) :   1.1756 B( 30-C , 31-O ) :   2.1787
B( 30-C , 32-C ) :   1.0945 B( 32-C , 75-H ) :   0.9330 B( 32-C , 76-H ) :   0.9334
B( 32-C , 77-H ) :   0.9056 B( 33-S , 34-C ) :   1.2169 B( 34-C , 35-C ) :   1.5235
B( 34-C , 78-H ) :   0.9682 B( 35-C , 36-C ) :   0.9653 B( 36-C , 37-C ) :   1.5549
B( 36-C , 43-C ) :   1.2864 B( 37-C , 38-C ) :   0.9574 B( 37-C , 41-S ) :   1.1105
B( 38-C , 39-O ) :   2.1110 B( 38-C , 40-C ) :   1.0413 B( 40-C , 79-H ) :   0.9439
B( 40-C , 80-H ) :   0.9490 B( 40-C , 81-H ) :   0.9577 B( 41-S , 42-C ) :   1.2068
B( 42-C , 43-C ) :   1.4690 B( 42-C , 82-H ) :   0.9740 B( 43-C , 44-C ) :   1.0520
B( 44-C , 45-C ) :   1.7149 B( 44-C , 83-H ) :   0.9430 B( 45-C , 46-C ) :   1.0264
B( 45-C , 54-C ) :   0.9131 B( 46-C , 47-C ) :   1.6465 B( 46-C , 52-C ) :   1.0014
B( 47-C , 48-C ) :   1.1414 B( 47-C , 50-C ) :   1.1384 B( 48-C , 49-N ) :   2.9877
B( 50-C , 51-N ) :   2.9809 B( 52-C , 53-C ) :   1.2082 B( 52-C , 59-C ) :   1.4282
B( 53-C , 54-C ) :   0.9363 B( 53-C , 56-C ) :   1.4605 B( 54-C , 55-O ) :   2.2490
B( 56-C , 57-C ) :   1.1913 B( 56-C , 84-H ) :   1.0078 B( 57-C , 58-C ) :   1.2520
B( 57-C , 63-C ) :   1.2505 B( 58-C , 59-C ) :   1.2082 B( 58-C , 60-C ) :   1.2378
B( 59-C , 85-H ) :   0.9946 B( 60-C , 61-C ) :   1.4892 B( 60-C , 86-H ) :   0.9973
B( 61-C , 62-C ) :   1.2586 B( 61-C , 87-H ) :   0.9880 B( 62-C , 63-C ) :   1.4867
B( 62-C , 88-H ) :   0.9881 B( 63-C , 89-H ) :   0.9970

-----------------------------------------------------------------------------
         ABSORPTION SPECTRUM VIA TRANSITION ELECTRIC DIPOLE MOMENTS
-----------------------------------------------------------------------------
State   Energy  Wavelength   fosc         T2         TX        TY        TZ
        (cm-1)    (nm)                  (au**2)     (au)      (au)      (au)
-----------------------------------------------------------------------------
   0   23193.6    431.2   0.003909630   0.05549   0.17739  -0.13070  -0.08333
   1   25890.4    386.2   0.057911796   0.73638  -0.33106  -0.72952   0.30753
   2   26668.9    375.0   0.062668949   0.77361  -0.16689  -0.84605   0.17309
   3   26898.2    371.8   0.177551050   2.17308   1.18902  -0.44808  -0.74735
   4   27397.3    365.0   0.004183942   0.05028  -0.01587  -0.17138  -0.14371
   5   28420.8    351.9   0.013220164   0.15314   0.18441  -0.34504   0.00881
   6   28488.4    351.0   0.041964499   0.48494  -0.38456   0.05195  -0.57823
   7   29183.7    342.7   0.025368044   0.28617  -0.52309   0.11162  -0.00918
   8   29346.5    340.8   0.029160300   0.32712  -0.19273   0.23478  -0.48462
   9   29547.5    338.4   0.009420209   0.10496  -0.20585   0.13043  -0.21348
  10   29700.4    336.7   0.068716781   0.76169  -0.21057   0.50340  -0.68113
  11   30245.6    330.6   0.173732667   1.89102   1.02732  -0.73625  -0.54183
  12   30353.7    329.4   0.067285290   0.72977  -0.17724   0.54991  -0.62925
  13   31093.6    321.6   0.098347821   1.04129   0.86540   0.02992  -0.53988
  14   31294.0    319.5   0.087543003   0.92095  -0.35279  -0.85880  -0.24278
  15   31321.8    319.3   0.031531713   0.33142  -0.36399  -0.08950   0.43694
  16   32126.3    311.3   0.042429340   0.43479   0.44987  -0.28207   0.39096
  17   32474.7    307.9   0.078886419   0.79971   0.26796  -0.68009  -0.51515
  18   32841.0    304.5   0.382742728   3.83678   1.04208   1.36118  -0.94765
  19   32911.9    303.8   0.103244623   1.03274  -0.69112  -0.70601   0.23800
  20   33138.8    301.8   0.104995939   1.04306   0.41856   0.86570  -0.34415
  21   33222.2    301.0   0.001324539   0.01313   0.07987  -0.08180   0.00742
  22   33410.3    299.3   0.038331819   0.37771  -0.59214  -0.09636   0.13337
  23   33842.0    295.5   0.331968320   3.22935   0.69778   0.60669   1.54090
  24   34116.3    293.1   0.104489702   1.00829   0.53800  -0.34452   0.77470
  25   34556.4    289.4   0.024627345   0.23462  -0.43302   0.13144   0.17274
  26   34586.2    289.1   0.058542497   0.55724  -0.64065   0.34118   0.17438
  27   35020.1    285.6   0.337592086   3.17359   0.65862   0.23905   1.63788
  28   35254.9    283.6   0.358031318   3.34331   0.75971   0.75214  -1.48339
  29   35396.5    282.5   0.143048334   1.33045  -0.57314   0.10635  -0.99532
  30   35667.4    280.4   0.037051984   0.34199   0.25185   0.02059   0.52739
  31   35984.0    277.9   0.109982156   1.00621   0.09644  -0.62914   0.77530
  32   36476.5    274.1   0.047969390   0.43294   0.43154  -0.16420   0.46877
  33   36766.5    272.0   0.052139126   0.46686   0.12281  -0.06754   0.66874
  34   36988.9    270.4   0.013341442   0.11874   0.32990   0.08473   0.05226
  35   37050.6    269.9   0.018395833   0.16346  -0.38273   0.12522   0.03593
  36   37111.5    269.5   0.125906825   1.11691   0.92023   0.12305  -0.50492
  37   37426.8    267.2   0.038371104   0.33752  -0.21940  -0.07949   0.53203
  38   37555.2    266.3   0.003527739   0.03092  -0.17133  -0.03926   0.00538
  39   37623.2    265.8   0.058253918   0.50974  -0.07945   0.70404   0.08805
  40   38034.5    262.9   0.023478296   0.20322  -0.38670  -0.07195   0.22025
  41   38144.6    262.2   0.032201716   0.27792  -0.45836   0.25787  -0.03643
  42   38320.5    261.0   0.008033390   0.06901  -0.17518  -0.14864   0.12742
  43   38437.5    260.2   0.026156852   0.22403   0.15457  -0.44635  -0.03022
  44   38767.0    258.0   0.023622400   0.20060  -0.42738  -0.13335  -0.01297
  45   39004.1    256.4   0.017159723   0.14484   0.01252   0.37790  -0.04326
  46   39098.4    255.8   0.037203807   0.31326   0.09015  -0.53435  -0.14001
  47   39313.0    254.4   0.001930175   0.01616  -0.04436  -0.09648  -0.06991
  48   39435.0    253.6   0.076835393   0.64144   0.13639   0.75235   0.23836
  49   39611.7    252.5   0.009739180   0.08094  -0.25281   0.08276   0.10090
  50   39997.6    250.0   0.123234567   1.01432   0.00410   0.27658   0.96840
  51   40075.7    249.5   0.005420964   0.04453   0.00414  -0.12150   0.17249
  52   40263.8    248.4   0.058264557   0.47639   0.50807  -0.34740  -0.31236

FINAL SINGLE POINT ENERGY     -3783.171570791407

DIPOLE MOMENT
-------------
                                X             Y             Z
Electronic contribution:      3.98818      -4.38121      24.32662
Nuclear contribution   :     -4.91919       4.45106     -24.89138
                        -----------------------------------------
Total Dipole Moment    :     -0.93102       0.06985      -0.56475
                        -----------------------------------------
Magnitude (a.u.)       :      1.09115
Magnitude (Debye)      :      2.77349

Rotational constants in cm-1:     0.001787     0.000950     0.000869
Rotational constants in MHz :    53.572934    28.477979    26.037730

                             ****ORCA TERMINATED NORMALLY****
TOTAL RUN TIME: 0 days 0 hours 13 minutes 13 seconds 150 msec
