                         Program Version 4.2.0 -  RELEASE  -
|  1> # ORCA input file
|  2> # SCF done       -196.012275490189          0.000806773256
|  3> ! CAM-B3LYP def2-SVP def2/J RIJCOSX Grid4 TightSCF
|  4> %maxcore 5000
|  5> %tddft
|  6>     Mode sTDDFT
|  7>     Ethresh 5.0
|  8>     maxcore 5000
|  9> end
| 10>
| 11> %pal
| 12>   nprocs 6
| 13>   end
| 14> * xyz 0 1
| 15>    C       -8.90442         1.88229         2.89725
| 16>    C      -10.18375         2.35041         2.63690
| 17>    C      -11.19012         1.49112         2.21861
| 18>    C      -10.94896         0.13483         2.05686
| 19>    C       -9.67592        -0.34428         2.31460
| 20>    C       -8.64617         0.53050         2.73083
| 21>    C       -7.41833        -0.23464         2.89709
| 22>    C       -6.24202         0.23146         3.42258
| 23>    C       -6.05076         1.55044         3.88691
| 24>    N       -5.82492         2.60400         4.28215
| 25>    C       -5.07749        -0.53891         3.61906
| 26>    N       -4.10319        -1.11609         3.81456
| 27>    C       -7.69338        -1.57958         2.40037
| 28>    C       -9.13724        -1.69291         2.24953
| 29>    C       -9.86816        -2.84841         2.29728
| 30>    C       -9.30285        -4.12420         2.48381
| 31>    N       -8.87921        -5.17644         2.66593
| 32>    C      -11.27599        -2.89565         2.23622
| 33>    N      -12.41785        -3.00068         2.19040
| 34>    C       -6.72379        -2.48090         2.06104
| 35>    C       -6.83619        -3.61179         1.22175
| 36>    C       -6.01058        -4.70792         1.15042
| 37>    C       -6.44553        -5.59357         0.09485
| 38>    N       -7.54965        -5.03826        -0.48045
| 39>    C       -7.83866        -3.82073         0.14557
| 40>    O       -8.74498        -3.09956        -0.20546
| 41>    C       -8.48914        -5.58982        -1.42115
| 42>    C       -5.64273        -6.72217         0.12140
| 43>    C       -4.74116        -6.53572         1.31563
| 44>    O       -3.92628        -7.31003         1.74894
| 45>    N       -4.98371        -5.27064         1.83779
| 46>    C       -4.32363        -4.74693         3.00394
| 47>    C       -5.43042        -7.88302        -0.62873
| 48>    C       -5.70423        -8.16065        -1.95097
| 49>    C       -5.44903        -9.38613        -2.60689
| 50>    C       -5.74734        -9.37985        -3.94144
| 51>    C       -6.24220        -8.14621        -4.40159
| 52>    S       -6.29781        -6.98769        -3.10383
| 53>    C       -6.69120        -7.78589        -5.66961
| 54>    C       -6.70936        -8.55406        -6.84678
| 55>    C       -7.25190        -7.88344        -7.90583
| 56>    C       -7.68629        -6.56948        -7.60820
| 57>    S       -7.37411        -6.20129        -5.93322
| 58>    C       -8.27583        -5.73510        -8.54287
| 59>    C       -8.76201        -4.43858        -8.39179
| 60>    C       -9.35848        -3.61724        -9.33955
| 61>    C       -9.70747        -2.37500        -8.73224
| 62>    N       -9.34379        -2.40011        -7.41637
| 63>    C       -8.76625        -3.62576        -7.13556
| 64>    O       -8.35250        -3.93271        -6.03737
| 65>    C       -9.56282        -1.37524        -6.42993
| 66>    C      -10.36745        -1.57912        -9.64664
| 67>    C      -10.36400        -2.36433       -10.91193
| 68>    O      -10.74922        -2.04223       -12.01485
| 69>    N       -9.74194        -3.58634       -10.64636
| 70>    C       -9.60362        -4.62095       -11.63256
| 71>    C      -10.84039        -0.26559        -9.46057
| 72>    C      -11.75182         0.43263       -10.20685
| 73>    C      -11.85423         1.88686       -10.20853
| 74>    C      -11.31834         2.76034        -9.29725
| 75>    C      -10.58730         2.39749        -8.14800
| 76>    N       -9.98670         2.17203        -7.19418
| 77>    C      -11.46137         4.16243        -9.36578
| 78>    N      -11.53754         5.30776        -9.35458
| 79>    C      -12.63884         2.24989       -11.38082
| 80>    C      -13.12620         1.06937       -11.98673
| 81>    C      -13.88504         1.13089       -13.14282
| 82>    C      -14.15694         2.37608       -13.69045
| 83>    C      -13.68798         3.53687       -13.09221
| 84>    C      -12.92616         3.48781       -11.93423
| 85>    C      -12.70320        -0.06854       -11.18562
| 86>    C      -13.28459        -1.30781       -11.19072
| 87>    C      -14.26566        -1.71584       -12.11711
| 88>    N      -15.06585        -2.10684       -12.84105
| 89>    C      -13.03189        -2.29821       -10.22265
| 90>    N      -12.87909        -3.12036        -9.43508
| 91>    H       -8.13349         2.56585         3.21322
| 92>    H      -10.39512         3.40201         2.75676
| 93>    H      -12.17471         1.88231         2.01246
| 94>    H      -11.73362        -0.52332         1.72086
| 95>    H       -5.71952        -2.27727         2.40571
| 96>    H       -8.47085        -6.67557        -1.37134
| 97>    H       -8.27446        -5.25442        -2.43738
| 98>    H       -9.48058        -5.22594        -1.14645
| 99>    H       -3.66276        -5.52625         3.38143
|100>    H       -5.05750        -4.48604         3.76807
|101>    H       -3.73378        -3.86268         2.75787
|102>    H       -4.86327        -8.63946        -0.09535
|103>    H       -5.06734       -10.23812        -2.07315
|104>    H       -5.62849       -10.22677        -4.59267
|105>    H       -6.33146        -9.55947        -6.89467
|106>    H       -7.35763        -8.29738        -8.89343
|107>    H       -8.37679        -6.16061        -9.53429
|108>    H      -10.62217        -1.11927        -6.38202
|109>    H       -8.98875        -0.47671        -6.66166
|110>    H       -9.23895        -1.77056        -5.46801
|111>    H      -10.01053        -4.23192       -12.56590
|112>    H      -10.16530        -5.50964       -11.33776
|113>    H       -8.55270        -4.87971       -11.77587
|114>    H      -10.35743         0.26942        -8.65482
|115>    H      -14.24541         0.23441       -13.62040
|116>    H      -14.73992         2.44021       -14.59654
|117>    H      -13.91321         4.49502       -13.53516
|118>    H      -12.56478         4.39946       -11.48744
|119> *
|120>
|121>                          ****END OF INPUT****

CARTESIAN COORDINATES (ANGSTROEM)
---------------------------------
  C     -8.904420    1.882290    2.897250
  C    -10.183750    2.350410    2.636900
  C    -11.190120    1.491120    2.218610
  C    -10.948960    0.134830    2.056860
  C     -9.675920   -0.344280    2.314600
  C     -8.646170    0.530500    2.730830
  C     -7.418330   -0.234640    2.897090
  C     -6.242020    0.231460    3.422580
  C     -6.050760    1.550440    3.886910
  N     -5.824920    2.604000    4.282150
  C     -5.077490   -0.538910    3.619060
  N     -4.103190   -1.116090    3.814560
  C     -7.693380   -1.579580    2.400370
  C     -9.137240   -1.692910    2.249530
  C     -9.868160   -2.848410    2.297280
  C     -9.302850   -4.124200    2.483810
  N     -8.879210   -5.176440    2.665930
  C    -11.275990   -2.895650    2.236220
  N    -12.417850   -3.000680    2.190400
  C     -6.723790   -2.480900    2.061040
  C     -6.836190   -3.611790    1.221750
  C     -6.010580   -4.707920    1.150420
  C     -6.445530   -5.593570    0.094850
  N     -7.549650   -5.038260   -0.480450
  C     -7.838660   -3.820730    0.145570
  O     -8.744980   -3.099560   -0.205460
  C     -8.489140   -5.589820   -1.421150
  C     -5.642730   -6.722170    0.121400
  C     -4.741160   -6.535720    1.315630
  O     -3.926280   -7.310030    1.748940
  N     -4.983710   -5.270640    1.837790
  C     -4.323630   -4.746930    3.003940
  C     -5.430420   -7.883020   -0.628730
  C     -5.704230   -8.160650   -1.950970
  C     -5.449030   -9.386130   -2.606890
  C     -5.747340   -9.379850   -3.941440
  C     -6.242200   -8.146210   -4.401590
  S     -6.297810   -6.987690   -3.103830
  C     -6.691200   -7.785890   -5.669610
  C     -6.709360   -8.554060   -6.846780
  C     -7.251900   -7.883440   -7.905830
  C     -7.686290   -6.569480   -7.608200
  S     -7.374110   -6.201290   -5.933220
  C     -8.275830   -5.735100   -8.542870
  C     -8.762010   -4.438580   -8.391790
  C     -9.358480   -3.617240   -9.339550
  C     -9.707470   -2.375000   -8.732240
  N     -9.343790   -2.400110   -7.416370
  C     -8.766250   -3.625760   -7.135560
  O     -8.352500   -3.932710   -6.037370
  C     -9.562820   -1.375240   -6.429930
  C    -10.367450   -1.579120   -9.646640
  C    -10.364000   -2.364330  -10.911930
  O    -10.749220   -2.042230  -12.014850
  N     -9.741940   -3.586340  -10.646360
  C     -9.603620   -4.620950  -11.632560
  C    -10.840390   -0.265590   -9.460570
  C    -11.751820    0.432630  -10.206850
  C    -11.854230    1.886860  -10.208530
  C    -11.318340    2.760340   -9.297250
  C    -10.587300    2.397490   -8.148000
  N     -9.986700    2.172030   -7.194180
  C    -11.461370    4.162430   -9.365780
  N    -11.537540    5.307760   -9.354580
  C    -12.638840    2.249890  -11.380820
  C    -13.126200    1.069370  -11.986730
  C    -13.885040    1.130890  -13.142820
  C    -14.156940    2.376080  -13.690450
  C    -13.687980    3.536870  -13.092210
  C    -12.926160    3.487810  -11.934230
  C    -12.703200   -0.068540  -11.185620
  C    -13.284590   -1.307810  -11.190720
  C    -14.265660   -1.715840  -12.117110
  N    -15.065850   -2.106840  -12.841050
  C    -13.031890   -2.298210  -10.222650
  N    -12.879090   -3.120360   -9.435080
  H     -8.133490    2.565850    3.213220
  H    -10.395120    3.402010    2.756760
  H    -12.174710    1.882310    2.012460
  H    -11.733620   -0.523320    1.720860
  H     -5.719520   -2.277270    2.405710
  H     -8.470850   -6.675570   -1.371340
  H     -8.274460   -5.254420   -2.437380
  H     -9.480580   -5.225940   -1.146450
  H     -3.662760   -5.526250    3.381430
  H     -5.057500   -4.486040    3.768070
  H     -3.733780   -3.862680    2.757870
  H     -4.863270   -8.639460   -0.095350
  H     -5.067340  -10.238120   -2.073150
  H     -5.628490  -10.226770   -4.592670
  H     -6.331460   -9.559470   -6.894670
  H     -7.357630   -8.297380   -8.893430
  H     -8.376790   -6.160610   -9.534290
  H    -10.622170   -1.119270   -6.382020
  H     -8.988750   -0.476710   -6.661660
  H     -9.238950   -1.770560   -5.468010
  H    -10.010530   -4.231920  -12.565900
  H    -10.165300   -5.509640  -11.337760
  H     -8.552700   -4.879710  -11.775870
  H    -10.357430    0.269420   -8.654820
  H    -14.245410    0.234410  -13.620400
  H    -14.739920    2.440210  -14.596540
  H    -13.913210    4.495020  -13.535160
  H    -12.564780    4.399460  -11.487440

 Total Charge           Charge          ....    0
 Multiplicity           Mult            ....    1
 Number of Electrons    NEL             ....  524
 Basis Dimension        Dim             .... 1212

ORBITAL ENERGIES
----------------

  NO   OCC          E(Eh)            E(eV)
   0   2.0000     -88.965232     -2420.8670
   1   2.0000     -88.960633     -2420.7419
   2   2.0000     -19.238179      -523.4975
   3   2.0000     -19.229407      -523.2588
   4   2.0000     -19.217371      -522.9313
   5   2.0000     -19.214638      -522.8569
   6   2.0000     -14.484925      -394.1548
   7   2.0000     -14.482462      -394.0878
   8   2.0000     -14.474647      -393.8752
   9   2.0000     -14.473556      -393.8455
  10   2.0000     -14.427068      -392.5805
  11   2.0000     -14.426903      -392.5760
  12   2.0000     -14.420809      -392.4102
  13   2.0000     -14.419329      -392.3699
  14   2.0000     -14.418944      -392.3594
  15   2.0000     -14.418337      -392.3429
  16   2.0000     -14.415123      -392.2554
  17   2.0000     -14.414514      -392.2389
  18   2.0000     -10.414054      -283.3808
  19   2.0000     -10.404904      -283.1318
  20   2.0000     -10.396741      -282.9097
  21   2.0000     -10.396632      -282.9067
  22   2.0000     -10.361371      -281.9472
  23   2.0000     -10.358566      -281.8709
  24   2.0000     -10.353432      -281.7312
  25   2.0000     -10.349564      -281.6260
  26   2.0000     -10.348430      -281.5951
  27   2.0000     -10.348266      -281.5906
  28   2.0000     -10.347370      -281.5663
  29   2.0000     -10.344110      -281.4775
  30   2.0000     -10.343118      -281.4505
  31   2.0000     -10.342872      -281.4439
  32   2.0000     -10.339786      -281.3599
  33   2.0000     -10.338304      -281.3195
  34   2.0000     -10.331741      -281.1410
  35   2.0000     -10.330367      -281.1036
  36   2.0000     -10.330178      -281.0984
  37   2.0000     -10.330017      -281.0941
  38   2.0000     -10.328615      -281.0559
  39   2.0000     -10.327243      -281.0186
  40   2.0000     -10.325917      -280.9825
  41   2.0000     -10.322784      -280.8972
  42   2.0000     -10.321771      -280.8697
  43   2.0000     -10.321525      -280.8630
  44   2.0000     -10.321511      -280.8626
  45   2.0000     -10.321417      -280.8600
  46   2.0000     -10.320599      -280.8378
  47   2.0000     -10.319328      -280.8032
  48   2.0000     -10.318625      -280.7841
  49   2.0000     -10.318341      -280.7763
  50   2.0000     -10.317550      -280.7548
  51   2.0000     -10.317059      -280.7414
  52   2.0000     -10.316213      -280.7184
  53   2.0000     -10.314167      -280.6628
  54   2.0000     -10.313876      -280.6548
  55   2.0000     -10.310394      -280.5601
  56   2.0000     -10.309121      -280.5254
  57   2.0000     -10.308517      -280.5090
  58   2.0000     -10.308337      -280.5041
  59   2.0000     -10.308308      -280.5033
  60   2.0000     -10.307874      -280.4915
  61   2.0000     -10.307670      -280.4860
  62   2.0000     -10.307546      -280.4826
  63   2.0000     -10.305913      -280.4382
  64   2.0000     -10.304166      -280.3906
  65   2.0000     -10.304062      -280.3878
  66   2.0000     -10.304009      -280.3863
  67   2.0000     -10.301073      -280.3065
  68   2.0000     -10.297981      -280.2223
  69   2.0000     -10.297618      -280.2124
  70   2.0000     -10.296763      -280.1892
  71   2.0000     -10.296377      -280.1787
  72   2.0000     -10.296112      -280.1715
  73   2.0000     -10.295673      -280.1595
  74   2.0000     -10.295279      -280.1488
  75   2.0000     -10.294935      -280.1394
  76   2.0000      -8.061580      -219.3668
  77   2.0000      -8.055505      -219.2014
  78   2.0000      -6.031215      -164.1177
  79   2.0000      -6.027080      -164.0052
  80   2.0000      -6.025323      -163.9574
  81   2.0000      -6.022698      -163.8859
  82   2.0000      -6.020823      -163.8349
  83   2.0000      -6.016596      -163.7199
  84   2.0000      -1.175371       -31.9835
  85   2.0000      -1.168630       -31.8000
  86   2.0000      -1.157041       -31.4847
  87   2.0000      -1.155429       -31.4408
  88   2.0000      -1.103060       -30.0158
  89   2.0000      -1.101212       -29.9655
  90   2.0000      -1.067982       -29.0613
  91   2.0000      -1.066923       -29.0324
  92   2.0000      -1.033508       -28.1232
  93   2.0000      -1.032657       -28.1000
  94   2.0000      -1.018056       -27.7027
  95   2.0000      -1.017538       -27.6886
  96   2.0000      -1.014734       -27.6123
  97   2.0000      -1.006995       -27.4017
  98   2.0000      -1.006266       -27.3819
  99   2.0000      -1.000308       -27.2198
 100   2.0000      -0.999810       -27.2062
 101   2.0000      -0.996090       -27.1050
 102   2.0000      -0.995273       -27.0828
 103   2.0000      -0.992803       -27.0155
 104   2.0000      -0.958680       -26.0870
 105   2.0000      -0.958203       -26.0740
 106   2.0000      -0.943252       -25.6672
 107   2.0000      -0.939845       -25.5745
 108   2.0000      -0.937919       -25.5221
 109   2.0000      -0.937011       -25.4974
 110   2.0000      -0.935228       -25.4489
 111   2.0000      -0.933929       -25.4135
 112   2.0000      -0.901391       -24.5281
 113   2.0000      -0.892933       -24.2980
 114   2.0000      -0.891556       -24.2605
 115   2.0000      -0.884353       -24.0645
 116   2.0000      -0.875424       -23.8215
 117   2.0000      -0.864016       -23.5111
 118   2.0000      -0.862896       -23.4806
 119   2.0000      -0.862398       -23.4670
 120   2.0000      -0.862351       -23.4658
 121   2.0000      -0.840078       -22.8597
 122   2.0000      -0.833262       -22.6742
 123   2.0000      -0.824307       -22.4305
 124   2.0000      -0.821812       -22.3626
 125   2.0000      -0.809260       -22.0211
 126   2.0000      -0.789434       -21.4816
 127   2.0000      -0.788630       -21.4597
 128   2.0000      -0.788341       -21.4518
 129   2.0000      -0.787310       -21.4238
 130   2.0000      -0.783391       -21.3172
 131   2.0000      -0.771790       -21.0015
 132   2.0000      -0.756212       -20.5776
 133   2.0000      -0.739254       -20.1161
 134   2.0000      -0.720345       -19.6016
 135   2.0000      -0.716317       -19.4920
 136   2.0000      -0.714244       -19.4356
 137   2.0000      -0.713390       -19.4123
 138   2.0000      -0.710351       -19.3296
 139   2.0000      -0.707163       -19.2429
 140   2.0000      -0.705799       -19.2058
 141   2.0000      -0.698037       -18.9946
 142   2.0000      -0.693259       -18.8645
 143   2.0000      -0.677202       -18.4276
 144   2.0000      -0.669379       -18.2147
 145   2.0000      -0.665337       -18.1047
 146   2.0000      -0.664972       -18.0948
 147   2.0000      -0.663563       -18.0565
 148   2.0000      -0.659193       -17.9376
 149   2.0000      -0.651111       -17.7176
 150   2.0000      -0.647229       -17.6120
 151   2.0000      -0.644681       -17.5427
 152   2.0000      -0.638557       -17.3760
 153   2.0000      -0.634962       -17.2782
 154   2.0000      -0.629562       -17.1313
 155   2.0000      -0.626916       -17.0592
 156   2.0000      -0.613553       -16.6956
 157   2.0000      -0.609252       -16.5786
 158   2.0000      -0.604235       -16.4421
 159   2.0000      -0.602348       -16.3907
 160   2.0000      -0.600408       -16.3379
 161   2.0000      -0.598902       -16.2969
 162   2.0000      -0.589991       -16.0545
 163   2.0000      -0.582976       -15.8636
 164   2.0000      -0.582201       -15.8425
 165   2.0000      -0.575575       -15.6622
 166   2.0000      -0.575224       -15.6526
 167   2.0000      -0.570283       -15.5182
 168   2.0000      -0.568918       -15.4810
 169   2.0000      -0.567471       -15.4417
 170   2.0000      -0.563507       -15.3338
 171   2.0000      -0.563146       -15.3240
 172   2.0000      -0.556690       -15.1483
 173   2.0000      -0.548321       -14.9206
 174   2.0000      -0.543768       -14.7967
 175   2.0000      -0.542303       -14.7568
 176   2.0000      -0.540783       -14.7154
 177   2.0000      -0.540229       -14.7004
 178   2.0000      -0.537822       -14.6349
 179   2.0000      -0.534759       -14.5515
 180   2.0000      -0.534435       -14.5427
 181   2.0000      -0.533707       -14.5229
 182   2.0000      -0.527803       -14.3622
 183   2.0000      -0.522196       -14.2097
 184   2.0000      -0.519966       -14.1490
 185   2.0000      -0.517444       -14.0804
 186   2.0000      -0.515798       -14.0356
 187   2.0000      -0.514122       -13.9900
 188   2.0000      -0.512792       -13.9538
 189   2.0000      -0.512506       -13.9460
 190   2.0000      -0.510936       -13.9033
 191   2.0000      -0.510325       -13.8867
 192   2.0000      -0.508360       -13.8332
 193   2.0000      -0.504862       -13.7380
 194   2.0000      -0.504326       -13.7234
 195   2.0000      -0.500265       -13.6129
 196   2.0000      -0.498593       -13.5674
 197   2.0000      -0.497247       -13.5308
 198   2.0000      -0.494665       -13.4605
 199   2.0000      -0.489223       -13.3124
 200   2.0000      -0.488296       -13.2872
 201   2.0000      -0.487694       -13.2708
 202   2.0000      -0.483499       -13.1567
 203   2.0000      -0.479853       -13.0575
 204   2.0000      -0.477794       -13.0014
 205   2.0000      -0.477340       -12.9891
 206   2.0000      -0.475217       -12.9313
 207   2.0000      -0.470654       -12.8071
 208   2.0000      -0.462541       -12.5864
 209   2.0000      -0.462470       -12.5845
 210   2.0000      -0.458890       -12.4870
 211   2.0000      -0.458830       -12.4854
 212   2.0000      -0.457062       -12.4373
 213   2.0000      -0.456988       -12.4353
 214   2.0000      -0.454557       -12.3691
 215   2.0000      -0.454340       -12.3632
 216   2.0000      -0.452724       -12.3192
 217   2.0000      -0.450115       -12.2482
 218   2.0000      -0.449466       -12.2306
 219   2.0000      -0.448038       -12.1917
 220   2.0000      -0.447727       -12.1833
 221   2.0000      -0.444508       -12.0957
 222   2.0000      -0.444227       -12.0880
 223   2.0000      -0.442075       -12.0295
 224   2.0000      -0.441426       -12.0118
 225   2.0000      -0.437630       -11.9085
 226   2.0000      -0.434334       -11.8188
 227   2.0000      -0.434008       -11.8100
 228   2.0000      -0.431028       -11.7289
 229   2.0000      -0.429893       -11.6980
 230   2.0000      -0.428189       -11.6516
 231   2.0000      -0.427519       -11.6334
 232   2.0000      -0.427008       -11.6195
 233   2.0000      -0.425902       -11.5894
 234   2.0000      -0.422201       -11.4887
 235   2.0000      -0.416439       -11.3319
 236   2.0000      -0.415180       -11.2976
 237   2.0000      -0.414412       -11.2767
 238   2.0000      -0.410535       -11.1712
 239   2.0000      -0.409701       -11.1485
 240   2.0000      -0.407154       -11.0792
 241   2.0000      -0.396392       -10.7864
 242   2.0000      -0.386061       -10.5053
 243   2.0000      -0.384394       -10.4599
 244   2.0000      -0.378802       -10.3077
 245   2.0000      -0.373818       -10.1721
 246   2.0000      -0.373467       -10.1626
 247   2.0000      -0.370019       -10.0687
 248   2.0000      -0.367591       -10.0027
 249   2.0000      -0.357417        -9.7258
 250   2.0000      -0.356037        -9.6883
 251   2.0000      -0.352925        -9.6036
 252   2.0000      -0.339050        -9.2260
 253   2.0000      -0.334217        -9.0945
 254   2.0000      -0.329822        -8.9749
 255   2.0000      -0.328345        -8.9347
 256   2.0000      -0.314147        -8.5484
 257   2.0000      -0.313370        -8.5272
 258   2.0000      -0.288140        -7.8407
 259   2.0000      -0.285845        -7.7782
 260   2.0000      -0.285418        -7.7666
 261   2.0000      -0.222608        -6.0575
 262   0.0000      -0.128175        -3.4878
 263   0.0000      -0.103450        -2.8150
 264   0.0000      -0.085138        -2.3167
 265   0.0000      -0.083733        -2.2785
 266   0.0000      -0.075838        -2.0637

MULLIKEN ATOMIC CHARGES
-----------------------
   0 C :   -0.032216
   1 C :    0.044851
   2 C :    0.050746
   3 C :   -0.029713
   4 C :    0.005402
   5 C :    0.008566
   6 C :    0.293467
   7 C :   -0.352587
   8 C :   -0.188407
   9 N :    0.163475
  10 C :   -0.172047
  11 N :    0.142307
  12 C :   -0.062938
  13 C :    0.279778
  14 C :   -0.302426
  15 C :   -0.203687
  16 N :    0.155440
  17 C :   -0.193222
  18 N :    0.163515
  19 C :   -0.024315
  20 C :   -0.134550
  21 C :    0.175802
  22 C :    0.195730
  23 N :   -0.233379
  24 C :    0.147687
  25 O :   -0.171158
  26 C :    0.145398
  27 C :   -0.165904
  28 C :    0.173004
  29 O :   -0.153098
  30 N :   -0.219716
  31 C :    0.112418
  32 C :   -0.033859
  33 C :   -0.034272
  34 C :    0.042978
  35 C :    0.032267
  36 C :   -0.047665
  37 S :    0.083267
  38 C :   -0.032380
  39 C :    0.040266
  40 C :    0.022239
  41 C :   -0.005845
  42 S :    0.133327
  43 C :   -0.101287
  44 C :   -0.089247
  45 C :    0.163552
  46 C :    0.205752
  47 N :   -0.225693
  48 C :    0.202696
  49 O :   -0.178675
  50 C :    0.116018
  51 C :   -0.147556
  52 C :    0.152823
  53 O :   -0.175315
  54 N :   -0.232296
  55 C :    0.120859
  56 C :   -0.032350
  57 C :   -0.058121
  58 C :    0.294981
  59 C :   -0.351909
  60 C :   -0.168095
  61 N :    0.137355
  62 C :   -0.187817
  63 N :    0.156028
  64 C :    0.007612
  65 C :    0.005290
  66 C :   -0.030159
  67 C :    0.048143
  68 C :    0.044647
  69 C :   -0.030954
  70 C :    0.276010
  71 C :   -0.294542
  72 C :   -0.191096
  73 N :    0.157486
  74 C :   -0.205130
  75 N :    0.152163
  76 H :    0.005685
  77 H :    0.003915
  78 H :    0.004110
  79 H :    0.008637
  80 H :    0.000257
  81 H :    0.038278
  82 H :    0.055157
  83 H :    0.049684
  84 H :    0.060336
  85 H :    0.050695
  86 H :    0.065288
  87 H :    0.016586
  88 H :    0.000756
  89 H :   -0.006430
  90 H :   -0.009982
  91 H :   -0.008932
  92 H :   -0.025234
  93 H :    0.051207
  94 H :    0.065141
  95 H :    0.060916
  96 H :    0.061587
  97 H :    0.046521
  98 H :    0.039040
  99 H :   -0.009506
 100 H :    0.007273
 101 H :    0.003904
 102 H :    0.001744
 103 H :    0.003640
Sum of atomic charges:   -0.0000000

LOEWDIN ATOMIC CHARGES
----------------------
   0 C :    0.005823
   1 C :   -0.000341
   2 C :    0.006978
   3 C :    0.003809
   4 C :   -0.003488
   5 C :   -0.016436
   6 C :    0.085162
   7 C :   -0.138811
   8 C :   -0.019834
   9 N :   -0.046578
  10 C :   -0.014462
  11 N :   -0.057246
  12 C :   -0.051432
  13 C :    0.078612
  14 C :   -0.122992
  15 C :   -0.012525
  16 N :   -0.061738
  17 C :   -0.016974
  18 N :   -0.048189
  19 C :    0.054489
  20 C :   -0.125625
  21 C :    0.092732
  22 C :    0.037748
  23 N :   -0.005249
  24 C :    0.094166
  25 O :   -0.163972
  26 C :    0.027071
  27 C :   -0.099712
  28 C :    0.109613
  29 O :   -0.142433
  30 N :   -0.003992
  31 C :    0.037823
  32 C :   -0.040241
  33 C :   -0.146447
  34 C :   -0.020690
  35 C :   -0.031121
  36 C :   -0.168002
  37 S :    0.422675
  38 C :   -0.188074
  39 C :   -0.025487
  40 C :   -0.032668
  41 C :   -0.137517
  42 S :    0.442320
  43 C :   -0.055800
  44 C :   -0.084981
  45 C :    0.026882
  46 C :    0.086792
  47 N :   -0.002395
  48 C :    0.113154
  49 O :   -0.159096
  50 C :    0.037157
  51 C :   -0.121187
  52 C :    0.091684
  53 O :   -0.173181
  54 N :   -0.008302
  55 C :    0.034860
  56 C :    0.053481
  57 C :   -0.055251
  58 C :    0.085249
  59 C :   -0.141336
  60 C :   -0.013767
  61 N :   -0.059689
  62 C :   -0.019632
  63 N :   -0.049357
  64 C :   -0.016963
  65 C :   -0.003509
  66 C :    0.002825
  67 C :    0.005520
  68 C :   -0.001917
  69 C :    0.005414
  70 C :    0.076937
  71 C :   -0.122600
  72 C :   -0.016127
  73 N :   -0.050627
  74 C :   -0.012089
  75 N :   -0.062563
  76 H :    0.041262
  77 H :    0.037431
  78 H :    0.037649
  79 H :    0.042202
  80 H :    0.045195
  81 H :    0.027705
  82 H :    0.023618
  83 H :    0.038070
  84 H :    0.044578
  85 H :    0.035876
  86 H :    0.035349
  87 H :    0.046929
  88 H :    0.038618
  89 H :    0.035327
  90 H :    0.033079
  91 H :    0.033731
  92 H :    0.037973
  93 H :    0.036425
  94 H :    0.034696
  95 H :    0.044335
  96 H :    0.044126
  97 H :    0.031012
  98 H :    0.027539
  99 H :    0.044567
 100 H :    0.041706
 101 H :    0.037263
 102 H :    0.036665
 103 H :    0.040745

  Mayer bond orders larger than 0.100000
B(  0-C ,  1-C ) :   1.3726 B(  0-C ,  5-C ) :   1.3808 B(  0-C , 76-H ) :   0.9829
B(  1-C ,  2-C ) :   1.3785 B(  1-C , 77-H ) :   0.9857 B(  2-C ,  3-C ) :   1.3641
B(  2-C , 78-H ) :   0.9857 B(  3-C ,  4-C ) :   1.3872 B(  3-C , 79-H ) :   0.9852
B(  4-C ,  5-C ) :   1.3086 B(  4-C , 13-C ) :   1.0105 B(  5-C ,  6-C ) :   1.0017
B(  6-C ,  7-C ) :   1.6331 B(  6-C , 12-C ) :   1.0527 B(  7-C ,  8-C ) :   1.1466
B(  7-C , 10-C ) :   1.1425 B(  8-C ,  9-N ) :   2.9815 B( 10-C , 11-N ) :   2.9678
B( 12-C , 13-C ) :   1.0179 B( 12-C , 19-C ) :   1.6142 B( 13-C , 14-C ) :   1.6488
B( 14-C , 15-C ) :   1.1653 B( 14-C , 17-C ) :   1.1490 B( 15-C , 16-N ) :   2.9932
B( 17-C , 18-N ) :   2.9953 B( 19-C , 20-C ) :   1.1688 B( 19-C , 80-H ) :   0.9330
B( 20-C , 21-C ) :   1.4625 B( 20-C , 24-C ) :   0.9115 B( 21-C , 22-C ) :   1.0889
B( 21-C , 30-N ) :   1.2030 B( 22-C , 23-N ) :   1.1646 B( 22-C , 27-C ) :   1.4208
B( 23-N , 24-C ) :   1.0548 B( 23-N , 26-C ) :   0.9426 B( 24-C , 25-O ) :   2.1331
B( 26-C , 81-H ) :   0.9694 B( 26-C , 82-H ) :   0.9713 B( 26-C , 83-H ) :   0.9546
B( 27-C , 28-C ) :   0.9132 B( 27-C , 32-C ) :   1.2306 B( 28-C , 29-O ) :   2.1853
B( 28-C , 30-N ) :   1.0272 B( 30-N , 31-C ) :   0.9380 B( 31-C , 84-H ) :   0.9557
B( 31-C , 85-H ) :   0.9711 B( 31-C , 86-H ) :   0.9667 B( 32-C , 33-C ) :   1.5367
B( 32-C , 87-H ) :   0.9346 B( 33-C , 34-C ) :   1.1669 B( 33-C , 37-S ) :   1.0442
B( 34-C , 35-C ) :   1.5559 B( 34-C , 88-H ) :   0.9993 B( 35-C , 36-C ) :   1.2151
B( 35-C , 89-H ) :   0.9941 B( 36-C , 37-S ) :   1.0723 B( 36-C , 38-C ) :   1.4423
B( 38-C , 39-C ) :   1.2099 B( 38-C , 42-S ) :   1.0227 B( 39-C , 40-C ) :   1.5561
B( 39-C , 90-H ) :   0.9955 B( 40-C , 41-C ) :   1.1623 B( 40-C , 91-H ) :   1.0010
B( 41-C , 42-S ) :   1.0823 B( 41-C , 43-C ) :   1.4857 B( 43-C , 44-C ) :   1.2377
B( 43-C , 92-H ) :   0.9734 B( 44-C , 45-C ) :   1.4271 B( 44-C , 48-C ) :   0.9015
B( 45-C , 46-C ) :   1.1272 B( 45-C , 54-N ) :   1.1391 B( 46-C , 47-N ) :   1.1649
B( 46-C , 51-C ) :   1.4320 B( 47-N , 48-C ) :   1.0744 B( 47-N , 50-C ) :   0.9367
B( 48-C , 49-O ) :   2.0783 B( 50-C , 93-H ) :   0.9713 B( 50-C , 94-H ) :   0.9653
B( 50-C , 95-H ) :   0.9552 B( 51-C , 52-C ) :   0.9097 B( 51-C , 56-C ) :   1.2000
B( 52-C , 53-O ) :   2.1281 B( 52-C , 54-N ) :   1.0634 B( 54-N , 55-C ) :   0.9580
B( 55-C , 96-H ) :   0.9542 B( 55-C , 97-H ) :   0.9715 B( 55-C , 98-H ) :   0.9717
B( 56-C , 57-C ) :   1.5841 B( 56-C , 99-H ) :   0.9319 B( 57-C , 58-C ) :   1.0632
B( 57-C , 70-C ) :   1.0253 B( 58-C , 59-C ) :   1.6227 B( 58-C , 64-C ) :   1.0008
B( 59-C , 60-C ) :   1.1440 B( 59-C , 62-C ) :   1.1454 B( 60-C , 61-N ) :   2.9614
B( 62-C , 63-N ) :   2.9779 B( 64-C , 65-C ) :   1.3081 B( 64-C , 69-C ) :   1.3794
B( 65-C , 66-C ) :   1.3867 B( 65-C , 70-C ) :   1.0094 B( 66-C , 67-C ) :   1.3620
B( 66-C ,100-H ) :   0.9864 B( 67-C , 68-C ) :   1.3774 B( 67-C ,101-H ) :   0.9867
B( 68-C , 69-C ) :   1.3713 B( 68-C ,102-H ) :   0.9863 B( 69-C ,103-H ) :   0.9843
B( 70-C , 71-C ) :   1.6448 B( 71-C , 72-C ) :   1.1464 B( 71-C , 74-C ) :   1.1643
B( 72-C , 73-N ) :   2.9921 B( 74-C , 75-N ) :   2.9928

-----------------------------------------------------------------------------
         ABSORPTION SPECTRUM VIA TRANSITION ELECTRIC DIPOLE MOMENTS
-----------------------------------------------------------------------------
State   Energy  Wavelength   fosc         T2         TX        TY        TZ
        (cm-1)    (nm)                  (au**2)     (au)      (au)      (au)
-----------------------------------------------------------------------------
   0    6966.1   1435.5   0.570148418  26.94455  -1.64147   1.35124  -4.73543
   1   12044.1    830.3   0.285999114   7.81746  -1.07505   2.49835   0.64805
   2   18444.8    542.2   0.092205719   1.64573   0.32504   0.12977   1.23420
   3   18479.8    541.1   0.099850732   1.77881  -0.56878   0.46347  -1.11377
   4   18727.2    534.0   0.149718683   2.63196  -0.19840   0.31135  -1.57976
   5   18840.2    530.8   0.019304399   0.33732   0.41937   0.00496   0.40178
   6   19259.0    519.2   0.015721480   0.26874  -0.24607   0.26119   0.37413
   7   20338.8    491.7   0.646076412  10.45766   1.64863  -2.75247  -0.40449
   8   23158.8    431.8   0.139967864   1.98970  -0.42532   1.34478   0.01915
   9   24500.1    408.2   0.119179861   1.60144   0.25936  -0.12466   1.23233
  10   25065.9    398.9   0.034790498   0.45693  -0.36552   0.54106  -0.17487
  11   25260.6    395.9   0.298495959   3.89018  -1.46979   1.15671  -0.62602
  12   25327.8    394.8   0.046745158   0.60759   0.07836  -0.74863  -0.20250
  13   25895.6    386.2   0.595851100   7.57507   0.31401  -2.71471  -0.32686
  14   26075.2    383.5   0.078940280   0.99666  -0.52528  -0.83677  -0.14336
  15   26457.3    378.0   0.173865913   2.16344   1.42037  -0.34549   0.16319
  16   27011.9    370.2   0.035660510   0.43462   0.54126  -0.07021   0.36976
  17   28225.8    354.3   0.055252502   0.64444   0.41005  -0.68599   0.07558
  18   29075.5    343.9   0.016443762   0.18619   0.27118  -0.25586   0.21723
  19   29558.0    338.3   0.082911349   0.92345   0.74532  -0.11684   0.59524
  20   29781.3    335.8   0.075953834   0.83962   0.85299  -0.31751  -0.10591
  21   30197.5    331.2   0.102002760   1.11203  -0.20859  -1.00986  -0.22066
  22   30372.1    329.2   0.017663518   0.19146  -0.26958  -0.11846   0.32366
  23   30517.6    327.7   0.044728343   0.48251  -0.39215   0.56826   0.07623
  24   30733.5    325.4   0.081895447   0.87725   0.25861   0.84433   0.31221
  25   31101.1    321.5   0.009597883   0.10160  -0.17929   0.14226  -0.22184
  26   31428.2    318.2   0.011379193   0.11920   0.27240   0.09898   0.18762
  27   31451.0    318.0   0.104255426   1.09129   0.78006   0.65919   0.21968
  28   32011.4    312.4   0.239831812   2.46648  -0.41485   1.50695  -0.15325
  29   32280.0    309.8   0.051428955   0.52450   0.39959   0.56576   0.21155
  30   32777.8    305.1   0.064282419   0.64564   0.35663  -0.71441  -0.08984
  31   32896.5    304.0   0.376512001   3.76795  -1.29886  -1.40596  -0.32281
  32   33298.3    300.3   0.007258352   0.07176   0.22490   0.06538   0.13003
  33   33420.0    299.2   0.159503427   1.57123  -0.55796  -1.04299  -0.41483
  34   33589.2    297.7   0.166019701   1.62718  -0.60143  -0.92155  -0.64513
  35   34478.8    290.0   0.088233953   0.84248   0.81932  -0.23426   0.34106
  36   35100.4    284.9   0.075801532   0.71095   0.57447  -0.60043   0.14288
  37   35221.5    283.9   0.017742842   0.16584   0.25626  -0.25812  -0.18314
  38   35308.0    283.2   0.009467103   0.08827   0.21890  -0.19650  -0.04174
  39   35553.2    281.3   0.098410350   0.91125   0.11911  -0.35861   0.87662
  40   35651.4    280.5   0.326321570   3.01331   0.86603  -1.03558   1.09128
  41   35946.0    278.2   0.046668123   0.42741  -0.19201   0.34775  -0.51924
  42   36356.2    275.1   0.003673204   0.03326   0.15068   0.02446  -0.09979
  43   36577.4    273.4   0.025579242   0.23022  -0.37816  -0.29518  -0.00946
  44   36610.6    273.1   0.145898878   1.31196  -0.95007   0.53117  -0.35663
  45   36992.3    270.3   0.009518849   0.08471  -0.12768   0.15564  -0.21021
  46   37128.2    269.3   0.142511855   1.26364   0.67939  -0.87880   0.17260
  47   37315.2    268.0   0.020299709   0.17909  -0.16877   0.36191  -0.14012
  48   37684.8    265.4   0.017517065   0.15303   0.04926  -0.17499  -0.34638
  49   37906.4    263.8   0.025340028   0.22007   0.42819   0.09008   0.16916
  50   38397.5    260.4   0.123232729   1.05657   0.37483  -0.47629   0.83019
  51   38652.2    258.7   0.055651165   0.47400  -0.43322  -0.15485  -0.51220
  52   38999.0    256.4   0.008265615   0.06977   0.00895  -0.26339  -0.01795
  53   39163.7    255.3   0.039900218   0.33540  -0.34335   0.45963  -0.07908
  54   39503.2    253.1   0.188330776   1.56951   0.30741  -1.21432   0.02100
  55   39628.3    252.3   0.033203189   0.27584  -0.19016  -0.42239   0.24752
  56   39725.9    251.7   0.050173557   0.41579   0.43293  -0.37356   0.29802
  57   40301.1    248.1   0.120668716   0.98572  -0.44731   0.47206  -0.75020

FINAL SINGLE POINT ENERGY     -3976.893398926127

DIPOLE MOMENT
-------------
                                X             Y             Z
Electronic contribution:     -1.69527       8.76324       9.75949
Nuclear contribution   :      2.98119     -11.21083     -12.41014
                        -----------------------------------------
Total Dipole Moment    :      1.28592      -2.44759      -2.65065
                        -----------------------------------------
Magnitude (a.u.)       :      3.83018
Magnitude (Debye)      :      9.73553

Rotational constants in cm-1:     0.001049     0.000409     0.000317
Rotational constants in MHz :    31.436133    12.254626     9.512831

                             ****ORCA TERMINATED NORMALLY****
TOTAL RUN TIME: 0 days 0 hours 23 minutes 24 seconds 193 msec
