                         Program Version 4.2.0 -  RELEASE  -
|  1> # ORCA input file
|  2> # SCF done       -204.783511248999          0.000562443504
|  3> ! CAM-B3LYP def2-SVP def2/J RIJCOSX Grid4 TightSCF
|  4> %maxcore 5000
|  5> %tddft
|  6>     Mode sTDDFT
|  7>     Ethresh 5.0
|  8>     maxcore 5000
|  9> end
| 10>
| 11> %pal
| 12>   nprocs 6
| 13>   end
| 14> * xyz 0 1
| 15>    C        0.05796         2.06845        -5.97959
| 16>    C        0.80383         3.21291        -6.09583
| 17>    C        1.17748         3.78044        -7.33007
| 18>    N        1.48929         4.28627        -8.31205
| 19>    C        1.35890         3.88002        -4.98546
| 20>    N        1.85342         4.41746        -4.09949
| 21>    C       -0.28599         1.16841        -7.07466
| 22>    C       -0.54821        -0.12300        -6.52939
| 23>    C       -0.85884        -1.18684        -7.32608
| 24>    C       -0.93596        -1.00058        -8.72496
| 25>    C       -0.69178         0.29184        -9.27367
| 26>    C       -0.36182         1.37407        -8.42522
| 27>    C       -0.78152         0.46443       -10.66972
| 28>    C       -1.09428        -0.58778       -11.48676
| 29>    C       -1.33283        -1.85998       -10.94597
| 30>    C       -1.25459        -2.06205        -9.59470
| 31>    C       -0.44389        -0.06320        -5.06041
| 32>    O       -0.54469        -0.96707        -4.26366
| 33>    C       -0.25924         1.38404        -4.74522
| 34>    C       -0.51853         1.81931        -3.48279
| 35>    C       -0.85689         3.10635        -3.00841
| 36>    C       -0.93515         3.46612        -1.67014
| 37>    C       -1.39184         4.76732        -1.49613
| 38>    C       -1.69430         5.40625        -2.71671
| 39>    S       -1.40341         4.41009        -4.06354
| 40>    C       -2.18035         6.70647        -2.43941
| 41>    C       -2.18717         6.89243        -1.04552
| 42>    C       -1.69985         5.67816        -0.40745
| 43>    C       -1.59973         5.43811         0.93130
| 44>    C       -1.99727         6.39023         1.89370
| 45>    N       -2.34292         7.15293         2.67707
| 46>    C       -1.12613         4.21171         1.44449
| 47>    N       -0.74899         3.21653         1.87028
| 48>    C       -2.65361         8.14821        -0.66484
| 49>    C       -3.01385         8.91776        -1.75938
| 50>    S       -2.75033         8.08029        -3.28121
| 51>    C       -3.54111        10.23690        -1.74908
| 52>    C       -4.07873        10.92767        -0.66578
| 53>    O       -4.20289        10.38675         0.58859
| 54>    C       -5.27699         9.47309         0.74592
| 55>    C       -4.47654        12.24102        -1.00276
| 56>    O       -5.01825        13.20272        -0.22730
| 57>    C       -5.07961        13.02297         1.17466
| 58>    C       -4.25084        12.54640        -2.34303
| 59>    S       -3.55546        11.20340        -3.19005
| 60>    C       -4.54280        13.77876        -2.96865
| 61>    C       -4.26554        14.14829        -4.27631
| 62>    C       -4.68973        15.44589        -4.54567
| 63>    C       -5.30538        16.05901        -3.43819
| 64>    S       -5.34039        15.04539        -2.05930
| 65>    C       -5.71145        17.35977        -3.81459
| 66>    C       -5.33514        17.58291        -5.15876
| 67>    C       -4.69470        16.38020        -5.66372
| 68>    C       -4.21750        16.15615        -6.92078
| 69>    C       -4.30959        17.10968        -7.95822
| 70>    N       -4.38900        17.85659        -8.82379
| 71>    C       -3.61651        14.93109        -7.28159
| 72>    N       -3.12963        13.93605        -7.57753
| 73>    C       -5.67050        18.85038        -5.61675
| 74>    C       -6.31653        19.60389        -4.64532
| 75>    S       -6.51550        18.69472        -3.13907
| 76>    C       -6.88229        20.89366        -4.68336
| 77>    C       -6.63194        21.92149        -5.54999
| 78>    C       -7.36395        23.17386        -5.56597
| 79>    C       -8.61198        23.38938        -5.03948
| 80>    C       -9.29509        24.62075        -5.11100
| 81>    N       -9.89665        25.59861        -5.12852
| 82>    C       -9.39925        22.40789        -4.40242
| 83>    N      -10.10211        21.65597        -3.89226
| 84>    C       -6.58478        24.13779        -6.33119
| 85>    C       -5.44416        23.47210        -6.86310
| 86>    C       -5.45160        22.05989        -6.44118
| 87>    O       -4.62009        21.22211        -6.71848
| 88>    C       -4.52140        24.12345        -7.62926
| 89>    C       -4.69922        25.49913        -7.89964
| 90>    C       -5.83492        26.17383        -7.36568
| 91>    C       -6.77594        25.47110        -6.57835
| 92>    C       -5.99747        27.54784        -7.63524
| 93>    C       -5.08312        28.22516        -8.39530
| 94>    C       -3.96539        27.56004        -8.92066
| 95>    C       -3.77827        26.22587        -8.67928
| 96>    H       -1.04472        -2.15954        -6.89549
| 97>    H       -0.18948         2.34500        -8.86339
| 98>    H       -0.59361         1.44494       -11.08190
| 99>    H       -1.15908        -0.44550       -12.55506
|100>    H       -1.57902        -2.67897       -11.60508
|101>    H       -1.43709        -3.03942        -9.17247
|102>    H       -0.56941         1.03378        -2.73358
|103>    H       -0.64961         2.79893        -0.87687
|104>    H       -2.70741         8.51117         0.34473
|105>    H       -6.24225         9.97936         0.63691
|106>    H       -5.18106         9.07569         1.75410
|107>    H       -5.22141         8.65568         0.02192
|108>    H       -5.33744        14.00118         1.57751
|109>    H       -4.12045        12.69338         1.57683
|110>    H       -5.85434        12.30300         1.44868
|111>    H       -3.77673        13.48932        -4.97108
|112>    H       -5.46770        19.22363        -6.60304
|113>    H       -7.59020        21.08647        -3.88485
|114>    H       -3.66569        23.59568        -8.02343
|115>    H       -7.62146        26.01026        -6.18129
|116>    H       -6.86063        28.05498        -7.22959
|117>    H       -5.21634        29.27773        -8.59574
|118>    H       -3.25309        28.11011        -9.51727
|119>    H       -2.91957        25.70846        -9.08143
|120> *
|121>
|122>                          ****END OF INPUT****

CARTESIAN COORDINATES (ANGSTROEM)
---------------------------------
  C      0.057960    2.068450   -5.979590
  C      0.803830    3.212910   -6.095830
  C      1.177480    3.780440   -7.330070
  N      1.489290    4.286270   -8.312050
  C      1.358900    3.880020   -4.985460
  N      1.853420    4.417460   -4.099490
  C     -0.285990    1.168410   -7.074660
  C     -0.548210   -0.123000   -6.529390
  C     -0.858840   -1.186840   -7.326080
  C     -0.935960   -1.000580   -8.724960
  C     -0.691780    0.291840   -9.273670
  C     -0.361820    1.374070   -8.425220
  C     -0.781520    0.464430  -10.669720
  C     -1.094280   -0.587780  -11.486760
  C     -1.332830   -1.859980  -10.945970
  C     -1.254590   -2.062050   -9.594700
  C     -0.443890   -0.063200   -5.060410
  O     -0.544690   -0.967070   -4.263660
  C     -0.259240    1.384040   -4.745220
  C     -0.518530    1.819310   -3.482790
  C     -0.856890    3.106350   -3.008410
  C     -0.935150    3.466120   -1.670140
  C     -1.391840    4.767320   -1.496130
  C     -1.694300    5.406250   -2.716710
  S     -1.403410    4.410090   -4.063540
  C     -2.180350    6.706470   -2.439410
  C     -2.187170    6.892430   -1.045520
  C     -1.699850    5.678160   -0.407450
  C     -1.599730    5.438110    0.931300
  C     -1.997270    6.390230    1.893700
  N     -2.342920    7.152930    2.677070
  C     -1.126130    4.211710    1.444490
  N     -0.748990    3.216530    1.870280
  C     -2.653610    8.148210   -0.664840
  C     -3.013850    8.917760   -1.759380
  S     -2.750330    8.080290   -3.281210
  C     -3.541110   10.236900   -1.749080
  C     -4.078730   10.927670   -0.665780
  O     -4.202890   10.386750    0.588590
  C     -5.276990    9.473090    0.745920
  C     -4.476540   12.241020   -1.002760
  O     -5.018250   13.202720   -0.227300
  C     -5.079610   13.022970    1.174660
  C     -4.250840   12.546400   -2.343030
  S     -3.555460   11.203400   -3.190050
  C     -4.542800   13.778760   -2.968650
  C     -4.265540   14.148290   -4.276310
  C     -4.689730   15.445890   -4.545670
  C     -5.305380   16.059010   -3.438190
  S     -5.340390   15.045390   -2.059300
  C     -5.711450   17.359770   -3.814590
  C     -5.335140   17.582910   -5.158760
  C     -4.694700   16.380200   -5.663720
  C     -4.217500   16.156150   -6.920780
  C     -4.309590   17.109680   -7.958220
  N     -4.389000   17.856590   -8.823790
  C     -3.616510   14.931090   -7.281590
  N     -3.129630   13.936050   -7.577530
  C     -5.670500   18.850380   -5.616750
  C     -6.316530   19.603890   -4.645320
  S     -6.515500   18.694720   -3.139070
  C     -6.882290   20.893660   -4.683360
  C     -6.631940   21.921490   -5.549990
  C     -7.363950   23.173860   -5.565970
  C     -8.611980   23.389380   -5.039480
  C     -9.295090   24.620750   -5.111000
  N     -9.896650   25.598610   -5.128520
  C     -9.399250   22.407890   -4.402420
  N    -10.102110   21.655970   -3.892260
  C     -6.584780   24.137790   -6.331190
  C     -5.444160   23.472100   -6.863100
  C     -5.451600   22.059890   -6.441180
  O     -4.620090   21.222110   -6.718480
  C     -4.521400   24.123450   -7.629260
  C     -4.699220   25.499130   -7.899640
  C     -5.834920   26.173830   -7.365680
  C     -6.775940   25.471100   -6.578350
  C     -5.997470   27.547840   -7.635240
  C     -5.083120   28.225160   -8.395300
  C     -3.965390   27.560040   -8.920660
  C     -3.778270   26.225870   -8.679280
  H     -1.044720   -2.159540   -6.895490
  H     -0.189480    2.345000   -8.863390
  H     -0.593610    1.444940  -11.081900
  H     -1.159080   -0.445500  -12.555060
  H     -1.579020   -2.678970  -11.605080
  H     -1.437090   -3.039420   -9.172470
  H     -0.569410    1.033780   -2.733580
  H     -0.649610    2.798930   -0.876870
  H     -2.707410    8.511170    0.344730
  H     -6.242250    9.979360    0.636910
  H     -5.181060    9.075690    1.754100
  H     -5.221410    8.655680    0.021920
  H     -5.337440   14.001180    1.577510
  H     -4.120450   12.693380    1.576830
  H     -5.854340   12.303000    1.448680
  H     -3.776730   13.489320   -4.971080
  H     -5.467700   19.223630   -6.603040
  H     -7.590200   21.086470   -3.884850
  H     -3.665690   23.595680   -8.023430
  H     -7.621460   26.010260   -6.181290
  H     -6.860630   28.054980   -7.229590
  H     -5.216340   29.277730   -8.595740
  H     -3.253090   28.110110   -9.517270
  H     -2.919570   25.708460   -9.081430

 Total Charge           Charge          ....    0
 Multiplicity           Mult            ....    1
 Number of Electrons    NEL             ....  576
 Basis Dimension        Dim             .... 1274

ORBITAL ENERGIES
----------------

  NO   OCC          E(Eh)            E(eV)
   0   2.0000     -89.002175     -2421.8723
   1   2.0000     -89.000062     -2421.8148
   2   2.0000     -88.991912     -2421.5930
   3   2.0000     -88.991161     -2421.5726
   4   2.0000     -88.985389     -2421.4155
   5   2.0000     -19.280896      -524.6599
   6   2.0000     -19.267010      -524.2820
   7   2.0000     -19.215488      -522.8800
   8   2.0000     -19.212305      -522.7934
   9   2.0000     -14.439926      -392.9304
  10   2.0000     -14.437727      -392.8705
  11   2.0000     -14.430732      -392.6802
  12   2.0000     -14.427016      -392.5791
  13   2.0000     -14.418058      -392.3353
  14   2.0000     -14.417693      -392.3254
  15   2.0000     -14.411265      -392.1504
  16   2.0000     -14.409659      -392.1068
  17   2.0000     -10.374146      -282.2949
  18   2.0000     -10.367503      -282.1141
  19   2.0000     -10.364894      -282.0431
  20   2.0000     -10.364376      -282.0290
  21   2.0000     -10.364095      -282.0214
  22   2.0000     -10.361639      -281.9545
  23   2.0000     -10.360346      -281.9193
  24   2.0000     -10.352330      -281.7012
  25   2.0000     -10.350122      -281.6411
  26   2.0000     -10.346244      -281.5356
  27   2.0000     -10.344940      -281.5001
  28   2.0000     -10.344597      -281.4908
  29   2.0000     -10.343216      -281.4532
  30   2.0000     -10.341564      -281.4083
  31   2.0000     -10.341371      -281.4030
  32   2.0000     -10.340238      -281.3722
  33   2.0000     -10.339803      -281.3603
  34   2.0000     -10.337520      -281.2982
  35   2.0000     -10.336635      -281.2741
  36   2.0000     -10.336210      -281.2626
  37   2.0000     -10.335564      -281.2450
  38   2.0000     -10.335484      -281.2428
  39   2.0000     -10.332054      -281.1495
  40   2.0000     -10.331055      -281.1223
  41   2.0000     -10.327127      -281.0154
  42   2.0000     -10.326968      -281.0111
  43   2.0000     -10.326503      -280.9984
  44   2.0000     -10.326145      -280.9887
  45   2.0000     -10.323726      -280.9229
  46   2.0000     -10.323035      -280.9041
  47   2.0000     -10.320422      -280.8329
  48   2.0000     -10.319429      -280.8059
  49   2.0000     -10.318205      -280.7726
  50   2.0000     -10.317416      -280.7512
  51   2.0000     -10.314628      -280.6753
  52   2.0000     -10.312858      -280.6271
  53   2.0000     -10.312512      -280.6177
  54   2.0000     -10.310101      -280.5521
  55   2.0000     -10.309393      -280.5328
  56   2.0000     -10.305751      -280.4338
  57   2.0000     -10.305714      -280.4327
  58   2.0000     -10.303871      -280.3826
  59   2.0000     -10.303436      -280.3708
  60   2.0000     -10.300634      -280.2945
  61   2.0000     -10.299725      -280.2698
  62   2.0000     -10.299301      -280.2582
  63   2.0000     -10.299082      -280.2523
  64   2.0000     -10.298786      -280.2442
  65   2.0000     -10.298122      -280.2261
  66   2.0000     -10.295544      -280.1560
  67   2.0000     -10.293691      -280.1056
  68   2.0000     -10.293448      -280.0989
  69   2.0000     -10.292556      -280.0747
  70   2.0000     -10.292080      -280.0617
  71   2.0000     -10.291363      -280.0422
  72   2.0000     -10.288028      -279.9515
  73   2.0000     -10.287648      -279.9411
  74   2.0000     -10.287399      -279.9344
  75   2.0000     -10.286985      -279.9231
  76   2.0000     -10.284329      -279.8508
  77   2.0000     -10.283011      -279.8150
  78   2.0000     -10.282437      -279.7993
  79   2.0000     -10.282263      -279.7946
  80   2.0000     -10.281816      -279.7824
  81   2.0000      -8.096842      -220.3263
  82   2.0000      -8.094287      -220.2567
  83   2.0000      -8.086803      -220.0531
  84   2.0000      -8.084588      -219.9928
  85   2.0000      -8.080613      -219.8847
  86   2.0000      -6.066142      -165.0681
  87   2.0000      -6.063529      -164.9970
  88   2.0000      -6.061909      -164.9529
  89   2.0000      -6.059277      -164.8813
  90   2.0000      -6.059108      -164.8767
  91   2.0000      -6.056717      -164.8117
  92   2.0000      -6.055922      -164.7900
  93   2.0000      -6.054047      -164.7390
  94   2.0000      -6.051796      -164.6777
  95   2.0000      -6.050091      -164.6313
  96   2.0000      -6.049535      -164.6162
  97   2.0000      -6.049301      -164.6098
  98   2.0000      -6.046910      -164.5448
  99   2.0000      -6.046199      -164.5254
 100   2.0000      -6.042083      -164.4134
 101   2.0000      -1.187795       -32.3216
 102   2.0000      -1.164190       -31.6792
 103   2.0000      -1.131060       -30.7777
 104   2.0000      -1.127789       -30.6887
 105   2.0000      -1.056226       -28.7414
 106   2.0000      -1.046676       -28.4815
 107   2.0000      -1.031232       -28.0613
 108   2.0000      -1.022987       -27.8369
 109   2.0000      -1.021570       -27.7983
 110   2.0000      -1.017943       -27.6996
 111   2.0000      -1.015930       -27.6449
 112   2.0000      -1.013763       -27.5859
 113   2.0000      -1.006654       -27.3924
 114   2.0000      -1.005129       -27.3510
 115   2.0000      -1.000436       -27.2232
 116   2.0000      -0.996577       -27.1182
 117   2.0000      -0.994523       -27.0623
 118   2.0000      -0.993127       -27.0244
 119   2.0000      -0.988975       -26.9114
 120   2.0000      -0.974610       -26.5205
 121   2.0000      -0.968651       -26.3583
 122   2.0000      -0.967082       -26.3156
 123   2.0000      -0.959044       -26.0969
 124   2.0000      -0.932236       -25.3674
 125   2.0000      -0.925390       -25.1811
 126   2.0000      -0.922811       -25.1110
 127   2.0000      -0.915905       -24.9230
 128   2.0000      -0.903753       -24.5924
 129   2.0000      -0.895777       -24.3753
 130   2.0000      -0.885056       -24.0836
 131   2.0000      -0.884152       -24.0590
 132   2.0000      -0.881309       -23.9816
 133   2.0000      -0.877469       -23.8771
 134   2.0000      -0.875288       -23.8178
 135   2.0000      -0.871486       -23.7143
 136   2.0000      -0.867246       -23.5990
 137   2.0000      -0.865708       -23.5571
 138   2.0000      -0.856299       -23.3011
 139   2.0000      -0.853820       -23.2336
 140   2.0000      -0.830210       -22.5912
 141   2.0000      -0.827992       -22.5308
 142   2.0000      -0.824281       -22.4298
 143   2.0000      -0.818143       -22.2628
 144   2.0000      -0.806632       -21.9496
 145   2.0000      -0.794890       -21.6300
 146   2.0000      -0.788471       -21.4554
 147   2.0000      -0.783137       -21.3102
 148   2.0000      -0.777079       -21.1454
 149   2.0000      -0.766792       -20.8655
 150   2.0000      -0.759626       -20.6705
 151   2.0000      -0.757154       -20.6032
 152   2.0000      -0.744077       -20.2474
 153   2.0000      -0.723600       -19.6902
 154   2.0000      -0.716112       -19.4864
 155   2.0000      -0.712603       -19.3909
 156   2.0000      -0.706718       -19.2308
 157   2.0000      -0.703049       -19.1309
 158   2.0000      -0.700346       -19.0574
 159   2.0000      -0.696677       -18.9575
 160   2.0000      -0.694579       -18.9005
 161   2.0000      -0.690695       -18.7948
 162   2.0000      -0.685182       -18.6448
 163   2.0000      -0.680558       -18.5189
 164   2.0000      -0.679468       -18.4893
 165   2.0000      -0.673819       -18.3356
 166   2.0000      -0.665093       -18.0981
 167   2.0000      -0.660938       -17.9850
 168   2.0000      -0.648588       -17.6490
 169   2.0000      -0.643766       -17.5178
 170   2.0000      -0.635715       -17.2987
 171   2.0000      -0.634025       -17.2527
 172   2.0000      -0.632850       -17.2207
 173   2.0000      -0.630666       -17.1613
 174   2.0000      -0.627015       -17.0619
 175   2.0000      -0.625112       -17.0102
 176   2.0000      -0.615332       -16.7440
 177   2.0000      -0.611559       -16.6414
 178   2.0000      -0.609189       -16.5769
 179   2.0000      -0.604329       -16.4446
 180   2.0000      -0.602180       -16.3861
 181   2.0000      -0.596583       -16.2339
 182   2.0000      -0.594733       -16.1835
 183   2.0000      -0.588998       -16.0275
 184   2.0000      -0.581535       -15.8244
 185   2.0000      -0.576842       -15.6967
 186   2.0000      -0.567130       -15.4324
 187   2.0000      -0.562614       -15.3095
 188   2.0000      -0.558180       -15.1889
 189   2.0000      -0.557287       -15.1645
 190   2.0000      -0.554898       -15.0995
 191   2.0000      -0.552735       -15.0407
 192   2.0000      -0.549145       -14.9430
 193   2.0000      -0.548410       -14.9230
 194   2.0000      -0.547249       -14.8914
 195   2.0000      -0.543707       -14.7950
 196   2.0000      -0.542761       -14.7693
 197   2.0000      -0.539573       -14.6825
 198   2.0000      -0.537153       -14.6167
 199   2.0000      -0.532681       -14.4950
 200   2.0000      -0.529733       -14.4148
 201   2.0000      -0.527707       -14.3596
 202   2.0000      -0.525397       -14.2968
 203   2.0000      -0.520154       -14.1541
 204   2.0000      -0.519615       -14.1394
 205   2.0000      -0.516770       -14.0620
 206   2.0000      -0.516038       -14.0421
 207   2.0000      -0.514671       -14.0049
 208   2.0000      -0.514261       -13.9938
 209   2.0000      -0.513254       -13.9663
 210   2.0000      -0.508996       -13.8505
 211   2.0000      -0.507087       -13.7985
 212   2.0000      -0.506333       -13.7780
 213   2.0000      -0.504918       -13.7395
 214   2.0000      -0.502507       -13.6739
 215   2.0000      -0.501242       -13.6395
 216   2.0000      -0.499388       -13.5890
 217   2.0000      -0.496979       -13.5235
 218   2.0000      -0.494357       -13.4521
 219   2.0000      -0.492352       -13.3976
 220   2.0000      -0.490076       -13.3356
 221   2.0000      -0.486679       -13.2432
 222   2.0000      -0.485381       -13.2079
 223   2.0000      -0.481539       -13.1033
 224   2.0000      -0.480965       -13.0877
 225   2.0000      -0.476084       -12.9549
 226   2.0000      -0.475378       -12.9357
 227   2.0000      -0.470124       -12.7927
 228   2.0000      -0.468415       -12.7462
 229   2.0000      -0.467216       -12.7136
 230   2.0000      -0.465977       -12.6799
 231   2.0000      -0.461490       -12.5578
 232   2.0000      -0.460820       -12.5395
 233   2.0000      -0.460704       -12.5364
 234   2.0000      -0.455438       -12.3931
 235   2.0000      -0.453334       -12.3358
 236   2.0000      -0.451987       -12.2992
 237   2.0000      -0.450254       -12.2520
 238   2.0000      -0.448853       -12.2139
 239   2.0000      -0.448531       -12.2052
 240   2.0000      -0.447522       -12.1777
 241   2.0000      -0.447333       -12.1725
 242   2.0000      -0.444954       -12.1078
 243   2.0000      -0.444726       -12.1016
 244   2.0000      -0.442501       -12.0411
 245   2.0000      -0.441302       -12.0084
 246   2.0000      -0.440261       -11.9801
 247   2.0000      -0.438713       -11.9380
 248   2.0000      -0.437642       -11.9088
 249   2.0000      -0.436157       -11.8684
 250   2.0000      -0.435272       -11.8443
 251   2.0000      -0.434469       -11.8225
 252   2.0000      -0.432582       -11.7712
 253   2.0000      -0.430257       -11.7079
 254   2.0000      -0.429377       -11.6839
 255   2.0000      -0.428958       -11.6725
 256   2.0000      -0.427950       -11.6451
 257   2.0000      -0.425625       -11.5819
 258   2.0000      -0.423436       -11.5223
 259   2.0000      -0.421243       -11.4626
 260   2.0000      -0.420404       -11.4398
 261   2.0000      -0.418346       -11.3838
 262   2.0000      -0.415383       -11.3031
 263   2.0000      -0.411131       -11.1874
 264   2.0000      -0.404825       -11.0158
 265   2.0000      -0.404434       -11.0052
 266   2.0000      -0.399920       -10.8824
 267   2.0000      -0.393979       -10.7207
 268   2.0000      -0.383874       -10.4458
 269   2.0000      -0.379763       -10.3339
 270   2.0000      -0.375596       -10.2205
 271   2.0000      -0.371562       -10.1107
 272   2.0000      -0.361168        -9.8279
 273   2.0000      -0.356476        -9.7002
 274   2.0000      -0.350864        -9.5475
 275   2.0000      -0.343257        -9.3405
 276   2.0000      -0.336922        -9.1681
 277   2.0000      -0.333388        -9.0719
 278   2.0000      -0.329749        -8.9729
 279   2.0000      -0.323563        -8.8046
 280   2.0000      -0.321549        -8.7498
 281   2.0000      -0.318310        -8.6617
 282   2.0000      -0.314073        -8.5464
 283   2.0000      -0.305051        -8.3008
 284   2.0000      -0.296848        -8.0776
 285   2.0000      -0.290289        -7.8992
 286   2.0000      -0.275499        -7.4967
 287   2.0000      -0.245423        -6.6783
 288   0.0000      -0.120957        -3.2914
 289   0.0000      -0.108064        -2.9406
 290   0.0000      -0.092628        -2.5205
 291   0.0000      -0.086083        -2.3425
 292   0.0000      -0.060695        -1.6516

MULLIKEN ATOMIC CHARGES
-----------------------
   0 C :    0.242627
   1 C :   -0.321622
   2 C :   -0.173744
   3 N :    0.155423
   4 C :   -0.214722
   5 N :    0.174105
   6 C :    0.036960
   7 C :    0.015074
   8 C :   -0.080761
   9 C :    0.093344
  10 C :    0.093288
  11 C :   -0.080015
  12 C :   -0.016528
  13 C :    0.034708
  14 C :    0.036360
  15 C :   -0.013605
  16 C :    0.139391
  17 O :   -0.141621
  18 C :   -0.134562
  19 C :    0.035402
  20 C :   -0.077573
  21 C :   -0.001726
  22 C :    0.019434
  23 C :   -0.081897
  24 S :    0.211494
  25 C :   -0.098398
  26 C :    0.023924
  27 C :    0.303004
  28 C :   -0.294071
  29 C :   -0.188732
  30 N :    0.170135
  31 C :   -0.189296
  32 N :    0.183719
  33 C :   -0.077543
  34 C :   -0.078132
  35 S :    0.204717
  36 C :   -0.088531
  37 C :    0.084279
  38 O :   -0.346197
  39 C :    0.184495
  40 C :    0.185557
  41 O :   -0.331061
  42 C :    0.190542
  43 C :   -0.128908
  44 S :    0.167421
  45 C :   -0.036235
  46 C :   -0.089773
  47 C :    0.037282
  48 C :   -0.102059
  49 S :    0.215622
  50 C :   -0.081581
  51 C :   -0.023535
  52 C :    0.303247
  53 C :   -0.299568
  54 C :   -0.187046
  55 N :    0.188443
  56 C :   -0.192331
  57 N :    0.172973
  58 C :    0.036576
  59 C :   -0.114082
  60 S :    0.198960
  61 C :    0.025361
  62 C :   -0.100203
  63 C :    0.300242
  64 C :   -0.349353
  65 C :   -0.180401
  66 N :    0.143117
  67 C :   -0.205530
  68 N :    0.155385
  69 C :    0.049001
  70 C :   -0.005489
  71 C :    0.154748
  72 O :   -0.153512
  73 C :   -0.080838
  74 C :    0.097827
  75 C :    0.097054
  76 C :   -0.085401
  77 C :   -0.019024
  78 C :    0.035433
  79 C :    0.035410
  80 C :   -0.017457
  81 H :   -0.011413
  82 H :   -0.005816
  83 H :   -0.011266
  84 H :   -0.002957
  85 H :   -0.004223
  86 H :   -0.017443
  87 H :    0.033083
  88 H :    0.020261
  89 H :    0.026165
  90 H :    0.020576
  91 H :    0.053746
  92 H :    0.035821
  93 H :    0.039255
  94 H :    0.046758
  95 H :    0.021459
  96 H :    0.010391
  97 H :    0.031704
  98 H :    0.022834
  99 H :   -0.011734
 100 H :   -0.008119
 101 H :   -0.010512
 102 H :   -0.005315
 103 H :   -0.005450
 104 H :   -0.017224
Sum of atomic charges:   -0.0000000

LOEWDIN ATOMIC CHARGES
----------------------
   0 C :    0.061410
   1 C :   -0.146768
   2 C :   -0.020352
   3 N :   -0.049666
   4 C :   -0.039269
   5 N :   -0.048262
   6 C :   -0.023334
   7 C :   -0.056786
   8 C :    0.033066
   9 C :   -0.009013
  10 C :   -0.005526
  11 C :    0.015758
  12 C :   -0.006336
  13 C :   -0.012529
  14 C :   -0.012667
  15 C :   -0.008800
  16 C :    0.083494
  17 O :   -0.143031
  18 C :   -0.100689
  19 C :    0.049538
  20 C :   -0.177820
  21 C :    0.014307
  22 C :   -0.077263
  23 C :   -0.150519
  24 S :    0.516253
  25 C :   -0.189850
  26 C :   -0.055209
  27 C :    0.080800
  28 C :   -0.098143
  29 C :   -0.014776
  30 N :   -0.033220
  31 C :   -0.018346
  32 N :   -0.024982
  33 C :   -0.031336
  34 C :   -0.171940
  35 S :    0.480628
  36 C :   -0.207953
  37 C :   -0.012938
  38 O :   -0.124411
  39 C :    0.081163
  40 C :    0.007029
  41 O :   -0.101800
  42 C :    0.086530
  43 C :   -0.218557
  44 S :    0.453814
  45 C :   -0.161733
  46 C :   -0.044728
  47 C :   -0.050808
  48 C :   -0.205983
  49 S :    0.504132
  50 C :   -0.152974
  51 C :   -0.079889
  52 C :    0.078366
  53 C :   -0.097458
  54 C :   -0.020319
  55 N :   -0.020546
  56 C :   -0.015054
  57 N :   -0.034201
  58 C :    0.026122
  59 C :   -0.180887
  60 S :    0.487570
  61 C :    0.042993
  62 C :   -0.098568
  63 C :    0.076175
  64 C :   -0.146060
  65 C :   -0.017611
  66 N :   -0.057738
  67 C :   -0.025524
  68 N :   -0.057973
  69 C :   -0.026001
  70 C :   -0.054170
  71 C :    0.083990
  72 O :   -0.141439
  73 C :    0.031994
  74 C :   -0.008526
  75 C :   -0.006761
  76 C :    0.018435
  77 C :   -0.006056
  78 C :   -0.014495
  79 C :   -0.013317
  80 C :   -0.009486
  81 H :    0.039665
  82 H :    0.038569
  83 H :    0.034222
  84 H :    0.033623
  85 H :    0.033125
  86 H :    0.031983
  87 H :    0.055378
  88 H :    0.047556
  89 H :    0.042496
  90 H :    0.012979
  91 H :    0.033376
  92 H :    0.016649
  93 H :    0.028720
  94 H :    0.025687
  95 H :    0.017904
  96 H :    0.036337
  97 H :    0.045376
  98 H :    0.043482
  99 H :    0.039466
 100 H :    0.038745
 101 H :    0.034274
 102 H :    0.032822
 103 H :    0.032472
 104 H :    0.031924

  Mayer bond orders larger than 0.100000
B(  0-C ,  1-C ) :   1.6507 B(  0-C ,  6-C ) :   1.0028 B(  0-C , 18-C ) :   1.0368
B(  1-C ,  2-C ) :   1.1345 B(  1-C ,  4-C ) :   1.1523 B(  2-C ,  3-N ) :   2.9913
B(  4-C ,  5-N ) :   3.0235 B(  6-C ,  7-C ) :   1.2137 B(  6-C , 11-C ) :   1.4585
B(  7-C ,  8-C ) :   1.4764 B(  7-C , 16-C ) :   0.9236 B(  8-C ,  9-C ) :   1.1834
B(  8-C , 81-H ) :   1.0162 B(  9-C , 10-C ) :   1.2580 B(  9-C , 15-C ) :   1.2462
B( 10-C , 11-C ) :   1.2032 B( 10-C , 12-C ) :   1.2418 B( 11-C , 82-H ) :   0.9947
B( 12-C , 13-C ) :   1.4895 B( 12-C , 83-H ) :   0.9975 B( 13-C , 14-C ) :   1.2606
B( 13-C , 84-H ) :   0.9890 B( 14-C , 15-C ) :   1.4890 B( 14-C , 85-H ) :   0.9884
B( 15-C , 86-H ) :   0.9974 B( 16-C , 17-O ) :   2.2695 B( 16-C , 18-C ) :   0.9364
B( 18-C , 19-C ) :   1.6270 B( 19-C , 20-C ) :   1.1615 B( 19-C , 87-H ) :   0.9450
B( 20-C , 21-C ) :   1.3960 B( 20-C , 24-S ) :   1.0785 B( 21-C , 22-C ) :   1.3037
B( 21-C , 88-H ) :   1.0021 B( 22-C , 23-C ) :   1.3911 B( 22-C , 27-C ) :   0.9961
B( 23-C , 24-S ) :   1.1671 B( 23-C , 25-C ) :   1.2123 B( 25-C , 26-C ) :   1.4336
B( 25-C , 35-S ) :   1.1109 B( 26-C , 27-C ) :   0.9921 B( 26-C , 33-C ) :   1.2739
B( 27-C , 28-C ) :   1.7158 B( 28-C , 29-C ) :   1.1377 B( 28-C , 31-C ) :   1.1318
B( 29-C , 30-N ) :   2.9856 B( 31-C , 32-N ) :   2.9961 B( 33-C , 34-C ) :   1.4560
B( 33-C , 89-H ) :   0.9992 B( 34-C , 35-S ) :   1.1121 B( 34-C , 36-C ) :   1.1273
B( 36-C , 37-C ) :   1.4903 B( 36-C , 43-C ) :   0.1345 B( 36-C , 44-S ) :   1.1131
B( 37-C , 38-O ) :   1.1354 B( 37-C , 40-C ) :   1.2353 B( 38-O , 39-C ) :   0.9153
B( 39-C , 90-H ) :   0.9646 B( 39-C , 91-H ) :   0.9828 B( 39-C , 92-H ) :   0.9680
B( 40-C , 41-O ) :   1.1649 B( 40-C , 43-C ) :   1.4559 B( 41-O , 42-C ) :   0.9204
B( 42-C , 93-H ) :   0.9776 B( 42-C , 94-H ) :   0.9734 B( 42-C , 95-H ) :   0.9766
B( 43-C , 44-S ) :   1.1070 B( 43-C , 45-C ) :   1.1931 B( 45-C , 46-C ) :   1.4147
B( 45-C , 49-S ) :   1.1302 B( 46-C , 47-C ) :   1.3199 B( 46-C , 96-H ) :   0.9926
B( 47-C , 48-C ) :   1.4216 B( 47-C , 52-C ) :   0.9908 B( 48-C , 49-S ) :   1.0741
B( 48-C , 50-C ) :   1.2120 B( 50-C , 51-C ) :   1.3775 B( 50-C , 60-S ) :   1.1684
B( 51-C , 52-C ) :   0.9966 B( 51-C , 58-C ) :   1.3383 B( 52-C , 53-C ) :   1.7177
B( 53-C , 54-C ) :   1.1324 B( 53-C , 56-C ) :   1.1387 B( 54-C , 55-N ) :   2.9975
B( 56-C , 57-N ) :   2.9912 B( 58-C , 59-C ) :   1.4017 B( 58-C , 97-H ) :   0.9752
B( 59-C , 60-S ) :   1.0658 B( 59-C , 61-C ) :   1.2063 B( 61-C , 62-C ) :   1.5846
B( 61-C , 98-H ) :   0.9289 B( 62-C , 63-C ) :   1.0753 B( 62-C , 71-C ) :   0.9459
B( 63-C , 64-C ) :   1.6303 B( 63-C , 69-C ) :   0.9884 B( 64-C , 65-C ) :   1.1460
B( 64-C , 67-C ) :   1.1385 B( 65-C , 66-N ) :   2.9674 B( 67-C , 68-N ) :   2.9975
B( 69-C , 70-C ) :   1.2128 B( 69-C , 76-C ) :   1.4531 B( 70-C , 71-C ) :   0.9444
B( 70-C , 73-C ) :   1.4759 B( 71-C , 72-O ) :   2.1956 B( 73-C , 74-C ) :   1.1764
B( 73-C , 99-H ) :   1.0163 B( 74-C , 75-C ) :   1.2567 B( 74-C , 80-C ) :   1.2459
B( 75-C , 76-C ) :   1.2033 B( 75-C , 77-C ) :   1.2409 B( 76-C ,100-H ) :   0.9909
B( 77-C , 78-C ) :   1.4884 B( 77-C ,101-H ) :   0.9970 B( 78-C , 79-C ) :   1.2609
B( 78-C ,102-H ) :   0.9884 B( 79-C , 80-C ) :   1.4879 B( 79-C ,103-H ) :   0.9887
B( 80-C ,104-H ) :   0.9977

-----------------------------------------------------------------------------
         ABSORPTION SPECTRUM VIA TRANSITION ELECTRIC DIPOLE MOMENTS
-----------------------------------------------------------------------------
State   Energy  Wavelength   fosc         T2         TX        TY        TZ
        (cm-1)    (nm)                  (au**2)     (au)      (au)      (au)
-----------------------------------------------------------------------------
   0   11608.7    861.4   0.659604383  18.70577  -1.35813   4.10623  -0.01233
   1   12924.7    773.7   0.085874936   2.18737   0.20713  -1.17880   0.86884
   2   18685.4    535.2   1.381252090  24.33580   1.53993  -4.68567  -0.09432
   3   20182.6    495.5   0.241407486   3.93776  -0.80817   1.59520   0.86021
   4   20470.1    488.5   0.459776387   7.39438   0.12328  -1.63841   2.16674
   5   23013.2    434.5   0.020448923   0.29253  -0.33109   0.31800   0.28598
   6   24745.0    404.1   0.042746637   0.56871  -0.34370  -0.14148  -0.65617
   7   25886.5    386.3   0.004078927   0.05187   0.18675  -0.12289   0.04356
   8   26274.3    380.6   0.389031182   4.87449  -0.16246  -1.78906   1.28350
   9   27051.0    369.7   0.099962592   1.21655   0.40680  -0.23363  -0.99824
  10   27196.0    367.7   0.096665973   1.17016   0.21338   1.00973  -0.32415
  11   27251.6    367.0   0.122255138   1.47690   0.24129  -1.13719   0.35424
  12   27855.0    359.0   0.027034715   0.31952   0.41138  -0.23097  -0.31134
  13   28235.9    354.2   0.036620143   0.42697  -0.43363  -0.00005   0.48880
  14   28308.8    353.2   0.007891394   0.09177  -0.20310   0.12743  -0.18516
  15   28882.4    346.2   0.042139986   0.48033  -0.19075   0.65497  -0.12230
  16   29100.3    343.6   0.009102018   0.10297   0.03252   0.08633   0.30734
  17   29283.0    341.5   0.042870266   0.48197   0.50256  -0.41908   0.23190
  18   29651.9    337.2   0.157825143   1.75226   0.16352  -0.05352   1.31250
  19   30150.7    331.7   0.166394228   1.81684   0.50111   0.26434   1.22305
  20   30285.8    330.2   0.585068172   6.35980  -0.05823   0.66278   2.43252
  21   30560.6    327.2   0.026228354   0.28254   0.21902   0.48041  -0.06147
  22   30762.2    325.1   0.299970932   3.21024   0.40310   1.73323   0.20895
  23   31062.0    321.9   0.241838452   2.56313   0.62857  -0.57104  -1.35718
  24   31370.5    318.8   0.165518401   1.73700  -0.74465   0.21252   1.06646
  25   31588.0    316.6   0.127974991   1.33376   0.07743  -0.01709   1.15216
  26   32321.5    309.4   0.089789856   0.91456   0.18441  -0.56108   0.75216
  27   32648.9    306.3   0.247665241   2.49731  -0.18671   1.55197  -0.23207
  28   32826.6    304.6   0.163777137   1.64249  -0.08503   0.87516   0.93239
  29   32937.9    303.6   0.214074918   2.13966   0.85795   0.98406  -0.65970
  30   33276.0    300.5   0.109226809   1.08062   0.11598  -1.03270   0.02659
  31   33916.8    294.8   0.052352051   0.50815  -0.26593   0.05581   0.65903
  32   34073.3    293.5   0.047297256   0.45698   0.41348   0.53413  -0.02687
  33   34251.7    292.0   0.128720053   1.23720  -0.49433  -0.85395  -0.51343
  34   34396.6    290.7   0.647822970   6.20035  -0.66782   0.24739   2.38603
  35   34442.8    290.3   0.056570193   0.54071   0.38595  -0.03276   0.62504
  36   34613.1    288.9   0.013884296   0.13206  -0.07468  -0.28034  -0.21883
  37   34800.4    287.4   0.287314539   2.71799   1.32039   0.97365   0.16299
  38   34996.7    285.7   0.212113776   1.99534  -0.67568  -0.90738   0.84585
  39   35151.6    284.5   0.205395173   1.92362  -0.10113  -1.30595  -0.45595
  40   35654.9    280.5   0.025321888   0.23380  -0.01284  -0.15160  -0.45897
  41   36143.6    276.7   0.106165305   0.96700  -0.62336  -0.71436  -0.26097
  42   36400.9    274.7   0.073182519   0.66187   0.09101  -0.41021  -0.69664
  43   36507.1    273.9   0.002337697   0.02108   0.10214   0.01264  -0.10241
  44   36702.0    272.5   0.002522192   0.02262   0.03584   0.14537   0.01434
  45   36858.2    271.3   0.034233355   0.30577  -0.46250  -0.29167  -0.08237
  46   36939.9    270.7   0.003494481   0.03114   0.01621  -0.15380  -0.08500
  47   37123.8    269.4   0.020560926   0.18233   0.17155   0.36438  -0.14189
  48   37310.2    268.0   0.049013958   0.43248   0.47292  -0.02464  -0.45631
  49   37574.3    266.1   0.075915039   0.66514   0.70399  -0.24381  -0.33180
  50   37901.1    263.8   0.051464244   0.44702  -0.41359   0.04404   0.52347
  51   38103.9    262.4   0.027423340   0.23693  -0.18454  -0.27852   0.35399
  52   38602.4    259.1   0.023232892   0.19814  -0.00678   0.15782  -0.41615
  53   38799.9    257.7   0.036719905   0.31156  -0.10576   0.52981  -0.14027
  54   38993.9    256.5   0.016910905   0.14277   0.21120  -0.29510  -0.10528
  55   39152.7    255.4   0.010921826   0.09184  -0.28799   0.00360   0.09426
  56   39474.9    253.3   0.196705132   1.64048   0.97456  -0.74331  -0.37174
  57   39670.9    252.1   0.015379129   0.12762   0.20581   0.02075  -0.29126
  58   39839.4    251.0   0.018807610   0.15542  -0.27286   0.24382  -0.14669
  59   39995.1    250.0   0.022358084   0.18404   0.30946  -0.07756  -0.28680
  60   40292.5    248.2   0.066275945   0.54151  -0.00337   0.14411  -0.72162

FINAL SINGLE POINT ENERGY     -5178.275366578077

DIPOLE MOMENT
-------------
                                X             Y             Z
Electronic contribution:      3.14157      -5.47132      11.94908
Nuclear contribution   :     -3.80887       4.23056     -11.83730
                        -----------------------------------------
Total Dipole Moment    :     -0.66730      -1.24076       0.11178
                        -----------------------------------------
Magnitude (a.u.)       :      1.41325
Magnitude (Debye)      :      3.59219

Rotational constants in cm-1:     0.001244     0.000177     0.000160
Rotational constants in MHz :    37.290105     5.299493     4.801821

                             ****ORCA TERMINATED NORMALLY****
TOTAL RUN TIME: 0 days 0 hours 12 minutes 9 seconds 628 msec
