                         Program Version 4.2.0 -  RELEASE  -
|  1> # ORCA input file
|  2> # SCF done       -197.016440370254          0.000809049907
|  3> ! CAM-B3LYP def2-SVP def2/J RIJCOSX Grid4 TightSCF
|  4> %maxcore 5000
|  5> %tddft
|  6>     Mode sTDDFT
|  7>     Ethresh 5.0
|  8>     maxcore 5000
|  9> end
| 10>
| 11> %pal
| 12>   nprocs 6
| 13>   end
| 14> * xyz 0 1
| 15>    C        4.49378        -1.23192         2.05720
| 16>    C        4.63857        -1.07892         3.43885
| 17>    C        4.76748         0.34481         3.91468
| 18>    O        4.99176         1.23101         3.13791
| 19>    O        4.60974         0.60609         5.21385
| 20>    C        4.67730        -2.21404         4.26713
| 21>    C        4.82875        -2.15195         5.67153
| 22>    N        4.93827        -2.16701         6.81459
| 23>    C        4.56979        -3.49989         3.71886
| 24>    C        4.42061        -3.62315         2.35781
| 25>    C        4.37650        -2.49802         1.51427
| 26>    C        4.21279        -2.95935         0.13357
| 27>    C        4.18939        -2.15154        -0.97293
| 28>    C        4.23678        -0.74063        -0.93564
| 29>    N        4.25042         0.40516        -0.98956
| 30>    C        4.12635        -2.60711        -2.30733
| 31>    N        4.09498        -2.90058        -3.41703
| 32>    C        4.14933        -4.40456         0.16300
| 33>    C        4.25083        -4.85123         1.54935
| 34>    O        4.11657        -5.98464         1.98324
| 35>    C        3.87156        -5.21984        -0.91576
| 36>    C        3.98979        -6.60603        -1.01232
| 37>    C        4.70950        -7.57792        -0.31584
| 38>    C        4.60157        -8.89041        -0.84176
| 39>    C        5.44549        -9.78063        -0.12196
| 40>    C        6.17095        -9.19518         0.86550
| 41>    S        5.81708        -7.48728         0.99641
| 42>    C        7.13687        -9.84598         1.78508
| 43>    F        5.56213       -11.09242        -0.40600
| 44>    C        3.74465        -8.96936        -1.94650
| 45>    S        3.16474        -7.38147        -2.36194
| 46>    C        3.28550       -10.08091        -2.67524
| 47>    C        2.44835       -10.07543        -3.78380
| 48>    C        2.08390       -11.35426        -4.27358
| 49>    C        1.27701       -11.21103        -5.44078
| 50>    C        1.02088        -9.92913        -5.80428
| 51>    S        1.77053        -8.78317        -4.71109
| 52>    C        0.22788        -9.45812        -6.96605
| 53>    F        0.82227       -12.24861        -6.16581
| 54>    C        2.64295       -12.39077        -3.52519
| 55>    S        3.64190       -11.73615        -2.25086
| 56>    C        2.47745       -13.80251        -3.59319
| 57>    C        3.37831       -14.65522        -2.98538
| 58>    C        3.24637       -16.03434        -2.92455
| 59>    C        2.07643       -16.71440        -3.48084
| 60>    C        1.07947       -16.07796        -4.13815
| 61>    S        1.03144       -14.38921        -4.39652
| 62>    C        2.26490       -18.09023        -3.18413
| 63>    C        3.47060       -18.27395        -2.49751
| 64>    C        3.70122       -19.63955        -2.21469
| 65>    C        2.69120       -20.42676        -2.66920
| 66>    S        1.42339       -19.55969        -3.46411
| 67>    C        4.10711       -16.99173        -2.33198
| 68>    C        5.36216       -16.69151        -1.77395
| 69>    C        6.14339       -17.55097        -1.05121
| 70>    C        7.44467       -17.28034        -0.59127
| 71>    C        8.38851       -16.44739        -1.14665
| 72>    C        9.69904       -16.21199        -0.57942
| 73>    C       10.03986       -16.33748         0.74431
| 74>    C       11.32549       -16.07045         1.25449
| 75>    N       12.35528       -15.86703         1.72014
| 76>    C        9.13645       -16.69224         1.76729
| 77>    N        8.44750       -16.94109         2.65206
| 78>    C       10.57049       -15.72808        -1.64280
| 79>    C        9.79221       -15.55954        -2.81288
| 80>    C        8.38693       -15.92715        -2.53211
| 81>    O        7.46556       -15.84377        -3.31870
| 82>    C       10.32739       -15.12720        -4.00118
| 83>    C       11.69924       -14.85393        -4.03715
| 84>    C       12.46887       -15.02652        -2.86267
| 85>    C       11.92542       -15.45835        -1.65832
| 86>    S       14.14236       -14.64399        -3.13342
| 87>    C       13.78981       -14.26297        -4.79802
| 88>    C       12.48713       -14.41262        -5.13556
| 89>   Br       15.17551       -13.70802        -5.93455
| 90>    H        4.47706        -0.33583         1.45626
| 91>    H        4.47265        -0.16598         5.78377
| 92>    H        4.60397        -4.37287         4.35306
| 93>    H        3.48736        -4.74579        -1.81010
| 94>    H        7.22802       -10.90208         1.54209
| 95>    H        6.80233        -9.74781         2.81720
| 96>    H        8.11581        -9.37500         1.70572
| 97>    H       -0.13477       -10.31060        -7.53546
| 98>    H        0.83851        -8.82960        -7.61328
| 99>    H       -0.62251        -8.86488        -6.63156
|100>    H        4.24888       -14.19842        -2.53367
|101>    H        0.23337       -16.60043        -4.55606
|102>    H        4.56386       -20.03900        -1.71491
|103>    H        2.60654       -21.49296        -2.58934
|104>    H        5.71515       -15.68213        -1.91650
|105>    H        5.72167       -18.49540        -0.73746
|106>    H        7.76701       -17.87298         0.25816
|107>    H        9.70981       -15.00874        -4.87776
|108>    H       12.55271       -15.58257        -0.79132
|109>    H       12.09647       -14.22297        -6.11868
|110> *
|111>
|112>                          ****END OF INPUT****

CARTESIAN COORDINATES (ANGSTROEM)
---------------------------------
  C      4.493780   -1.231920    2.057200
  C      4.638570   -1.078920    3.438850
  C      4.767480    0.344810    3.914680
  O      4.991760    1.231010    3.137910
  O      4.609740    0.606090    5.213850
  C      4.677300   -2.214040    4.267130
  C      4.828750   -2.151950    5.671530
  N      4.938270   -2.167010    6.814590
  C      4.569790   -3.499890    3.718860
  C      4.420610   -3.623150    2.357810
  C      4.376500   -2.498020    1.514270
  C      4.212790   -2.959350    0.133570
  C      4.189390   -2.151540   -0.972930
  C      4.236780   -0.740630   -0.935640
  N      4.250420    0.405160   -0.989560
  C      4.126350   -2.607110   -2.307330
  N      4.094980   -2.900580   -3.417030
  C      4.149330   -4.404560    0.163000
  C      4.250830   -4.851230    1.549350
  O      4.116570   -5.984640    1.983240
  C      3.871560   -5.219840   -0.915760
  C      3.989790   -6.606030   -1.012320
  C      4.709500   -7.577920   -0.315840
  C      4.601570   -8.890410   -0.841760
  C      5.445490   -9.780630   -0.121960
  C      6.170950   -9.195180    0.865500
  S      5.817080   -7.487280    0.996410
  C      7.136870   -9.845980    1.785080
  F      5.562130  -11.092420   -0.406000
  C      3.744650   -8.969360   -1.946500
  S      3.164740   -7.381470   -2.361940
  C      3.285500  -10.080910   -2.675240
  C      2.448350  -10.075430   -3.783800
  C      2.083900  -11.354260   -4.273580
  C      1.277010  -11.211030   -5.440780
  C      1.020880   -9.929130   -5.804280
  S      1.770530   -8.783170   -4.711090
  C      0.227880   -9.458120   -6.966050
  F      0.822270  -12.248610   -6.165810
  C      2.642950  -12.390770   -3.525190
  S      3.641900  -11.736150   -2.250860
  C      2.477450  -13.802510   -3.593190
  C      3.378310  -14.655220   -2.985380
  C      3.246370  -16.034340   -2.924550
  C      2.076430  -16.714400   -3.480840
  C      1.079470  -16.077960   -4.138150
  S      1.031440  -14.389210   -4.396520
  C      2.264900  -18.090230   -3.184130
  C      3.470600  -18.273950   -2.497510
  C      3.701220  -19.639550   -2.214690
  C      2.691200  -20.426760   -2.669200
  S      1.423390  -19.559690   -3.464110
  C      4.107110  -16.991730   -2.331980
  C      5.362160  -16.691510   -1.773950
  C      6.143390  -17.550970   -1.051210
  C      7.444670  -17.280340   -0.591270
  C      8.388510  -16.447390   -1.146650
  C      9.699040  -16.211990   -0.579420
  C     10.039860  -16.337480    0.744310
  C     11.325490  -16.070450    1.254490
  N     12.355280  -15.867030    1.720140
  C      9.136450  -16.692240    1.767290
  N      8.447500  -16.941090    2.652060
  C     10.570490  -15.728080   -1.642800
  C      9.792210  -15.559540   -2.812880
  C      8.386930  -15.927150   -2.532110
  O      7.465560  -15.843770   -3.318700
  C     10.327390  -15.127200   -4.001180
  C     11.699240  -14.853930   -4.037150
  C     12.468870  -15.026520   -2.862670
  C     11.925420  -15.458350   -1.658320
  S     14.142360  -14.643990   -3.133420
  C     13.789810  -14.262970   -4.798020
  C     12.487130  -14.412620   -5.135560
  Br    15.175510  -13.708020   -5.934550
  H      4.477060   -0.335830    1.456260
  H      4.472650   -0.165980    5.783770
  H      4.603970   -4.372870    4.353060
  H      3.487360   -4.745790   -1.810100
  H      7.228020  -10.902080    1.542090
  H      6.802330   -9.747810    2.817200
  H      8.115810   -9.375000    1.705720
  H     -0.134770  -10.310600   -7.535460
  H      0.838510   -8.829600   -7.613280
  H     -0.622510   -8.864880   -6.631560
  H      4.248880  -14.198420   -2.533670
  H      0.233370  -16.600430   -4.556060
  H      4.563860  -20.039000   -1.714910
  H      2.606540  -21.492960   -2.589340
  H      5.715150  -15.682130   -1.916500
  H      5.721670  -18.495400   -0.737460
  H      7.767010  -17.872980    0.258160
  H      9.709810  -15.008740   -4.877760
  H     12.552710  -15.582570   -0.791320
  H     12.096470  -14.222970   -6.118680

 Total Charge           Charge          ....    0
 Multiplicity           Mult            ....    1
 Number of Electrons    NEL             ....  588
 Basis Dimension        Dim             .... 1196

ORBITAL ENERGIES
----------------

  NO   OCC          E(Eh)            E(eV)
   0   2.0000    -482.883750    -13139.9348
   1   2.0000     -88.997227     -2421.7377
   2   2.0000     -88.994180     -2421.6547
   3   2.0000     -88.991545     -2421.5830
   4   2.0000     -88.983996     -2421.3776
   5   2.0000     -88.977988     -2421.2141
   6   2.0000     -88.972959     -2421.0773
   7   2.0000     -88.969452     -2420.9819
   8   2.0000     -62.561487     -1702.3846
   9   2.0000     -56.395433     -1534.5978
  10   2.0000     -56.392725     -1534.5241
  11   2.0000     -56.392687     -1534.5230
  12   2.0000     -24.810831      -675.1370
  13   2.0000     -24.807200      -675.0382
  14   2.0000     -19.264658      -524.2180
  15   2.0000     -19.227219      -523.1992
  16   2.0000     -19.211106      -522.7608
  17   2.0000     -19.205916      -522.6195
  18   2.0000     -14.443888      -393.0382
  19   2.0000     -14.424558      -392.5122
  20   2.0000     -14.418590      -392.3498
  21   2.0000     -14.408318      -392.0703
  22   2.0000     -14.406434      -392.0190
  23   2.0000     -10.414949      -283.4052
  24   2.0000     -10.381732      -282.5013
  25   2.0000     -10.374374      -282.3011
  26   2.0000     -10.373522      -282.2779
  27   2.0000     -10.362658      -281.9823
  28   2.0000     -10.361741      -281.9573
  29   2.0000     -10.356265      -281.8083
  30   2.0000     -10.352750      -281.7127
  31   2.0000     -10.352697      -281.7112
  32   2.0000     -10.352175      -281.6970
  33   2.0000     -10.351738      -281.6851
  34   2.0000     -10.349304      -281.6189
  35   2.0000     -10.346366      -281.5389
  36   2.0000     -10.346240      -281.5355
  37   2.0000     -10.340814      -281.3878
  38   2.0000     -10.340132      -281.3693
  39   2.0000     -10.335892      -281.2539
  40   2.0000     -10.335463      -281.2422
  41   2.0000     -10.332895      -281.1724
  42   2.0000     -10.332592      -281.1641
  43   2.0000     -10.332335      -281.1571
  44   2.0000     -10.330914      -281.1185
  45   2.0000     -10.330665      -281.1117
  46   2.0000     -10.326952      -281.0107
  47   2.0000     -10.326753      -281.0052
  48   2.0000     -10.325541      -280.9723
  49   2.0000     -10.323816      -280.9253
  50   2.0000     -10.322001      -280.8759
  51   2.0000     -10.320201      -280.8269
  52   2.0000     -10.319414      -280.8055
  53   2.0000     -10.318458      -280.7795
  54   2.0000     -10.317524      -280.7541
  55   2.0000     -10.316249      -280.7194
  56   2.0000     -10.314919      -280.6832
  57   2.0000     -10.313652      -280.6487
  58   2.0000     -10.311758      -280.5972
  59   2.0000     -10.310161      -280.5538
  60   2.0000     -10.309771      -280.5431
  61   2.0000     -10.308870      -280.5186
  62   2.0000     -10.308117      -280.4981
  63   2.0000     -10.304018      -280.3866
  64   2.0000     -10.303775      -280.3800
  65   2.0000     -10.302788      -280.3531
  66   2.0000     -10.302216      -280.3375
  67   2.0000     -10.301455      -280.3168
  68   2.0000     -10.299769      -280.2710
  69   2.0000     -10.298516      -280.2369
  70   2.0000     -10.297132      -280.1992
  71   2.0000     -10.294449      -280.1262
  72   2.0000     -10.290213      -280.0109
  73   2.0000     -10.289959      -280.0040
  74   2.0000     -10.289369      -279.9880
  75   2.0000     -10.287865      -279.9470
  76   2.0000     -10.286684      -279.9149
  77   2.0000     -10.286588      -279.9123
  78   2.0000     -10.278324      -279.6874
  79   2.0000      -8.790932      -239.2134
  80   2.0000      -8.092463      -220.2071
  81   2.0000      -8.088517      -220.0997
  82   2.0000      -8.086606      -220.0477
  83   2.0000      -8.079447      -219.8529
  84   2.0000      -8.072377      -219.6606
  85   2.0000      -8.068875      -219.5653
  86   2.0000      -8.065021      -219.4604
  87   2.0000      -6.627236      -180.3363
  88   2.0000      -6.612651      -179.9394
  89   2.0000      -6.612484      -179.9348
  90   2.0000      -6.061975      -164.9547
  91   2.0000      -6.058080      -164.8487
  92   2.0000      -6.057235      -164.8257
  93   2.0000      -6.056125      -164.7955
  94   2.0000      -6.054489      -164.7510
  95   2.0000      -6.053699      -164.7295
  96   2.0000      -6.051872      -164.6798
  97   2.0000      -6.050258      -164.6359
  98   2.0000      -6.049271      -164.6090
  99   2.0000      -6.048334      -164.5835
 100   2.0000      -6.044955      -164.4916
 101   2.0000      -6.042019      -164.4117
 102   2.0000      -6.040524      -164.3710
 103   2.0000      -6.038569      -164.3178
 104   2.0000      -6.037559      -164.2903
 105   2.0000      -6.034459      -164.2060
 106   2.0000      -6.034299      -164.2016
 107   2.0000      -6.034038      -164.1945
 108   2.0000      -6.030173      -164.0893
 109   2.0000      -6.030114      -164.0878
 110   2.0000      -6.027036      -164.0040
 111   2.0000      -2.743060       -74.6424
 112   2.0000      -2.739042       -74.5331
 113   2.0000      -2.738886       -74.5289
 114   2.0000      -2.727302       -74.2137
 115   2.0000      -2.727289       -74.2133
 116   2.0000      -1.323516       -36.0147
 117   2.0000      -1.318825       -35.8871
 118   2.0000      -1.191363       -32.4186
 119   2.0000      -1.141473       -31.0611
 120   2.0000      -1.125711       -30.6322
 121   2.0000      -1.105090       -30.0710
 122   2.0000      -1.048607       -28.5340
 123   2.0000      -1.034620       -28.1534
 124   2.0000      -1.033046       -28.1106
 125   2.0000      -1.025932       -27.9170
 126   2.0000      -1.022691       -27.8288
 127   2.0000      -1.018247       -27.7079
 128   2.0000      -1.010368       -27.4935
 129   2.0000      -1.006994       -27.4017
 130   2.0000      -0.999044       -27.1854
 131   2.0000      -0.994865       -27.0716
 132   2.0000      -0.986428       -26.8421
 133   2.0000      -0.983638       -26.7662
 134   2.0000      -0.980647       -26.6848
 135   2.0000      -0.975020       -26.5317
 136   2.0000      -0.969466       -26.3805
 137   2.0000      -0.946230       -25.7482
 138   2.0000      -0.938958       -25.5504
 139   2.0000      -0.930973       -25.3331
 140   2.0000      -0.915163       -24.9029
 141   2.0000      -0.914234       -24.8776
 142   2.0000      -0.907532       -24.6952
 143   2.0000      -0.903404       -24.5829
 144   2.0000      -0.893106       -24.3026
 145   2.0000      -0.886321       -24.1180
 146   2.0000      -0.882340       -24.0097
 147   2.0000      -0.880452       -23.9583
 148   2.0000      -0.876570       -23.8527
 149   2.0000      -0.868682       -23.6380
 150   2.0000      -0.865952       -23.5638
 151   2.0000      -0.858216       -23.3533
 152   2.0000      -0.838474       -22.8160
 153   2.0000      -0.835187       -22.7266
 154   2.0000      -0.830642       -22.6029
 155   2.0000      -0.825202       -22.4549
 156   2.0000      -0.819586       -22.3021
 157   2.0000      -0.804723       -21.8976
 158   2.0000      -0.801369       -21.8064
 159   2.0000      -0.797667       -21.7056
 160   2.0000      -0.794521       -21.6200
 161   2.0000      -0.780676       -21.2433
 162   2.0000      -0.764717       -20.8090
 163   2.0000      -0.752693       -20.4818
 164   2.0000      -0.750799       -20.4303
 165   2.0000      -0.741276       -20.1712
 166   2.0000      -0.731601       -19.9079
 167   2.0000      -0.728152       -19.8140
 168   2.0000      -0.711040       -19.3484
 169   2.0000      -0.705786       -19.2054
 170   2.0000      -0.703041       -19.1307
 171   2.0000      -0.697794       -18.9880
 172   2.0000      -0.685490       -18.6531
 173   2.0000      -0.684471       -18.6254
 174   2.0000      -0.683410       -18.5965
 175   2.0000      -0.680738       -18.5238
 176   2.0000      -0.678770       -18.4703
 177   2.0000      -0.676499       -18.4085
 178   2.0000      -0.667371       -18.1601
 179   2.0000      -0.660448       -17.9717
 180   2.0000      -0.655976       -17.8500
 181   2.0000      -0.653290       -17.7769
 182   2.0000      -0.650173       -17.6921
 183   2.0000      -0.646222       -17.5846
 184   2.0000      -0.637937       -17.3592
 185   2.0000      -0.632558       -17.2128
 186   2.0000      -0.618281       -16.8243
 187   2.0000      -0.616356       -16.7719
 188   2.0000      -0.613211       -16.6863
 189   2.0000      -0.601921       -16.3791
 190   2.0000      -0.596470       -16.2308
 191   2.0000      -0.592113       -16.1122
 192   2.0000      -0.589360       -16.0373
 193   2.0000      -0.588614       -16.0170
 194   2.0000      -0.586888       -15.9700
 195   2.0000      -0.583049       -15.8656
 196   2.0000      -0.580223       -15.7887
 197   2.0000      -0.578876       -15.7520
 198   2.0000      -0.575385       -15.6570
 199   2.0000      -0.569201       -15.4888
 200   2.0000      -0.562960       -15.3189
 201   2.0000      -0.557800       -15.1785
 202   2.0000      -0.555287       -15.1101
 203   2.0000      -0.552599       -15.0370
 204   2.0000      -0.547864       -14.9081
 205   2.0000      -0.545803       -14.8521
 206   2.0000      -0.541618       -14.7382
 207   2.0000      -0.539702       -14.6860
 208   2.0000      -0.537071       -14.6145
 209   2.0000      -0.535501       -14.5717
 210   2.0000      -0.534636       -14.5482
 211   2.0000      -0.531760       -14.4699
 212   2.0000      -0.530860       -14.4454
 213   2.0000      -0.529478       -14.4078
 214   2.0000      -0.527027       -14.3411
 215   2.0000      -0.526165       -14.3177
 216   2.0000      -0.525152       -14.2901
 217   2.0000      -0.522282       -14.2120
 218   2.0000      -0.521792       -14.1987
 219   2.0000      -0.518143       -14.0994
 220   2.0000      -0.517226       -14.0744
 221   2.0000      -0.514173       -13.9914
 222   2.0000      -0.512054       -13.9337
 223   2.0000      -0.509091       -13.8531
 224   2.0000      -0.506430       -13.7807
 225   2.0000      -0.504885       -13.7386
 226   2.0000      -0.504109       -13.7175
 227   2.0000      -0.501008       -13.6331
 228   2.0000      -0.500021       -13.6063
 229   2.0000      -0.497916       -13.5490
 230   2.0000      -0.494249       -13.4492
 231   2.0000      -0.490136       -13.3373
 232   2.0000      -0.489583       -13.3222
 233   2.0000      -0.486701       -13.2438
 234   2.0000      -0.483716       -13.1626
 235   2.0000      -0.478417       -13.0184
 236   2.0000      -0.477693       -12.9987
 237   2.0000      -0.474484       -12.9114
 238   2.0000      -0.470944       -12.8150
 239   2.0000      -0.467707       -12.7269
 240   2.0000      -0.466003       -12.6806
 241   2.0000      -0.465344       -12.6627
 242   2.0000      -0.463386       -12.6094
 243   2.0000      -0.459349       -12.4995
 244   2.0000      -0.457877       -12.4595
 245   2.0000      -0.455480       -12.3942
 246   2.0000      -0.452364       -12.3094
 247   2.0000      -0.446482       -12.1494
 248   2.0000      -0.445843       -12.1320
 249   2.0000      -0.444093       -12.0844
 250   2.0000      -0.443131       -12.0582
 251   2.0000      -0.441801       -12.0220
 252   2.0000      -0.441274       -12.0077
 253   2.0000      -0.437588       -11.9074
 254   2.0000      -0.437457       -11.9038
 255   2.0000      -0.437181       -11.8963
 256   2.0000      -0.435706       -11.8562
 257   2.0000      -0.434802       -11.8316
 258   2.0000      -0.433031       -11.7834
 259   2.0000      -0.431977       -11.7547
 260   2.0000      -0.430032       -11.7018
 261   2.0000      -0.429497       -11.6872
 262   2.0000      -0.425663       -11.5829
 263   2.0000      -0.422738       -11.5033
 264   2.0000      -0.420153       -11.4329
 265   2.0000      -0.418141       -11.3782
 266   2.0000      -0.416577       -11.3356
 267   2.0000      -0.414480       -11.2786
 268   2.0000      -0.411487       -11.1971
 269   2.0000      -0.410486       -11.1699
 270   2.0000      -0.402379       -10.9493
 271   2.0000      -0.398329       -10.8391
 272   2.0000      -0.392581       -10.6827
 273   2.0000      -0.390421       -10.6239
 274   2.0000      -0.382625       -10.4118
 275   2.0000      -0.373358       -10.1596
 276   2.0000      -0.367859       -10.0100
 277   2.0000      -0.364664        -9.9230
 278   2.0000      -0.362300        -9.8587
 279   2.0000      -0.358480        -9.7547
 280   2.0000      -0.357023        -9.7151
 281   2.0000      -0.345124        -9.3913
 282   2.0000      -0.343015        -9.3339
 283   2.0000      -0.335718        -9.1353
 284   2.0000      -0.332593        -9.0503
 285   2.0000      -0.328097        -8.9280
 286   2.0000      -0.314108        -8.5473
 287   2.0000      -0.312343        -8.4993
 288   2.0000      -0.311072        -8.4647
 289   2.0000      -0.309764        -8.4291
 290   2.0000      -0.293516        -7.9870
 291   2.0000      -0.289600        -7.8804
 292   2.0000      -0.266312        -7.2467
 293   2.0000      -0.240330        -6.5397
 294   0.0000      -0.118479        -3.2240
 295   0.0000      -0.096693        -2.6312
 296   0.0000      -0.086365        -2.3501
 297   0.0000      -0.065030        -1.7695
 298   0.0000      -0.054670        -1.4876

MULLIKEN ATOMIC CHARGES
-----------------------
   0 C :   -0.086146
   1 C :    0.007452
   2 C :    0.163771
   3 O :   -0.153882
   4 O :   -0.134103
   5 C :   -0.041105
   6 C :   -0.222674
   7 N :    0.118148
   8 C :   -0.039653
   9 C :    0.005791
  10 C :    0.070741
  11 C :    0.314885
  12 C :   -0.335471
  13 C :   -0.195283
  14 N :    0.173840
  15 C :   -0.200940
  16 N :    0.160158
  17 C :   -0.101232
  18 C :    0.131551
  19 O :   -0.171107
  20 C :    0.020817
  21 C :   -0.136869
  22 C :   -0.011236
  23 C :    0.033227
  24 C :    0.230115
  25 C :   -0.304588
  26 S :    0.214750
  27 C :    0.117294
  28 F :   -0.188342
  29 C :   -0.082564
  30 S :    0.147177
  31 C :   -0.115029
  32 C :   -0.070911
  33 C :    0.076799
  34 C :    0.229261
  35 C :   -0.286760
  36 S :    0.150894
  37 C :    0.116051
  38 F :   -0.182642
  39 C :   -0.098445
  40 S :    0.181304
  41 C :   -0.065730
  42 C :   -0.063582
  43 C :    0.079372
  44 C :    0.059649
  45 C :   -0.120466
  46 S :    0.181586
  47 C :   -0.111219
  48 C :    0.059910
  49 C :   -0.000667
  50 C :   -0.063385
  51 S :    0.136502
  52 C :    0.058671
  53 C :    0.067832
  54 C :   -0.041643
  55 C :    0.018550
  56 C :   -0.113697
  57 C :    0.281966
  58 C :   -0.346956
  59 C :   -0.182408
  60 N :    0.141437
  61 C :   -0.211606
  62 N :    0.154071
  63 C :    0.017322
  64 C :   -0.010314
  65 C :    0.144374
  66 O :   -0.164695
  67 C :   -0.079746
  68 C :    0.120241
  69 C :   -0.090752
  70 C :   -0.025544
  71 S :    0.183099
  72 C :   -0.124564
  73 C :    0.037175
  74 Br:    0.019775
  75 H :    0.031479
  76 H :    0.174991
  77 H :    0.012019
  78 H :    0.017112
  79 H :    0.038817
  80 H :    0.046642
  81 H :    0.041040
  82 H :    0.038414
  83 H :    0.046509
  84 H :    0.045100
  85 H :    0.010874
  86 H :    0.043741
  87 H :   -0.009588
  88 H :    0.032481
  89 H :   -0.003484
  90 H :   -0.014614
  91 H :    0.025160
  92 H :   -0.014236
  93 H :   -0.006517
  94 H :   -0.005542
Sum of atomic charges:   -0.0000000

LOEWDIN ATOMIC CHARGES
----------------------
   0 C :    0.037850
   1 C :   -0.038191
   2 C :    0.081485
   3 O :   -0.138494
   4 O :   -0.012881
   5 C :   -0.056034
   6 C :   -0.039001
   7 N :   -0.032257
   8 C :    0.040273
   9 C :   -0.026475
  10 C :    0.002794
  11 C :    0.068742
  12 C :   -0.128095
  13 C :   -0.026193
  14 N :   -0.032433
  15 C :   -0.021803
  16 N :   -0.046271
  17 C :   -0.117075
  18 C :    0.059347
  19 O :   -0.167466
  20 C :    0.034787
  21 C :   -0.193454
  22 C :   -0.155541
  23 C :   -0.104666
  24 C :    0.025752
  25 C :   -0.192311
  26 S :    0.501083
  27 C :   -0.055061
  28 F :   -0.066190
  29 C :   -0.140792
  30 S :    0.464391
  31 C :   -0.218091
  32 C :   -0.175459
  33 C :   -0.097837
  34 C :    0.028115
  35 C :   -0.183859
  36 S :    0.416814
  37 C :   -0.055002
  38 F :   -0.062284
  39 C :   -0.169365
  40 S :    0.496515
  41 C :   -0.183200
  42 C :   -0.016249
  43 C :    0.007333
  44 C :   -0.049027
  45 C :   -0.138607
  46 S :    0.498320
  47 C :   -0.200681
  48 C :   -0.030539
  49 C :   -0.062437
  50 C :   -0.158329
  51 S :    0.429463
  52 C :   -0.054409
  53 C :    0.062928
  54 C :   -0.070427
  55 C :    0.066560
  56 C :   -0.113760
  57 C :    0.075138
  58 C :   -0.151070
  59 C :   -0.019475
  60 N :   -0.062132
  61 C :   -0.026864
  62 N :   -0.059612
  63 C :   -0.020624
  64 C :   -0.048876
  65 C :    0.080448
  66 O :   -0.151559
  67 C :    0.017424
  68 C :   -0.034886
  69 C :   -0.145758
  70 C :   -0.011958
  71 S :    0.429924
  72 C :   -0.273410
  73 C :   -0.071098
  74 Br:    0.133487
  75 H :    0.050527
  76 H :    0.081805
  77 H :    0.049915
  78 H :    0.043831
  79 H :    0.044669
  80 H :    0.044499
  81 H :    0.042494
  82 H :    0.044700
  83 H :    0.044318
  84 H :    0.044118
  85 H :    0.034125
  86 H :    0.040146
  87 H :    0.031647
  88 H :    0.026392
  89 H :    0.032779
  90 H :    0.030203
  91 H :    0.044985
  92 H :    0.038990
  93 H :    0.040593
  94 H :    0.037859

  Mayer bond orders larger than 0.100000
B(  0-C ,  1-C ) :   1.3701 B(  0-C , 10-C ) :   1.3270 B(  0-C , 75-H ) :   0.9865
B(  1-C ,  2-C ) :   0.8542 B(  1-C ,  5-C ) :   1.3441 B(  2-C ,  3-O ) :   2.1736
B(  2-C ,  4-O ) :   1.2820 B(  4-O , 76-H ) :   0.9394 B(  5-C ,  6-C ) :   1.0568
B(  5-C ,  8-C ) :   1.3453 B(  6-C ,  7-N ) :   2.9739 B(  8-C ,  9-C ) :   1.3781
B(  8-C , 77-H ) :   1.0121 B(  9-C , 10-C ) :   1.3294 B(  9-C , 18-C ) :   0.9153
B( 10-C , 11-C ) :   0.9712 B( 11-C , 12-C ) :   1.6347 B( 11-C , 17-C ) :   1.1005
B( 12-C , 13-C ) :   1.1415 B( 12-C , 15-C ) :   1.1445 B( 13-C , 14-N ) :   2.9734
B( 15-C , 16-N ) :   2.9800 B( 17-C , 18-C ) :   1.0131 B( 17-C , 20-C ) :   1.4585
B( 18-C , 19-O ) :   2.1466 B( 20-C , 21-C ) :   1.3233 B( 20-C , 78-H ) :   0.9202
B( 21-C , 22-C ) :   1.3754 B( 21-C , 30-S ) :   1.0756 B( 22-C , 23-C ) :   1.2751
B( 22-C , 26-S ) :   1.1321 B( 23-C , 24-C ) :   1.0982 B( 23-C , 29-C ) :   1.3254
B( 24-C , 25-C ) :   1.6440 B( 24-C , 28-F ) :   1.1224 B( 25-C , 26-S ) :   1.0759
B( 25-C , 27-C ) :   1.0651 B( 27-C , 79-H ) :   0.9558 B( 27-C , 80-H ) :   0.9485
B( 27-C , 81-H ) :   0.9466 B( 29-C , 30-S ) :   1.1572 B( 29-C , 31-C ) :   1.2436
B( 31-C , 32-C ) :   1.4369 B( 31-C , 40-S ) :   1.1233 B( 32-C , 33-C ) :   1.2697
B( 32-C , 36-S ) :   1.0756 B( 33-C , 34-C ) :   1.0813 B( 33-C , 39-C ) :   1.3628
B( 34-C , 35-C ) :   1.6650 B( 34-C , 38-F ) :   1.1383 B( 35-C , 36-S ) :   1.0490
B( 35-C , 37-C ) :   1.0668 B( 37-C , 82-H ) :   0.9547 B( 37-C , 83-H ) :   0.9478
B( 37-C , 84-H ) :   0.9469 B( 39-C , 40-S ) :   1.1351 B( 39-C , 41-C ) :   1.1614
B( 41-C , 42-C ) :   1.4629 B( 41-C , 46-S ) :   1.0897 B( 42-C , 43-C ) :   1.2892
B( 42-C , 85-H ) :   0.9589 B( 43-C , 44-C ) :   1.0647 B( 43-C , 52-C ) :   1.3119
B( 44-C , 45-C ) :   1.5763 B( 44-C , 47-C ) :   1.1853 B( 45-C , 46-S ) :   1.1628
B( 45-C , 86-H ) :   0.9399 B( 47-C , 48-C ) :   1.4433 B( 47-C , 51-S ) :   1.0805
B( 48-C , 49-C ) :   1.2161 B( 48-C , 52-C ) :   1.0814 B( 49-C , 50-C ) :   1.5872
B( 49-C , 87-H ) :   0.9999 B( 50-C , 51-S ) :   1.1560 B( 50-C , 88-H ) :   0.9650
B( 52-C , 53-C ) :   1.2590 B( 53-C , 54-C ) :   1.5217 B( 53-C , 89-H ) :   0.9382
B( 54-C , 55-C ) :   1.2605 B( 54-C , 90-H ) :   0.9623 B( 55-C , 56-C ) :   1.5173
B( 55-C , 91-H ) :   0.9514 B( 56-C , 57-C ) :   1.0818 B( 56-C , 65-C ) :   0.9634
B( 57-C , 58-C ) :   1.6278 B( 57-C , 63-C ) :   1.0025 B( 58-C , 59-C ) :   1.1379
B( 58-C , 61-C ) :   1.1420 B( 59-C , 60-N ) :   2.9735 B( 61-C , 62-N ) :   3.0105
B( 63-C , 64-C ) :   1.2746 B( 63-C , 70-C ) :   1.4138 B( 64-C , 65-C ) :   0.9467
B( 64-C , 67-C ) :   1.4299 B( 65-C , 66-O ) :   2.1831 B( 67-C , 68-C ) :   1.2385
B( 67-C , 92-H ) :   1.0176 B( 68-C , 69-C ) :   1.3122 B( 68-C , 73-C ) :   1.1629
B( 69-C , 70-C ) :   1.3229 B( 69-C , 71-S ) :   1.0841 B( 70-C , 93-H ) :   0.9830
B( 71-S , 72-C ) :   1.0865 B( 72-C , 73-C ) :   1.6199 B( 72-C , 74-Br) :   1.0157
B( 73-C , 94-H ) :   0.9999

-----------------------------------------------------------------------------
         ABSORPTION SPECTRUM VIA TRANSITION ELECTRIC DIPOLE MOMENTS
-----------------------------------------------------------------------------
State   Energy  Wavelength   fosc         T2         TX        TY        TZ
        (cm-1)    (nm)                  (au**2)     (au)      (au)      (au)
-----------------------------------------------------------------------------
   0   12380.4    807.7   1.068626345  28.41624  -1.73337   5.01114   0.54788
   1   17639.5    566.9   0.839941913  15.67611   2.82772   2.16117   1.73478
   2   18470.4    541.4   0.058291181   1.03897   0.45239  -0.89149  -0.19888
   3   20174.6    495.7   0.396031004   6.46248   1.55890   1.23701   1.58181
   4   22708.1    440.4   0.105405897   1.52813  -0.97535  -0.60118  -0.46411
   5   23116.4    432.6   0.139145858   1.98164  -1.25474  -0.59584  -0.22856
   6   23674.9    422.4   0.015489357   0.21539  -0.02670  -0.22819  -0.40324
   7   24249.7    412.4   0.088621254   1.20312  -1.09609  -0.02580   0.03217
   8   25471.9    392.6   0.029117920   0.37633  -0.05825  -0.51330   0.33085
   9   25637.0    390.1   0.033638241   0.43196   0.39351   0.49984  -0.16513
  10   26043.7    384.0   0.162258295   2.05106   1.09792   0.34693  -0.85163
  11   26444.2    378.2   0.035533811   0.44237  -0.19590   0.61929  -0.14306
  12   27121.0    368.7   0.047284864   0.57397  -0.34095  -0.60443  -0.30396
  13   27379.7    365.2   0.045908287   0.55200   0.09884  -0.68479   0.27073
  14   28617.4    349.4   0.047021157   0.54093  -0.08426  -0.60260   0.41316
  15   28881.6    346.2   0.018106888   0.20639   0.24334  -0.32919   0.19702
  16   29503.4    338.9   0.043620093   0.48673   0.69764  -0.00074  -0.00541
  17   29769.7    335.9   0.042862368   0.47400  -0.63312   0.13834  -0.23243
  18   30325.5    329.8   0.046190749   0.50144   0.00149   0.17466   0.68625
  19   30412.9    328.8   0.218542107   2.36566   1.39642   0.48790  -0.42147
  20   30809.3    324.6   0.028177520   0.30109   0.32139   0.18572  -0.40411
  21   31014.4    322.4   0.189261199   2.00897   0.19880   0.02597  -1.40313
  22   31072.8    321.8   0.117234432   1.24208   1.09007  -0.18711   0.13722
  23   31301.2    319.5   0.039292440   0.41326   0.23029   0.23657  -0.55160
  24   32113.2    311.4   0.150461141   1.54247   0.55407  -0.73421   0.83451
  25   32511.0    307.6   0.164829915   1.66910   0.85072   0.47930  -0.84596
  26   32762.3    305.2   0.122190497   1.22783  -0.14360  -0.54653   0.95316
  27   33051.5    302.6   0.046651638   0.46468   0.10769   0.30340  -0.60085
  28   33404.4    299.4   0.030723605   0.30279   0.33392  -0.37231  -0.22952
  29   33757.6    296.2   0.237430906   2.31548  -0.45768  -0.62693  -1.30880
  30   33960.3    294.5   0.062719403   0.60800  -0.63626   0.44982  -0.02891
  31   34039.4    293.8   0.192191360   1.85878  -0.23997   0.88276  -1.01091
  32   34678.3    288.4   0.040245504   0.38206   0.14462  -0.34618  -0.49123
  33   34809.7    287.3   0.209332222   1.97975   0.08530  -1.36920  -0.31266
  34   34912.6    286.4   0.034799135   0.32814   0.26214  -0.23715  -0.45076
  35   34941.3    286.2   0.229572288   2.16299  -0.05417  -0.91746   1.14818
  36   35609.7    280.8   0.012572041   0.11623  -0.12104   0.29734  -0.11474
  37   35692.8    280.2   0.006240796   0.05756  -0.03726   0.01711   0.23639
  38   35849.3    278.9   0.060562848   0.55616   0.01954  -0.31046   0.67779
  39   36040.8    277.5   0.126267109   1.15338  -0.09312   0.54420   0.92117
  40   36102.8    277.0   0.204022217   1.86043   0.38350  -0.56302   1.18168
  41   36496.2    274.0   0.044517256   0.40157  -0.32702  -0.04452  -0.54096
  42   36614.7    273.1   0.012962800   0.11655   0.06714  -0.25070   0.22180
  43   36789.1    271.8   0.010804399   0.09668   0.22364  -0.11416  -0.18341
  44   37158.9    269.1   0.340411798   3.01590   0.53117  -1.18376   1.15433
  45   37550.2    266.3   0.072731730   0.63766  -0.55215  -0.39136   0.42383
  46   37650.2    265.6   0.067058027   0.58635   0.63889   0.42164   0.01976
  47   37755.2    264.9   0.037288182   0.32514   0.01433   0.11689   0.55792
  48   38017.8    263.0   0.039816672   0.34479   0.15510   0.38059  -0.41938
  49   38201.5    261.8   0.089558457   0.77180  -0.72118   0.08212  -0.49493
  50   38361.6    260.7   0.039174387   0.33619  -0.16204   0.39754  -0.38973
  51   38627.5    258.9   0.345644056   2.94583  -0.55485   0.48149  -1.55117
  52   38829.0    257.5   0.191560991   1.62415  -0.21888   1.13972  -0.52657
  53   39225.5    254.9   0.045568995   0.38245  -0.28399   0.50489   0.21654
  54   39270.4    254.6   0.037471480   0.31413   0.28550   0.48051   0.04159
  55   39478.0    253.3   0.014983758   0.12495   0.11143   0.33230   0.04595
  56   39532.4    253.0   0.143568800   1.19559   0.78713  -0.21318   0.72840
  57   39765.2    251.5   0.013864963   0.11479  -0.03353   0.11712   0.31614
  58   40029.9    249.8   0.088672625   0.72926  -0.03086  -0.14974   0.84017

FINAL SINGLE POINT ENERGY     -8277.034011272179

DIPOLE MOMENT
-------------
                                X             Y             Z
Electronic contribution:     91.31033     -14.40775     -48.03352
Nuclear contribution   :    -94.13767      10.18317      44.52851
                        -----------------------------------------
Total Dipole Moment    :     -2.82735      -4.22459      -3.50500
                        -----------------------------------------
Magnitude (a.u.)       :      6.17463
Magnitude (Debye)      :     15.69467

Rotational constants in cm-1:     0.000665     0.000321     0.000264
Rotational constants in MHz :    19.932460     9.628651     7.925661

                             ****ORCA TERMINATED NORMALLY****
TOTAL RUN TIME: 0 days 0 hours 11 minutes 4 seconds 6 msec
