                         Program Version 4.2.0 -  RELEASE  -
|  1> # ORCA input file
|  2> # SCF done       -144.346638277036          0.001663386292
|  3> ! CAM-B3LYP def2-SVP def2/J RIJCOSX Grid4 TightSCF
|  4> %maxcore 5000
|  5> %tddft
|  6>     Mode sTDDFT
|  7>     Ethresh 5.0
|  8>     maxcore 5000
|  9> end
| 10>
| 11> %pal
| 12>   nprocs 6
| 13>   end
| 14> * xyz 0 1
| 15>    C       -2.81104         3.52868        -1.74456
| 16>    C       -3.30320         2.78677        -0.72498
| 17>    C       -2.46132         2.11365         0.29791
| 18>    C       -1.05395         2.17993         0.24399
| 19>    C       -0.39414         2.86989        -0.71197
| 20>    S       -1.13449         3.77172        -1.98747
| 21>    N       -3.17425         1.48704         1.20541
| 22>    C       -4.48510         1.68580         0.86660
| 23>    C       -4.61236         2.45870        -0.30583
| 24>    S       -6.24950         2.70740        -0.74753
| 25>    C       -6.77609         1.79029         0.65963
| 26>    C       -5.72232         1.31678         1.41048
| 27>    C       -8.17990         1.66165         0.86865
| 28>    C       -8.77716         1.14590         1.95807
| 29>    C      -10.21955         1.09857         2.07391
| 30>    N      -10.72672         0.69658         3.24520
| 31>    C      -12.04387         0.69012         3.35265
| 32>    C      -12.88352         1.06538         2.31829
| 33>    C      -12.26699         1.44586         1.11520
| 34>    N      -10.93739         1.46041         1.01797
| 35>    C      -13.02040         1.82456        -0.05432
| 36>    C      -12.40529         2.09393        -1.23129
| 37>    C      -13.05201         2.45568        -2.42947
| 38>    C      -12.38921         2.66626        -3.60851
| 39>    C      -12.96261         3.01683        -4.86085
| 40>    C      -12.06518         3.13068        -5.87296
| 41>    C      -10.72293         2.87778        -5.48764
| 42>    S      -10.64517         2.50553        -3.77997
| 43>    C       -9.60102         2.88239        -6.28523
| 44>    C       -9.55422         3.13053        -7.68096
| 45>    C       -8.30834         3.02817        -8.20668
| 46>    C       -7.30293         2.69586        -7.25453
| 47>    S       -7.98986         2.53343        -5.65638
| 48>    C       -5.97564         2.49956        -7.49551
| 49>    C       -5.08485         2.15643        -6.43661
| 50>    N       -5.61964         2.08823        -5.20681
| 51>    C       -4.82425         1.77607        -4.20572
| 52>    C       -3.47484         1.52428        -4.39609
| 53>    C       -2.99532         1.60384        -5.71344
| 54>    N       -3.80311         1.92058        -6.71990
| 55>    C       -1.60324         1.33005        -6.01558
| 56>    C       -1.15732         1.21753        -7.27650
| 57>    C        0.18844         0.89838        -7.67253
| 58>    C        1.34593         1.17755        -6.99109
| 59>    C        2.69935         0.75612        -7.44074
| 60>    C        2.90751         0.00749        -8.61615
| 61>    C        1.89961        -0.32388        -9.45128
| 62>    S        0.24138         0.07551        -9.20809
| 63>    N        3.65474         1.17441        -6.64070
| 64>    C        3.03965         1.89509        -5.65984
| 65>    C        1.63868         1.91473        -5.82322
| 66>    S        0.88159         2.88021        -4.61744
| 67>    C        2.44160         3.25188        -3.90000
| 68>    C        3.48221         2.64636        -4.56165
| 69>    C        2.46693         4.12520        -2.75757
| 70>    C        3.53920         4.38730        -2.01366
| 71>    H       -3.43739         4.02147        -2.47231
| 72>    H       -0.49626         1.65481         1.00487
| 73>    H        0.68224         2.91701        -0.75061
| 74>    H       -5.84403         0.73066         2.30170
| 75>    H       -8.81593         2.04067         0.07892
| 76>    H       -8.22460         0.77139         2.80542
| 77>    H      -12.43486         0.36842         4.31090
| 78>    H      -13.95639         1.05707         2.42415
| 79>    H      -14.09671         1.86975         0.04051
| 80>    H      -11.32643         2.01294        -1.25557
| 81>    H      -14.12898         2.56458        -2.42783
| 82>    H      -14.02302         3.16755        -4.96470
| 83>    H      -12.32458         3.38535        -6.88499
| 84>    H      -10.43320         3.36805        -8.25396
| 85>    H       -8.06476         3.17298        -9.24469
| 86>    H       -5.57148         2.58871        -8.49063
| 87>    H       -5.28641         1.72973        -3.22803
| 88>    H       -2.82399         1.26420        -3.57741
| 89>    H       -0.95241         1.17442        -5.16870
| 90>    H       -1.88297         1.30509        -8.07548
| 91>    H        3.92095        -0.28144        -8.85017
| 92>    H        2.05641        -0.87669       -10.36258
| 93>    H        4.51357         2.75492        -4.28434
| 94>    H        1.51743         4.58852        -2.51814
| 95>    H        4.49868         3.94450        -2.21733
| 96>    H        3.48665         5.05795        -1.17407
| 97> *
| 98>
| 99>                          ****END OF INPUT****

CARTESIAN COORDINATES (ANGSTROEM)
---------------------------------
  C     -2.811040    3.528680   -1.744560
  C     -3.303200    2.786770   -0.724980
  C     -2.461320    2.113650    0.297910
  C     -1.053950    2.179930    0.243990
  C     -0.394140    2.869890   -0.711970
  S     -1.134490    3.771720   -1.987470
  N     -3.174250    1.487040    1.205410
  C     -4.485100    1.685800    0.866600
  C     -4.612360    2.458700   -0.305830
  S     -6.249500    2.707400   -0.747530
  C     -6.776090    1.790290    0.659630
  C     -5.722320    1.316780    1.410480
  C     -8.179900    1.661650    0.868650
  C     -8.777160    1.145900    1.958070
  C    -10.219550    1.098570    2.073910
  N    -10.726720    0.696580    3.245200
  C    -12.043870    0.690120    3.352650
  C    -12.883520    1.065380    2.318290
  C    -12.266990    1.445860    1.115200
  N    -10.937390    1.460410    1.017970
  C    -13.020400    1.824560   -0.054320
  C    -12.405290    2.093930   -1.231290
  C    -13.052010    2.455680   -2.429470
  C    -12.389210    2.666260   -3.608510
  C    -12.962610    3.016830   -4.860850
  C    -12.065180    3.130680   -5.872960
  C    -10.722930    2.877780   -5.487640
  S    -10.645170    2.505530   -3.779970
  C     -9.601020    2.882390   -6.285230
  C     -9.554220    3.130530   -7.680960
  C     -8.308340    3.028170   -8.206680
  C     -7.302930    2.695860   -7.254530
  S     -7.989860    2.533430   -5.656380
  C     -5.975640    2.499560   -7.495510
  C     -5.084850    2.156430   -6.436610
  N     -5.619640    2.088230   -5.206810
  C     -4.824250    1.776070   -4.205720
  C     -3.474840    1.524280   -4.396090
  C     -2.995320    1.603840   -5.713440
  N     -3.803110    1.920580   -6.719900
  C     -1.603240    1.330050   -6.015580
  C     -1.157320    1.217530   -7.276500
  C      0.188440    0.898380   -7.672530
  C      1.345930    1.177550   -6.991090
  C      2.699350    0.756120   -7.440740
  C      2.907510    0.007490   -8.616150
  C      1.899610   -0.323880   -9.451280
  S      0.241380    0.075510   -9.208090
  N      3.654740    1.174410   -6.640700
  C      3.039650    1.895090   -5.659840
  C      1.638680    1.914730   -5.823220
  S      0.881590    2.880210   -4.617440
  C      2.441600    3.251880   -3.900000
  C      3.482210    2.646360   -4.561650
  C      2.466930    4.125200   -2.757570
  C      3.539200    4.387300   -2.013660
  H     -3.437390    4.021470   -2.472310
  H     -0.496260    1.654810    1.004870
  H      0.682240    2.917010   -0.750610
  H     -5.844030    0.730660    2.301700
  H     -8.815930    2.040670    0.078920
  H     -8.224600    0.771390    2.805420
  H    -12.434860    0.368420    4.310900
  H    -13.956390    1.057070    2.424150
  H    -14.096710    1.869750    0.040510
  H    -11.326430    2.012940   -1.255570
  H    -14.128980    2.564580   -2.427830
  H    -14.023020    3.167550   -4.964700
  H    -12.324580    3.385350   -6.884990
  H    -10.433200    3.368050   -8.253960
  H     -8.064760    3.172980   -9.244690
  H     -5.571480    2.588710   -8.490630
  H     -5.286410    1.729730   -3.228030
  H     -2.823990    1.264200   -3.577410
  H     -0.952410    1.174420   -5.168700
  H     -1.882970    1.305090   -8.075480
  H      3.920950   -0.281440   -8.850170
  H      2.056410   -0.876690  -10.362580
  H      4.513570    2.754920   -4.284340
  H      1.517430    4.588520   -2.518140
  H      4.498680    3.944500   -2.217330
  H      3.486650    5.057950   -1.174070

 Total Charge           Charge          ....    0
 Multiplicity           Mult            ....    1
 Number of Electrons    NEL             ....  428
 Basis Dimension        Dim             ....  938

ORBITAL ENERGIES
----------------

  NO   OCC          E(Eh)            E(eV)
   0   2.0000     -88.979896     -2421.2661
   1   2.0000     -88.973550     -2421.0934
   2   2.0000     -88.951353     -2420.4894
   3   2.0000     -88.950795     -2420.4742
   4   2.0000     -88.942750     -2420.2553
   5   2.0000     -88.936743     -2420.0918
   6   2.0000     -14.407692      -392.0532
   7   2.0000     -14.405018      -391.9805
   8   2.0000     -14.391369      -391.6091
   9   2.0000     -14.390292      -391.5797
  10   2.0000     -14.378658      -391.2632
  11   2.0000     -14.376189      -391.1960
  12   2.0000     -10.338404      -281.3223
  13   2.0000     -10.334318      -281.2111
  14   2.0000     -10.327981      -281.0387
  15   2.0000     -10.327545      -281.0268
  16   2.0000     -10.326860      -281.0082
  17   2.0000     -10.319165      -280.7987
  18   2.0000     -10.315146      -280.6894
  19   2.0000     -10.314465      -280.6709
  20   2.0000     -10.313930      -280.6563
  21   2.0000     -10.311354      -280.5862
  22   2.0000     -10.309660      -280.5401
  23   2.0000     -10.306469      -280.4533
  24   2.0000     -10.306236      -280.4469
  25   2.0000     -10.304887      -280.4102
  26   2.0000     -10.303463      -280.3715
  27   2.0000     -10.297943      -280.2213
  28   2.0000     -10.295722      -280.1608
  29   2.0000     -10.295599      -280.1575
  30   2.0000     -10.295512      -280.1551
  31   2.0000     -10.294143      -280.1179
  32   2.0000     -10.292925      -280.0847
  33   2.0000     -10.290630      -280.0223
  34   2.0000     -10.289328      -279.9868
  35   2.0000     -10.288562      -279.9660
  36   2.0000     -10.287086      -279.9258
  37   2.0000     -10.286658      -279.9142
  38   2.0000     -10.286355      -279.9060
  39   2.0000     -10.285071      -279.8710
  40   2.0000     -10.284732      -279.8618
  41   2.0000     -10.283334      -279.8238
  42   2.0000     -10.280910      -279.7578
  43   2.0000     -10.280124      -279.7364
  44   2.0000     -10.277632      -279.6686
  45   2.0000     -10.277380      -279.6617
  46   2.0000     -10.277353      -279.6610
  47   2.0000     -10.274817      -279.5920
  48   2.0000     -10.272385      -279.5258
  49   2.0000     -10.270476      -279.4739
  50   2.0000     -10.269165      -279.4382
  51   2.0000     -10.268295      -279.4145
  52   2.0000     -10.265511      -279.3388
  53   2.0000     -10.264159      -279.3020
  54   2.0000     -10.264156      -279.3019
  55   2.0000     -10.258126      -279.1378
  56   2.0000      -8.074846      -219.7277
  57   2.0000      -8.069117      -219.5718
  58   2.0000      -8.045596      -218.9318
  59   2.0000      -8.045217      -218.9215
  60   2.0000      -8.038928      -218.7503
  61   2.0000      -8.030320      -218.5161
  62   2.0000      -6.044271      -164.4730
  63   2.0000      -6.039508      -164.3434
  64   2.0000      -6.038567      -164.3178
  65   2.0000      -6.037319      -164.2838
  66   2.0000      -6.033951      -164.1922
  67   2.0000      -6.031281      -164.1195
  68   2.0000      -6.015006      -163.6766
  69   2.0000      -6.014635      -163.6665
  70   2.0000      -6.011040      -163.5687
  71   2.0000      -6.010671      -163.5587
  72   2.0000      -6.008633      -163.5032
  73   2.0000      -6.007533      -163.4733
  74   2.0000      -6.007160      -163.4631
  75   2.0000      -6.004695      -163.3961
  76   2.0000      -6.000442      -163.2803
  77   2.0000      -5.999786      -163.2625
  78   2.0000      -5.995755      -163.1528
  79   2.0000      -5.991302      -163.0316
  80   2.0000      -1.080637       -29.4056
  81   2.0000      -1.066132       -29.0109
  82   2.0000      -1.044597       -28.4249
  83   2.0000      -1.043964       -28.4077
  84   2.0000      -0.992163       -26.9981
  85   2.0000      -0.983904       -26.7734
  86   2.0000      -0.971238       -26.4287
  87   2.0000      -0.968889       -26.3648
  88   2.0000      -0.967837       -26.3362
  89   2.0000      -0.965328       -26.2679
  90   2.0000      -0.957078       -26.0434
  91   2.0000      -0.954365       -25.9696
  92   2.0000      -0.915519       -24.9125
  93   2.0000      -0.908417       -24.7193
  94   2.0000      -0.900633       -24.5075
  95   2.0000      -0.891866       -24.2689
  96   2.0000      -0.881505       -23.9870
  97   2.0000      -0.874077       -23.7848
  98   2.0000      -0.864407       -23.5217
  99   2.0000      -0.854519       -23.2526
 100   2.0000      -0.852404       -23.1951
 101   2.0000      -0.851133       -23.1605
 102   2.0000      -0.848046       -23.0765
 103   2.0000      -0.837971       -22.8024
 104   2.0000      -0.830419       -22.5969
 105   2.0000      -0.815334       -22.1864
 106   2.0000      -0.805153       -21.9093
 107   2.0000      -0.803661       -21.8687
 108   2.0000      -0.792409       -21.5625
 109   2.0000      -0.792056       -21.5529
 110   2.0000      -0.789465       -21.4824
 111   2.0000      -0.758121       -20.6295
 112   2.0000      -0.755641       -20.5620
 113   2.0000      -0.748034       -20.3550
 114   2.0000      -0.728047       -19.8112
 115   2.0000      -0.720634       -19.6095
 116   2.0000      -0.711703       -19.3664
 117   2.0000      -0.705417       -19.1954
 118   2.0000      -0.698271       -19.0009
 119   2.0000      -0.686857       -18.6903
 120   2.0000      -0.683878       -18.6093
 121   2.0000      -0.678299       -18.4575
 122   2.0000      -0.661329       -17.9957
 123   2.0000      -0.659724       -17.9520
 124   2.0000      -0.651218       -17.7205
 125   2.0000      -0.641643       -17.4600
 126   2.0000      -0.635350       -17.2888
 127   2.0000      -0.632143       -17.2015
 128   2.0000      -0.622091       -16.9280
 129   2.0000      -0.617241       -16.7960
 130   2.0000      -0.614278       -16.7153
 131   2.0000      -0.608046       -16.5458
 132   2.0000      -0.601718       -16.3736
 133   2.0000      -0.598252       -16.2793
 134   2.0000      -0.593954       -16.1623
 135   2.0000      -0.591934       -16.1073
 136   2.0000      -0.585800       -15.9404
 137   2.0000      -0.580882       -15.8066
 138   2.0000      -0.575596       -15.6628
 139   2.0000      -0.561871       -15.2893
 140   2.0000      -0.560239       -15.2449
 141   2.0000      -0.558038       -15.1850
 142   2.0000      -0.553292       -15.0558
 143   2.0000      -0.550660       -14.9842
 144   2.0000      -0.548751       -14.9323
 145   2.0000      -0.541032       -14.7222
 146   2.0000      -0.535478       -14.5711
 147   2.0000      -0.534024       -14.5315
 148   2.0000      -0.529959       -14.4209
 149   2.0000      -0.525577       -14.3017
 150   2.0000      -0.521627       -14.1942
 151   2.0000      -0.516167       -14.0456
 152   2.0000      -0.513616       -13.9762
 153   2.0000      -0.510725       -13.8975
 154   2.0000      -0.509661       -13.8686
 155   2.0000      -0.509052       -13.8520
 156   2.0000      -0.504657       -13.7324
 157   2.0000      -0.500783       -13.6270
 158   2.0000      -0.498439       -13.5632
 159   2.0000      -0.492661       -13.4060
 160   2.0000      -0.490156       -13.3378
 161   2.0000      -0.488290       -13.2871
 162   2.0000      -0.483706       -13.1623
 163   2.0000      -0.480310       -13.0699
 164   2.0000      -0.474181       -12.9031
 165   2.0000      -0.471791       -12.8381
 166   2.0000      -0.468357       -12.7447
 167   2.0000      -0.466164       -12.6850
 168   2.0000      -0.464044       -12.6273
 169   2.0000      -0.461898       -12.5689
 170   2.0000      -0.460410       -12.5284
 171   2.0000      -0.459089       -12.4924
 172   2.0000      -0.455431       -12.3929
 173   2.0000      -0.450228       -12.2513
 174   2.0000      -0.444202       -12.0873
 175   2.0000      -0.438352       -11.9282
 176   2.0000      -0.434957       -11.8358
 177   2.0000      -0.433705       -11.8017
 178   2.0000      -0.430700       -11.7199
 179   2.0000      -0.427682       -11.6378
 180   2.0000      -0.424913       -11.5625
 181   2.0000      -0.424467       -11.5503
 182   2.0000      -0.423470       -11.5232
 183   2.0000      -0.421981       -11.4827
 184   2.0000      -0.419285       -11.4093
 185   2.0000      -0.414396       -11.2763
 186   2.0000      -0.412512       -11.2250
 187   2.0000      -0.404629       -11.0105
 188   2.0000      -0.403964       -10.9924
 189   2.0000      -0.395757       -10.7691
 190   2.0000      -0.393202       -10.6996
 191   2.0000      -0.392449       -10.6791
 192   2.0000      -0.374500       -10.1907
 193   2.0000      -0.370545       -10.0830
 194   2.0000      -0.362755        -9.8711
 195   2.0000      -0.360524        -9.8104
 196   2.0000      -0.357819        -9.7368
 197   2.0000      -0.342328        -9.3152
 198   2.0000      -0.336292        -9.1510
 199   2.0000      -0.333616        -9.0782
 200   2.0000      -0.332471        -9.0470
 201   2.0000      -0.326441        -8.8829
 202   2.0000      -0.325868        -8.8673
 203   2.0000      -0.323337        -8.7985
 204   2.0000      -0.317019        -8.6265
 205   2.0000      -0.311887        -8.4869
 206   2.0000      -0.310950        -8.4614
 207   2.0000      -0.308841        -8.4040
 208   2.0000      -0.284968        -7.7544
 209   2.0000      -0.269972        -7.3463
 210   2.0000      -0.267067        -7.2672
 211   2.0000      -0.252719        -6.8768
 212   2.0000      -0.248108        -6.7514
 213   2.0000      -0.219263        -5.9665
 214   0.0000      -0.081534        -2.2186
 215   0.0000      -0.069571        -1.8931
 216   0.0000      -0.048654        -1.3239
 217   0.0000      -0.024122        -0.6564
 218   0.0000      -0.022675        -0.6170

MULLIKEN ATOMIC CHARGES
-----------------------
   0 C :   -0.155302
   1 C :    0.061499
   2 C :   -0.009682
   3 C :    0.057466
   4 C :   -0.098799
   5 S :    0.124882
   6 N :   -0.059649
   7 C :    0.091666
   8 C :   -0.109126
   9 S :    0.139819
  10 C :   -0.069826
  11 C :   -0.058957
  12 C :    0.081648
  13 C :    0.025782
  14 C :   -0.063348
  15 N :   -0.078493
  16 C :    0.078899
  17 C :   -0.049269
  18 C :    0.057509
  19 N :   -0.077166
  20 C :   -0.022393
  21 C :    0.043008
  22 C :   -0.008917
  23 C :   -0.013730
  24 C :    0.037885
  25 C :    0.034082
  26 C :   -0.054021
  27 S :    0.084593
  28 C :   -0.042627
  29 C :    0.034185
  30 C :    0.036002
  31 C :    0.018264
  32 S :    0.127828
  33 C :   -0.029199
  34 C :    0.010239
  35 N :   -0.151261
  36 C :    0.098479
  37 C :   -0.061924
  38 C :    0.036459
  39 N :   -0.060597
  40 C :   -0.002650
  41 C :    0.054158
  42 C :   -0.147078
  43 C :    0.080490
  44 C :   -0.023905
  45 C :    0.060435
  46 C :   -0.090561
  47 S :    0.151020
  48 N :   -0.069502
  49 C :    0.081637
  50 C :   -0.136973
  51 S :    0.103876
  52 C :   -0.073144
  53 C :   -0.054602
  54 C :    0.023951
  55 C :   -0.019564
  56 H :    0.047401
  57 H :    0.000705
  58 H :    0.052466
  59 H :   -0.017425
  60 H :    0.002017
  61 H :   -0.015199
  62 H :    0.000195
  63 H :   -0.013203
  64 H :   -0.026727
  65 H :    0.025351
  66 H :   -0.016606
  67 H :   -0.009728
  68 H :   -0.011966
  69 H :   -0.016807
  70 H :   -0.013271
  71 H :   -0.023209
  72 H :   -0.001387
  73 H :    0.005831
  74 H :    0.003646
  75 H :    0.020993
  76 H :   -0.002163
  77 H :    0.051156
  78 H :   -0.024516
  79 H :   -0.011800
  80 H :    0.023146
  81 H :    0.027601
Sum of atomic charges:   -0.0000000

LOEWDIN ATOMIC CHARGES
----------------------
   0 C :   -0.145938
   1 C :   -0.075015
   2 C :    0.004875
   3 C :   -0.030284
   4 C :   -0.175240
   5 S :    0.474840
   6 N :   -0.120315
   7 C :   -0.026220
   8 C :   -0.235397
   9 S :    0.427483
  10 C :   -0.152855
  11 C :   -0.048442
  12 C :   -0.010958
  13 C :   -0.034243
  14 C :    0.030355
  15 N :   -0.103001
  16 C :    0.047098
  17 C :   -0.075347
  18 C :    0.035263
  19 N :   -0.091109
  20 C :   -0.046720
  21 C :    0.007881
  22 C :   -0.058932
  23 C :   -0.132083
  24 C :   -0.031159
  25 C :   -0.025254
  26 C :   -0.167692
  27 S :    0.379428
  28 C :   -0.192209
  29 C :   -0.021362
  30 C :   -0.036886
  31 C :   -0.113798
  32 S :    0.418844
  33 C :   -0.089982
  34 C :    0.030324
  35 N :   -0.109640
  36 C :    0.056347
  37 C :   -0.074891
  38 C :    0.031379
  39 N :   -0.092842
  40 C :   -0.016536
  41 C :   -0.014566
  42 C :   -0.133550
  43 C :   -0.066439
  44 C :    0.006758
  45 C :   -0.032592
  46 C :   -0.177568
  47 S :    0.467446
  48 N :   -0.123753
  49 C :   -0.025814
  50 C :   -0.233339
  51 S :    0.419854
  52 C :   -0.161254
  53 C :   -0.053579
  54 C :   -0.050377
  55 C :   -0.037638
  56 H :    0.036510
  57 H :    0.047678
  58 H :    0.033866
  59 H :    0.035627
  60 H :    0.030824
  61 H :    0.030849
  62 H :    0.023909
  63 H :    0.030036
  64 H :    0.024994
  65 H :    0.026869
  66 H :    0.031420
  67 H :    0.034377
  68 H :    0.032342
  69 H :    0.028808
  70 H :    0.032896
  71 H :    0.033708
  72 H :    0.017486
  73 H :    0.032965
  74 H :    0.023168
  75 H :    0.034577
  76 H :    0.046453
  77 H :    0.034041
  78 H :    0.033097
  79 H :    0.017975
  80 H :    0.024759
  81 H :    0.027410

  Mayer bond orders larger than 0.100000
B(  0-C ,  1-C ) :   1.5506 B(  0-C ,  5-S ) :   1.1633 B(  0-C , 56-H ) :   0.9445
B(  1-C ,  2-C ) :   1.0124 B(  1-C ,  8-C ) :   1.1980 B(  2-C ,  3-C ) :   1.1938
B(  2-C ,  6-N ) :   1.6793 B(  3-C ,  4-C ) :   1.6326 B(  3-C , 57-H ) :   0.9782
B(  4-C ,  5-S ) :   1.1140 B(  4-C , 58-H ) :   0.9368 B(  6-N ,  7-C ) :   1.2930
B(  7-C ,  8-C ) :   1.3816 B(  7-C , 11-C ) :   1.2133 B(  8-C ,  9-S ) :   1.0580
B(  9-S , 10-C ) :   1.1034 B( 10-C , 11-C ) :   1.4866 B( 10-C , 12-C ) :   1.0798
B( 11-C , 59-H ) :   1.0177 B( 12-C , 13-C ) :   1.7243 B( 12-C , 60-H ) :   0.9565
B( 13-C , 14-C ) :   1.0376 B( 13-C , 61-H ) :   0.9736 B( 14-C , 15-N ) :   1.5146
B( 14-C , 19-N ) :   1.5433 B( 15-N , 16-C ) :   1.5430 B( 16-C , 17-C ) :   1.3842
B( 16-C , 62-H ) :   0.9784 B( 17-C , 18-C ) :   1.3113 B( 17-C , 63-H ) :   0.9766
B( 18-C , 19-N ) :   1.5140 B( 18-C , 20-C ) :   1.0705 B( 20-C , 21-C ) :   1.6729
B( 20-C , 64-H ) :   0.9841 B( 21-C , 22-C ) :   1.1237 B( 21-C , 65-H ) :   0.9642
B( 22-C , 23-C ) :   1.5827 B( 22-C , 66-H ) :   0.9827 B( 23-C , 24-C ) :   1.1261
B( 23-C , 27-S ) :   1.0344 B( 24-C , 25-C ) :   1.6075 B( 24-C , 67-H ) :   0.9994
B( 25-C , 26-C ) :   1.1693 B( 25-C , 68-H ) :   0.9930 B( 26-C , 27-S ) :   1.0482
B( 26-C , 28-C ) :   1.5501 B( 28-C , 29-C ) :   1.1669 B( 28-C , 32-S ) :   0.9768
B( 29-C , 30-C ) :   1.6134 B( 29-C , 69-H ) :   0.9936 B( 30-C , 31-C ) :   1.1207
B( 30-C , 70-H ) :   1.0010 B( 31-C , 32-S ) :   1.0700 B( 31-C , 33-C ) :   1.5564
B( 32-S , 35-N ) :   0.1030 B( 33-C , 34-C ) :   1.1074 B( 33-C , 71-H ) :   0.9816
B( 34-C , 35-N ) :   1.4081 B( 34-C , 39-N ) :   1.4941 B( 35-N , 36-C ) :   1.5277
B( 36-C , 37-C ) :   1.3675 B( 36-C , 72-H ) :   0.9739 B( 37-C , 38-C ) :   1.3179
B( 37-C , 73-H ) :   0.9731 B( 38-C , 39-N ) :   1.5431 B( 38-C , 40-C ) :   1.0678
B( 40-C , 41-C ) :   1.7605 B( 40-C , 74-H ) :   0.9622 B( 41-C , 42-C ) :   1.0467
B( 41-C , 75-H ) :   0.9442 B( 42-C , 43-C ) :   1.5012 B( 42-C , 47-S ) :   1.1212
B( 43-C , 44-C ) :   1.0183 B( 43-C , 50-C ) :   1.2378 B( 44-C , 45-C ) :   1.2011
B( 44-C , 48-N ) :   1.6593 B( 45-C , 46-C ) :   1.6189 B( 45-C , 76-H ) :   0.9761
B( 46-C , 47-S ) :   1.1170 B( 46-C , 77-H ) :   0.9423 B( 48-N , 49-C ) :   1.3089
B( 49-C , 50-C ) :   1.3715 B( 49-C , 53-C ) :   1.2217 B( 50-C , 51-S ) :   1.0413
B( 51-S , 52-C ) :   1.0971 B( 52-C , 53-C ) :   1.5036 B( 52-C , 54-C ) :   1.0864
B( 53-C , 78-H ) :   1.0145 B( 54-C , 55-C ) :   1.9459 B( 54-C , 79-H ) :   0.9477
B( 55-C , 80-H ) :   0.9537 B( 55-C , 81-H ) :   0.9497

-----------------------------------------------------------------------------
         ABSORPTION SPECTRUM VIA TRANSITION ELECTRIC DIPOLE MOMENTS
-----------------------------------------------------------------------------
State   Energy  Wavelength   fosc         T2         TX        TY        TZ
        (cm-1)    (nm)                  (au**2)     (au)      (au)      (au)
-----------------------------------------------------------------------------
   0   15994.9    625.2   1.005315026  20.69166  -3.44830  -0.09409   2.96513
   1   19929.0    501.8   0.075879588   1.25348  -0.53896  -0.11412   0.97467
   2   20787.1    481.1   0.116337950   1.84248  -1.34272   0.03631  -0.19564
   3   22705.4    440.4   0.028001845   0.40601  -0.13231  -0.17485   0.59827
   4   23663.4    422.6   0.006696486   0.09316   0.28542   0.08186  -0.07068
   5   25105.9    398.3   0.303438277   3.97896   1.62378   0.65440   0.95608
   6   25498.7    392.2   0.169222984   2.18482   0.83447   0.18594  -1.20578
   7   25993.7    384.7   0.037067701   0.46947  -0.63590   0.25513   0.00174
   8   26856.2    372.4   0.040130185   0.49193  -0.52885  -0.22108   0.40419
   9   27630.5    361.9   0.027977967   0.33335  -0.38796  -0.09398   0.41714
  10   27786.8    359.9   0.141393122   1.67520   1.21493   0.30327  -0.32737
  11   28853.6    346.6   0.502054247   5.72830  -2.38863  -0.05451   0.14059
  12   29302.5    341.3   0.445521270   5.00541   1.43200  -0.62949   1.59954
  13   29368.1    340.5   0.102361625   1.14746   0.59655  -0.37434   0.80713
  14   29564.7    338.2   0.007142833   0.07954   0.00362   0.23156  -0.16094
  15   29901.1    334.4   0.020742868   0.22838  -0.43215  -0.06029   0.19491
  16   30973.6    322.9   0.002635670   0.02801  -0.04807   0.15123   0.05321
  17   31050.4    322.1   0.006103294   0.06471   0.23152  -0.09383  -0.04802
  18   31351.5    319.0   0.065964020   0.69267  -0.80050   0.13705   0.18190
  19   31408.0    318.4   0.673255599   7.05692  -2.63375  -0.14771   0.31383
  20   31595.9    316.5   0.509551458   5.30925  -2.11880  -0.30610   0.85220
  21   32291.6    309.7   0.021783782   0.22209   0.46835   0.01628  -0.04973
  22   32428.4    308.4   0.026771857   0.27179   0.16307  -0.16740   0.46602
  23   33019.9    302.8   0.504651890   5.03143  -0.15478  -0.68718   2.12961
  24   33500.8    298.5   0.375062297   3.68573   1.77417   0.53740   0.49926
  25   33684.8    296.9   0.040619203   0.39698  -0.60329  -0.09380   0.15566
  26   34482.7    290.0   0.114202288   1.09031  -0.29161   0.39273   0.92252
  27   34598.4    289.0   0.014430971   0.13731   0.20895  -0.12093  -0.28112
  28   34833.9    287.1   0.202144196   1.91044   0.68230   1.03612   0.60939
  29   34963.0    286.0   0.013877247   0.13067  -0.24062  -0.19109  -0.19040
  30   35021.2    285.5   0.008423438   0.07918  -0.24276  -0.08736  -0.11232
  31   35231.0    283.8   0.069299663   0.64756  -0.42551   0.34461   0.58970
  32   36290.3    275.6   0.263693167   2.39213  -0.75858   0.58532   1.21412
  33   36536.3    273.7   0.001416253   0.01276  -0.05789   0.05387   0.08067
  34   36841.0    271.4   0.311607282   2.78453  -0.82805   0.60993   1.31409
  35   37231.0    268.6   0.015547558   0.13748  -0.01499  -0.02016  -0.36993
  36   37531.0    266.4   0.103617272   0.90890  -0.27511  -0.48636   0.77244
  37   37939.8    263.6   0.026824251   0.23276  -0.02362  -0.28777   0.38651
  38   38519.1    259.6   0.017202773   0.14703  -0.01480   0.37918   0.05508
  39   38617.9    258.9   0.016326180   0.13918   0.12300  -0.16395  -0.31172
  40   38698.4    258.4   0.079504386   0.67635  -0.05575  -0.32109  -0.75508
  41   38974.8    256.6   0.019821117   0.16742  -0.35153  -0.20507  -0.04238
  42   39038.1    256.2   0.007729027   0.06518   0.02496   0.04725   0.24965
  43   39652.4    252.2   0.020305206   0.16858  -0.20094   0.10470   0.34241
  44   39976.5    250.1   0.050354882   0.41468  -0.51726   0.20844   0.32198
  45   40128.3    249.2   0.145350334   1.19245  -0.73225   0.62264   0.51825
  46   40287.2    248.2   0.139015242   1.13598   0.86613  -0.23213  -0.57612

FINAL SINGLE POINT ENERGY     -4406.560300009889

DIPOLE MOMENT
-------------
                                X             Y             Z
Electronic contribution:      7.59983      -1.46242     -10.19282
Nuclear contribution   :     -8.91921       1.97806       8.30691
                        -----------------------------------------
Total Dipole Moment    :     -1.31938       0.51564      -1.88591
                        -----------------------------------------
Magnitude (a.u.)       :      2.35867
Magnitude (Debye)      :      5.99525

Rotational constants in cm-1:     0.001917     0.000638     0.000504
Rotational constants in MHz :    57.482069    19.139579    15.114806

                             ****ORCA TERMINATED NORMALLY****
TOTAL RUN TIME: 0 days 0 hours 12 minutes 8 seconds 243 msec
