                         Program Version 4.2.0 -  RELEASE  -
|  1> # ORCA input file
|  2> # SCF done       -188.903973246238          0.000363633764
|  3> ! CAM-B3LYP def2-SVP def2/J RIJCOSX Grid4 TightSCF
|  4> %maxcore 5000
|  5> %tddft
|  6>     Mode sTDDFT
|  7>     Ethresh 5.0
|  8>     maxcore 5000
|  9> end
| 10>
| 11> %pal
| 12>   nprocs 6
| 13>   end
| 14> * xyz 0 1
| 15>    C       -2.98919        -0.02705        -4.81428
| 16>    C       -3.25550        -1.36117        -4.59933
| 17>    C       -2.41907        -2.41975        -5.00223
| 18>    N       -1.79185        -3.34399        -5.27355
| 19>    C       -4.38706        -1.89490        -3.96235
| 20>    N       -5.27186        -2.45886        -3.48760
| 21>    C       -1.87461         0.48800        -5.60543
| 22>    C       -1.96540         1.90069        -5.64992
| 23>    C       -1.07807         2.67801        -6.35090
| 24>    C       -0.04910         2.03001        -7.04430
| 25>    C        0.03631         0.61956        -6.99069
| 26>    C       -0.86274        -0.16732        -6.27967
| 27>    S        1.37707         0.02512        -7.92352
| 28>    C        1.79538         1.65793        -8.36930
| 29>    C        0.97730         2.60106        -7.84552
| 30>   Br        3.26976         1.96360        -9.48793
| 31>    C       -3.13644         2.33758        -4.85907
| 32>    O       -3.50453         3.48345        -4.69083
| 33>    C       -3.74819         1.09777        -4.34186
| 34>    C       -4.84106         1.05128        -3.50112
| 35>    C       -5.53033         2.15440        -3.00952
| 36>    C       -6.61626         2.02168        -2.16374
| 37>    C       -7.38457         3.05648        -1.57951
| 38>    C       -8.40383         2.61384        -0.78736
| 39>    C       -8.47984         1.20681        -0.71070
| 40>    S       -7.22854         0.46581        -1.67435
| 41>    C       -9.36794         0.41027        -0.00909
| 42>    C      -10.49394         0.76417         0.76571
| 43>    C      -11.17037        -0.29855         1.28801
| 44>    C      -10.60232        -1.55466         0.96389
| 45>    S       -9.16889        -1.32049        -0.04283
| 46>    C      -11.01025        -2.81050         1.31951
| 47>    N      -10.28273        -3.89166         0.94825
| 48>    C      -10.53647        -5.20310         1.13523
| 49>    S      -12.03092        -5.77158         1.80362
| 50>    C      -11.47560        -7.40522         1.59426
| 51>    N      -12.33034        -8.43005         1.99662
| 52>    O      -11.94967        -9.57909         1.84955
| 53>    O      -13.40522        -8.09228         2.46920
| 54>    C      -10.22020        -7.49471         1.05032
| 55>    C       -9.65047        -6.23942         0.78143
| 56>    C       -8.33533        -5.97925         0.26331
| 57>    C       -7.47897        -6.91591        -0.18289
| 58>    N       -6.20088        -6.70966        -0.64026
| 59>    C       -5.46345        -5.58279        -0.78127
| 60>    S       -6.05215        -3.97805        -0.51217
| 61>    C       -4.49742        -3.32907        -0.92726
| 62>    N       -4.36037        -1.94654        -0.87775
| 63>    O       -3.32187        -1.45282        -1.28326
| 64>    O       -5.30473        -1.31606        -0.42305
| 65>    C       -3.57752        -4.29051        -1.23955
| 66>    C       -4.10023        -5.59501        -1.15433
| 67>    C       -3.35698        -6.80013        -1.36089
| 68>    C       -2.00900        -6.87959        -1.43200
| 69>    C       -1.28220        -8.10088        -1.56986
| 70>    C        0.13457        -8.07073        -1.51428
| 71>    C        0.93142        -9.26851        -1.63022
| 72>    N        2.27994        -9.19644        -1.55002
| 73>    C        2.83579        -8.03210        -1.36554
| 74>    C        2.04153        -6.83569        -1.25283
| 75>    N        0.73637        -6.88415        -1.32862
| 76>    C        2.67826        -5.58706        -1.04459
| 77>    N        3.22623        -4.59638        -0.86934
| 78>    C        4.24878        -7.94206        -1.26166
| 79>    N        5.38396        -7.82868        -1.16502
| 80>    C        0.34507       -10.51422        -1.81251
| 81>    C       -1.04172       -10.56802        -1.86408
| 82>    C       -1.86120        -9.37808        -1.73691
| 83>    N       -3.16410        -9.67952        -1.79937
| 84>    S       -3.32783       -11.26615        -2.00264
| 85>    N       -1.78654       -11.67111        -2.01735
| 86>    H       -1.17541         3.75222        -6.36957
| 87>    H       -0.75690        -1.23944        -6.27087
| 88>    H        1.09001         3.65602        -8.01712
| 89>    H       -5.18998         0.07779        -3.17782
| 90>    H       -5.20654         3.14700        -3.28665
| 91>    H       -7.15659         4.09199        -1.75982
| 92>    H       -9.08501         3.25459        -0.25627
| 93>    H      -10.77825         1.79117         0.90785
| 94>    H      -12.05297        -0.22024         1.89690
| 95>    H      -11.90264        -2.98073         1.90155
| 96>    H       -9.42781        -3.67430         0.44336
| 97>    H       -9.74918        -8.44376         0.87513
| 98>    H       -8.01881        -4.94952         0.26791
| 99>    H       -7.76557        -7.95638        -0.20384
|100>    H       -5.70217        -7.55061        -0.90656
|101>    H       -2.57044        -4.05267        -1.52826
|102>    H       -3.90571        -7.72902        -1.43525
|103>    H       -1.39359        -5.99676        -1.34687
|104>    H        0.95103       -11.39930        -1.90072
|105> *
|106>
|107>                          ****END OF INPUT****

CARTESIAN COORDINATES (ANGSTROEM)
---------------------------------
  C     -2.989190   -0.027050   -4.814280
  C     -3.255500   -1.361170   -4.599330
  C     -2.419070   -2.419750   -5.002230
  N     -1.791850   -3.343990   -5.273550
  C     -4.387060   -1.894900   -3.962350
  N     -5.271860   -2.458860   -3.487600
  C     -1.874610    0.488000   -5.605430
  C     -1.965400    1.900690   -5.649920
  C     -1.078070    2.678010   -6.350900
  C     -0.049100    2.030010   -7.044300
  C      0.036310    0.619560   -6.990690
  C     -0.862740   -0.167320   -6.279670
  S      1.377070    0.025120   -7.923520
  C      1.795380    1.657930   -8.369300
  C      0.977300    2.601060   -7.845520
  Br     3.269760    1.963600   -9.487930
  C     -3.136440    2.337580   -4.859070
  O     -3.504530    3.483450   -4.690830
  C     -3.748190    1.097770   -4.341860
  C     -4.841060    1.051280   -3.501120
  C     -5.530330    2.154400   -3.009520
  C     -6.616260    2.021680   -2.163740
  C     -7.384570    3.056480   -1.579510
  C     -8.403830    2.613840   -0.787360
  C     -8.479840    1.206810   -0.710700
  S     -7.228540    0.465810   -1.674350
  C     -9.367940    0.410270   -0.009090
  C    -10.493940    0.764170    0.765710
  C    -11.170370   -0.298550    1.288010
  C    -10.602320   -1.554660    0.963890
  S     -9.168890   -1.320490   -0.042830
  C    -11.010250   -2.810500    1.319510
  N    -10.282730   -3.891660    0.948250
  C    -10.536470   -5.203100    1.135230
  S    -12.030920   -5.771580    1.803620
  C    -11.475600   -7.405220    1.594260
  N    -12.330340   -8.430050    1.996620
  O    -11.949670   -9.579090    1.849550
  O    -13.405220   -8.092280    2.469200
  C    -10.220200   -7.494710    1.050320
  C     -9.650470   -6.239420    0.781430
  C     -8.335330   -5.979250    0.263310
  C     -7.478970   -6.915910   -0.182890
  N     -6.200880   -6.709660   -0.640260
  C     -5.463450   -5.582790   -0.781270
  S     -6.052150   -3.978050   -0.512170
  C     -4.497420   -3.329070   -0.927260
  N     -4.360370   -1.946540   -0.877750
  O     -3.321870   -1.452820   -1.283260
  O     -5.304730   -1.316060   -0.423050
  C     -3.577520   -4.290510   -1.239550
  C     -4.100230   -5.595010   -1.154330
  C     -3.356980   -6.800130   -1.360890
  C     -2.009000   -6.879590   -1.432000
  C     -1.282200   -8.100880   -1.569860
  C      0.134570   -8.070730   -1.514280
  C      0.931420   -9.268510   -1.630220
  N      2.279940   -9.196440   -1.550020
  C      2.835790   -8.032100   -1.365540
  C      2.041530   -6.835690   -1.252830
  N      0.736370   -6.884150   -1.328620
  C      2.678260   -5.587060   -1.044590
  N      3.226230   -4.596380   -0.869340
  C      4.248780   -7.942060   -1.261660
  N      5.383960   -7.828680   -1.165020
  C      0.345070  -10.514220   -1.812510
  C     -1.041720  -10.568020   -1.864080
  C     -1.861200   -9.378080   -1.736910
  N     -3.164100   -9.679520   -1.799370
  S     -3.327830  -11.266150   -2.002640
  N     -1.786540  -11.671110   -2.017350
  H     -1.175410    3.752220   -6.369570
  H     -0.756900   -1.239440   -6.270870
  H      1.090010    3.656020   -8.017120
  H     -5.189980    0.077790   -3.177820
  H     -5.206540    3.147000   -3.286650
  H     -7.156590    4.091990   -1.759820
  H     -9.085010    3.254590   -0.256270
  H    -10.778250    1.791170    0.907850
  H    -12.052970   -0.220240    1.896900
  H    -11.902640   -2.980730    1.901550
  H     -9.427810   -3.674300    0.443360
  H     -9.749180   -8.443760    0.875130
  H     -8.018810   -4.949520    0.267910
  H     -7.765570   -7.956380   -0.203840
  H     -5.702170   -7.550610   -0.906560
  H     -2.570440   -4.052670   -1.528260
  H     -3.905710   -7.729020   -1.435250
  H     -1.393590   -5.996760   -1.346870
  H      0.951030  -11.399300   -1.900720

 Total Charge           Charge          ....    0
 Multiplicity           Mult            ....    1
 Number of Electrons    NEL             ....  556
 Basis Dimension        Dim             .... 1131

ORBITAL ENERGIES
----------------

  NO   OCC          E(Eh)            E(eV)
   0   2.0000    -482.875323    -13139.7055
   1   2.0000     -89.055202     -2423.3152
   2   2.0000     -88.996169     -2421.7089
   3   2.0000     -88.991612     -2421.5849
   4   2.0000     -88.971449     -2421.0362
   5   2.0000     -88.963045     -2420.8075
   6   2.0000     -88.953556     -2420.5493
   7   2.0000     -62.553022     -1702.1543
   8   2.0000     -56.386960     -1534.3672
   9   2.0000     -56.384270     -1534.2940
  10   2.0000     -56.384231     -1534.2929
  11   2.0000     -19.241843      -523.5972
  12   2.0000     -19.241258      -523.5812
  13   2.0000     -19.238270      -523.4999
  14   2.0000     -19.237159      -523.4697
  15   2.0000     -19.197278      -522.3845
  16   2.0000     -14.653519      -398.7425
  17   2.0000     -14.646857      -398.5612
  18   2.0000     -14.507063      -394.7572
  19   2.0000     -14.498005      -394.5108
  20   2.0000     -14.464938      -393.6110
  21   2.0000     -14.463837      -393.5810
  22   2.0000     -14.460517      -393.4907
  23   2.0000     -14.460096      -393.4792
  24   2.0000     -14.428888      -392.6300
  25   2.0000     -14.426680      -392.5699
  26   2.0000     -14.403225      -391.9317
  27   2.0000     -14.398659      -391.8074
  28   2.0000     -10.382762      -282.5293
  29   2.0000     -10.380249      -282.4609
  30   2.0000     -10.380113      -282.4572
  31   2.0000     -10.379187      -282.4320
  32   2.0000     -10.362274      -281.9718
  33   2.0000     -10.350741      -281.6580
  34   2.0000     -10.350029      -281.6386
  35   2.0000     -10.350009      -281.6381
  36   2.0000     -10.348346      -281.5928
  37   2.0000     -10.348107      -281.5863
  38   2.0000     -10.347474      -281.5691
  39   2.0000     -10.347343      -281.5655
  40   2.0000     -10.346565      -281.5443
  41   2.0000     -10.340940      -281.3913
  42   2.0000     -10.339594      -281.3547
  43   2.0000     -10.329875      -281.0902
  44   2.0000     -10.325901      -280.9820
  45   2.0000     -10.323020      -280.9037
  46   2.0000     -10.321781      -280.8699
  47   2.0000     -10.321768      -280.8696
  48   2.0000     -10.319982      -280.8210
  49   2.0000     -10.319621      -280.8112
  50   2.0000     -10.319302      -280.8025
  51   2.0000     -10.318441      -280.7790
  52   2.0000     -10.314850      -280.6813
  53   2.0000     -10.314535      -280.6728
  54   2.0000     -10.311150      -280.5807
  55   2.0000     -10.309988      -280.5490
  56   2.0000     -10.308589      -280.5110
  57   2.0000     -10.306662      -280.4585
  58   2.0000     -10.304415      -280.3974
  59   2.0000     -10.304194      -280.3914
  60   2.0000     -10.304058      -280.3877
  61   2.0000     -10.303914      -280.3838
  62   2.0000     -10.302967      -280.3580
  63   2.0000     -10.302505      -280.3454
  64   2.0000     -10.294657      -280.1319
  65   2.0000     -10.293077      -280.0889
  66   2.0000     -10.291571      -280.0479
  67   2.0000     -10.290767      -280.0260
  68   2.0000     -10.290357      -280.0149
  69   2.0000     -10.289883      -280.0020
  70   2.0000     -10.285592      -279.8852
  71   2.0000     -10.284768      -279.8628
  72   2.0000     -10.275352      -279.6065
  73   2.0000     -10.271896      -279.5125
  74   2.0000     -10.270021      -279.4615
  75   2.0000      -8.782437      -238.9823
  76   2.0000      -8.146627      -221.6810
  77   2.0000      -8.091477      -220.1803
  78   2.0000      -8.086111      -220.0343
  79   2.0000      -8.067863      -219.5377
  80   2.0000      -8.058997      -219.2965
  81   2.0000      -8.049588      -219.0404
  82   2.0000      -6.618685      -180.1036
  83   2.0000      -6.604184      -179.7090
  84   2.0000      -6.604023      -179.7046
  85   2.0000      -6.117590      -166.4681
  86   2.0000      -6.109756      -166.2549
  87   2.0000      -6.109678      -166.2528
  88   2.0000      -6.061200      -164.9336
  89   2.0000      -6.056844      -164.8151
  90   2.0000      -6.055822      -164.7873
  91   2.0000      -6.052817      -164.7055
  92   2.0000      -6.051449      -164.6683
  93   2.0000      -6.047625      -164.5642
  94   2.0000      -6.037655      -164.2930
  95   2.0000      -6.033599      -164.1826
  96   2.0000      -6.028701      -164.0493
  97   2.0000      -6.028673      -164.0485
  98   2.0000      -6.024422      -163.9329
  99   2.0000      -6.020227      -163.8187
 100   2.0000      -6.019144      -163.7892
 101   2.0000      -6.015070      -163.6784
 102   2.0000      -6.010784      -163.5618
 103   2.0000      -2.734560       -74.4112
 104   2.0000      -2.730505       -74.3008
 105   2.0000      -2.730361       -74.2969
 106   2.0000      -2.718850       -73.9837
 107   2.0000      -2.718828       -73.9831
 108   2.0000      -1.321580       -35.9620
 109   2.0000      -1.316282       -35.8178
 110   2.0000      -1.149886       -31.2900
 111   2.0000      -1.140850       -31.0441
 112   2.0000      -1.134806       -30.8796
 113   2.0000      -1.119852       -30.4727
 114   2.0000      -1.115016       -30.3411
 115   2.0000      -1.110823       -30.2270
 116   2.0000      -1.099618       -29.9221
 117   2.0000      -1.046905       -28.4877
 118   2.0000      -1.020877       -27.7795
 119   2.0000      -1.012325       -27.5468
 120   2.0000      -1.010730       -27.5034
 121   2.0000      -1.008450       -27.4413
 122   2.0000      -1.007168       -27.4064
 123   2.0000      -1.003751       -27.3134
 124   2.0000      -1.000734       -27.2314
 125   2.0000      -1.000280       -27.2190
 126   2.0000      -0.988187       -26.8899
 127   2.0000      -0.980804       -26.6890
 128   2.0000      -0.978787       -26.6342
 129   2.0000      -0.973211       -26.4824
 130   2.0000      -0.934492       -25.4288
 131   2.0000      -0.928707       -25.2714
 132   2.0000      -0.924544       -25.1581
 133   2.0000      -0.912463       -24.8294
 134   2.0000      -0.907736       -24.7008
 135   2.0000      -0.901846       -24.5405
 136   2.0000      -0.894323       -24.3358
 137   2.0000      -0.893535       -24.3143
 138   2.0000      -0.882120       -24.0037
 139   2.0000      -0.878501       -23.9052
 140   2.0000      -0.871405       -23.7121
 141   2.0000      -0.867277       -23.5998
 142   2.0000      -0.863660       -23.5014
 143   2.0000      -0.854890       -23.2627
 144   2.0000      -0.841108       -22.8877
 145   2.0000      -0.837657       -22.7938
 146   2.0000      -0.835550       -22.7365
 147   2.0000      -0.833275       -22.6746
 148   2.0000      -0.815381       -22.1876
 149   2.0000      -0.808903       -22.0114
 150   2.0000      -0.799192       -21.7471
 151   2.0000      -0.792540       -21.5661
 152   2.0000      -0.775906       -21.1135
 153   2.0000      -0.759949       -20.6793
 154   2.0000      -0.753205       -20.4957
 155   2.0000      -0.743366       -20.2280
 156   2.0000      -0.739982       -20.1359
 157   2.0000      -0.734542       -19.9879
 158   2.0000      -0.728160       -19.8142
 159   2.0000      -0.713677       -19.4201
 160   2.0000      -0.706453       -19.2236
 161   2.0000      -0.703535       -19.1442
 162   2.0000      -0.696113       -18.9422
 163   2.0000      -0.683301       -18.5936
 164   2.0000      -0.680668       -18.5219
 165   2.0000      -0.676058       -18.3965
 166   2.0000      -0.672038       -18.2871
 167   2.0000      -0.666906       -18.1474
 168   2.0000      -0.658379       -17.9154
 169   2.0000      -0.653623       -17.7860
 170   2.0000      -0.647429       -17.6174
 171   2.0000      -0.644947       -17.5499
 172   2.0000      -0.643022       -17.4975
 173   2.0000      -0.637284       -17.3414
 174   2.0000      -0.635308       -17.2876
 175   2.0000      -0.634712       -17.2714
 176   2.0000      -0.633827       -17.2473
 177   2.0000      -0.629786       -17.1374
 178   2.0000      -0.629134       -17.1196
 179   2.0000      -0.628350       -17.0983
 180   2.0000      -0.617928       -16.8147
 181   2.0000      -0.612002       -16.6534
 182   2.0000      -0.608392       -16.5552
 183   2.0000      -0.606310       -16.4985
 184   2.0000      -0.600105       -16.3297
 185   2.0000      -0.597962       -16.2714
 186   2.0000      -0.591570       -16.0974
 187   2.0000      -0.584589       -15.9075
 188   2.0000      -0.580344       -15.7920
 189   2.0000      -0.579819       -15.7777
 190   2.0000      -0.575733       -15.6665
 191   2.0000      -0.574990       -15.6463
 192   2.0000      -0.563726       -15.3398
 193   2.0000      -0.561093       -15.2681
 194   2.0000      -0.558975       -15.2105
 195   2.0000      -0.557073       -15.1587
 196   2.0000      -0.551497       -15.0070
 197   2.0000      -0.546503       -14.8711
 198   2.0000      -0.544446       -14.8151
 199   2.0000      -0.540401       -14.7051
 200   2.0000      -0.534860       -14.5543
 201   2.0000      -0.534392       -14.5415
 202   2.0000      -0.530458       -14.4345
 203   2.0000      -0.522436       -14.2162
 204   2.0000      -0.520910       -14.1747
 205   2.0000      -0.519083       -14.1250
 206   2.0000      -0.516165       -14.0456
 207   2.0000      -0.514157       -13.9909
 208   2.0000      -0.510403       -13.8888
 209   2.0000      -0.505939       -13.7673
 210   2.0000      -0.504055       -13.7160
 211   2.0000      -0.501324       -13.6417
 212   2.0000      -0.494906       -13.4671
 213   2.0000      -0.494394       -13.4531
 214   2.0000      -0.493418       -13.4266
 215   2.0000      -0.488989       -13.3061
 216   2.0000      -0.487589       -13.2680
 217   2.0000      -0.486018       -13.2252
 218   2.0000      -0.482128       -13.1194
 219   2.0000      -0.479287       -13.0421
 220   2.0000      -0.479040       -13.0353
 221   2.0000      -0.478041       -13.0082
 222   2.0000      -0.476263       -12.9598
 223   2.0000      -0.475842       -12.9483
 224   2.0000      -0.471147       -12.8206
 225   2.0000      -0.464271       -12.6335
 226   2.0000      -0.461154       -12.5486
 227   2.0000      -0.457094       -12.4382
 228   2.0000      -0.454020       -12.3545
 229   2.0000      -0.452279       -12.3071
 230   2.0000      -0.451147       -12.2763
 231   2.0000      -0.450237       -12.2516
 232   2.0000      -0.448690       -12.2095
 233   2.0000      -0.445156       -12.1133
 234   2.0000      -0.442677       -12.0459
 235   2.0000      -0.441911       -12.0250
 236   2.0000      -0.439545       -11.9606
 237   2.0000      -0.437141       -11.8952
 238   2.0000      -0.433643       -11.8000
 239   2.0000      -0.431196       -11.7334
 240   2.0000      -0.426148       -11.5961
 241   2.0000      -0.421211       -11.4617
 242   2.0000      -0.421089       -11.4584
 243   2.0000      -0.416317       -11.3286
 244   2.0000      -0.416207       -11.3256
 245   2.0000      -0.414129       -11.2690
 246   2.0000      -0.412498       -11.2246
 247   2.0000      -0.410244       -11.1633
 248   2.0000      -0.408406       -11.1133
 249   2.0000      -0.401071       -10.9137
 250   2.0000      -0.397086       -10.8053
 251   2.0000      -0.395163       -10.7529
 252   2.0000      -0.393306       -10.7024
 253   2.0000      -0.391056       -10.6412
 254   2.0000      -0.390061       -10.6141
 255   2.0000      -0.385946       -10.5021
 256   2.0000      -0.381282       -10.3752
 257   2.0000      -0.376075       -10.2335
 258   2.0000      -0.374511       -10.1910
 259   2.0000      -0.370666       -10.0863
 260   2.0000      -0.368181       -10.0187
 261   2.0000      -0.365709        -9.9514
 262   2.0000      -0.364916        -9.9299
 263   2.0000      -0.360696        -9.8150
 264   2.0000      -0.357953        -9.7404
 265   2.0000      -0.350623        -9.5409
 266   2.0000      -0.347552        -9.4574
 267   2.0000      -0.344781        -9.3820
 268   2.0000      -0.341857        -9.3024
 269   2.0000      -0.331469        -9.0197
 270   2.0000      -0.318143        -8.6571
 271   2.0000      -0.317363        -8.6359
 272   2.0000      -0.302134        -8.2215
 273   2.0000      -0.301378        -8.2009
 274   2.0000      -0.283239        -7.7073
 275   2.0000      -0.279179        -7.5968
 276   2.0000      -0.255388        -6.9495
 277   2.0000      -0.224213        -6.1011
 278   0.0000      -0.121946        -3.3183
 279   0.0000      -0.106058        -2.8860
 280   0.0000      -0.067051        -1.8246
 281   0.0000      -0.060093        -1.6352
 282   0.0000      -0.049360        -1.3432

MULLIKEN ATOMIC CHARGES
-----------------------
   0 C :    0.344329
   1 C :   -0.371901
   2 C :   -0.202987
   3 N :    0.130969
   4 C :   -0.164645
   5 N :    0.090840
   6 C :    0.010088
   7 C :   -0.008173
   8 C :   -0.078081
   9 C :    0.116214
  10 C :   -0.090917
  11 C :   -0.026503
  12 S :    0.177591
  13 C :   -0.123706
  14 C :    0.037862
  15 Br:    0.014026
  16 C :    0.135146
  17 O :   -0.163634
  18 C :   -0.085710
  19 C :   -0.025650
  20 C :   -0.022264
  21 C :    0.005822
  22 C :    0.026917
  23 C :    0.042692
  24 C :   -0.050558
  25 S :    0.127713
  26 C :   -0.021294
  27 C :    0.023597
  28 C :    0.057524
  29 C :   -0.060439
  30 S :    0.049804
  31 C :    0.058567
  32 N :   -0.031816
  33 C :   -0.126837
  34 S :    0.164965
  35 C :   -0.011204
  36 N :    0.278322
  37 O :   -0.255937
  38 O :   -0.268671
  39 C :   -0.000399
  40 C :    0.135214
  41 C :   -0.068303
  42 C :    0.049007
  43 N :   -0.010597
  44 C :   -0.084620
  45 S :    0.121414
  46 C :    0.032642
  47 N :    0.283560
  48 O :   -0.250601
  49 O :   -0.268871
  50 C :    0.037845
  51 C :    0.121257
  52 C :   -0.011106
  53 C :   -0.071478
  54 C :    0.124095
  55 C :   -0.056120
  56 C :    0.024781
  57 N :    0.053578
  58 C :   -0.142657
  59 C :   -0.137690
  60 N :    0.055575
  61 C :   -0.202697
  62 N :    0.234998
  63 C :   -0.199043
  64 N :    0.234487
  65 C :   -0.079580
  66 C :    0.102688
  67 C :   -0.005345
  68 N :   -0.314803
  69 S :    0.546204
  70 N :   -0.263508
  71 H :   -0.014648
  72 H :   -0.009349
  73 H :   -0.006340
  74 H :    0.007652
  75 H :    0.013447
  76 H :   -0.001602
  77 H :   -0.007437
  78 H :   -0.004845
  79 H :   -0.000782
  80 H :    0.032089
  81 H :    0.159784
  82 H :    0.005159
  83 H :   -0.011641
  84 H :    0.012476
  85 H :    0.145917
  86 H :    0.019407
  87 H :   -0.014164
  88 H :    0.000154
  89 H :   -0.017265
Sum of atomic charges:    0.0000000

LOEWDIN ATOMIC CHARGES
----------------------
   0 C :    0.080208
   1 C :   -0.161336
   2 C :   -0.018272
   3 N :   -0.080609
   4 C :   -0.011430
   5 N :   -0.098194
   6 C :   -0.017349
   7 C :   -0.047477
   8 C :    0.017014
   9 C :   -0.035644
  10 C :   -0.146027
  11 C :   -0.013778
  12 S :    0.426406
  13 C :   -0.275081
  14 C :   -0.070764
  15 Br:    0.129634
  16 C :    0.082468
  17 O :   -0.157587
  18 C :   -0.108943
  19 C :    0.055709
  20 C :   -0.072625
  21 C :   -0.102324
  22 C :   -0.041122
  23 C :   -0.009412
  24 C :   -0.196695
  25 S :    0.440654
  26 C :   -0.144651
  27 C :   -0.043713
  28 C :   -0.011708
  29 C :   -0.190032
  30 S :    0.373552
  31 C :    0.016074
  32 N :    0.056322
  33 C :   -0.111974
  34 S :    0.454584
  35 C :   -0.208241
  36 N :    0.273813
  37 O :   -0.222217
  38 O :   -0.235061
  39 C :   -0.001156
  40 C :   -0.092512
  41 C :   -0.098262
  42 C :    0.027999
  43 N :    0.047341
  44 C :   -0.086912
  45 S :    0.480947
  46 C :   -0.203861
  47 N :    0.281409
  48 O :   -0.215996
  49 O :   -0.239121
  50 C :    0.017979
  51 C :   -0.104658
  52 C :    0.006838
  53 C :   -0.025252
  54 C :   -0.000410
  55 C :   -0.013783
  56 C :   -0.008234
  57 N :   -0.000596
  58 C :   -0.023476
  59 C :   -0.031713
  60 N :    0.007032
  61 C :   -0.037669
  62 N :   -0.003615
  63 C :   -0.034525
  64 N :   -0.001174
  65 C :   -0.013960
  66 C :   -0.044785
  67 C :   -0.040536
  68 N :   -0.297408
  69 S :    0.680327
  70 N :   -0.279714
  71 H :    0.038900
  72 H :    0.039791
  73 H :    0.037479
  74 H :    0.027434
  75 H :    0.038199
  76 H :    0.038097
  77 H :    0.034482
  78 H :    0.036199
  79 H :    0.038316
  80 H :    0.036325
  81 H :    0.082215
  82 H :    0.042067
  83 H :    0.002427
  84 H :    0.032196
  85 H :    0.101440
  86 H :    0.049763
  87 H :    0.018210
  88 H :    0.033409
  89 H :    0.048333

  Mayer bond orders larger than 0.100000
B(  0-C ,  1-C ) :   1.5553 B(  0-C ,  6-C ) :   0.9921 B(  0-C , 18-C ) :   1.1284
B(  1-C ,  2-C ) :   1.1549 B(  1-C ,  4-C ) :   1.1802 B(  2-C ,  3-N ) :   2.9615
B(  4-C ,  5-N ) :   2.8718 B(  6-C ,  7-C ) :   1.2771 B(  6-C , 11-C ) :   1.4206
B(  7-C ,  8-C ) :   1.4331 B(  7-C , 16-C ) :   0.9323 B(  8-C ,  9-C ) :   1.2381
B(  8-C , 71-H ) :   1.0159 B(  9-C , 10-C ) :   1.3176 B(  9-C , 14-C ) :   1.1620
B( 10-C , 11-C ) :   1.3221 B( 10-C , 12-S ) :   1.0813 B( 11-C , 72-H ) :   0.9792
B( 12-S , 13-C ) :   1.0863 B( 13-C , 14-C ) :   1.6189 B( 13-C , 15-Br) :   1.0128
B( 14-C , 73-H ) :   1.0002 B( 16-C , 17-O ) :   2.1921 B( 16-C , 18-C ) :   0.9628
B( 18-C , 19-C ) :   1.4692 B( 19-C , 20-C ) :   1.2743 B( 19-C , 74-H ) :   0.9394
B( 20-C , 21-C ) :   1.4022 B( 20-C , 75-H ) :   0.9815 B( 21-C , 22-C ) :   1.1762
B( 21-C , 25-S ) :   1.1120 B( 22-C , 23-C ) :   1.5460 B( 22-C , 76-H ) :   1.0013
B( 23-C , 24-C ) :   1.2129 B( 23-C , 77-H ) :   0.9948 B( 24-C , 25-S ) :   1.0652
B( 24-C , 26-C ) :   1.4668 B( 26-C , 27-C ) :   1.2025 B( 26-C , 30-S ) :   1.0788
B( 27-C , 28-C ) :   1.5880 B( 27-C , 78-H ) :   0.9938 B( 28-C , 29-C ) :   1.1690
B( 28-C , 79-H ) :   0.9950 B( 29-C , 30-S ) :   1.0146 B( 29-C , 31-C ) :   1.5709
B( 31-C , 32-N ) :   1.1686 B( 31-C , 80-H ) :   0.9640 B( 32-N , 33-C ) :   1.2257
B( 32-N , 81-H ) :   0.8954 B( 33-C , 34-S ) :   1.1263 B( 33-C , 40-C ) :   1.3560
B( 34-S , 35-C ) :   1.0738 B( 35-C , 36-N ) :   0.9822 B( 35-C , 39-C ) :   1.4878
B( 36-N , 37-O ) :   1.5249 B( 36-N , 38-O ) :   1.5033 B( 37-O , 38-O ) :   0.2539
B( 39-C , 40-C ) :   1.2414 B( 39-C , 82-H ) :   0.9969 B( 40-C , 41-C ) :   1.1087
B( 41-C , 42-C ) :   1.7306 B( 41-C , 83-H ) :   0.9340 B( 42-C , 43-N ) :   1.1344
B( 42-C , 84-H ) :   0.9604 B( 43-N , 44-C ) :   1.2437 B( 43-N , 85-H ) :   0.9063
B( 44-C , 45-S ) :   1.1534 B( 44-C , 51-C ) :   1.3227 B( 45-S , 46-C ) :   1.0653
B( 46-C , 47-N ) :   0.9832 B( 46-C , 50-C ) :   1.4927 B( 47-N , 48-O ) :   1.5134
B( 47-N , 49-O ) :   1.4879 B( 48-O , 49-O ) :   0.2406 B( 50-C , 51-C ) :   1.2472
B( 50-C , 86-H ) :   0.9989 B( 51-C , 52-C ) :   1.0675 B( 52-C , 53-C ) :   1.6435
B( 52-C , 87-H ) :   0.9419 B( 53-C , 54-C ) :   1.1893 B( 53-C , 88-H ) :   0.9646
B( 54-C , 55-C ) :   1.2499 B( 54-C , 65-C ) :   0.1357 B( 54-C , 67-C ) :   1.1942
B( 55-C , 56-C ) :   1.1288 B( 55-C , 60-N ) :   1.4324 B( 56-C , 57-N ) :   1.3313
B( 56-C , 65-C ) :   1.3168 B( 57-N , 58-C ) :   1.7933 B( 58-C , 59-C ) :   1.1790
B( 58-C , 63-C ) :   1.1491 B( 59-C , 60-N ) :   1.7585 B( 59-C , 61-C ) :   1.1488
B( 61-C , 62-N ) :   3.0469 B( 63-C , 64-N ) :   3.0523 B( 65-C , 66-C ) :   1.1805
B( 65-C , 89-H ) :   1.0554 B( 66-C , 67-C ) :   1.1308 B( 66-C , 70-N ) :   1.4559
B( 67-C , 68-N ) :   1.4679 B( 68-N , 69-S ) :   1.2745 B( 68-N , 70-N ) :   0.1593
B( 69-S , 70-N ) :   1.3169

-----------------------------------------------------------------------------
         ABSORPTION SPECTRUM VIA TRANSITION ELECTRIC DIPOLE MOMENTS
-----------------------------------------------------------------------------
State   Energy  Wavelength   fosc         T2         TX        TY        TZ
        (cm-1)    (nm)                  (au**2)     (au)      (au)      (au)
-----------------------------------------------------------------------------
   0   11131.8    898.3   0.622176717  18.40023   2.28752   2.60444  -2.52673
   1   12366.4    808.6   0.493433931  13.13598  -3.16815  -0.15727   1.75330
   2   14087.7    709.8   0.294711198   6.88702  -2.02680   1.63267   0.33689
   3   17872.2    559.5   0.044245519   0.81502   0.31273  -0.84686  -0.00703
   4   19346.4    516.9   0.208256320   3.54383   1.19365  -1.33165  -0.58802
   5   21569.3    463.6   0.143564426   2.19123  -0.05216  -1.47741   0.07597
   6   21767.4    459.4   0.153492391   2.32143   0.02919   1.51452   0.16378
   7   23279.6    429.6   0.008555898   0.12099  -0.23345  -0.25689   0.02247
   8   24216.4    412.9   0.124752600   1.69596   0.07125   1.29994  -0.03226
   9   24304.4    411.4   0.276788898   3.74921  -1.63392  -0.12079   1.03196
  10   24954.2    400.7   0.771846742  10.18269  -2.18546  -2.04085   1.11419
  11   25559.5    391.2   0.024247261   0.31231   0.09722  -0.38707  -0.39120
  12   26709.4    374.4   0.004400852   0.05424   0.05013   0.01681  -0.22682
  13   26806.3    373.0   0.010205159   0.12533   0.33427   0.02372  -0.11415
  14   27092.7    369.1   0.000553736   0.00673   0.06381   0.04156  -0.03050
  15   27382.4    365.2   0.279169194   3.35638  -0.91169   1.55945   0.30548
  16   27866.1    358.9   0.020085779   0.23729  -0.23570  -0.42450  -0.03917
  17   27974.1    357.5   0.003583153   0.04217  -0.02933   0.19744  -0.04821
  18   28505.8    350.8   0.050716483   0.58572  -0.38981   0.64423   0.13687
  19   28696.7    348.5   0.007492057   0.08595  -0.29294  -0.01171  -0.00132
  20   29119.0    343.4   0.018064947   0.20424   0.02729  -0.44423  -0.07842
  21   29604.6    337.8   0.033505386   0.37259   0.31650   0.45934  -0.24784
  22   29733.0    336.3   0.041225109   0.45646  -0.18813  -0.64828  -0.02813
  23   30211.9    331.0   0.141588451   1.54285   0.80654  -0.69183  -0.64320
  24   30470.0    328.2   0.089426874   0.96621   0.28130  -0.92751  -0.16372
  25   30551.3    327.3   0.047681826   0.51381   0.50710  -0.33876  -0.37669
  26   30882.9    323.8   0.014399543   0.15350   0.20951   0.08214  -0.32072
  27   31064.8    321.9   0.086558865   0.91731   0.95235  -0.02630  -0.09829
  28   31526.7    317.2   0.134296548   1.40237  -1.02093  -0.22154   0.55767
  29   31593.1    316.5   0.273185196   2.84669  -1.63132   0.17082   0.39536
  30   31676.3    315.7   0.103146472   1.07200   0.50032   0.61592  -0.66508
  31   32003.2    312.5   0.073322609   0.75426   0.71724  -0.26276   0.41326
  32   32183.0    310.7   0.055762769   0.57042   0.48212   0.28485  -0.50679
  33   32567.0    307.1   0.046378376   0.46883   0.62449   0.19143  -0.20541
  34   32631.0    306.5   0.056386412   0.56888  -0.70746  -0.25158   0.07130
  35   32822.5    304.7   0.767106472   7.69414  -2.61618  -0.85362   0.34794
  36   33657.5    297.1   0.081606045   0.79821   0.00407  -0.71953  -0.52959
  37   33747.7    296.3   0.000930926   0.00908   0.02577  -0.05537  -0.07316
  38   33944.9    294.6   0.209152099   2.02844   0.53542   1.26283   0.38344
  39   34468.3    290.1   0.048518273   0.46340  -0.32761   0.58077   0.13705
  40   34658.6    288.5   0.004800407   0.04560   0.19811   0.07455  -0.02816
  41   34762.3    287.7   0.196630628   1.86217   0.70090   1.11415  -0.35996
  42   35581.1    281.0   0.026953838   0.24939  -0.26095  -0.41964   0.07206
  43   35729.3    279.9   0.239365609   2.20553   0.19121  -1.47156  -0.05902
  44   35933.3    278.3   0.038241910   0.35036   0.36802   0.40545  -0.22480
  45   36528.5    273.8   0.049273847   0.44408   0.41421   0.37857  -0.35944
  46   36699.6    272.5   0.020239768   0.18156   0.10493   0.41037  -0.04637
  47   36802.9    271.7   0.022456227   0.20088  -0.07501   0.42593   0.11763
  48   37114.1    269.4   0.059096102   0.52420  -0.32209  -0.61284   0.21187
  49   37300.9    268.1   0.047074761   0.41547   0.13116  -0.59513   0.21000
  50   37499.0    266.7   0.043911632   0.38551   0.45512   0.05808  -0.41833
  51   37622.8    265.8   0.001494037   0.01307  -0.10098  -0.00067   0.05363
  52   38179.0    261.9   0.023420045   0.20195  -0.43485   0.06953  -0.08956
  53   38225.5    261.6   0.416585369   3.58779   1.68521   0.86083  -0.08264
  54   38284.2    261.2   0.094263080   0.81058   0.67041  -0.59698   0.06890
  55   38771.1    257.9   0.107639931   0.91399  -0.85374  -0.41306  -0.12041
  56   38875.0    257.2   0.013304137   0.11267  -0.15966  -0.29361   0.03112
  57   39141.9    255.5   0.038558692   0.32431   0.09109  -0.54949  -0.11861
  58   39296.6    254.5   0.005649999   0.04733  -0.01240  -0.19312  -0.09942
  59   39379.2    253.9   0.044868667   0.37510  -0.16809   0.54155   0.23146
  60   39600.7    252.5   0.003078566   0.02559   0.05524   0.14842  -0.02266
  61   39876.4    250.8   0.001307803   0.01080  -0.05560   0.08308  -0.02833
  62   39941.7    250.4   0.040933537   0.33739   0.47080  -0.33147  -0.07653
  63   40169.7    248.9   0.009100120   0.07458  -0.06197   0.25755  -0.06641
  64   40296.8    248.2   0.069173159   0.56512   0.10636   0.74268  -0.04724

FINAL SINGLE POINT ENERGY     -7794.090018817322

DIPOLE MOMENT
-------------
                                X             Y             Z
Electronic contribution:     95.68463      34.14765     -79.48534
Nuclear contribution   :    -99.52204     -34.15629      80.44808
                        -----------------------------------------
Total Dipole Moment    :     -3.83741      -0.00864       0.96274
                        -----------------------------------------
Magnitude (a.u.)       :      3.95635
Magnitude (Debye)      :     10.05623

Rotational constants in cm-1:     0.000739     0.000440     0.000293
Rotational constants in MHz :    22.163149    13.176670     8.789280

                             ****ORCA TERMINATED NORMALLY****
TOTAL RUN TIME: 0 days 0 hours 11 minutes 10 seconds 372 msec
