                         Program Version 4.2.0 -  RELEASE  -
|  1> # ORCA input file
|  2> # SCF done       -192.616966994818          0.000882568606
|  3> ! CAM-B3LYP def2-SVP def2/J RIJCOSX Grid4 TightSCF
|  4> %maxcore 5000
|  5> %tddft
|  6>     Mode sTDDFT
|  7>     Ethresh 5.0
|  8>     maxcore 5000
|  9> end
| 10>
| 11> %pal
| 12>   nprocs 6
| 13>   end
| 14> * xyz 0 1
| 15>    C      -14.76469        -3.48917        -0.32069
| 16>    C      -15.12018        -2.30903        -0.91267
| 17>    F      -16.40824        -1.93668        -0.94628
| 18>    C      -14.14471        -1.46780        -1.48452
| 19>    F      -14.52920        -0.30892        -2.04131
| 20>    C      -12.82564        -1.82478        -1.47505
| 21>    C      -12.43257        -3.04274        -0.88790
| 22>    C      -13.41260        -3.88422        -0.28650
| 23>    C      -13.02469        -5.08292         0.35681
| 24>    C      -11.70074        -5.43137         0.38435
| 25>    C      -10.73373        -4.60645        -0.26499
| 26>    C      -11.07666        -3.43650        -0.88096
| 27>    C       -9.40833        -5.19329        -0.07292
| 28>    O       -8.33730        -4.81999        -0.54021
| 29>    C       -9.59639        -6.34694         0.82375
| 30>    C      -11.01331        -6.54543         1.03327
| 31>    C      -11.60582        -7.58155         1.70548
| 32>    C      -10.88791        -8.63611         2.30543
| 33>    N      -10.33691        -9.51059         2.80460
| 34>    C      -12.99883        -7.73339         1.86129
| 35>    N      -14.12156        -7.91185         2.01974
| 36>    C       -8.52898        -6.98108         1.40323
| 37>    N       -7.28181        -6.57532         1.11919
| 38>    C       -6.12123        -6.99342         1.68135
| 39>    S       -6.01458        -8.48831         2.55623
| 40>    C       -4.30718        -8.23881         2.73568
| 41>    N       -3.57354        -9.20263         3.44143
| 42>    O       -2.37611        -9.02497         3.55818
| 43>    O       -4.19758       -10.15009         3.88377
| 44>    C       -3.85739        -7.08363         2.15449
| 45>    C       -4.89014        -6.33565         1.55930
| 46>    C       -4.66923        -5.05869         0.92505
| 47>    C       -5.58108        -4.07536         0.80369
| 48>    C       -5.38451        -2.85639         0.09358
| 49>    C       -6.39023        -1.95402        -0.22413
| 50>    C       -7.69327        -2.07289         0.28356
| 51>    N       -8.72844        -2.15277         0.77188
| 52>    C       -5.92008        -0.86835        -1.00816
| 53>    C       -4.54460        -0.94276        -1.19981
| 54>    S       -3.82835        -2.35776        -0.52924
| 55>    S       -3.84894         0.40981        -2.03269
| 56>    C       -5.44557         1.08033        -2.16699
| 57>    C       -6.45741         0.29802        -1.62409
| 58>    C       -7.73647         0.85615        -1.87282
| 59>    C       -8.95339         0.21825        -1.63099
| 60>    N       -9.96517        -0.31547        -1.51274
| 61>    C       -7.66492         2.08932        -2.53769
| 62>    S       -6.00595         2.53966        -2.89721
| 63>    C       -8.76613         2.88218        -2.88406
| 64>    C       -8.75128         4.13619        -3.44562
| 65>    C       -9.89605         4.91465        -3.74791
| 66>    C       -9.61629         6.15446        -4.23818
| 67>    C       -8.23720         6.42574        -4.35402
| 68>    S       -7.30123         5.03373        -3.84061
| 69>    C       -7.62934         7.59834        -4.76388
| 70>    C       -8.25785         8.79661        -5.17399
| 71>    C       -7.39398         9.80704        -5.46841
| 72>    C       -6.02708         9.47157        -5.31731
| 73>    S       -5.89707         7.78596        -4.80440
| 74>    C       -4.88229        10.20148        -5.50940
| 75>    C       -4.73407        11.57661        -5.79748
| 76>    C       -5.65692        12.62349        -5.79962
| 77>    C       -4.97969        13.82869        -6.11621
| 78>    C       -5.42778        15.12548        -6.22914
| 79>    C       -4.48617        16.11580        -6.55422
| 80>    C       -4.61574        17.48424        -6.73413
| 81>    C       -3.33440        18.03753        -7.05574
| 82>    C       -2.41545        17.00601        -7.07457
| 83>    C       -3.08783        15.78062        -6.76547
| 84>    C       -2.63674        14.49550        -6.65252
| 85>    C       -3.58085        13.49602        -6.32105
| 86>    C       -3.44568        12.14041        -6.11717
| 87>    C       -3.03322        19.42469        -7.31619
| 88>    C       -3.91075        20.42438        -7.29406
| 89>    H      -15.52434        -4.11408         0.12256
| 90>    H      -12.07583        -1.16996        -1.89076
| 91>    H      -13.78402        -5.68544         0.82929
| 92>    H      -10.32980        -2.79865        -1.32637
| 93>    H       -8.64080        -7.77393         2.13215
| 94>    H       -7.24531        -5.82409         0.40442
| 95>    H       -2.82562        -6.78290         2.18373
| 96>    H       -3.66863        -4.89844         0.54376
| 97>    H       -6.56177        -4.15850         1.25093
| 98>    H       -9.73668         2.46023        -2.65439
| 99>    H      -10.88759         4.53240        -3.58291
|100>    H      -10.36374         6.87794        -4.50969
|101>    H       -9.32784         8.88056        -5.23916
|102>    H       -7.70789        10.77207        -5.81838
|103>    H       -3.95301         9.65251        -5.41483
|104>    H       -6.70078        12.56772        -5.55991
|105>    H       -6.46623        15.38257        -6.07456
|106>    H       -5.52893        18.04365        -6.64594
|107>    H       -1.36528        17.09592        -7.28443
|108>    H       -1.59810        14.23711        -6.80387
|109>    H       -2.53649        11.57016        -6.18736
|110>    H       -1.99462        19.62925        -7.54501
|111>    H       -4.95317        20.27082        -7.07334
|112>    H       -3.61391        21.43794        -7.50040
|113> *
|114>
|115>                          ****END OF INPUT****

CARTESIAN COORDINATES (ANGSTROEM)
---------------------------------
  C    -14.764690   -3.489170   -0.320690
  C    -15.120180   -2.309030   -0.912670
  F    -16.408240   -1.936680   -0.946280
  C    -14.144710   -1.467800   -1.484520
  F    -14.529200   -0.308920   -2.041310
  C    -12.825640   -1.824780   -1.475050
  C    -12.432570   -3.042740   -0.887900
  C    -13.412600   -3.884220   -0.286500
  C    -13.024690   -5.082920    0.356810
  C    -11.700740   -5.431370    0.384350
  C    -10.733730   -4.606450   -0.264990
  C    -11.076660   -3.436500   -0.880960
  C     -9.408330   -5.193290   -0.072920
  O     -8.337300   -4.819990   -0.540210
  C     -9.596390   -6.346940    0.823750
  C    -11.013310   -6.545430    1.033270
  C    -11.605820   -7.581550    1.705480
  C    -10.887910   -8.636110    2.305430
  N    -10.336910   -9.510590    2.804600
  C    -12.998830   -7.733390    1.861290
  N    -14.121560   -7.911850    2.019740
  C     -8.528980   -6.981080    1.403230
  N     -7.281810   -6.575320    1.119190
  C     -6.121230   -6.993420    1.681350
  S     -6.014580   -8.488310    2.556230
  C     -4.307180   -8.238810    2.735680
  N     -3.573540   -9.202630    3.441430
  O     -2.376110   -9.024970    3.558180
  O     -4.197580  -10.150090    3.883770
  C     -3.857390   -7.083630    2.154490
  C     -4.890140   -6.335650    1.559300
  C     -4.669230   -5.058690    0.925050
  C     -5.581080   -4.075360    0.803690
  C     -5.384510   -2.856390    0.093580
  C     -6.390230   -1.954020   -0.224130
  C     -7.693270   -2.072890    0.283560
  N     -8.728440   -2.152770    0.771880
  C     -5.920080   -0.868350   -1.008160
  C     -4.544600   -0.942760   -1.199810
  S     -3.828350   -2.357760   -0.529240
  S     -3.848940    0.409810   -2.032690
  C     -5.445570    1.080330   -2.166990
  C     -6.457410    0.298020   -1.624090
  C     -7.736470    0.856150   -1.872820
  C     -8.953390    0.218250   -1.630990
  N     -9.965170   -0.315470   -1.512740
  C     -7.664920    2.089320   -2.537690
  S     -6.005950    2.539660   -2.897210
  C     -8.766130    2.882180   -2.884060
  C     -8.751280    4.136190   -3.445620
  C     -9.896050    4.914650   -3.747910
  C     -9.616290    6.154460   -4.238180
  C     -8.237200    6.425740   -4.354020
  S     -7.301230    5.033730   -3.840610
  C     -7.629340    7.598340   -4.763880
  C     -8.257850    8.796610   -5.173990
  C     -7.393980    9.807040   -5.468410
  C     -6.027080    9.471570   -5.317310
  S     -5.897070    7.785960   -4.804400
  C     -4.882290   10.201480   -5.509400
  C     -4.734070   11.576610   -5.797480
  C     -5.656920   12.623490   -5.799620
  C     -4.979690   13.828690   -6.116210
  C     -5.427780   15.125480   -6.229140
  C     -4.486170   16.115800   -6.554220
  C     -4.615740   17.484240   -6.734130
  C     -3.334400   18.037530   -7.055740
  C     -2.415450   17.006010   -7.074570
  C     -3.087830   15.780620   -6.765470
  C     -2.636740   14.495500   -6.652520
  C     -3.580850   13.496020   -6.321050
  C     -3.445680   12.140410   -6.117170
  C     -3.033220   19.424690   -7.316190
  C     -3.910750   20.424380   -7.294060
  H    -15.524340   -4.114080    0.122560
  H    -12.075830   -1.169960   -1.890760
  H    -13.784020   -5.685440    0.829290
  H    -10.329800   -2.798650   -1.326370
  H     -8.640800   -7.773930    2.132150
  H     -7.245310   -5.824090    0.404420
  H     -2.825620   -6.782900    2.183730
  H     -3.668630   -4.898440    0.543760
  H     -6.561770   -4.158500    1.250930
  H     -9.736680    2.460230   -2.654390
  H    -10.887590    4.532400   -3.582910
  H    -10.363740    6.877940   -4.509690
  H     -9.327840    8.880560   -5.239160
  H     -7.707890   10.772070   -5.818380
  H     -3.953010    9.652510   -5.414830
  H     -6.700780   12.567720   -5.559910
  H     -6.466230   15.382570   -6.074560
  H     -5.528930   18.043650   -6.645940
  H     -1.365280   17.095920   -7.284430
  H     -1.598100   14.237110   -6.803870
  H     -2.536490   11.570160   -6.187360
  H     -1.994620   19.629250   -7.545010
  H     -4.953170   20.270820   -7.073340
  H     -3.613910   21.437940   -7.500400

 Total Charge           Charge          ....    0
 Multiplicity           Mult            ....    1
 Number of Electrons    NEL             ....  546
 Basis Dimension        Dim             .... 1180

ORBITAL ENERGIES
----------------

  NO   OCC          E(Eh)            E(eV)
   0   2.0000     -88.990900     -2421.5655
   1   2.0000     -88.988326     -2421.4955
   2   2.0000     -88.987332     -2421.4684
   3   2.0000     -88.983468     -2421.3633
   4   2.0000     -88.958474     -2420.6831
   5   2.0000     -88.954324     -2420.5702
   6   2.0000     -24.784970      -674.4333
   7   2.0000     -24.782245      -674.3592
   8   2.0000     -19.238333      -523.5017
   9   2.0000     -19.237609      -523.4819
  10   2.0000     -19.223819      -523.1067
  11   2.0000     -14.650133      -398.6504
  12   2.0000     -14.489795      -394.2874
  13   2.0000     -14.412705      -392.1896
  14   2.0000     -14.410149      -392.1201
  15   2.0000     -14.407929      -392.0597
  16   2.0000     -14.407429      -392.0461
  17   2.0000     -10.374615      -282.3076
  18   2.0000     -10.370811      -282.2041
  19   2.0000     -10.366965      -282.0995
  20   2.0000     -10.365154      -282.0502
  21   2.0000     -10.363457      -282.0040
  22   2.0000     -10.346952      -281.5549
  23   2.0000     -10.340090      -281.3682
  24   2.0000     -10.338340      -281.3205
  25   2.0000     -10.336263      -281.2640
  26   2.0000     -10.334680      -281.2209
  27   2.0000     -10.334202      -281.2079
  28   2.0000     -10.333365      -281.1851
  29   2.0000     -10.327255      -281.0189
  30   2.0000     -10.324973      -280.9568
  31   2.0000     -10.323280      -280.9107
  32   2.0000     -10.316819      -280.7349
  33   2.0000     -10.315423      -280.6969
  34   2.0000     -10.315422      -280.6969
  35   2.0000     -10.314390      -280.6688
  36   2.0000     -10.313537      -280.6456
  37   2.0000     -10.313275      -280.6385
  38   2.0000     -10.311698      -280.5956
  39   2.0000     -10.310778      -280.5705
  40   2.0000     -10.310120      -280.5526
  41   2.0000     -10.309607      -280.5387
  42   2.0000     -10.309228      -280.5284
  43   2.0000     -10.309129      -280.5257
  44   2.0000     -10.308673      -280.5132
  45   2.0000     -10.307339      -280.4769
  46   2.0000     -10.304019      -280.3866
  47   2.0000     -10.299931      -280.2754
  48   2.0000     -10.299102      -280.2528
  49   2.0000     -10.297997      -280.2227
  50   2.0000     -10.297055      -280.1971
  51   2.0000     -10.296791      -280.1899
  52   2.0000     -10.296654      -280.1862
  53   2.0000     -10.296267      -280.1757
  54   2.0000     -10.294116      -280.1171
  55   2.0000     -10.293425      -280.0983
  56   2.0000     -10.292347      -280.0690
  57   2.0000     -10.290240      -280.0117
  58   2.0000     -10.290239      -280.0116
  59   2.0000     -10.289890      -280.0022
  60   2.0000     -10.286128      -279.8998
  61   2.0000     -10.285791      -279.8906
  62   2.0000     -10.285439      -279.8810
  63   2.0000     -10.284288      -279.8497
  64   2.0000     -10.283971      -279.8411
  65   2.0000     -10.280558      -279.7482
  66   2.0000     -10.278654      -279.6964
  67   2.0000     -10.278262      -279.6857
  68   2.0000     -10.277255      -279.6583
  69   2.0000     -10.276994      -279.6512
  70   2.0000     -10.276898      -279.6486
  71   2.0000     -10.276050      -279.6255
  72   2.0000     -10.275404      -279.6080
  73   2.0000     -10.266369      -279.3621
  74   2.0000      -8.086200      -220.0367
  75   2.0000      -8.083432      -219.9614
  76   2.0000      -8.082348      -219.9319
  77   2.0000      -8.078187      -219.8186
  78   2.0000      -8.054585      -219.1764
  79   2.0000      -8.050897      -219.0761
  80   2.0000      -6.055795      -164.7865
  81   2.0000      -6.052977      -164.7099
  82   2.0000      -6.052367      -164.6933
  83   2.0000      -6.051395      -164.6668
  84   2.0000      -6.048827      -164.5970
  85   2.0000      -6.048106      -164.5773
  86   2.0000      -6.047844      -164.5702
  87   2.0000      -6.047768      -164.5681
  88   2.0000      -6.045074      -164.4948
  89   2.0000      -6.043542      -164.4531
  90   2.0000      -6.043113      -164.4415
  91   2.0000      -6.039739      -164.3497
  92   2.0000      -6.024343      -163.9307
  93   2.0000      -6.020622      -163.8294
  94   2.0000      -6.020240      -163.8190
  95   2.0000      -6.016644      -163.7212
  96   2.0000      -6.015520      -163.6906
  97   2.0000      -6.011725      -163.5873
  98   2.0000      -1.319980       -35.9185
  99   2.0000      -1.306029       -35.5388
 100   2.0000      -1.290869       -35.1263
 101   2.0000      -1.140246       -31.0277
 102   2.0000      -1.139115       -30.9969
 103   2.0000      -1.099200       -29.9108
 104   2.0000      -1.041171       -28.3317
 105   2.0000      -1.014787       -27.6138
 106   2.0000      -1.011463       -27.5233
 107   2.0000      -1.009358       -27.4660
 108   2.0000      -1.005166       -27.3520
 109   2.0000      -0.997722       -27.1494
 110   2.0000      -0.995747       -27.0957
 111   2.0000      -0.994483       -27.0613
 112   2.0000      -0.988439       -26.8968
 113   2.0000      -0.986542       -26.8452
 114   2.0000      -0.982704       -26.7407
 115   2.0000      -0.971199       -26.4277
 116   2.0000      -0.969729       -26.3877
 117   2.0000      -0.953028       -25.9332
 118   2.0000      -0.927403       -25.2359
 119   2.0000      -0.918781       -25.0013
 120   2.0000      -0.912829       -24.8393
 121   2.0000      -0.901735       -24.5374
 122   2.0000      -0.900339       -24.4995
 123   2.0000      -0.891437       -24.2572
 124   2.0000      -0.885607       -24.0986
 125   2.0000      -0.878039       -23.8927
 126   2.0000      -0.876262       -23.8443
 127   2.0000      -0.874474       -23.7957
 128   2.0000      -0.870232       -23.6802
 129   2.0000      -0.862416       -23.4675
 130   2.0000      -0.857702       -23.3393
 131   2.0000      -0.853930       -23.2366
 132   2.0000      -0.853592       -23.2274
 133   2.0000      -0.834843       -22.7172
 134   2.0000      -0.827084       -22.5061
 135   2.0000      -0.826656       -22.4944
 136   2.0000      -0.815057       -22.1788
 137   2.0000      -0.809085       -22.0163
 138   2.0000      -0.804123       -21.8813
 139   2.0000      -0.793949       -21.6045
 140   2.0000      -0.772890       -21.0314
 141   2.0000      -0.763962       -20.7885
 142   2.0000      -0.759627       -20.6705
 143   2.0000      -0.756924       -20.5970
 144   2.0000      -0.745355       -20.2822
 145   2.0000      -0.736892       -20.0518
 146   2.0000      -0.729876       -19.8609
 147   2.0000      -0.715962       -19.4823
 148   2.0000      -0.712207       -19.3801
 149   2.0000      -0.705409       -19.1952
 150   2.0000      -0.703583       -19.1455
 151   2.0000      -0.697950       -18.9922
 152   2.0000      -0.692071       -18.8322
 153   2.0000      -0.686754       -18.6875
 154   2.0000      -0.678930       -18.4746
 155   2.0000      -0.677321       -18.4308
 156   2.0000      -0.668258       -18.1842
 157   2.0000      -0.661395       -17.9975
 158   2.0000      -0.658210       -17.9108
 159   2.0000      -0.651650       -17.7323
 160   2.0000      -0.647983       -17.6325
 161   2.0000      -0.643623       -17.5139
 162   2.0000      -0.640333       -17.4244
 163   2.0000      -0.639156       -17.3923
 164   2.0000      -0.636643       -17.3239
 165   2.0000      -0.632506       -17.2114
 166   2.0000      -0.631465       -17.1830
 167   2.0000      -0.629404       -17.1269
 168   2.0000      -0.627422       -17.0730
 169   2.0000      -0.619074       -16.8459
 170   2.0000      -0.614439       -16.7197
 171   2.0000      -0.606191       -16.4953
 172   2.0000      -0.602099       -16.3840
 173   2.0000      -0.599366       -16.3096
 174   2.0000      -0.592590       -16.1252
 175   2.0000      -0.590590       -16.0708
 176   2.0000      -0.588899       -16.0248
 177   2.0000      -0.576844       -15.6967
 178   2.0000      -0.571252       -15.5446
 179   2.0000      -0.570617       -15.5273
 180   2.0000      -0.569708       -15.5025
 181   2.0000      -0.566759       -15.4223
 182   2.0000      -0.561136       -15.2693
 183   2.0000      -0.557155       -15.1609
 184   2.0000      -0.551736       -15.0135
 185   2.0000      -0.549240       -14.9456
 186   2.0000      -0.546492       -14.8708
 187   2.0000      -0.543481       -14.7889
 188   2.0000      -0.542418       -14.7599
 189   2.0000      -0.540117       -14.6973
 190   2.0000      -0.538588       -14.6557
 191   2.0000      -0.532639       -14.4939
 192   2.0000      -0.529297       -14.4029
 193   2.0000      -0.526168       -14.3178
 194   2.0000      -0.523198       -14.2369
 195   2.0000      -0.521931       -14.2025
 196   2.0000      -0.519873       -14.1465
 197   2.0000      -0.518405       -14.1065
 198   2.0000      -0.515880       -14.0378
 199   2.0000      -0.512507       -13.9460
 200   2.0000      -0.511058       -13.9066
 201   2.0000      -0.508760       -13.8441
 202   2.0000      -0.506556       -13.7841
 203   2.0000      -0.504933       -13.7399
 204   2.0000      -0.503976       -13.7139
 205   2.0000      -0.501428       -13.6446
 206   2.0000      -0.498605       -13.5677
 207   2.0000      -0.497120       -13.5273
 208   2.0000      -0.494741       -13.4626
 209   2.0000      -0.492848       -13.4111
 210   2.0000      -0.490299       -13.3417
 211   2.0000      -0.489898       -13.3308
 212   2.0000      -0.482014       -13.1163
 213   2.0000      -0.481522       -13.1029
 214   2.0000      -0.479351       -13.0438
 215   2.0000      -0.477832       -13.0025
 216   2.0000      -0.474694       -12.9171
 217   2.0000      -0.469577       -12.7778
 218   2.0000      -0.467427       -12.7193
 219   2.0000      -0.464528       -12.6404
 220   2.0000      -0.463563       -12.6142
 221   2.0000      -0.462270       -12.5790
 222   2.0000      -0.459092       -12.4925
 223   2.0000      -0.458305       -12.4711
 224   2.0000      -0.457150       -12.4397
 225   2.0000      -0.452249       -12.3063
 226   2.0000      -0.450323       -12.2539
 227   2.0000      -0.447367       -12.1735
 228   2.0000      -0.445499       -12.1226
 229   2.0000      -0.444983       -12.1086
 230   2.0000      -0.441903       -12.0248
 231   2.0000      -0.439401       -11.9567
 232   2.0000      -0.438221       -11.9246
 233   2.0000      -0.437458       -11.9038
 234   2.0000      -0.435011       -11.8373
 235   2.0000      -0.430843       -11.7238
 236   2.0000      -0.429503       -11.6874
 237   2.0000      -0.427773       -11.6403
 238   2.0000      -0.427109       -11.6222
 239   2.0000      -0.425859       -11.5882
 240   2.0000      -0.422745       -11.5035
 241   2.0000      -0.419219       -11.4075
 242   2.0000      -0.415369       -11.3028
 243   2.0000      -0.415195       -11.2980
 244   2.0000      -0.411898       -11.2083
 245   2.0000      -0.406703       -11.0670
 246   2.0000      -0.403184       -10.9712
 247   2.0000      -0.398486       -10.8433
 248   2.0000      -0.395778       -10.7697
 249   2.0000      -0.385619       -10.4932
 250   2.0000      -0.383991       -10.4489
 251   2.0000      -0.382670       -10.4130
 252   2.0000      -0.377765       -10.2795
 253   2.0000      -0.377321       -10.2674
 254   2.0000      -0.374100       -10.1798
 255   2.0000      -0.369563       -10.0563
 256   2.0000      -0.366866        -9.9829
 257   2.0000      -0.360895        -9.8205
 258   2.0000      -0.349497        -9.5103
 259   2.0000      -0.347695        -9.4613
 260   2.0000      -0.345045        -9.3892
 261   2.0000      -0.338217        -9.2033
 262   2.0000      -0.336180        -9.1479
 263   2.0000      -0.328137        -8.9290
 264   2.0000      -0.316085        -8.6011
 265   2.0000      -0.306473        -8.3396
 266   2.0000      -0.295679        -8.0458
 267   2.0000      -0.291500        -7.9321
 268   2.0000      -0.285255        -7.7622
 269   2.0000      -0.279836        -7.6147
 270   2.0000      -0.263963        -7.1828
 271   2.0000      -0.259655        -7.0656
 272   2.0000      -0.216395        -5.8884
 273   0.0000      -0.110693        -3.0121
 274   0.0000      -0.087021        -2.3680
 275   0.0000      -0.085799        -2.3347
 276   0.0000      -0.059331        -1.6145
 277   0.0000      -0.053980        -1.4689

MULLIKEN ATOMIC CHARGES
-----------------------
   0 C :   -0.115649
   1 C :    0.242923
   2 F :   -0.176795
   3 C :    0.233855
   4 F :   -0.178068
   5 C :   -0.079889
   6 C :    0.085905
   7 C :    0.118169
   8 C :   -0.089358
   9 C :    0.039676
  10 C :    0.025019
  11 C :   -0.031463
  12 C :    0.181629
  13 O :   -0.226136
  14 C :   -0.125146
  15 C :    0.326759
  16 C :   -0.345215
  17 C :   -0.205128
  18 N :    0.147630
  19 C :   -0.181718
  20 N :    0.145868
  21 C :    0.027212
  22 N :   -0.023020
  23 C :   -0.114047
  24 S :    0.193066
  25 C :   -0.001044
  26 N :    0.276223
  27 O :   -0.249140
  28 O :   -0.255969
  29 C :    0.006629
  30 C :    0.114587
  31 C :   -0.029756
  32 C :   -0.000353
  33 C :   -0.092740
  34 C :   -0.009046
  35 C :   -0.275077
  36 N :    0.167035
  37 C :    0.137387
  38 C :   -0.228905
  39 S :    0.158702
  40 S :    0.185682
  41 C :   -0.229422
  42 C :    0.159564
  43 C :   -0.040793
  44 C :   -0.278908
  45 N :    0.167874
  46 C :   -0.056326
  47 S :    0.143466
  48 C :   -0.064655
  49 C :   -0.015759
  50 C :    0.017790
  51 C :    0.042955
  52 C :   -0.044614
  53 S :    0.064312
  54 C :   -0.035476
  55 C :    0.011046
  56 C :    0.042832
  57 C :   -0.067295
  58 S :    0.092677
  59 C :    0.045914
  60 C :    0.063702
  61 C :   -0.038241
  62 C :    0.049518
  63 C :    0.003664
  64 C :    0.044572
  65 C :   -0.014767
  66 C :    0.060373
  67 C :   -0.022958
  68 C :    0.059368
  69 C :    0.000346
  70 C :    0.059898
  71 C :   -0.036915
  72 C :    0.012877
  73 C :   -0.025778
  74 H :    0.001301
  75 H :   -0.007170
  76 H :   -0.009321
  77 H :   -0.012910
  78 H :    0.045867
  79 H :    0.180247
  80 H :    0.011564
  81 H :    0.002524
  82 H :    0.013772
  83 H :    0.008175
  84 H :   -0.004428
  85 H :   -0.009519
  86 H :   -0.010256
  87 H :   -0.013822
  88 H :   -0.016480
  89 H :   -0.033678
  90 H :   -0.023574
  91 H :   -0.020751
  92 H :   -0.024575
  93 H :   -0.023678
  94 H :   -0.020578
  95 H :   -0.016698
  96 H :    0.009524
  97 H :    0.023335
Sum of atomic charges:   -0.0000000

LOEWDIN ATOMIC CHARGES
----------------------
   0 C :   -0.036447
   1 C :    0.067763
   2 F :   -0.053699
   3 C :    0.061073
   4 F :   -0.056057
   5 C :   -0.017952
   6 C :   -0.006950
   7 C :   -0.005348
   8 C :    0.014739
   9 C :   -0.021819
  10 C :   -0.057119
  11 C :    0.059452
  12 C :    0.104558
  13 O :   -0.170242
  14 C :   -0.134956
  15 C :    0.081360
  16 C :   -0.150433
  17 C :   -0.020760
  18 N :   -0.058424
  19 C :   -0.018694
  20 N :   -0.056613
  21 C :    0.109273
  22 N :    0.070667
  23 C :   -0.104655
  24 S :    0.480506
  25 C :   -0.205612
  26 N :    0.273151
  27 O :   -0.214540
  28 O :   -0.222749
  29 C :    0.001274
  30 C :   -0.092993
  31 C :   -0.018901
  32 C :   -0.036626
  33 C :   -0.128722
  34 C :   -0.090886
  35 C :   -0.026725
  36 N :   -0.049772
  37 C :   -0.064050
  38 C :   -0.329897
  39 S :    0.446773
  40 S :    0.421934
  41 C :   -0.342553
  42 C :   -0.057910
  43 C :   -0.125809
  44 C :   -0.009096
  45 N :   -0.066932
  46 C :   -0.118339
  47 S :    0.438532
  48 C :   -0.097070
  49 C :   -0.131662
  50 C :   -0.042540
  51 C :   -0.021685
  52 C :   -0.194212
  53 S :    0.369009
  54 C :   -0.160584
  55 C :   -0.031730
  56 C :   -0.023825
  57 C :   -0.153709
  58 S :    0.377297
  59 C :   -0.029799
  60 C :   -0.063557
  61 C :    0.003979
  62 C :   -0.055689
  63 C :    0.073227
  64 C :   -0.062122
  65 C :    0.052695
  66 C :   -0.056778
  67 C :    0.017335
  68 C :   -0.056126
  69 C :    0.069682
  70 C :   -0.063402
  71 C :    0.037801
  72 C :   -0.021574
  73 C :   -0.050565
  74 H :    0.045012
  75 H :    0.041074
  76 H :    0.038841
  77 H :    0.040456
  78 H :    0.036894
  79 H :    0.083910
  80 H :    0.046949
  81 H :    0.028650
  82 H :    0.037468
  83 H :    0.046667
  84 H :    0.036500
  85 H :    0.034009
  86 H :    0.033334
  87 H :    0.032704
  88 H :    0.031705
  89 H :    0.019903
  90 H :    0.035259
  91 H :    0.026324
  92 H :    0.025436
  93 H :    0.035610
  94 H :    0.025920
  95 H :    0.030208
  96 H :    0.018230
  97 H :    0.025769

  Mayer bond orders larger than 0.100000
B(  0-C ,  1-C ) :   1.4357 B(  0-C ,  5-C ) :   0.1111 B(  0-C ,  7-C ) :   1.1938
B(  0-C , 74-H ) :   1.0068 B(  1-C ,  2-F ) :   1.1281 B(  1-C ,  3-C ) :   1.1901
B(  3-C ,  4-F ) :   1.1314 B(  3-C ,  5-C ) :   1.4283 B(  5-C ,  6-C ) :   1.2095
B(  5-C , 75-H ) :   0.9921 B(  6-C ,  7-C ) :   1.2445 B(  6-C , 11-C ) :   1.2096
B(  7-C ,  8-C ) :   1.2073 B(  8-C ,  9-C ) :   1.4624 B(  8-C , 76-H ) :   0.9907
B(  9-C , 10-C ) :   1.2081 B(  9-C , 15-C ) :   0.9959 B( 10-C , 11-C ) :   1.4445
B( 10-C , 12-C ) :   0.9905 B( 11-C , 77-H ) :   1.0119 B( 12-C , 13-O ) :   1.9983
B( 12-C , 14-C ) :   0.9954 B( 13-O , 79-H ) :   0.1486 B( 14-C , 15-C ) :   1.0889
B( 14-C , 21-C ) :   1.4846 B( 15-C , 16-C ) :   1.6309 B( 16-C , 17-C ) :   1.1469
B( 16-C , 19-C ) :   1.1446 B( 17-C , 18-N ) :   2.9695 B( 19-C , 20-N ) :   2.9667
B( 21-C , 22-N ) :   1.3036 B( 21-C , 78-H ) :   0.9357 B( 22-N , 23-C ) :   1.1870
B( 22-N , 79-H ) :   0.8239 B( 23-C , 24-S ) :   1.1485 B( 23-C , 30-C ) :   1.3890
B( 24-S , 25-C ) :   1.0858 B( 25-C , 26-N ) :   0.9655 B( 25-C , 29-C ) :   1.4911
B( 26-N , 27-O ) :   1.5373 B( 26-N , 28-O ) :   1.5170 B( 27-O , 28-O ) :   0.2615
B( 29-C , 30-C ) :   1.2186 B( 29-C , 80-H ) :   1.0081 B( 30-C , 31-C ) :   1.0756
B( 31-C , 32-C ) :   1.6953 B( 31-C , 81-H ) :   0.9644 B( 32-C , 33-C ) :   1.1942
B( 32-C , 82-H ) :   0.9481 B( 33-C , 34-C ) :   1.4894 B( 33-C , 39-S ) :   1.1154
B( 34-C , 35-C ) :   1.1743 B( 34-C , 37-C ) :   1.2492 B( 35-C , 36-N ) :   2.9240
B( 37-C , 38-C ) :   1.4122 B( 37-C , 42-C ) :   1.0628 B( 38-C , 39-S ) :   1.0908
B( 38-C , 40-S ) :   1.0910 B( 40-S , 41-C ) :   1.0758 B( 41-C , 42-C ) :   1.4166
B( 41-C , 47-S ) :   1.0781 B( 42-C , 43-C ) :   1.2587 B( 43-C , 44-C ) :   1.1842
B( 43-C , 46-C ) :   1.4166 B( 44-C , 45-N ) :   2.9275 B( 46-C , 47-S ) :   1.1070
B( 46-C , 48-C ) :   1.2412 B( 48-C , 49-C ) :   1.5283 B( 48-C , 83-H ) :   0.9625
B( 49-C , 50-C ) :   1.1557 B( 49-C , 53-S ) :   1.0543 B( 50-C , 51-C ) :   1.5730
B( 50-C , 84-H ) :   1.0020 B( 51-C , 52-C ) :   1.2015 B( 51-C , 85-H ) :   0.9923
B( 52-C , 53-S ) :   1.0297 B( 52-C , 54-C ) :   1.4856 B( 54-C , 55-C ) :   1.1913
B( 54-C , 58-S ) :   1.0758 B( 55-C , 56-C ) :   1.5959 B( 55-C , 86-H ) :   0.9941
B( 56-C , 57-C ) :   1.1559 B( 56-C , 87-H ) :   0.9921 B( 57-C , 58-S ) :   1.0229
B( 57-C , 59-C ) :   1.5665 B( 59-C , 60-C ) :   1.1671 B( 59-C , 88-H ) :   0.9506
B( 60-C , 61-C ) :   1.4365 B( 60-C , 71-C ) :   1.1252 B( 61-C , 62-C ) :   1.1387
B( 61-C , 89-H ) :   1.0087 B( 62-C , 63-C ) :   1.4200 B( 62-C , 70-C ) :   1.1302
B( 63-C , 64-C ) :   1.1479 B( 63-C , 90-H ) :   1.0037 B( 64-C , 65-C ) :   1.4229
B( 64-C , 68-C ) :   1.1233 B( 65-C , 66-C ) :   1.1506 B( 65-C , 91-H ) :   1.0084
B( 66-C , 67-C ) :   1.5054 B( 66-C , 72-C ) :   1.0840 B( 67-C , 68-C ) :   1.0821
B( 67-C , 92-H ) :   1.0173 B( 68-C , 69-C ) :   1.4805 B( 69-C , 70-C ) :   1.1134
B( 69-C , 93-H ) :   1.0054 B( 70-C , 71-C ) :   1.4443 B( 71-C , 94-H ) :   1.0160
B( 72-C , 73-C ) :   1.9321 B( 72-C , 95-H ) :   0.9670 B( 73-C , 96-H ) :   0.9537
B( 73-C , 97-H ) :   0.9502

-----------------------------------------------------------------------------
         ABSORPTION SPECTRUM VIA TRANSITION ELECTRIC DIPOLE MOMENTS
-----------------------------------------------------------------------------
State   Energy  Wavelength   fosc         T2         TX        TY        TZ
        (cm-1)    (nm)                  (au**2)     (au)      (au)      (au)
-----------------------------------------------------------------------------
   0    7274.6   1374.6   0.099804490   4.51666   0.52372   1.97956  -0.56896
   1   14170.3    705.7   2.145986075  49.85679  -1.47579  -6.56343   2.14482
   2   16007.3    624.7   0.010149474   0.20874  -0.44957   0.03683   0.07259
   3   19741.9    506.5   0.003089963   0.05153   0.19466  -0.09473   0.06825
   4   21472.4    465.7   0.496540878   7.61290   2.71973   0.40897   0.22069
   5   22149.4    451.5   0.191653794   2.84860  -0.08653  -1.62288   0.45537
   6   23994.0    416.8   0.013573224   0.18623  -0.33237   0.09773  -0.25731
   7   24696.3    404.9   0.029641300   0.39513  -0.61079   0.01443  -0.14785
   8   25601.2    390.6   0.046947181   0.60371   0.71837   0.04050   0.29328
   9   25785.2    387.8   0.040325856   0.51486  -0.59933  -0.39439  -0.01117
  10   25834.2    387.1   0.190504379   2.42764  -1.31328  -0.81194  -0.20906
  11   26608.8    375.8   0.018725448   0.23168   0.32189   0.24289  -0.26280
  12   26886.7    371.9   0.026618369   0.32593  -0.49294   0.01184  -0.28774
  13   27545.9    363.0   0.081594930   0.97517  -0.57314   0.69022  -0.41266
  14   27867.5    358.8   0.106805836   1.26175   0.35531  -0.87066   0.61438
  15   28014.0    357.0   0.138409889   1.62655   0.18806   1.23029  -0.27850
  16   29162.0    342.9   0.247340213   2.79224  -1.07771   1.13809  -0.57925
  17   29836.3    335.2   0.064707623   0.71398  -0.28505   0.69542  -0.38616
  18   29906.5    334.4   0.587942187   6.47210   1.82390  -1.52936   0.89808
  19   30037.7    332.9   0.102028832   1.11823   0.08042   0.90354  -0.54348
  20   30290.3    330.1   0.089555698   0.97334  -0.43099   0.79678  -0.39080
  21   30632.0    326.5   0.003385951   0.03639   0.12805   0.05893   0.12853
  22   30773.1    325.0   0.043499131   0.46536  -0.22984   0.53584  -0.35413
  23   30924.7    323.4   0.001699329   0.01809  -0.06496   0.09972  -0.06266
  24   32006.7    312.4   0.031110571   0.31999   0.18664   0.51857  -0.12747
  25   32581.9    306.9   0.116038606   1.17247   0.28979  -0.85179   0.60245
  26   32735.8    305.5   0.056503220   0.56823  -0.33762   0.58495  -0.33479
  27   32826.2    304.6   0.127102084   1.27470  -0.21404   1.06013  -0.32406
  28   33181.1    301.4   0.191450235   1.89950   0.15160  -1.29065   0.45908
  29   33281.2    300.5   0.670973897   6.63716   0.89381  -2.11234   1.17316
  30   33902.5    295.0   0.444259775   4.31401  -0.08375   2.02778  -0.44171
  31   34175.1    292.6   0.250586171   2.41392   0.92912  -1.19208   0.36000
  32   34298.4    291.6   0.005727878   0.05498  -0.00943  -0.02830   0.23257
  33   34900.8    286.5   0.069025407   0.65110  -0.79598   0.12283   0.04926
  34   35121.6    284.7   0.039941220   0.37439  -0.38412  -0.44686   0.16480
  35   35740.8    279.8   0.162547717   1.49724   0.02128   1.13997  -0.44413
  36   35931.5    278.3   0.009289900   0.08512  -0.05187   0.28189  -0.05443
  37   36018.8    277.6   0.149964405   1.37067   0.57368  -0.99927   0.20741
  38   36204.0    276.2   0.015111740   0.13741   0.29406  -0.17854  -0.13807
  39   36246.1    275.9   0.027503836   0.24981   0.21695   0.31668  -0.32009
  40   36525.1    273.8   0.177767667   1.60228  -1.12794  -0.40283   0.40957
  41   36763.1    272.0   0.098494738   0.88202   0.42686   0.74713  -0.37630
  42   36802.6    271.7   0.084349002   0.75453  -0.72175   0.48201   0.03577
  43   37057.9    269.8   0.041119026   0.36529   0.16636   0.55566  -0.16987
  44   37393.9    267.4   0.003415514   0.03007   0.15082  -0.08292   0.02113
  45   37424.8    267.2   0.005767383   0.05073  -0.02192   0.21208  -0.07263
  46   37503.9    266.6   0.013896318   0.12198  -0.16149  -0.27811   0.13622
  47   37544.9    266.3   0.049353444   0.43275   0.14991   0.63135  -0.10808
  48   37963.9    263.4   0.152870393   1.32565   0.32147  -1.07415   0.26172
  49   38169.3    262.0   0.001386413   0.01196  -0.10594   0.00844   0.02576
  50   38394.2    260.5   0.091101687   0.78115   0.55117  -0.65163   0.22968
  51   38742.0    258.1   0.053529709   0.45487   0.21332   0.60984  -0.19353
  52   39000.2    256.4   0.028222896   0.23824   0.48186  -0.07248  -0.02813
  53   39579.7    252.7   0.020931152   0.17410  -0.03416   0.41550  -0.01716
  54   40027.1    249.8   0.014165059   0.11650  -0.27791  -0.19769   0.01357
  55   40114.7    249.3   0.000933449   0.00766  -0.05106  -0.06236   0.03412

FINAL SINGLE POINT ENERGY     -5324.857419311876

DIPOLE MOMENT
-------------
                                X             Y             Z
Electronic contribution:    -23.33801    -108.94617      34.90587
Nuclear contribution   :     25.94753     116.69585     -38.60870
                        -----------------------------------------
Total Dipole Moment    :      2.60953       7.74968      -3.70283
                        -----------------------------------------
Magnitude (a.u.)       :      8.97653
Magnitude (Debye)      :     22.81652

Rotational constants in cm-1:     0.001429     0.000199     0.000176
Rotational constants in MHz :    42.843719     5.969820     5.274145

                             ****ORCA TERMINATED NORMALLY****
TOTAL RUN TIME: 0 days 0 hours 12 minutes 38 seconds 402 msec
