                         Program Version 4.2.0 -  RELEASE  -
|  1> # ORCA input file
|  2> # SCF done       -215.265716057538          0.000951109803
|  3> ! CAM-B3LYP def2-SVP def2/J RIJCOSX Grid4 TightSCF
|  4> %maxcore 5000
|  5> %tddft
|  6>     Mode sTDDFT
|  7>     Ethresh 5.0
|  8>     maxcore 5000
|  9> end
| 10>
| 11> %pal
| 12>   nprocs 6
| 13>   end
| 14> * xyz 0 1
| 15>    C        1.92558        -6.00884        -5.52778
| 16>    C        3.05260        -6.56273        -6.06721
| 17>    F        3.38073        -6.31451        -7.34355
| 18>    C        3.88136        -7.39859        -5.29373
| 19>    F        4.98102        -7.92944        -5.84897
| 20>    C        3.57177        -7.66926        -3.99023
| 21>    C        2.41710        -7.11415        -3.40607
| 22>    C        1.57812        -6.26843        -4.18712
| 23>    C        0.41299        -5.69956        -3.62163
| 24>    C        0.09699        -5.97081        -2.31748
| 25>    C        0.93788        -6.82072        -1.54656
| 26>    C        2.06972        -7.38088        -2.06235
| 27>    C        0.36987        -6.96829        -0.18962
| 28>    O        0.84714        -7.61324         0.72325
| 29>    C       -0.88518        -6.18905        -0.19851
| 30>    C       -1.01649        -5.53382        -1.47526
| 31>    C       -1.97400        -4.61778        -1.84202
| 32>    C       -2.98672        -4.11188        -1.00179
| 33>    N       -3.81860        -3.62469        -0.37679
| 34>    C       -2.04356        -4.01743        -3.11465
| 35>    N       -2.15954        -3.49922        -4.13344
| 36>    C       -1.80083        -6.16771         0.83333
| 37>    C       -1.62787        -6.79660         2.06370
| 38>    C       -2.59230        -6.79472         3.05164
| 39>    C       -2.48248        -7.38746         4.33257
| 40>    C       -3.59190        -7.23984         5.10968
| 41>    C       -4.63629        -6.53067         4.47393
| 42>    S       -4.15984        -6.04157         2.86631
| 43>    C       -5.89328        -6.24037         4.97350
| 44>    C       -6.41784        -6.55807         6.24950
| 45>    C       -7.70008        -6.14652         6.42903
| 46>    C       -8.26757        -5.49549         5.29819
| 47>    S       -7.08406        -5.40760         4.00915
| 48>    C       -9.52305        -4.94611         5.26385
| 49>    C      -10.18079        -4.34093         4.17179
| 50>    C      -10.04911        -4.54256         2.79762
| 51>    C       -9.39479        -5.64929         2.23764
| 52>    N       -8.95416        -6.60851         1.78784
| 53>    C      -10.88379        -3.67811         2.03982
| 54>    C      -11.67470        -2.87778         2.85730
| 55>    S      -11.40731        -3.12993         4.53592
| 56>    S      -12.77471        -1.82873         2.02180
| 57>    C      -12.15455        -2.45669         0.53084
| 58>    C      -11.15110        -3.41588         0.66329
| 59>    C      -10.66384        -3.82526        -0.59950
| 60>    C       -9.61516        -4.72683        -0.83303
| 61>    N       -8.75172        -5.43947        -1.08406
| 62>    C      -11.32107        -3.19070        -1.66226
| 63>    S      -12.54895        -2.07200        -1.09827
| 64>    C      -11.03065        -3.39319        -3.02115
| 65>    C      -11.66861        -2.84389        -4.10279
| 66>    C      -11.31973        -3.05818        -5.46265
| 67>    C      -12.12228        -2.41619        -6.35319
| 68>    C      -13.15814        -1.66544        -5.74915
| 69>    S      -13.06185        -1.78333        -4.00866
| 70>    C      -14.15898        -0.93944        -6.36854
| 71>    C      -14.36769        -0.74979        -7.75259
| 72>    C      -15.47351        -0.00719        -8.04198
| 73>    C      -16.19662         0.42067        -6.90379
| 74>    S      -15.40417        -0.12724        -5.44702
| 75>    C      -17.36589         1.15571        -6.90180
| 76>    C      -18.05151         1.49234        -5.73904
| 77>    C      -19.22427         2.20264        -5.60668
| 78>    C      -20.00192         2.05858        -4.35387
| 79>    O      -19.62592         1.55632        -3.31699
| 80>    C      -21.33981         2.60841        -4.65777
| 81>    C      -22.46076         2.61724        -3.88077
| 82>    C      -23.65562         3.16051        -4.40526
| 83>    C      -23.66122         3.68330        -5.73033
| 84>    C      -24.85760         4.21464        -6.25136
| 85>    C      -25.99408         4.22783        -5.49207
| 86>    C      -25.98687         3.71148        -4.18167
| 87>    C      -24.84233         3.18884        -3.64787
| 88>    F      -27.11681         3.73552        -3.45952
| 89>    F      -27.13131         4.73356        -5.99046
| 90>    C      -22.47936         3.66875        -6.50813
| 91>    C      -21.33308         3.14297        -5.97727
| 92>    C      -19.98040         3.01036        -6.52415
| 93>    C      -19.50399         3.70855        -7.60905
| 94>    C      -18.14457         3.79784        -7.96723
| 95>    N      -17.05006         3.94428        -8.28358
| 96>    C      -20.30948         4.51470        -8.43705
| 97>    N      -20.91995         5.16653        -9.15924
| 98>    H        1.30210        -5.37017        -6.13383
| 99>    H        4.21644        -8.31165        -3.41100
|100>    H       -0.20192        -5.06623        -4.24022
|101>    H        2.69164        -8.02015        -1.45426
|102>    H       -2.73325        -5.63664         0.68352
|103>    H       -0.69909        -7.31262         2.26105
|104>    H       -1.58822        -7.90288         4.63453
|105>    H       -3.68818        -7.62508         6.10869
|106>    H       -5.83651        -7.07238         6.99302
|107>    H       -8.26932        -6.29582         7.32929
|108>    H      -10.05803        -4.91429         6.20513
|109>    H      -10.20443        -4.06369        -3.22433
|110>    H      -10.48453        -3.68076        -5.72961
|111>    H      -12.00535        -2.46755        -7.42036
|112>    H      -13.70496        -1.16264        -8.49145
|113>    H      -15.79458         0.24874        -9.03577
|114>    H      -17.76451         1.43187        -7.86659
|115>    H      -17.68194         1.06648        -4.80991
|116>    H      -22.43890         2.21110        -2.88096
|117>    H      -24.88007         4.61673        -7.25219
|118>    H      -24.85273         2.79676        -2.64293
|119>    H      -22.51667         4.06600        -7.50976
|120> *
|121>
|122>                          ****END OF INPUT****

CARTESIAN COORDINATES (ANGSTROEM)
---------------------------------
  C      1.925580   -6.008840   -5.527780
  C      3.052600   -6.562730   -6.067210
  F      3.380730   -6.314510   -7.343550
  C      3.881360   -7.398590   -5.293730
  F      4.981020   -7.929440   -5.848970
  C      3.571770   -7.669260   -3.990230
  C      2.417100   -7.114150   -3.406070
  C      1.578120   -6.268430   -4.187120
  C      0.412990   -5.699560   -3.621630
  C      0.096990   -5.970810   -2.317480
  C      0.937880   -6.820720   -1.546560
  C      2.069720   -7.380880   -2.062350
  C      0.369870   -6.968290   -0.189620
  O      0.847140   -7.613240    0.723250
  C     -0.885180   -6.189050   -0.198510
  C     -1.016490   -5.533820   -1.475260
  C     -1.974000   -4.617780   -1.842020
  C     -2.986720   -4.111880   -1.001790
  N     -3.818600   -3.624690   -0.376790
  C     -2.043560   -4.017430   -3.114650
  N     -2.159540   -3.499220   -4.133440
  C     -1.800830   -6.167710    0.833330
  C     -1.627870   -6.796600    2.063700
  C     -2.592300   -6.794720    3.051640
  C     -2.482480   -7.387460    4.332570
  C     -3.591900   -7.239840    5.109680
  C     -4.636290   -6.530670    4.473930
  S     -4.159840   -6.041570    2.866310
  C     -5.893280   -6.240370    4.973500
  C     -6.417840   -6.558070    6.249500
  C     -7.700080   -6.146520    6.429030
  C     -8.267570   -5.495490    5.298190
  S     -7.084060   -5.407600    4.009150
  C     -9.523050   -4.946110    5.263850
  C    -10.180790   -4.340930    4.171790
  C    -10.049110   -4.542560    2.797620
  C     -9.394790   -5.649290    2.237640
  N     -8.954160   -6.608510    1.787840
  C    -10.883790   -3.678110    2.039820
  C    -11.674700   -2.877780    2.857300
  S    -11.407310   -3.129930    4.535920
  S    -12.774710   -1.828730    2.021800
  C    -12.154550   -2.456690    0.530840
  C    -11.151100   -3.415880    0.663290
  C    -10.663840   -3.825260   -0.599500
  C     -9.615160   -4.726830   -0.833030
  N     -8.751720   -5.439470   -1.084060
  C    -11.321070   -3.190700   -1.662260
  S    -12.548950   -2.072000   -1.098270
  C    -11.030650   -3.393190   -3.021150
  C    -11.668610   -2.843890   -4.102790
  C    -11.319730   -3.058180   -5.462650
  C    -12.122280   -2.416190   -6.353190
  C    -13.158140   -1.665440   -5.749150
  S    -13.061850   -1.783330   -4.008660
  C    -14.158980   -0.939440   -6.368540
  C    -14.367690   -0.749790   -7.752590
  C    -15.473510   -0.007190   -8.041980
  C    -16.196620    0.420670   -6.903790
  S    -15.404170   -0.127240   -5.447020
  C    -17.365890    1.155710   -6.901800
  C    -18.051510    1.492340   -5.739040
  C    -19.224270    2.202640   -5.606680
  C    -20.001920    2.058580   -4.353870
  O    -19.625920    1.556320   -3.316990
  C    -21.339810    2.608410   -4.657770
  C    -22.460760    2.617240   -3.880770
  C    -23.655620    3.160510   -4.405260
  C    -23.661220    3.683300   -5.730330
  C    -24.857600    4.214640   -6.251360
  C    -25.994080    4.227830   -5.492070
  C    -25.986870    3.711480   -4.181670
  C    -24.842330    3.188840   -3.647870
  F    -27.116810    3.735520   -3.459520
  F    -27.131310    4.733560   -5.990460
  C    -22.479360    3.668750   -6.508130
  C    -21.333080    3.142970   -5.977270
  C    -19.980400    3.010360   -6.524150
  C    -19.503990    3.708550   -7.609050
  C    -18.144570    3.797840   -7.967230
  N    -17.050060    3.944280   -8.283580
  C    -20.309480    4.514700   -8.437050
  N    -20.919950    5.166530   -9.159240
  H      1.302100   -5.370170   -6.133830
  H      4.216440   -8.311650   -3.411000
  H     -0.201920   -5.066230   -4.240220
  H      2.691640   -8.020150   -1.454260
  H     -2.733250   -5.636640    0.683520
  H     -0.699090   -7.312620    2.261050
  H     -1.588220   -7.902880    4.634530
  H     -3.688180   -7.625080    6.108690
  H     -5.836510   -7.072380    6.993020
  H     -8.269320   -6.295820    7.329290
  H    -10.058030   -4.914290    6.205130
  H    -10.204430   -4.063690   -3.224330
  H    -10.484530   -3.680760   -5.729610
  H    -12.005350   -2.467550   -7.420360
  H    -13.704960   -1.162640   -8.491450
  H    -15.794580    0.248740   -9.035770
  H    -17.764510    1.431870   -7.866590
  H    -17.681940    1.066480   -4.809910
  H    -22.438900    2.211100   -2.880960
  H    -24.880070    4.616730   -7.252190
  H    -24.852730    2.796760   -2.642930
  H    -22.516670    4.066000   -7.509760

 Total Charge           Charge          ....    0
 Multiplicity           Mult            ....    1
 Number of Electrons    NEL             ....  612
 Basis Dimension        Dim             .... 1300

ORBITAL ENERGIES
----------------

  NO   OCC          E(Eh)            E(eV)
   0   2.0000     -88.996556     -2421.7194
   1   2.0000     -88.995070     -2421.6790
   2   2.0000     -88.992694     -2421.6143
   3   2.0000     -88.974421     -2421.1171
   4   2.0000     -88.968826     -2420.9648
   5   2.0000     -88.967421     -2420.9266
   6   2.0000     -88.964446     -2420.8457
   7   2.0000     -24.792072      -674.6266
   8   2.0000     -24.791488      -674.6107
   9   2.0000     -24.791141      -674.6012
  10   2.0000     -24.790469      -674.5830
  11   2.0000     -19.207173      -522.6538
  12   2.0000     -19.204836      -522.5902
  13   2.0000     -14.408764      -392.0824
  14   2.0000     -14.408645      -392.0792
  15   2.0000     -14.407322      -392.0432
  16   2.0000     -14.405837      -392.0028
  17   2.0000     -14.405065      -391.9817
  18   2.0000     -14.404613      -391.9694
  19   2.0000     -10.374404      -282.3019
  20   2.0000     -10.373807      -282.2856
  21   2.0000     -10.373792      -282.2852
  22   2.0000     -10.373053      -282.2651
  23   2.0000     -10.357831      -281.8509
  24   2.0000     -10.355855      -281.7971
  25   2.0000     -10.347311      -281.5646
  26   2.0000     -10.347118      -281.5594
  27   2.0000     -10.345057      -281.5033
  28   2.0000     -10.343082      -281.4496
  29   2.0000     -10.342976      -281.4467
  30   2.0000     -10.338484      -281.3245
  31   2.0000     -10.336807      -281.2788
  32   2.0000     -10.336595      -281.2730
  33   2.0000     -10.335376      -281.2399
  34   2.0000     -10.333504      -281.1889
  35   2.0000     -10.333227      -281.1814
  36   2.0000     -10.333207      -281.1809
  37   2.0000     -10.332571      -281.1635
  38   2.0000     -10.331628      -281.1379
  39   2.0000     -10.331454      -281.1332
  40   2.0000     -10.330888      -281.1177
  41   2.0000     -10.329854      -281.0896
  42   2.0000     -10.329252      -281.0732
  43   2.0000     -10.318685      -280.7857
  44   2.0000     -10.318159      -280.7714
  45   2.0000     -10.314820      -280.6805
  46   2.0000     -10.314584      -280.6741
  47   2.0000     -10.313424      -280.6425
  48   2.0000     -10.312116      -280.6069
  49   2.0000     -10.311907      -280.6012
  50   2.0000     -10.311059      -280.5782
  51   2.0000     -10.310649      -280.5670
  52   2.0000     -10.310558      -280.5645
  53   2.0000     -10.310181      -280.5543
  54   2.0000     -10.308929      -280.5202
  55   2.0000     -10.308516      -280.5090
  56   2.0000     -10.308175      -280.4997
  57   2.0000     -10.307956      -280.4937
  58   2.0000     -10.307803      -280.4896
  59   2.0000     -10.307677      -280.4861
  60   2.0000     -10.305933      -280.4387
  61   2.0000     -10.302759      -280.3523
  62   2.0000     -10.302480      -280.3447
  63   2.0000     -10.302467      -280.3444
  64   2.0000     -10.301929      -280.3297
  65   2.0000     -10.301615      -280.3212
  66   2.0000     -10.301613      -280.3212
  67   2.0000     -10.299281      -280.2577
  68   2.0000     -10.297493      -280.2090
  69   2.0000     -10.294427      -280.1256
  70   2.0000     -10.294096      -280.1166
  71   2.0000     -10.293825      -280.1092
  72   2.0000     -10.293434      -280.0986
  73   2.0000     -10.293385      -280.0972
  74   2.0000     -10.293071      -280.0887
  75   2.0000     -10.292953      -280.0855
  76   2.0000     -10.292406      -280.0706
  77   2.0000     -10.290820      -280.0275
  78   2.0000     -10.286030      -279.8971
  79   2.0000     -10.285883      -279.8931
  80   2.0000     -10.284783      -279.8632
  81   2.0000     -10.283377      -279.8249
  82   2.0000     -10.283051      -279.8160
  83   2.0000      -8.091528      -220.1817
  84   2.0000      -8.089891      -220.1371
  85   2.0000      -8.088110      -220.0887
  86   2.0000      -8.070607      -219.6124
  87   2.0000      -8.065167      -219.4643
  88   2.0000      -8.063386      -219.4159
  89   2.0000      -8.060603      -219.3402
  90   2.0000      -6.061541      -164.9429
  91   2.0000      -6.059468      -164.8865
  92   2.0000      -6.057722      -164.8390
  93   2.0000      -6.057213      -164.8251
  94   2.0000      -6.055212      -164.7707
  95   2.0000      -6.053527      -164.7248
  96   2.0000      -6.052388      -164.6939
  97   2.0000      -6.051534      -164.6706
  98   2.0000      -6.049586      -164.6176
  99   2.0000      -6.040354      -164.3664
 100   2.0000      -6.036217      -164.2538
 101   2.0000      -6.034760      -164.2142
 102   2.0000      -6.033113      -164.1694
 103   2.0000      -6.031549      -164.1268
 104   2.0000      -6.030786      -164.1060
 105   2.0000      -6.030202      -164.0901
 106   2.0000      -6.028875      -164.0540
 107   2.0000      -6.026239      -163.9823
 108   2.0000      -6.026153      -163.9800
 109   2.0000      -6.024359      -163.9312
 110   2.0000      -6.021720      -163.8593
 111   2.0000      -1.314120       -35.7590
 112   2.0000      -1.313394       -35.7393
 113   2.0000      -1.299309       -35.3560
 114   2.0000      -1.298600       -35.3367
 115   2.0000      -1.120903       -30.5013
 116   2.0000      -1.119522       -30.4638
 117   2.0000      -1.049899       -28.5692
 118   2.0000      -1.023784       -27.8586
 119   2.0000      -1.019945       -27.7541
 120   2.0000      -1.014462       -27.6049
 121   2.0000      -1.010674       -27.5018
 122   2.0000      -1.008952       -27.4550
 123   2.0000      -0.999278       -27.1917
 124   2.0000      -0.996622       -27.1195
 125   2.0000      -0.995926       -27.1005
 126   2.0000      -0.994862       -27.0716
 127   2.0000      -0.993565       -27.0363
 128   2.0000      -0.985447       -26.8154
 129   2.0000      -0.985281       -26.8109
 130   2.0000      -0.983553       -26.7638
 131   2.0000      -0.972878       -26.4734
 132   2.0000      -0.971821       -26.4446
 133   2.0000      -0.959461       -26.1083
 134   2.0000      -0.928560       -25.2674
 135   2.0000      -0.926893       -25.2221
 136   2.0000      -0.918085       -24.9824
 137   2.0000      -0.914949       -24.8970
 138   2.0000      -0.906517       -24.6676
 139   2.0000      -0.903721       -24.5915
 140   2.0000      -0.894847       -24.3500
 141   2.0000      -0.888205       -24.1693
 142   2.0000      -0.886460       -24.1218
 143   2.0000      -0.882622       -24.0174
 144   2.0000      -0.880164       -23.9505
 145   2.0000      -0.876998       -23.8643
 146   2.0000      -0.873064       -23.7573
 147   2.0000      -0.869972       -23.6732
 148   2.0000      -0.854796       -23.2602
 149   2.0000      -0.852899       -23.2086
 150   2.0000      -0.847497       -23.0616
 151   2.0000      -0.844299       -22.9745
 152   2.0000      -0.832845       -22.6629
 153   2.0000      -0.831973       -22.6391
 154   2.0000      -0.831552       -22.6277
 155   2.0000      -0.826921       -22.5017
 156   2.0000      -0.811922       -22.0935
 157   2.0000      -0.801670       -21.8145
 158   2.0000      -0.786786       -21.4095
 159   2.0000      -0.773547       -21.0493
 160   2.0000      -0.758742       -20.6464
 161   2.0000      -0.757190       -20.6042
 162   2.0000      -0.753949       -20.5160
 163   2.0000      -0.744147       -20.2493
 164   2.0000      -0.730640       -19.8817
 165   2.0000      -0.725826       -19.7507
 166   2.0000      -0.714974       -19.4554
 167   2.0000      -0.713668       -19.4199
 168   2.0000      -0.709742       -19.3131
 169   2.0000      -0.706074       -19.2133
 170   2.0000      -0.704462       -19.1694
 171   2.0000      -0.701963       -19.1014
 172   2.0000      -0.686238       -18.6735
 173   2.0000      -0.685311       -18.6483
 174   2.0000      -0.681267       -18.5382
 175   2.0000      -0.676223       -18.4010
 176   2.0000      -0.674256       -18.3474
 177   2.0000      -0.669152       -18.2085
 178   2.0000      -0.656308       -17.8591
 179   2.0000      -0.653778       -17.7902
 180   2.0000      -0.652123       -17.7452
 181   2.0000      -0.649627       -17.6773
 182   2.0000      -0.646908       -17.6033
 183   2.0000      -0.645026       -17.5521
 184   2.0000      -0.638323       -17.3697
 185   2.0000      -0.635587       -17.2952
 186   2.0000      -0.634273       -17.2594
 187   2.0000      -0.631491       -17.1837
 188   2.0000      -0.627734       -17.0815
 189   2.0000      -0.625852       -17.0303
 190   2.0000      -0.622675       -16.9438
 191   2.0000      -0.621787       -16.9197
 192   2.0000      -0.613795       -16.7022
 193   2.0000      -0.605544       -16.4777
 194   2.0000      -0.605409       -16.4740
 195   2.0000      -0.588713       -16.0197
 196   2.0000      -0.584952       -15.9174
 197   2.0000      -0.581808       -15.8318
 198   2.0000      -0.578849       -15.7513
 199   2.0000      -0.578253       -15.7351
 200   2.0000      -0.577524       -15.7152
 201   2.0000      -0.570467       -15.5232
 202   2.0000      -0.569059       -15.4849
 203   2.0000      -0.567569       -15.4443
 204   2.0000      -0.560411       -15.2496
 205   2.0000      -0.556201       -15.1350
 206   2.0000      -0.551493       -15.0069
 207   2.0000      -0.547831       -14.9072
 208   2.0000      -0.546524       -14.8717
 209   2.0000      -0.546155       -14.8616
 210   2.0000      -0.540646       -14.7117
 211   2.0000      -0.540270       -14.7015
 212   2.0000      -0.540098       -14.6968
 213   2.0000      -0.533560       -14.5189
 214   2.0000      -0.530101       -14.4248
 215   2.0000      -0.529643       -14.4123
 216   2.0000      -0.528574       -14.3832
 217   2.0000      -0.527548       -14.3553
 218   2.0000      -0.526008       -14.3134
 219   2.0000      -0.524033       -14.2597
 220   2.0000      -0.523388       -14.2421
 221   2.0000      -0.522839       -14.2272
 222   2.0000      -0.520043       -14.1511
 223   2.0000      -0.519206       -14.1283
 224   2.0000      -0.517859       -14.0917
 225   2.0000      -0.515155       -14.0181
 226   2.0000      -0.513964       -13.9857
 227   2.0000      -0.510137       -13.8815
 228   2.0000      -0.509528       -13.8650
 229   2.0000      -0.508230       -13.8297
 230   2.0000      -0.505502       -13.7554
 231   2.0000      -0.502946       -13.6859
 232   2.0000      -0.502051       -13.6615
 233   2.0000      -0.496954       -13.5228
 234   2.0000      -0.495836       -13.4924
 235   2.0000      -0.492328       -13.3969
 236   2.0000      -0.490321       -13.3423
 237   2.0000      -0.489552       -13.3214
 238   2.0000      -0.487968       -13.2783
 239   2.0000      -0.487009       -13.2522
 240   2.0000      -0.485301       -13.2057
 241   2.0000      -0.481796       -13.1103
 242   2.0000      -0.480171       -13.0661
 243   2.0000      -0.479573       -13.0499
 244   2.0000      -0.475738       -12.9455
 245   2.0000      -0.475336       -12.9345
 246   2.0000      -0.474131       -12.9018
 247   2.0000      -0.467113       -12.7108
 248   2.0000      -0.465627       -12.6704
 249   2.0000      -0.460735       -12.5372
 250   2.0000      -0.460209       -12.5229
 251   2.0000      -0.459291       -12.4979
 252   2.0000      -0.456554       -12.4235
 253   2.0000      -0.455723       -12.4009
 254   2.0000      -0.455615       -12.3979
 255   2.0000      -0.451088       -12.2747
 256   2.0000      -0.446718       -12.1558
 257   2.0000      -0.443723       -12.0743
 258   2.0000      -0.441010       -12.0005
 259   2.0000      -0.440711       -11.9924
 260   2.0000      -0.439627       -11.9629
 261   2.0000      -0.439066       -11.9476
 262   2.0000      -0.437409       -11.9025
 263   2.0000      -0.436181       -11.8691
 264   2.0000      -0.434664       -11.8278
 265   2.0000      -0.434560       -11.8250
 266   2.0000      -0.433667       -11.8007
 267   2.0000      -0.431513       -11.7421
 268   2.0000      -0.427518       -11.6333
 269   2.0000      -0.426426       -11.6036
 270   2.0000      -0.421206       -11.4616
 271   2.0000      -0.420272       -11.4362
 272   2.0000      -0.418911       -11.3991
 273   2.0000      -0.418397       -11.3852
 274   2.0000      -0.416010       -11.3202
 275   2.0000      -0.413928       -11.2635
 276   2.0000      -0.413654       -11.2561
 277   2.0000      -0.412780       -11.2323
 278   2.0000      -0.410143       -11.1606
 279   2.0000      -0.401053       -10.9132
 280   2.0000      -0.398122       -10.8334
 281   2.0000      -0.395284       -10.7562
 282   2.0000      -0.394474       -10.7342
 283   2.0000      -0.387644       -10.5483
 284   2.0000      -0.381315       -10.3761
 285   2.0000      -0.379921       -10.3382
 286   2.0000      -0.376833       -10.2541
 287   2.0000      -0.367017        -9.9870
 288   2.0000      -0.361635        -9.8406
 289   2.0000      -0.358084        -9.7440
 290   2.0000      -0.355570        -9.6756
 291   2.0000      -0.347533        -9.4569
 292   2.0000      -0.340370        -9.2619
 293   2.0000      -0.338850        -9.2206
 294   2.0000      -0.329347        -8.9620
 295   2.0000      -0.327381        -8.9085
 296   2.0000      -0.323564        -8.8046
 297   2.0000      -0.319937        -8.7059
 298   2.0000      -0.309542        -8.4231
 299   2.0000      -0.308959        -8.4072
 300   2.0000      -0.297023        -8.0824
 301   2.0000      -0.295908        -8.0521
 302   2.0000      -0.288594        -7.8530
 303   2.0000      -0.286667        -7.8006
 304   2.0000      -0.237181        -6.4540
 305   2.0000      -0.235941        -6.4203
 306   0.0000      -0.119472        -3.2510
 307   0.0000      -0.117610        -3.2003
 308   0.0000      -0.068478        -1.8634
 309   0.0000      -0.066199        -1.8014
 310   0.0000      -0.049189        -1.3385

MULLIKEN ATOMIC CHARGES
-----------------------
   0 C :   -0.113263
   1 C :    0.242666
   2 F :   -0.174502
   3 C :    0.238701
   4 F :   -0.175575
   5 C :   -0.111014
   6 C :    0.120091
   7 C :    0.116963
   8 C :   -0.092198
   9 C :    0.050375
  10 C :    0.002141
  11 C :   -0.090218
  12 C :    0.144349
  13 O :   -0.161709
  14 C :   -0.089789
  15 C :    0.326859
  16 C :   -0.350165
  17 C :   -0.200836
  18 N :    0.145653
  19 C :   -0.182950
  20 N :    0.135965
  21 C :   -0.035916
  22 C :   -0.020799
  23 C :    0.004173
  24 C :    0.033093
  25 C :    0.043778
  26 C :   -0.046803
  27 S :    0.129978
  28 C :   -0.043307
  29 C :    0.037411
  30 C :    0.042123
  31 C :   -0.024015
  32 S :    0.151445
  33 C :   -0.008689
  34 C :   -0.115885
  35 C :    0.017876
  36 C :   -0.319985
  37 N :    0.195429
  38 C :    0.110299
  39 C :   -0.225876
  40 S :    0.168242
  41 S :    0.200289
  42 C :   -0.221354
  43 C :    0.169042
  44 C :   -0.019782
  45 C :   -0.303041
  46 N :    0.199216
  47 C :   -0.077309
  48 S :    0.156748
  49 C :   -0.026337
  50 C :   -0.036211
  51 C :    0.046086
  52 C :    0.034776
  53 C :   -0.021429
  54 S :    0.083077
  55 C :   -0.056782
  56 C :    0.042542
  57 C :    0.040066
  58 C :   -0.018285
  59 S :    0.111391
  60 C :    0.002981
  61 C :    0.021289
  62 C :   -0.125414
  63 C :    0.138425
  64 O :   -0.153146
  65 C :    0.006113
  66 C :   -0.083531
  67 C :    0.111671
  68 C :    0.109690
  69 C :   -0.104834
  70 C :    0.239015
  71 C :    0.236557
  72 C :   -0.103202
  73 F :   -0.175552
  74 F :   -0.174258
  75 C :   -0.082159
  76 C :    0.039122
  77 C :    0.290706
  78 C :   -0.345745
  79 C :   -0.220071
  80 N :    0.163506
  81 C :   -0.178050
  82 N :    0.141506
  83 H :    0.005213
  84 H :   -0.002597
  85 H :   -0.008111
  86 H :   -0.014042
  87 H :    0.022481
  88 H :    0.019921
  89 H :    0.003138
  90 H :   -0.003732
  91 H :   -0.003223
  92 H :   -0.000691
  93 H :    0.001745
  94 H :    0.027139
  95 H :    0.009985
  96 H :   -0.000259
  97 H :    0.000230
  98 H :    0.007017
  99 H :    0.010569
 100 H :    0.016106
 101 H :   -0.014519
 102 H :    0.004110
 103 H :   -0.004142
 104 H :   -0.007780
Sum of atomic charges:   -0.0000000

LOEWDIN ATOMIC CHARGES
----------------------
   0 C :   -0.030440
   1 C :    0.064539
   2 F :   -0.052332
   3 C :    0.065480
   4 F :   -0.052928
   5 C :   -0.034755
   6 C :   -0.009927
   7 C :   -0.007426
   8 C :    0.013110
   9 C :   -0.019603
  10 C :   -0.049726
  11 C :    0.024892
  12 C :    0.082240
  13 O :   -0.155083
  14 C :   -0.099431
  15 C :    0.071411
  16 C :   -0.147354
  17 C :   -0.023090
  18 N :   -0.056729
  19 C :   -0.016929
  20 N :   -0.065406
  21 C :    0.053514
  22 C :   -0.063507
  23 C :   -0.104151
  24 C :   -0.031496
  25 C :   -0.008383
  26 C :   -0.178428
  27 S :    0.423549
  28 C :   -0.155339
  29 C :   -0.026418
  30 C :   -0.017254
  31 C :   -0.132955
  32 S :    0.445354
  33 C :   -0.076385
  34 C :   -0.133708
  35 C :   -0.104035
  36 C :   -0.061168
  37 N :   -0.029218
  38 C :   -0.059523
  39 C :   -0.331167
  40 S :    0.447664
  41 S :    0.433188
  42 C :   -0.330267
  43 C :   -0.059551
  44 C :   -0.088847
  45 C :   -0.041084
  46 N :   -0.028932
  47 C :   -0.138425
  48 S :    0.450932
  49 C :   -0.047790
  50 C :   -0.148474
  51 C :   -0.007568
  52 C :   -0.032050
  53 C :   -0.151255
  54 S :    0.383600
  55 C :   -0.182900
  56 C :   -0.006134
  57 C :   -0.029394
  58 C :   -0.100603
  59 S :    0.405151
  60 C :   -0.063152
  61 C :    0.052229
  62 C :   -0.101861
  63 C :    0.078102
  64 O :   -0.154606
  65 C :   -0.051454
  66 C :    0.025799
  67 C :   -0.010759
  68 C :   -0.007104
  69 C :   -0.030689
  70 C :    0.064723
  71 C :    0.064973
  72 C :   -0.034194
  73 F :   -0.052703
  74 F :   -0.051767
  75 C :    0.010707
  76 C :   -0.018059
  77 C :    0.067868
  78 C :   -0.148942
  79 C :   -0.024748
  80 N :   -0.058427
  81 C :   -0.019226
  82 N :   -0.061006
  83 H :    0.046753
  84 H :    0.043691
  85 H :    0.039091
  86 H :    0.038420
  87 H :    0.033878
  88 H :    0.039892
  89 H :    0.040372
  90 H :    0.036100
  91 H :    0.035984
  92 H :    0.037806
  93 H :    0.038502
  94 H :    0.054994
  95 H :    0.042979
  96 H :    0.037538
  97 H :    0.037760
  98 H :    0.042148
  99 H :    0.039087
 100 H :    0.034501
 101 H :    0.038796
 102 H :    0.046620
 103 H :    0.043549
 104 H :    0.038775

  Mayer bond orders larger than 0.100000
B(  0-C ,  1-C ) :   1.4382 B(  0-C ,  5-C ) :   0.1094 B(  0-C ,  7-C ) :   1.1900
B(  0-C , 83-H ) :   1.0074 B(  1-C ,  2-F ) :   1.1309 B(  1-C ,  3-C ) :   1.1940
B(  3-C ,  4-F ) :   1.1296 B(  3-C ,  5-C ) :   1.4402 B(  5-C ,  6-C ) :   1.1930
B(  5-C , 84-H ) :   1.0077 B(  6-C ,  7-C ) :   1.2590 B(  6-C , 11-C ) :   1.1827
B(  7-C ,  8-C ) :   1.2086 B(  8-C ,  9-C ) :   1.4581 B(  8-C , 85-H ) :   0.9897
B(  9-C , 10-C ) :   1.2228 B(  9-C , 15-C ) :   0.9773 B( 10-C , 11-C ) :   1.4770
B( 10-C , 12-C ) :   0.9345 B( 11-C , 86-H ) :   1.0165 B( 12-C , 13-O ) :   2.1908
B( 12-C , 14-C ) :   0.9631 B( 14-C , 15-C ) :   1.0989 B( 14-C , 21-C ) :   1.4977
B( 15-C , 16-C ) :   1.5989 B( 16-C , 17-C ) :   1.1496 B( 16-C , 19-C ) :   1.1509
B( 17-C , 18-N ) :   2.9720 B( 19-C , 20-N ) :   2.9557 B( 21-C , 22-C ) :   1.2418
B( 21-C , 87-H ) :   0.9458 B( 22-C , 23-C ) :   1.4383 B( 22-C , 88-H ) :   0.9766
B( 23-C , 24-C ) :   1.1655 B( 23-C , 27-S ) :   1.0834 B( 24-C , 25-C ) :   1.5614
B( 24-C , 89-H ) :   1.0016 B( 25-C , 26-C ) :   1.1983 B( 25-C , 90-H ) :   0.9941
B( 26-C , 27-S ) :   1.0570 B( 26-C , 28-C ) :   1.4877 B( 28-C , 29-C ) :   1.1752
B( 28-C , 32-S ) :   1.0865 B( 29-C , 30-C ) :   1.6066 B( 29-C , 91-H ) :   0.9927
B( 30-C , 31-C ) :   1.1292 B( 30-C , 92-H ) :   0.9987 B( 31-C , 32-S ) :   1.0591
B( 31-C , 33-C ) :   1.6153 B( 33-C , 34-C ) :   1.1614 B( 33-C , 93-H ) :   0.9409
B( 34-C , 35-C ) :   1.4506 B( 34-C , 40-S ) :   1.1209 B( 35-C , 36-C ) :   1.1467
B( 35-C , 38-C ) :   1.2639 B( 36-C , 37-N ) :   2.9917 B( 38-C , 39-C ) :   1.4160
B( 38-C , 43-C ) :   1.0751 B( 39-C , 40-S ) :   1.0890 B( 39-C , 41-S ) :   1.0838
B( 41-S , 42-C ) :   1.0870 B( 42-C , 43-C ) :   1.3876 B( 42-C , 48-S ) :   1.1046
B( 43-C , 44-C ) :   1.2753 B( 44-C , 45-C ) :   1.1776 B( 44-C , 47-C ) :   1.4419
B( 45-C , 46-N ) :   2.9753 B( 47-C , 48-S ) :   1.0972 B( 47-C , 49-C ) :   1.2214
B( 49-C , 50-C ) :   1.5623 B( 49-C , 94-H ) :   0.9603 B( 50-C , 51-C ) :   1.1412
B( 50-C , 54-S ) :   1.0315 B( 51-C , 52-C ) :   1.5910 B( 51-C , 95-H ) :   1.0010
B( 52-C , 53-C ) :   1.1843 B( 52-C , 96-H ) :   0.9936 B( 53-C , 54-S ) :   1.0647
B( 53-C , 55-C ) :   1.4916 B( 55-C , 56-C ) :   1.2026 B( 55-C , 59-S ) :   1.0451
B( 56-C , 57-C ) :   1.5603 B( 56-C , 97-H ) :   0.9946 B( 57-C , 58-C ) :   1.1682
B( 57-C , 98-H ) :   1.0017 B( 58-C , 59-S ) :   1.0820 B( 58-C , 60-C ) :   1.5108
B( 60-C , 61-C ) :   1.2120 B( 60-C , 99-H ) :   0.9632 B( 61-C , 62-C ) :   1.5410
B( 61-C ,100-H ) :   0.9371 B( 62-C , 63-C ) :   0.9620 B( 62-C , 77-C ) :   1.0773
B( 63-C , 64-O ) :   2.2471 B( 63-C , 65-C ) :   0.9184 B( 65-C , 66-C ) :   1.4839
B( 65-C , 76-C ) :   1.2206 B( 66-C , 67-C ) :   1.1863 B( 66-C ,101-H ) :   1.0148
B( 67-C , 68-C ) :   1.2623 B( 67-C , 72-C ) :   1.1960 B( 68-C , 69-C ) :   1.1924
B( 68-C , 75-C ) :   1.2083 B( 69-C , 70-C ) :   1.4386 B( 69-C , 72-C ) :   0.1092
B( 69-C ,102-H ) :   1.0060 B( 70-C , 71-C ) :   1.1962 B( 70-C , 74-F ) :   1.1312
B( 71-C , 72-C ) :   1.4407 B( 71-C , 73-F ) :   1.1291 B( 72-C ,103-H ) :   1.0059
B( 75-C , 76-C ) :   1.4641 B( 75-C ,104-H ) :   0.9906 B( 76-C , 77-C ) :   0.9888
B( 77-C , 78-C ) :   1.6084 B( 78-C , 79-C ) :   1.1687 B( 78-C , 81-C ) :   1.1366
B( 79-C , 80-N ) :   3.0084 B( 81-C , 82-N ) :   2.9729

-----------------------------------------------------------------------------
         ABSORPTION SPECTRUM VIA TRANSITION ELECTRIC DIPOLE MOMENTS
-----------------------------------------------------------------------------
State   Energy  Wavelength   fosc         T2         TX        TY        TZ
        (cm-1)    (nm)                  (au**2)     (au)      (au)      (au)
-----------------------------------------------------------------------------
   0   11781.6    848.8   1.999223919  55.86394  -6.95972   2.72398   0.07825
   1   12771.1    783.0   0.756685023  19.50571  -0.68971   2.21468  -3.75835
   2   16284.8    614.1   0.001832238   0.03704  -0.07879  -0.04582   0.16951
   3   16679.2    599.5   0.018122276   0.35769  -0.40933   0.14470   0.41135
   4   21753.7    459.7   0.027795544   0.42065   0.46316  -0.21529   0.39973
   5   21883.4    457.0   0.034563769   0.51998   0.28604  -0.27026   0.60425
   6   23535.1    424.9   0.642820950   8.99187   0.45561  -0.31798   2.94672
   7   24087.4    415.2   0.406386819   5.55424  -1.54663   1.58695  -0.80236
   8   24542.1    407.5   0.031628336   0.42427   0.63958  -0.11585   0.04225
   9   24632.4    406.0   0.059594123   0.79647   0.12965  -0.39799   0.78820
  10   25943.5    385.5   0.001238934   0.01572  -0.09159   0.04011   0.07566
  11   26236.9    381.1   0.426363591   5.34986   0.91740  -0.01200  -2.12323
  12   26307.3    380.1   0.002674997   0.03348  -0.12754   0.12679   0.03368
  13   26470.5    377.8   0.009627663   0.11974  -0.28167   0.16587   0.11351
  14   26824.3    372.8   0.335953689   4.12312  -1.28237   0.36270   1.53202
  15   27050.0    369.7   0.018903324   0.23006  -0.11692   0.33232  -0.32551
  16   27597.7    362.3   0.055668967   0.66407   0.65803  -0.31336  -0.36452
  17   27943.1    357.9   0.056767259   0.66880  -0.71714  -0.04018   0.39103
  18   28224.9    354.3   0.007160028   0.08351  -0.25892   0.12727  -0.01666
  19   28418.6    351.9   0.001261234   0.01461  -0.00530  -0.01429   0.11991
  20   28667.2    348.8   0.005879659   0.06752   0.08067  -0.14912   0.19692
  21   29510.1    338.9   0.005836248   0.06511  -0.17717   0.18281   0.01726
  22   30477.7    328.1   0.000383871   0.00415   0.01840  -0.05665  -0.02448
  23   30738.4    325.3   0.128678161   1.37816  -0.31750  -0.19005   1.11411
  24   30982.4    322.8   0.039591360   0.42069   0.57334  -0.01607  -0.30284
  25   31255.5    319.9   0.007251122   0.07638  -0.12591   0.22712   0.09454
  26   31401.3    318.5   0.186764576   1.95804   0.55065   0.01483  -1.28632
  27   31561.7    316.8   0.145152941   1.51405   1.00232  -0.42988  -0.56975
  28   32731.2    305.5   0.014789149   0.14875  -0.34589   0.07102   0.15512
  29   32959.4    303.4   0.244806616   2.44523   1.10475  -0.49315  -0.99074
  30   33109.3    302.0   0.437091249   4.34609   1.71904  -0.02901  -1.17904
  31   33150.5    301.7   0.074088739   0.73576   0.67672  -0.24524  -0.46656
  32   33228.2    300.9   0.000733340   0.00727   0.04755   0.07070  -0.00263
  33   33385.1    299.5   0.218970562   2.15928  -1.04721   0.44365   0.93048
  34   33575.9    297.8   0.070859172   0.69477   0.73336   0.01210  -0.39600
  35   33910.9    294.9   0.033773384   0.32788   0.46358  -0.31664   0.11272
  36   34094.4    293.3   0.055884476   0.53961  -0.70680  -0.01827   0.19927
  37   34306.0    291.5   0.039329893   0.37742  -0.46273   0.31578   0.25216
  38   34339.2    291.2   0.003056538   0.02930   0.12072  -0.11767  -0.02973
  39   34608.1    288.9   0.058083840   0.55253   0.37956   0.29015  -0.56945
  40   34628.5    288.8   0.022810365   0.21686   0.13010   0.02473  -0.44645
  41   34926.8    286.3   0.041295161   0.38924  -0.02146  -0.18453   0.59559
  42   35944.3    278.2   0.022709081   0.20799   0.34178  -0.30195  -0.00282
  43   36159.1    276.6   0.007884210   0.07178   0.02702   0.06425   0.25870
  44   36458.4    274.3   0.063369345   0.57221  -0.75137  -0.08733   0.00579
  45   36545.1    273.6   0.045015501   0.40552   0.60820  -0.07146   0.17466
  46   36657.7    272.8   0.040583242   0.36447  -0.53338   0.25116   0.12998
  47   36753.7    272.1   0.024341719   0.21803   0.19305  -0.42442   0.02526
  48   37182.6    268.9   0.101116992   0.89528   0.79934  -0.50525  -0.03244
  49   37497.6    266.7   0.052061669   0.45708   0.50714  -0.34952  -0.27880
  50   37885.4    264.0   0.008080967   0.07022   0.11229  -0.23026   0.06776
  51   37986.8    263.2   0.145673505   1.26248   0.81467  -0.64280   0.43081
  52   38233.9    261.5   0.057578851   0.49578   0.41136  -0.32494   0.47008
  53   38263.5    261.3   0.058395909   0.50243   0.41256   0.29082  -0.49764
  54   38520.7    259.6   0.292756387   2.50200  -1.30378   0.34546   0.82633
  55   38603.7    259.0   0.128513968   1.09597  -0.36452   0.79182  -0.57975
  56   38650.9    258.7   0.029396092   0.25038   0.01902  -0.32077   0.38357
  57   39093.4    255.8   0.058513123   0.49275  -0.04386   0.49502  -0.49577
  58   39359.7    254.1   0.003981688   0.03330   0.15297  -0.08669   0.04888
  59   39423.0    253.7   0.298893870   2.49599  -0.67895  -0.16774   1.41665
  60   39531.4    253.0   0.030657551   0.25531   0.27261  -0.41966  -0.06987
  61   39623.0    252.4   0.003963600   0.03293   0.00621  -0.17971  -0.02443
  62   39646.8    252.2   0.003057194   0.02539  -0.07116  -0.05572   0.13121
  63   39829.7    251.1   0.008559540   0.07075  -0.24030   0.02737   0.11069
  64   39897.0    250.6   0.041448651   0.34202   0.21515  -0.35140   0.41502
  65   39993.6    250.0   0.041284431   0.33984   0.47631  -0.28505   0.17809
  66   40189.8    248.8   0.004222180   0.03459  -0.10676   0.15207  -0.00796

FINAL SINGLE POINT ENERGY     -6112.558346109198

DIPOLE MOMENT
-------------
                                X             Y             Z
Electronic contribution:    -15.60224      13.03683      -5.73775
Nuclear contribution   :     15.87992     -15.84409       9.82346
                        -----------------------------------------
Total Dipole Moment    :      0.27768      -2.80726       4.08571
                        -----------------------------------------
Magnitude (a.u.)       :      4.96496
Magnitude (Debye)      :     12.61993

Rotational constants in cm-1:     0.000871     0.000151     0.000130
Rotational constants in MHz :    26.123175     4.521016     3.898549

                             ****ORCA TERMINATED NORMALLY****
TOTAL RUN TIME: 0 days 0 hours 10 minutes 42 seconds 538 msec
