                         Program Version 4.2.0 -  RELEASE  -
|  1> # ORCA input file
|  2> # SCF done       -175.712429245158          0.000903128187
|  3> ! CAM-B3LYP def2-SVP def2/J RIJCOSX Grid4 TightSCF
|  4> %maxcore 5000
|  5> %tddft
|  6>     Mode sTDDFT
|  7>     Ethresh 5.0
|  8>     maxcore 5000
|  9> end
| 10>
| 11> %pal
| 12>   nprocs 6
| 13>   end
| 14> * xyz 0 1
| 15>    C        2.94368        -1.29955         9.00684
| 16>    C        3.28484        -1.05618         7.73326
| 17>    C        3.81252         0.15799         7.18172
| 18>    C        4.06058         0.10544         5.85324
| 19>    C        3.75195        -1.14326         5.24807
| 20>    S        3.13028        -2.26057         6.44357
| 21>    C        3.89319        -1.48695         3.92120
| 22>    C        4.37369        -0.68423         2.86092
| 23>    C        4.38275        -1.31592         1.65471
| 24>    C        3.91077        -2.64899         1.68991
| 25>    S        3.45737        -3.07927         3.32616
| 26>    C        3.80417        -3.49583         0.60913
| 27>    C        3.33492        -4.80339         0.60003
| 28>    S        2.78523        -5.69010         1.99229
| 29>    C        2.40144        -7.12243         1.07800
| 30>    C        2.69778        -6.91455        -0.28246
| 31>    C        3.22482        -5.61952        -0.54894
| 32>    N        3.57934        -5.24601        -1.78679
| 33>    C        3.41429        -6.13017        -2.74328
| 34>    C        3.83903        -5.73041        -4.12650
| 35>    N        5.02032        -6.50178        -4.50963
| 36>    C        2.88712        -7.42726        -2.48238
| 37>    C        2.68493        -8.41621        -3.59420
| 38>    N        1.61566        -7.94286        -4.47165
| 39>    N        2.53502        -7.80609        -1.27751
| 40>    C        1.89196        -8.25621         1.73242
| 41>    C        1.50821        -9.39143         1.08159
| 42>    C        1.03423       -10.57072         1.69730
| 43>    S        0.45567       -11.87653         0.70719
| 44>    C        0.14996       -12.89275         2.08209
| 45>    C        0.47007       -12.22378         3.25851
| 46>    C        0.97135       -10.92413         3.04818
| 47>    O        1.36890       -10.02038         3.99277
| 48>    C        1.53559       -10.45233         5.29794
| 49>    S        0.00083       -11.22496         5.95012
| 50>    S        0.22077       -12.94475         4.85011
| 51>    C       -0.34367       -14.20819         1.88214
| 52>    C       -0.26478       -15.22057         2.76974
| 53>    C       -0.79971       -16.53408         2.50192
| 54>    N       -0.50040       -17.49198         3.39047
| 55>    C       -0.96211       -18.70251         3.15105
| 56>    C       -1.73985       -18.99838         2.04113
| 57>    C       -2.02487       -17.93133         1.17753
| 58>    N       -1.54235       -16.71340         1.41411
| 59>    C       -2.87118       -18.11276         0.01760
| 60>    C       -3.26896       -17.08807        -0.76768
| 61>    C       -4.14182       -17.28788        -1.86926
| 62>    C       -4.62781       -16.30124        -2.67417
| 63>    C       -5.55867       -16.46099        -3.77891
| 64>    C       -6.02218       -17.64064        -4.30318
| 65>    C       -6.92338       -17.72633        -5.38530
| 66>    N       -7.64962       -17.86484        -6.26379
| 67>    C       -5.66857       -18.93372        -3.86416
| 68>    N       -5.43596       -20.02102        -3.57582
| 69>    C       -5.90873       -15.13007        -4.25946
| 70>    C       -5.17917       -14.16797        -3.51886
| 71>    C       -4.33160       -14.85150        -2.52127
| 72>    O       -3.56245       -14.32146        -1.75039
| 73>    C       -5.29688       -12.81706        -3.73836
| 74>    C       -6.18201       -12.39206        -4.73436
| 75>    C       -6.90938       -13.35983        -5.46823
| 76>    C       -6.78742       -14.72571        -5.24889
| 77>    S       -7.95070       -12.61915        -6.64614
| 78>    C       -7.40211       -11.04185        -6.14373
| 79>    C       -6.48651       -11.06587        -5.14609
| 80>   Br       -8.09079        -9.51271        -6.98326
| 81>    H        3.05282        -0.53833         9.75897
| 82>    H        2.55357        -2.25178         9.31590
| 83>    H        3.98168         1.01670         7.80675
| 84>    H        4.45622         0.92349         5.27779
| 85>    H        4.69533         0.33001         3.01445
| 86>    H        4.71175        -0.86623         0.73447
| 87>    H        4.10820        -3.11647        -0.35792
| 88>    H        4.00439        -4.64217        -4.12911
| 89>    H        3.03591        -5.98005        -4.82469
| 90>    H        5.79487        -6.27526        -3.89344
| 91>    H        5.29692        -6.26000        -5.45486
| 92>    H        2.48094        -9.39895        -3.14230
| 93>    H        3.60367        -8.46898        -4.18426
| 94>    H        0.73835        -7.91539        -3.96109
| 95>    H        1.50042        -8.58429        -5.24872
| 96>    H        1.80514        -8.19260         2.80648
| 97>    H        1.56954        -9.40664         0.00268
| 98>    H        1.73769        -9.56575         5.89772
| 99>    H        2.34170       -11.18641         5.40176
|100>    H       -0.79131       -14.40678         0.91748
|101>    H        0.24282       -15.12009         3.71717
|102>    H       -0.70082       -19.46093         3.87902
|103>    H       -2.11685       -19.99103         1.85641
|104>    H       -3.20040       -19.12406        -0.18667
|105>    H       -2.92599       -16.08946        -0.54143
|106>    H       -4.45375       -18.30909        -2.05006
|107>    H       -4.72604       -12.11060        -3.15630
|108>    H       -7.36627       -15.42101        -5.83327
|109>    H       -6.04433       -10.18580        -4.71589
|110> *
|111>
|112>                          ****END OF INPUT****

CARTESIAN COORDINATES (ANGSTROEM)
---------------------------------
  C      2.943680   -1.299550    9.006840
  C      3.284840   -1.056180    7.733260
  C      3.812520    0.157990    7.181720
  C      4.060580    0.105440    5.853240
  C      3.751950   -1.143260    5.248070
  S      3.130280   -2.260570    6.443570
  C      3.893190   -1.486950    3.921200
  C      4.373690   -0.684230    2.860920
  C      4.382750   -1.315920    1.654710
  C      3.910770   -2.648990    1.689910
  S      3.457370   -3.079270    3.326160
  C      3.804170   -3.495830    0.609130
  C      3.334920   -4.803390    0.600030
  S      2.785230   -5.690100    1.992290
  C      2.401440   -7.122430    1.078000
  C      2.697780   -6.914550   -0.282460
  C      3.224820   -5.619520   -0.548940
  N      3.579340   -5.246010   -1.786790
  C      3.414290   -6.130170   -2.743280
  C      3.839030   -5.730410   -4.126500
  N      5.020320   -6.501780   -4.509630
  C      2.887120   -7.427260   -2.482380
  C      2.684930   -8.416210   -3.594200
  N      1.615660   -7.942860   -4.471650
  N      2.535020   -7.806090   -1.277510
  C      1.891960   -8.256210    1.732420
  C      1.508210   -9.391430    1.081590
  C      1.034230  -10.570720    1.697300
  S      0.455670  -11.876530    0.707190
  C      0.149960  -12.892750    2.082090
  C      0.470070  -12.223780    3.258510
  C      0.971350  -10.924130    3.048180
  O      1.368900  -10.020380    3.992770
  C      1.535590  -10.452330    5.297940
  S      0.000830  -11.224960    5.950120
  S      0.220770  -12.944750    4.850110
  C     -0.343670  -14.208190    1.882140
  C     -0.264780  -15.220570    2.769740
  C     -0.799710  -16.534080    2.501920
  N     -0.500400  -17.491980    3.390470
  C     -0.962110  -18.702510    3.151050
  C     -1.739850  -18.998380    2.041130
  C     -2.024870  -17.931330    1.177530
  N     -1.542350  -16.713400    1.414110
  C     -2.871180  -18.112760    0.017600
  C     -3.268960  -17.088070   -0.767680
  C     -4.141820  -17.287880   -1.869260
  C     -4.627810  -16.301240   -2.674170
  C     -5.558670  -16.460990   -3.778910
  C     -6.022180  -17.640640   -4.303180
  C     -6.923380  -17.726330   -5.385300
  N     -7.649620  -17.864840   -6.263790
  C     -5.668570  -18.933720   -3.864160
  N     -5.435960  -20.021020   -3.575820
  C     -5.908730  -15.130070   -4.259460
  C     -5.179170  -14.167970   -3.518860
  C     -4.331600  -14.851500   -2.521270
  O     -3.562450  -14.321460   -1.750390
  C     -5.296880  -12.817060   -3.738360
  C     -6.182010  -12.392060   -4.734360
  C     -6.909380  -13.359830   -5.468230
  C     -6.787420  -14.725710   -5.248890
  S     -7.950700  -12.619150   -6.646140
  C     -7.402110  -11.041850   -6.143730
  C     -6.486510  -11.065870   -5.146090
  Br    -8.090790   -9.512710   -6.983260
  H      3.052820   -0.538330    9.758970
  H      2.553570   -2.251780    9.315900
  H      3.981680    1.016700    7.806750
  H      4.456220    0.923490    5.277790
  H      4.695330    0.330010    3.014450
  H      4.711750   -0.866230    0.734470
  H      4.108200   -3.116470   -0.357920
  H      4.004390   -4.642170   -4.129110
  H      3.035910   -5.980050   -4.824690
  H      5.794870   -6.275260   -3.893440
  H      5.296920   -6.260000   -5.454860
  H      2.480940   -9.398950   -3.142300
  H      3.603670   -8.468980   -4.184260
  H      0.738350   -7.915390   -3.961090
  H      1.500420   -8.584290   -5.248720
  H      1.805140   -8.192600    2.806480
  H      1.569540   -9.406640    0.002680
  H      1.737690   -9.565750    5.897720
  H      2.341700  -11.186410    5.401760
  H     -0.791310  -14.406780    0.917480
  H      0.242820  -15.120090    3.717170
  H     -0.700820  -19.460930    3.879020
  H     -2.116850  -19.991030    1.856410
  H     -3.200400  -19.124060   -0.186670
  H     -2.925990  -16.089460   -0.541430
  H     -4.453750  -18.309090   -2.050060
  H     -4.726040  -12.110600   -3.156300
  H     -7.366270  -15.421010   -5.833270
  H     -6.044330  -10.185800   -4.715890

 Total Charge           Charge          ....    0
 Multiplicity           Mult            ....    1
 Number of Electrons    NEL             ....  536
 Basis Dimension        Dim             .... 1115

ORBITAL ENERGIES
----------------

  NO   OCC          E(Eh)            E(eV)
   0   2.0000    -482.887769    -13140.0442
   1   2.0000     -88.978151     -2421.2186
   2   2.0000     -88.960386     -2420.7352
   3   2.0000     -88.950774     -2420.4736
   4   2.0000     -88.950731     -2420.4724
   5   2.0000     -88.941013     -2420.2080
   6   2.0000     -88.939239     -2420.1597
   7   2.0000     -88.934864     -2420.0407
   8   2.0000     -62.565460     -1702.4927
   9   2.0000     -56.399419     -1534.7062
  10   2.0000     -56.396689     -1534.6319
  11   2.0000     -56.396664     -1534.6313
  12   2.0000     -19.262296      -524.1537
  13   2.0000     -19.219868      -522.9992
  14   2.0000     -14.419585      -392.3769
  15   2.0000     -14.418135      -392.3374
  16   2.0000     -14.412563      -392.1858
  17   2.0000     -14.411398      -392.1541
  18   2.0000     -14.407086      -392.0367
  19   2.0000     -14.404623      -391.9697
  20   2.0000     -14.385725      -391.4555
  21   2.0000     -14.384992      -391.4355
  22   2.0000     -10.370550      -282.1970
  23   2.0000     -10.361622      -281.9541
  24   2.0000     -10.358090      -281.8580
  25   2.0000     -10.346224      -281.5351
  26   2.0000     -10.344887      -281.4987
  27   2.0000     -10.338714      -281.3307
  28   2.0000     -10.337365      -281.2940
  29   2.0000     -10.329791      -281.0879
  30   2.0000     -10.328409      -281.0503
  31   2.0000     -10.322197      -280.8813
  32   2.0000     -10.320799      -280.8432
  33   2.0000     -10.319261      -280.8014
  34   2.0000     -10.316439      -280.7246
  35   2.0000     -10.311172      -280.5813
  36   2.0000     -10.310563      -280.5647
  37   2.0000     -10.308384      -280.5054
  38   2.0000     -10.307893      -280.4920
  39   2.0000     -10.306721      -280.4601
  40   2.0000     -10.305650      -280.4310
  41   2.0000     -10.305066      -280.4151
  42   2.0000     -10.303836      -280.3816
  43   2.0000     -10.303540      -280.3736
  44   2.0000     -10.303042      -280.3600
  45   2.0000     -10.302692      -280.3505
  46   2.0000     -10.300166      -280.2818
  47   2.0000     -10.299761      -280.2708
  48   2.0000     -10.299504      -280.2638
  49   2.0000     -10.299384      -280.2605
  50   2.0000     -10.298959      -280.2489
  51   2.0000     -10.298110      -280.2258
  52   2.0000     -10.297523      -280.2099
  53   2.0000     -10.295743      -280.1614
  54   2.0000     -10.294849      -280.1371
  55   2.0000     -10.294361      -280.1238
  56   2.0000     -10.286059      -279.8979
  57   2.0000     -10.285866      -279.8926
  58   2.0000     -10.285770      -279.8900
  59   2.0000     -10.280828      -279.7556
  60   2.0000     -10.280309      -279.7414
  61   2.0000     -10.279838      -279.7286
  62   2.0000     -10.278593      -279.6947
  63   2.0000     -10.278543      -279.6934
  64   2.0000     -10.278177      -279.6834
  65   2.0000     -10.276886      -279.6483
  66   2.0000     -10.268085      -279.4088
  67   2.0000     -10.266645      -279.3696
  68   2.0000     -10.265426      -279.3364
  69   2.0000     -10.263068      -279.2723
  70   2.0000      -8.794869      -239.3206
  71   2.0000      -8.074046      -219.7060
  72   2.0000      -8.054883      -219.1845
  73   2.0000      -8.046529      -218.9572
  74   2.0000      -8.045465      -218.9282
  75   2.0000      -8.036976      -218.6972
  76   2.0000      -8.036084      -218.6730
  77   2.0000      -8.031638      -218.5520
  78   2.0000      -6.631190      -180.4438
  79   2.0000      -6.616613      -180.0472
  80   2.0000      -6.616366      -180.0405
  81   2.0000      -6.043758      -164.4590
  82   2.0000      -6.039451      -164.3418
  83   2.0000      -6.035291      -164.2286
  84   2.0000      -6.023840      -163.9170
  85   2.0000      -6.019879      -163.8092
  86   2.0000      -6.017651      -163.7486
  87   2.0000      -6.016497      -163.7172
  88   2.0000      -6.015738      -163.6965
  89   2.0000      -6.011966      -163.5939
  90   2.0000      -6.011804      -163.5895
  91   2.0000      -6.008366      -163.4959
  92   2.0000      -6.006894      -163.4559
  93   2.0000      -6.006702      -163.4507
  94   2.0000      -6.004278      -163.3847
  95   2.0000      -6.002716      -163.3422
  96   2.0000      -6.002643      -163.3402
  97   2.0000      -6.001458      -163.3080
  98   2.0000      -5.997985      -163.2135
  99   2.0000      -5.997529      -163.2010
 100   2.0000      -5.994490      -163.1184
 101   2.0000      -5.992174      -163.0553
 102   2.0000      -2.747055       -74.7512
 103   2.0000      -2.742945       -74.6393
 104   2.0000      -2.742833       -74.6363
 105   2.0000      -2.731209       -74.3200
 106   2.0000      -2.731191       -74.3195
 107   2.0000      -1.171525       -31.8788
 108   2.0000      -1.134714       -30.8771
 109   2.0000      -1.079801       -29.3829
 110   2.0000      -1.069809       -29.1110
 111   2.0000      -1.025719       -27.9112
 112   2.0000      -1.016448       -27.6590
 113   2.0000      -0.997239       -27.1363
 114   2.0000      -0.995730       -27.0952
 115   2.0000      -0.992398       -27.0045
 116   2.0000      -0.988826       -26.9073
 117   2.0000      -0.986089       -26.8329
 118   2.0000      -0.980361       -26.6770
 119   2.0000      -0.977344       -26.5949
 120   2.0000      -0.965146       -26.2630
 121   2.0000      -0.955663       -26.0049
 122   2.0000      -0.952873       -25.9290
 123   2.0000      -0.946572       -25.7575
 124   2.0000      -0.928706       -25.2714
 125   2.0000      -0.923495       -25.1296
 126   2.0000      -0.911160       -24.7939
 127   2.0000      -0.906520       -24.6677
 128   2.0000      -0.893832       -24.3224
 129   2.0000      -0.888588       -24.1797
 130   2.0000      -0.882645       -24.0180
 131   2.0000      -0.876378       -23.8475
 132   2.0000      -0.866200       -23.5705
 133   2.0000      -0.858922       -23.3725
 134   2.0000      -0.852272       -23.1915
 135   2.0000      -0.845811       -23.0157
 136   2.0000      -0.839885       -22.8544
 137   2.0000      -0.836644       -22.7662
 138   2.0000      -0.831054       -22.6141
 139   2.0000      -0.821089       -22.3430
 140   2.0000      -0.813452       -22.1352
 141   2.0000      -0.795461       -21.6456
 142   2.0000      -0.783116       -21.3097
 143   2.0000      -0.775654       -21.1066
 144   2.0000      -0.769745       -20.9458
 145   2.0000      -0.766950       -20.8698
 146   2.0000      -0.762870       -20.7588
 147   2.0000      -0.756291       -20.5797
 148   2.0000      -0.752312       -20.4714
 149   2.0000      -0.740094       -20.1390
 150   2.0000      -0.732967       -19.9451
 151   2.0000      -0.712322       -19.3833
 152   2.0000      -0.703383       -19.1400
 153   2.0000      -0.694801       -18.9065
 154   2.0000      -0.694077       -18.8868
 155   2.0000      -0.691464       -18.8157
 156   2.0000      -0.679633       -18.4938
 157   2.0000      -0.676137       -18.3986
 158   2.0000      -0.662835       -18.0367
 159   2.0000      -0.661592       -18.0028
 160   2.0000      -0.657593       -17.8940
 161   2.0000      -0.652001       -17.7418
 162   2.0000      -0.645534       -17.5659
 163   2.0000      -0.639123       -17.3914
 164   2.0000      -0.630296       -17.1512
 165   2.0000      -0.627336       -17.0707
 166   2.0000      -0.623511       -16.9666
 167   2.0000      -0.618649       -16.8343
 168   2.0000      -0.615088       -16.7374
 169   2.0000      -0.612427       -16.6650
 170   2.0000      -0.604917       -16.4606
 171   2.0000      -0.596966       -16.2443
 172   2.0000      -0.595274       -16.1982
 173   2.0000      -0.591242       -16.0885
 174   2.0000      -0.586983       -15.9726
 175   2.0000      -0.578248       -15.7349
 176   2.0000      -0.573972       -15.6186
 177   2.0000      -0.572538       -15.5795
 178   2.0000      -0.571309       -15.5461
 179   2.0000      -0.566246       -15.4083
 180   2.0000      -0.552660       -15.0386
 181   2.0000      -0.549863       -14.9625
 182   2.0000      -0.547939       -14.9102
 183   2.0000      -0.545640       -14.8476
 184   2.0000      -0.543048       -14.7771
 185   2.0000      -0.540843       -14.7171
 186   2.0000      -0.537183       -14.6175
 187   2.0000      -0.534028       -14.5317
 188   2.0000      -0.532256       -14.4834
 189   2.0000      -0.526166       -14.3177
 190   2.0000      -0.525217       -14.2919
 191   2.0000      -0.521551       -14.1921
 192   2.0000      -0.516704       -14.0602
 193   2.0000      -0.512814       -13.9544
 194   2.0000      -0.511419       -13.9164
 195   2.0000      -0.510251       -13.8846
 196   2.0000      -0.508721       -13.8430
 197   2.0000      -0.507281       -13.8038
 198   2.0000      -0.504004       -13.7146
 199   2.0000      -0.502192       -13.6653
 200   2.0000      -0.497130       -13.5276
 201   2.0000      -0.496314       -13.5054
 202   2.0000      -0.495279       -13.4772
 203   2.0000      -0.491246       -13.3675
 204   2.0000      -0.490082       -13.3358
 205   2.0000      -0.488854       -13.3024
 206   2.0000      -0.484334       -13.1794
 207   2.0000      -0.480157       -13.0657
 208   2.0000      -0.476235       -12.9590
 209   2.0000      -0.474947       -12.9240
 210   2.0000      -0.472921       -12.8688
 211   2.0000      -0.467483       -12.7209
 212   2.0000      -0.467190       -12.7129
 213   2.0000      -0.464128       -12.6296
 214   2.0000      -0.460482       -12.5303
 215   2.0000      -0.458839       -12.4857
 216   2.0000      -0.458045       -12.4640
 217   2.0000      -0.453559       -12.3420
 218   2.0000      -0.452156       -12.3038
 219   2.0000      -0.451599       -12.2886
 220   2.0000      -0.450892       -12.2694
 221   2.0000      -0.447047       -12.1648
 222   2.0000      -0.446605       -12.1527
 223   2.0000      -0.441455       -12.0126
 224   2.0000      -0.441058       -12.0018
 225   2.0000      -0.438909       -11.9433
 226   2.0000      -0.429780       -11.6949
 227   2.0000      -0.429426       -11.6853
 228   2.0000      -0.426714       -11.6115
 229   2.0000      -0.426323       -11.6009
 230   2.0000      -0.424136       -11.5413
 231   2.0000      -0.420425       -11.4404
 232   2.0000      -0.419837       -11.4243
 233   2.0000      -0.417213       -11.3530
 234   2.0000      -0.414824       -11.2879
 235   2.0000      -0.410572       -11.1722
 236   2.0000      -0.408382       -11.1127
 237   2.0000      -0.407238       -11.0815
 238   2.0000      -0.402838       -10.9618
 239   2.0000      -0.392064       -10.6686
 240   2.0000      -0.389862       -10.6087
 241   2.0000      -0.385485       -10.4896
 242   2.0000      -0.385316       -10.4850
 243   2.0000      -0.383259       -10.4290
 244   2.0000      -0.377029       -10.2595
 245   2.0000      -0.376003       -10.2315
 246   2.0000      -0.374302       -10.1853
 247   2.0000      -0.372802       -10.1445
 248   2.0000      -0.356378        -9.6975
 249   2.0000      -0.351952        -9.5771
 250   2.0000      -0.338491        -9.2108
 251   2.0000      -0.338063        -9.1992
 252   2.0000      -0.333781        -9.0827
 253   2.0000      -0.323942        -8.8149
 254   2.0000      -0.321527        -8.7492
 255   2.0000      -0.319299        -8.6886
 256   2.0000      -0.318064        -8.6550
 257   2.0000      -0.316802        -8.6206
 258   2.0000      -0.315082        -8.5738
 259   2.0000      -0.311210        -8.4685
 260   2.0000      -0.306355        -8.3364
 261   2.0000      -0.300634        -8.1807
 262   2.0000      -0.297846        -8.1048
 263   2.0000      -0.293413        -7.9842
 264   2.0000      -0.281739        -7.6665
 265   2.0000      -0.274624        -7.4729
 266   2.0000      -0.242981        -6.6119
 267   2.0000      -0.195819        -5.3285
 268   0.0000      -0.099307        -2.7023
 269   0.0000      -0.080839        -2.1997
 270   0.0000      -0.063897        -1.7387
 271   0.0000      -0.040960        -1.1146
 272   0.0000      -0.025366        -0.6902

MULLIKEN ATOMIC CHARGES
-----------------------
   0 C :   -0.031188
   1 C :   -0.064121
   2 C :    0.050588
   3 C :    0.029648
   4 C :   -0.066661
   5 S :    0.078812
   6 C :   -0.036544
   7 C :    0.023555
   8 C :    0.035358
   9 C :   -0.027867
  10 S :    0.061033
  11 C :   -0.029631
  12 C :   -0.134028
  13 S :    0.143672
  14 C :   -0.141380
  15 C :    0.052865
  16 C :    0.020672
  17 N :    0.020532
  18 C :   -0.189666
  19 C :    0.257064
  20 N :   -0.239489
  21 C :   -0.172426
  22 C :    0.253846
  23 N :   -0.240776
  24 N :    0.011636
  25 C :    0.013697
  26 C :    0.025377
  27 C :   -0.122346
  28 S :    0.155568
  29 C :   -0.143269
  30 C :   -0.045729
  31 C :    0.194454
  32 O :   -0.285043
  33 C :    0.121502
  34 S :   -0.041796
  35 S :    0.029536
  36 C :    0.074186
  37 C :    0.005349
  38 C :   -0.064464
  39 N :   -0.068202
  40 C :    0.081187
  41 C :   -0.044150
  42 C :    0.043674
  43 N :   -0.058009
  44 C :    0.029742
  45 C :    0.027627
  46 C :   -0.036855
  47 C :   -0.054690
  48 C :    0.324814
  49 C :   -0.347803
  50 C :   -0.185076
  51 N :    0.152610
  52 C :   -0.191155
  53 N :    0.150644
  54 C :    0.014560
  55 C :   -0.015166
  56 C :    0.142525
  57 O :   -0.139448
  58 C :   -0.067754
  59 C :    0.117615
  60 C :   -0.090887
  61 C :   -0.019317
  62 S :    0.187591
  63 C :   -0.123014
  64 C :    0.039479
  65 Br:    0.026058
  66 H :    0.019554
  67 H :    0.020730
  68 H :   -0.012447
  69 H :   -0.012874
  70 H :   -0.017929
  71 H :   -0.014524
  72 H :   -0.005431
  73 H :   -0.010257
  74 H :    0.005057
  75 H :    0.094153
  76 H :    0.097142
  77 H :   -0.006124
  78 H :    0.005408
  79 H :    0.093185
  80 H :    0.097954
  81 H :   -0.017364
  82 H :   -0.013553
  83 H :    0.065079
  84 H :    0.070926
  85 H :    0.015641
  86 H :   -0.001489
  87 H :    0.008259
  88 H :   -0.004238
  89 H :   -0.000079
  90 H :    0.047567
  91 H :    0.012160
  92 H :   -0.007941
  93 H :   -0.005659
  94 H :   -0.002035
Sum of atomic charges:   -0.0000000

LOEWDIN ATOMIC CHARGES
----------------------
   0 C :   -0.078654
   1 C :   -0.139167
   2 C :   -0.033360
   3 C :   -0.026743
   4 C :   -0.178181
   5 S :    0.351664
   6 C :   -0.179829
   7 C :   -0.041906
   8 C :   -0.031485
   9 C :   -0.158681
  10 S :    0.365350
  11 C :   -0.063057
  12 C :   -0.189492
  13 S :    0.472597
  14 C :   -0.183074
  15 C :   -0.049598
  16 C :   -0.047122
  17 N :   -0.043821
  18 C :   -0.003043
  19 C :    0.015272
  20 N :   -0.111105
  21 C :    0.002698
  22 C :    0.015799
  23 N :   -0.110986
  24 N :   -0.041347
  25 C :   -0.043511
  26 C :   -0.041524
  27 C :   -0.185445
  28 S :    0.456118
  29 C :   -0.196241
  30 C :   -0.228333
  31 C :   -0.003316
  32 O :   -0.087911
  33 C :   -0.041380
  34 S :    0.108019
  35 S :    0.211932
  36 C :   -0.005768
  37 C :   -0.056976
  38 C :    0.034855
  39 N :   -0.087347
  40 C :    0.051192
  41 C :   -0.064207
  42 C :    0.025022
  43 N :   -0.080240
  44 C :    0.015875
  45 C :    0.001935
  46 C :    0.069530
  47 C :   -0.083802
  48 C :    0.075573
  49 C :   -0.136483
  50 C :   -0.017537
  51 N :   -0.050926
  52 C :   -0.020497
  53 N :   -0.050054
  54 C :   -0.021544
  55 C :   -0.050525
  56 C :    0.084981
  57 O :   -0.134322
  58 C :    0.023143
  59 C :   -0.031193
  60 C :   -0.142949
  61 C :   -0.008851
  62 S :    0.433640
  63 C :   -0.270030
  64 C :   -0.070310
  65 Br:    0.138927
  66 H :    0.028253
  67 H :    0.025701
  68 H :    0.032868
  69 H :    0.032068
  70 H :    0.029914
  71 H :    0.033244
  72 H :    0.042802
  73 H :    0.008967
  74 H :    0.026144
  75 H :    0.054659
  76 H :    0.056766
  77 H :    0.009752
  78 H :    0.026608
  79 H :    0.054301
  80 H :    0.056971
  81 H :    0.025289
  82 H :    0.026004
  83 H :    0.027944
  84 H :    0.015138
  85 H :    0.037207
  86 H :    0.018676
  87 H :    0.027199
  88 H :    0.033671
  89 H :    0.034182
  90 H :    0.039145
  91 H :    0.041908
  92 H :    0.041799
  93 H :    0.041211
  94 H :    0.039354

  Mayer bond orders larger than 0.100000
B(  0-C ,  1-C ) :   1.8580 B(  0-C , 66-H ) :   0.9508 B(  0-C , 67-H ) :   0.9415
B(  1-C ,  2-C ) :   1.0849 B(  1-C ,  5-S ) :   1.0089 B(  2-C ,  3-C ) :   1.6518
B(  2-C , 68-H ) :   0.9926 B(  3-C ,  4-C ) :   1.1611 B(  3-C , 69-H ) :   0.9914
B(  4-C ,  5-S ) :   1.0456 B(  4-C ,  6-C ) :   1.5386 B(  6-C ,  7-C ) :   1.1834
B(  6-C , 10-S ) :   1.0374 B(  7-C ,  8-C ) :   1.5831 B(  7-C , 70-H ) :   0.9914
B(  8-C ,  9-C ) :   1.1605 B(  8-C , 71-H ) :   1.0005 B(  9-C , 10-S ) :   1.0374
B(  9-C , 11-C ) :   1.4876 B( 11-C , 12-C ) :   1.2717 B( 11-C , 72-H ) :   0.9700
B( 12-C , 13-S ) :   1.1156 B( 12-C , 14-C ) :   0.1208 B( 12-C , 16-C ) :   1.2827
B( 13-S , 14-C ) :   1.1427 B( 14-C , 15-C ) :   1.2810 B( 14-C , 25-C ) :   1.1887
B( 15-C , 16-C ) :   1.2473 B( 15-C , 24-N ) :   1.3841 B( 16-C , 17-N ) :   1.4342
B( 17-N , 18-C ) :   1.7132 B( 18-C , 19-C ) :   1.0681 B( 18-C , 21-C ) :   1.1488
B( 19-C , 20-N ) :   1.0754 B( 19-C , 73-H ) :   0.9123 B( 19-C , 74-H ) :   0.8786
B( 20-N , 75-H ) :   0.9680 B( 20-N , 76-H ) :   0.9710 B( 21-C , 22-C ) :   1.0662
B( 21-C , 24-N ) :   1.7161 B( 22-C , 23-N ) :   1.0742 B( 22-C , 77-H ) :   0.9146
B( 22-C , 78-H ) :   0.8786 B( 23-N , 79-H ) :   0.9685 B( 23-N , 80-H ) :   0.9709
B( 25-C , 26-C ) :   1.6325 B( 25-C , 81-H ) :   0.9502 B( 26-C , 27-C ) :   1.1497
B( 26-C , 82-H ) :   0.9383 B( 27-C , 28-S ) :   1.1234 B( 27-C , 29-C ) :   0.1087
B( 27-C , 31-C ) :   1.4486 B( 28-S , 29-C ) :   1.1244 B( 29-C , 30-C ) :   1.5063
B( 29-C , 36-C ) :   1.1227 B( 30-C , 31-C ) :   1.2723 B( 30-C , 35-S ) :   0.9698
B( 31-C , 32-O ) :   1.1138 B( 32-O , 33-C ) :   0.9763 B( 33-C , 34-S ) :   0.9986
B( 33-C , 83-H ) :   0.9581 B( 33-C , 84-H ) :   0.9422 B( 34-S , 35-S ) :   1.0379
B( 36-C , 37-C ) :   1.6692 B( 36-C , 85-H ) :   0.9551 B( 37-C , 38-C ) :   1.0681
B( 37-C , 86-H ) :   0.9510 B( 38-C , 39-N ) :   1.5074 B( 38-C , 43-N ) :   1.5362
B( 39-N , 40-C ) :   1.5655 B( 40-C , 41-C ) :   1.3574 B( 40-C , 87-H ) :   0.9792
B( 41-C , 42-C ) :   1.3313 B( 41-C , 88-H ) :   0.9770 B( 42-C , 43-N ) :   1.5319
B( 42-C , 44-C ) :   1.0398 B( 44-C , 45-C ) :   1.6400 B( 44-C , 89-H ) :   0.9843
B( 45-C , 46-C ) :   1.1051 B( 45-C , 90-H ) :   0.9816 B( 46-C , 47-C ) :   1.5813
B( 46-C , 91-H ) :   0.9606 B( 47-C , 48-C ) :   1.0543 B( 47-C , 56-C ) :   0.9346
B( 48-C , 49-C ) :   1.6340 B( 48-C , 54-C ) :   1.0094 B( 49-C , 50-C ) :   1.1424
B( 49-C , 52-C ) :   1.1469 B( 50-C , 51-N ) :   2.9683 B( 52-C , 53-N ) :   2.9654
B( 54-C , 55-C ) :   1.2723 B( 54-C , 61-C ) :   1.4048 B( 55-C , 56-C ) :   0.9404
B( 55-C , 58-C ) :   1.4255 B( 56-C , 57-O ) :   2.2223 B( 58-C , 59-C ) :   1.2500
B( 58-C , 92-H ) :   1.0157 B( 59-C , 60-C ) :   1.3002 B( 59-C , 64-C ) :   1.1632
B( 60-C , 61-C ) :   1.3393 B( 60-C , 62-S ) :   1.0852 B( 61-C , 93-H ) :   0.9785
B( 62-S , 63-C ) :   1.0868 B( 63-C , 64-C ) :   1.6162 B( 63-C , 65-Br) :   1.0203
B( 64-C , 94-H ) :   1.0007

-----------------------------------------------------------------------------
         ABSORPTION SPECTRUM VIA TRANSITION ELECTRIC DIPOLE MOMENTS
-----------------------------------------------------------------------------
State   Energy  Wavelength   fosc         T2         TX        TY        TZ
        (cm-1)    (nm)                  (au**2)     (au)      (au)      (au)
-----------------------------------------------------------------------------
   0   11960.4    836.1   1.214088409  33.41808  -1.40484  -5.03173  -2.47511
   1   12587.1    794.5   0.008531455   0.22314   0.17373   0.22992   0.37429
   2   19836.0    504.1   0.022268998   0.36959  -0.01340   0.35599   0.49263
   3   20042.0    499.0   0.004618565   0.07587  -0.07153   0.21102  -0.16192
   4   21449.3    466.2   0.285453321   4.38125   1.12776   1.71108   0.42615
   5   21693.7    461.0   0.086192620   1.30801   0.12030   1.13721   0.01713
   6   22284.0    448.8   0.885122962  13.07635   1.44249   1.29610  -3.05216
   7   26264.8    380.7   0.387318393   4.85478  -0.87059  -0.64394  -1.91890
   8   26961.8    370.9   1.027840973  12.55025  -1.46973   1.63977  -2.77512
   9   27235.2    367.2   0.002187640   0.02644   0.02296  -0.00527  -0.16090
  10   27312.5    366.1   0.005008345   0.06037   0.16154   0.11692   0.14353
  11   27834.1    359.3   0.068217985   0.80686  -0.07346   0.88828  -0.11149
  12   28277.2    353.6   0.005155116   0.06002  -0.00247   0.03681   0.24219
  13   28531.9    350.5   0.003224181   0.03720  -0.14097   0.12842  -0.02893
  14   28813.2    347.1   0.036099087   0.41246  -0.02255  -0.18517   0.61454
  15   28909.0    345.9   0.004587613   0.05224  -0.15973  -0.07246  -0.14656
  16   29275.0    341.6   0.006256762   0.07036  -0.14722   0.00574  -0.22058
  17   29349.9    340.7   0.010045122   0.11267   0.09456   0.21852   0.23660
  18   29883.6    334.6   0.188741145   2.07926  -0.30437  -0.18374   1.39745
  19   30296.0    330.1   0.018049716   0.19614   0.35103  -0.09776   0.25172
  20   30681.8    325.9   0.000236517   0.00254   0.04830  -0.01073   0.00949
  21   31211.1    320.4   0.069182291   0.72973   0.14276   0.22860   0.81061
  22   31576.2    316.7   0.038174332   0.39800   0.35587   0.38810  -0.34747
  23   32051.7    312.0   0.079196886   0.81345   0.09687   0.84891   0.28883
  24   32170.7    310.8   0.010343601   0.10585  -0.06103  -0.29078   0.13256
  25   32242.3    310.2   0.035208601   0.35950   0.16101  -0.54819   0.18182
  26   32488.8    307.8   0.812425646   8.23237  -0.84526   2.54649  -1.01653
  27   33133.2    301.8   0.390695843   3.88196  -0.42534  -1.92362   0.02677
  28   33173.3    301.4   0.035816263   0.35544   0.12730  -0.22302  -0.53805
  29   33347.1    299.9   0.046707623   0.46111  -0.20399   0.55905  -0.32705
  30   34508.6    289.8   0.064471604   0.61506   0.01087  -0.49463   0.60851
  31   34639.6    288.7   0.000062986   0.00060   0.02109  -0.00514   0.01129
  32   35056.9    285.3   0.088493755   0.83103   0.07437   0.17076  -0.89238
  33   35188.3    284.2   0.024172951   0.22616   0.01587   0.09260  -0.46619
  34   35418.5    282.3   0.004132792   0.03841  -0.16670   0.10298  -0.00459
  35   35439.6    282.2   0.008132429   0.07555   0.16657  -0.16634   0.14189
  36   35733.8    279.8   0.000598439   0.00551  -0.03247  -0.05417  -0.03905
  37   36292.7    275.5   0.033921090   0.30770  -0.09323  -0.38658   0.38673
  38   36725.0    272.3   0.056755021   0.50877  -0.03225  -0.58834  -0.40198
  39   36981.2    270.4   0.008943478   0.07962   0.19934   0.19439   0.04574
  40   37158.6    269.1   0.103605626   0.91791   0.03614  -0.70516  -0.64758
  41   37407.2    267.3   0.024978332   0.21983   0.01085   0.29565   0.36373
  42   37677.5    265.4   0.062887970   0.54949  -0.13289  -0.26301  -0.68019
  43   37772.3    264.7   0.004227727   0.03685  -0.11861   0.12467   0.08508
  44   37888.4    263.9   0.009737473   0.08461  -0.21131   0.02903  -0.19777
  45   38098.4    262.5   0.006225952   0.05380  -0.19026   0.05538  -0.12055
  46   38252.7    261.4   0.018730751   0.16120   0.20357   0.26277   0.22519
  47   38439.8    260.1   0.157790766   1.35138   0.77192   0.11327   0.86179
  48   38711.9    258.3   0.012663254   0.10769  -0.07782  -0.04099  -0.31615
  49   39016.1    256.3   0.175284496   1.47902  -0.22607  -1.15165   0.31877
  50   39523.6    253.0   0.006054462   0.05043   0.05854   0.21680  -0.00151
  51   39683.1    252.0   0.000028152   0.00023   0.00666   0.01195  -0.00681
  52   39905.7    250.6   0.068810886   0.56767   0.01780   0.31540   0.68402
  53   40095.5    249.4   0.000886988   0.00728   0.01777  -0.00895  -0.08299

FINAL SINGLE POINT ENERGY     -7792.290808643512

DIPOLE MOMENT
-------------
                                X             Y             Z
Electronic contribution:   -117.77483     -23.29894     -75.62062
Nuclear contribution   :    118.98444      25.80353      75.77246
                        -----------------------------------------
Total Dipole Moment    :      1.20961       2.50459       0.15184
                        -----------------------------------------
Magnitude (a.u.)       :      2.78553
Magnitude (Debye)      :      7.08026

Rotational constants in cm-1:     0.000858     0.000305     0.000251
Rotational constants in MHz :    25.732177     9.156342     7.535221

                             ****ORCA TERMINATED NORMALLY****
TOTAL RUN TIME: 0 days 0 hours 7 minutes 36 seconds 932 msec
