                         Program Version 4.2.0 -  RELEASE  -
|  1> # ORCA input file
|  2> # SCF done       -176.953554842912          0.000976671427
|  3> ! CAM-B3LYP def2-SVP def2/J RIJCOSX Grid4 TightSCF
|  4> %maxcore 5000
|  5> %tddft
|  6>     Mode sTDDFT
|  7>     Ethresh 5.0
|  8>     maxcore 5000
|  9> end
| 10>
| 11> %pal
| 12>   nprocs 6
| 13>   end
| 14> * xyz 0 1
| 15>    C       -2.24111         1.18741         4.32355
| 16>    C       -0.93345         0.80008         4.46209
| 17>    C       -0.40322         0.20615         5.62666
| 18>    N        0.08303        -0.27128         6.55045
| 19>    C        0.05431         0.92436         3.46235
| 20>    N        0.90423         0.98575         2.69282
| 21>    C       -3.29508         1.00519         5.31264
| 22>    C       -4.52307         1.44541         4.75960
| 23>    C       -5.70772         1.39931         5.45376
| 24>    C       -5.68190         0.88794         6.75515
| 25>    C       -4.44984         0.45297         7.30152
| 26>    C       -3.25140         0.50358         6.60099
| 27>    S       -4.64217        -0.13044         8.92628
| 28>    C       -6.35140         0.20621         8.84941
| 29>    C       -6.75885         0.73304         7.66999
| 30>   Br       -7.43257        -0.15386        10.33764
| 31>    C       -4.30144         1.94857         3.39226
| 32>    O       -5.11204         2.50801         2.69073
| 33>    C       -2.84119         1.77010         3.13841
| 34>    C       -2.18941         2.26303         2.04969
| 35>    C       -2.83391         2.62373         0.83933
| 36>    O       -2.25838         3.55187         0.02269
| 37>    C       -3.96940         2.14587         0.21286
| 38>    C       -5.03111         1.12732         0.28482
| 39>    O       -5.24422         0.25658         1.08385
| 40>    N       -5.76329         1.34363        -0.87994
| 41>    C       -5.27343         2.34123        -1.71584
| 42>    O       -5.76193         2.66784        -2.76891
| 43>    C       -4.08955         2.83700        -1.01151
| 44>    C       -3.01314         3.71138        -1.09000
| 45>    C       -2.63589         4.66222        -2.07236
| 46>    C       -3.37346         4.87554        -3.18827
| 47>    C       -3.02701         5.84169        -4.17644
| 48>    C       -3.73867         6.13779        -5.28273
| 49>    C       -5.00503         5.47348        -5.70196
| 50>    C       -3.22197         7.18235        -6.24353
| 51>    N       -2.72717         6.56458        -7.45537
| 52>    C       -3.54012         6.31160        -8.51579
| 53>    C       -3.29057         5.35257        -9.43581
| 54>    C       -4.01901         5.02900       -10.60641
| 55>    C       -5.04440         5.53523       -11.32712
| 56>    C       -5.69866         6.85862       -11.04032
| 57>    C       -4.73931         8.01679       -11.32695
| 58>    C       -5.44887         4.71567       -12.47466
| 59>    C       -6.55290         5.10620       -13.41576
| 60>    C       -6.04568         6.08560       -14.47563
| 61>    C       -4.76281         3.58273       -12.65467
| 62>    S       -3.48064         3.49812       -11.39426
| 63>    O       -2.17258         3.64964       -11.97502
| 64>    O       -3.64399         2.37786       -10.50023
| 65>    C       -4.79925         2.54965       -13.67173
| 66>    C       -5.37549         1.32057       -13.42275
| 67>    O       -6.14626         1.20822       -12.30296
| 68>    C       -5.79085         0.22297       -11.34125
| 69>    C       -5.26690         0.24542       -14.37418
| 70>    O       -5.91049        -0.89849       -14.02455
| 71>    C       -5.88389        -1.98722       -14.91664
| 72>    C       -4.56815         0.40424       -15.54461
| 73>    C       -3.99238         1.65300       -15.82356
| 74>    C       -4.12070         2.74186       -14.89525
| 75>    N       -3.53636         3.85366       -15.33471
| 76>    S       -2.87189         3.54655       -16.76832
| 77>    N       -3.30669         2.00115       -16.91118
| 78>    H       -6.62568         1.74134         5.00265
| 79>    H       -2.33878         0.16630         7.06330
| 80>    H       -7.77611         1.00303         7.45270
| 81>    H       -1.11810         2.41476         2.06814
| 82>    H       -6.58077         0.79714        -1.11175
| 83>    H       -1.72862         5.21704        -1.87954
| 84>    H       -4.27123         4.29248        -3.32776
| 85>    H       -2.11519         6.39736        -3.98995
| 86>    H       -5.26831         4.63426        -5.06793
| 87>    H       -4.91560         5.11772        -6.72982
| 88>    H       -5.82262         6.19515        -5.67807
| 89>    H       -2.40669         7.75244        -5.78871
| 90>    H       -4.02129         7.87526        -6.51980
| 91>    H       -1.98052         5.89651        -7.31412
| 92>    H       -4.38666         6.97613        -8.59540
| 93>    H       -2.43999         4.70028        -9.27636
| 94>    H       -6.01047         6.88809        -9.99378
| 95>    H       -6.59256         6.98069       -11.64885
| 96>    H       -3.83321         7.92240       -10.73478
| 97>    H       -5.21519         8.96755       -11.09591
| 98>    H       -4.45361         8.01813       -12.37561
| 99>    H       -7.39390         5.53760       -12.87048
|100>    H       -6.90609         4.19990       -13.91073
|101>    H       -5.75609         7.03167       -14.02706
|102>    H       -6.82302         6.27599       -15.21213
|103>    H       -5.17851         5.66210       -14.97664
|104>    H       -6.60414         0.22466       -10.61829
|105>    H       -4.85936         0.51171       -10.84653
|106>    H       -5.69653        -0.76725       -11.78770
|107>    H       -6.32913        -1.72407       -15.88065
|108>    H       -6.47857        -2.76693       -14.44330
|109>    H       -4.86387        -2.35139       -15.07281
|110>    H       -4.45539        -0.38596       -16.26680
|111> *
|112>
|113>                          ****END OF INPUT****

CARTESIAN COORDINATES (ANGSTROEM)
---------------------------------
  C     -2.241110    1.187410    4.323550
  C     -0.933450    0.800080    4.462090
  C     -0.403220    0.206150    5.626660
  N      0.083030   -0.271280    6.550450
  C      0.054310    0.924360    3.462350
  N      0.904230    0.985750    2.692820
  C     -3.295080    1.005190    5.312640
  C     -4.523070    1.445410    4.759600
  C     -5.707720    1.399310    5.453760
  C     -5.681900    0.887940    6.755150
  C     -4.449840    0.452970    7.301520
  C     -3.251400    0.503580    6.600990
  S     -4.642170   -0.130440    8.926280
  C     -6.351400    0.206210    8.849410
  C     -6.758850    0.733040    7.669990
  Br    -7.432570   -0.153860   10.337640
  C     -4.301440    1.948570    3.392260
  O     -5.112040    2.508010    2.690730
  C     -2.841190    1.770100    3.138410
  C     -2.189410    2.263030    2.049690
  C     -2.833910    2.623730    0.839330
  O     -2.258380    3.551870    0.022690
  C     -3.969400    2.145870    0.212860
  C     -5.031110    1.127320    0.284820
  O     -5.244220    0.256580    1.083850
  N     -5.763290    1.343630   -0.879940
  C     -5.273430    2.341230   -1.715840
  O     -5.761930    2.667840   -2.768910
  C     -4.089550    2.837000   -1.011510
  C     -3.013140    3.711380   -1.090000
  C     -2.635890    4.662220   -2.072360
  C     -3.373460    4.875540   -3.188270
  C     -3.027010    5.841690   -4.176440
  C     -3.738670    6.137790   -5.282730
  C     -5.005030    5.473480   -5.701960
  C     -3.221970    7.182350   -6.243530
  N     -2.727170    6.564580   -7.455370
  C     -3.540120    6.311600   -8.515790
  C     -3.290570    5.352570   -9.435810
  C     -4.019010    5.029000  -10.606410
  C     -5.044400    5.535230  -11.327120
  C     -5.698660    6.858620  -11.040320
  C     -4.739310    8.016790  -11.326950
  C     -5.448870    4.715670  -12.474660
  C     -6.552900    5.106200  -13.415760
  C     -6.045680    6.085600  -14.475630
  C     -4.762810    3.582730  -12.654670
  S     -3.480640    3.498120  -11.394260
  O     -2.172580    3.649640  -11.975020
  O     -3.643990    2.377860  -10.500230
  C     -4.799250    2.549650  -13.671730
  C     -5.375490    1.320570  -13.422750
  O     -6.146260    1.208220  -12.302960
  C     -5.790850    0.222970  -11.341250
  C     -5.266900    0.245420  -14.374180
  O     -5.910490   -0.898490  -14.024550
  C     -5.883890   -1.987220  -14.916640
  C     -4.568150    0.404240  -15.544610
  C     -3.992380    1.653000  -15.823560
  C     -4.120700    2.741860  -14.895250
  N     -3.536360    3.853660  -15.334710
  S     -2.871890    3.546550  -16.768320
  N     -3.306690    2.001150  -16.911180
  H     -6.625680    1.741340    5.002650
  H     -2.338780    0.166300    7.063300
  H     -7.776110    1.003030    7.452700
  H     -1.118100    2.414760    2.068140
  H     -6.580770    0.797140   -1.111750
  H     -1.728620    5.217040   -1.879540
  H     -4.271230    4.292480   -3.327760
  H     -2.115190    6.397360   -3.989950
  H     -5.268310    4.634260   -5.067930
  H     -4.915600    5.117720   -6.729820
  H     -5.822620    6.195150   -5.678070
  H     -2.406690    7.752440   -5.788710
  H     -4.021290    7.875260   -6.519800
  H     -1.980520    5.896510   -7.314120
  H     -4.386660    6.976130   -8.595400
  H     -2.439990    4.700280   -9.276360
  H     -6.010470    6.888090   -9.993780
  H     -6.592560    6.980690  -11.648850
  H     -3.833210    7.922400  -10.734780
  H     -5.215190    8.967550  -11.095910
  H     -4.453610    8.018130  -12.375610
  H     -7.393900    5.537600  -12.870480
  H     -6.906090    4.199900  -13.910730
  H     -5.756090    7.031670  -14.027060
  H     -6.823020    6.275990  -15.212130
  H     -5.178510    5.662100  -14.976640
  H     -6.604140    0.224660  -10.618290
  H     -4.859360    0.511710  -10.846530
  H     -5.696530   -0.767250  -11.787700
  H     -6.329130   -1.724070  -15.880650
  H     -6.478570   -2.766930  -14.443300
  H     -4.863870   -2.351390  -15.072810
  H     -4.455390   -0.385960  -16.266800

 Total Charge           Charge          ....    0
 Multiplicity           Mult            ....    1
 Number of Electrons    NEL             ....  492
 Basis Dimension        Dim             .... 1077

ORBITAL ENERGIES
----------------

  NO   OCC          E(Eh)            E(eV)
   0   2.0000    -482.886941    -13140.0217
   1   2.0000     -89.111372     -2424.8437
   2   2.0000     -89.000704     -2421.8323
   3   2.0000     -88.976990     -2421.1870
   4   2.0000     -62.564666     -1702.4711
   5   2.0000     -56.398619     -1534.6844
   6   2.0000     -56.395896     -1534.6104
   7   2.0000     -56.395868     -1534.6096
   8   2.0000     -19.318421      -525.6810
   9   2.0000     -19.254208      -523.9336
  10   2.0000     -19.225263      -523.1460
  11   2.0000     -19.220244      -523.0094
  12   2.0000     -19.218593      -522.9645
  13   2.0000     -19.216633      -522.9112
  14   2.0000     -19.175949      -521.8041
  15   2.0000     -19.171270      -521.6768
  16   2.0000     -14.459995      -393.4765
  17   2.0000     -14.440262      -392.9395
  18   2.0000     -14.419077      -392.3630
  19   2.0000     -14.418192      -392.3389
  20   2.0000     -14.417932      -392.3319
  21   2.0000     -14.417134      -392.3102
  22   2.0000     -10.407769      -283.2098
  23   2.0000     -10.404713      -283.1266
  24   2.0000     -10.374006      -282.2911
  25   2.0000     -10.370647      -282.1997
  26   2.0000     -10.363005      -281.9917
  27   2.0000     -10.360558      -281.9251
  28   2.0000     -10.346226      -281.5351
  29   2.0000     -10.344476      -281.4875
  30   2.0000     -10.343721      -281.4670
  31   2.0000     -10.336373      -281.2670
  32   2.0000     -10.327442      -281.0240
  33   2.0000     -10.326703      -281.0039
  34   2.0000     -10.325957      -280.9836
  35   2.0000     -10.321580      -280.8645
  36   2.0000     -10.321460      -280.8612
  37   2.0000     -10.320645      -280.8390
  38   2.0000     -10.320426      -280.8331
  39   2.0000     -10.310514      -280.5634
  40   2.0000     -10.309425      -280.5337
  41   2.0000     -10.307821      -280.4901
  42   2.0000     -10.307467      -280.4804
  43   2.0000     -10.306356      -280.4502
  44   2.0000     -10.305704      -280.4325
  45   2.0000     -10.305088      -280.4157
  46   2.0000     -10.302392      -280.3423
  47   2.0000     -10.299861      -280.2735
  48   2.0000     -10.298042      -280.2240
  49   2.0000     -10.297511      -280.2095
  50   2.0000     -10.294856      -280.1373
  51   2.0000     -10.294627      -280.1311
  52   2.0000     -10.294139      -280.1178
  53   2.0000     -10.288630      -279.9679
  54   2.0000     -10.284950      -279.8677
  55   2.0000     -10.283785      -279.8360
  56   2.0000     -10.283199      -279.8201
  57   2.0000     -10.282770      -279.8084
  58   2.0000     -10.278017      -279.6791
  59   2.0000     -10.275186      -279.6020
  60   2.0000     -10.272999      -279.5425
  61   2.0000     -10.272974      -279.5418
  62   2.0000     -10.272669      -279.5335
  63   2.0000     -10.264987      -279.3245
  64   2.0000     -10.264104      -279.3005
  65   2.0000     -10.257576      -279.1228
  66   2.0000     -10.247162      -278.8395
  67   2.0000      -8.794104      -239.2997
  68   2.0000      -8.178179      -222.5396
  69   2.0000      -8.092886      -220.2186
  70   2.0000      -8.073008      -219.6777
  71   2.0000      -6.630424      -180.4230
  72   2.0000      -6.615845      -180.0263
  73   2.0000      -6.615610      -180.0199
  74   2.0000      -6.147148      -167.2724
  75   2.0000      -6.146683      -167.2597
  76   2.0000      -6.146052      -167.2426
  77   2.0000      -6.064183      -165.0148
  78   2.0000      -6.056494      -164.8056
  79   2.0000      -6.054994      -164.7648
  80   2.0000      -6.042710      -164.4305
  81   2.0000      -6.038403      -164.3133
  82   2.0000      -6.034225      -164.1996
  83   2.0000      -2.746276       -74.7300
  84   2.0000      -2.742184       -74.6186
  85   2.0000      -2.742071       -74.6155
  86   2.0000      -2.730454       -74.2994
  87   2.0000      -2.730435       -74.2989
  88   2.0000      -1.234891       -33.6031
  89   2.0000      -1.176138       -32.0043
  90   2.0000      -1.162580       -31.6354
  91   2.0000      -1.161484       -31.6056
  92   2.0000      -1.143094       -31.1052
  93   2.0000      -1.133752       -30.8510
  94   2.0000      -1.124022       -30.5862
  95   2.0000      -1.103192       -30.0194
  96   2.0000      -1.052970       -28.6528
  97   2.0000      -1.049295       -28.5528
  98   2.0000      -1.043400       -28.3924
  99   2.0000      -1.025113       -27.8947
 100   2.0000      -1.015542       -27.6343
 101   2.0000      -0.996576       -27.1182
 102   2.0000      -0.992330       -27.0027
 103   2.0000      -0.965134       -26.2626
 104   2.0000      -0.955332       -25.9959
 105   2.0000      -0.949219       -25.8296
 106   2.0000      -0.941483       -25.6191
 107   2.0000      -0.940098       -25.5814
 108   2.0000      -0.930600       -25.3229
 109   2.0000      -0.921427       -25.0733
 110   2.0000      -0.910600       -24.7787
 111   2.0000      -0.898278       -24.4434
 112   2.0000      -0.887814       -24.1586
 113   2.0000      -0.887490       -24.1498
 114   2.0000      -0.872391       -23.7390
 115   2.0000      -0.865038       -23.5389
 116   2.0000      -0.849828       -23.1250
 117   2.0000      -0.848232       -23.0816
 118   2.0000      -0.843610       -22.9558
 119   2.0000      -0.833842       -22.6900
 120   2.0000      -0.830298       -22.5936
 121   2.0000      -0.802739       -21.8436
 122   2.0000      -0.796894       -21.6846
 123   2.0000      -0.796490       -21.6736
 124   2.0000      -0.779308       -21.2060
 125   2.0000      -0.776285       -21.1238
 126   2.0000      -0.768674       -20.9167
 127   2.0000      -0.765429       -20.8284
 128   2.0000      -0.759510       -20.6673
 129   2.0000      -0.758161       -20.6306
 130   2.0000      -0.752434       -20.4748
 131   2.0000      -0.717651       -19.5283
 132   2.0000      -0.716752       -19.5038
 133   2.0000      -0.710630       -19.3372
 134   2.0000      -0.709863       -19.3164
 135   2.0000      -0.694334       -18.8938
 136   2.0000      -0.692619       -18.8471
 137   2.0000      -0.690581       -18.7917
 138   2.0000      -0.682213       -18.5640
 139   2.0000      -0.676660       -18.4128
 140   2.0000      -0.672188       -18.2912
 141   2.0000      -0.666908       -18.1475
 142   2.0000      -0.657767       -17.8988
 143   2.0000      -0.637217       -17.3396
 144   2.0000      -0.631867       -17.1940
 145   2.0000      -0.627294       -17.0695
 146   2.0000      -0.626072       -17.0363
 147   2.0000      -0.619513       -16.8578
 148   2.0000      -0.611040       -16.6272
 149   2.0000      -0.609286       -16.5795
 150   2.0000      -0.607196       -16.5227
 151   2.0000      -0.601816       -16.3762
 152   2.0000      -0.598566       -16.2878
 153   2.0000      -0.596090       -16.2204
 154   2.0000      -0.588265       -16.0075
 155   2.0000      -0.587277       -15.9806
 156   2.0000      -0.585591       -15.9347
 157   2.0000      -0.580499       -15.7962
 158   2.0000      -0.578166       -15.7327
 159   2.0000      -0.570205       -15.5161
 160   2.0000      -0.562135       -15.2965
 161   2.0000      -0.556264       -15.1367
 162   2.0000      -0.555365       -15.1122
 163   2.0000      -0.552140       -15.0245
 164   2.0000      -0.550228       -14.9725
 165   2.0000      -0.545003       -14.8303
 166   2.0000      -0.540103       -14.6970
 167   2.0000      -0.537361       -14.6223
 168   2.0000      -0.534116       -14.5340
 169   2.0000      -0.531797       -14.4709
 170   2.0000      -0.531505       -14.4630
 171   2.0000      -0.527512       -14.3543
 172   2.0000      -0.525340       -14.2952
 173   2.0000      -0.524110       -14.2618
 174   2.0000      -0.521887       -14.2013
 175   2.0000      -0.520328       -14.1588
 176   2.0000      -0.517244       -14.0749
 177   2.0000      -0.515573       -14.0295
 178   2.0000      -0.514555       -14.0018
 179   2.0000      -0.512976       -13.9588
 180   2.0000      -0.511511       -13.9189
 181   2.0000      -0.509411       -13.8618
 182   2.0000      -0.508372       -13.8335
 183   2.0000      -0.504139       -13.7183
 184   2.0000      -0.500239       -13.6122
 185   2.0000      -0.497157       -13.5283
 186   2.0000      -0.496829       -13.5194
 187   2.0000      -0.495460       -13.4822
 188   2.0000      -0.490366       -13.3435
 189   2.0000      -0.487951       -13.2778
 190   2.0000      -0.484627       -13.1874
 191   2.0000      -0.478939       -13.0326
 192   2.0000      -0.477858       -13.0032
 193   2.0000      -0.472749       -12.8642
 194   2.0000      -0.471699       -12.8356
 195   2.0000      -0.468068       -12.7368
 196   2.0000      -0.461040       -12.5455
 197   2.0000      -0.459907       -12.5147
 198   2.0000      -0.455584       -12.3971
 199   2.0000      -0.451467       -12.2850
 200   2.0000      -0.451002       -12.2724
 201   2.0000      -0.448469       -12.2035
 202   2.0000      -0.448268       -12.1980
 203   2.0000      -0.446187       -12.1414
 204   2.0000      -0.445897       -12.1335
 205   2.0000      -0.445675       -12.1274
 206   2.0000      -0.440978       -11.9996
 207   2.0000      -0.435813       -11.8591
 208   2.0000      -0.433229       -11.7888
 209   2.0000      -0.429248       -11.6804
 210   2.0000      -0.427178       -11.6241
 211   2.0000      -0.426527       -11.6064
 212   2.0000      -0.424867       -11.5612
 213   2.0000      -0.422901       -11.5077
 214   2.0000      -0.418035       -11.3753
 215   2.0000      -0.413371       -11.2484
 216   2.0000      -0.411247       -11.1906
 217   2.0000      -0.410150       -11.1607
 218   2.0000      -0.406648       -11.0655
 219   2.0000      -0.393342       -10.7034
 220   2.0000      -0.393064       -10.6958
 221   2.0000      -0.390669       -10.6306
 222   2.0000      -0.386435       -10.5154
 223   2.0000      -0.384729       -10.4690
 224   2.0000      -0.381854       -10.3908
 225   2.0000      -0.381245       -10.3742
 226   2.0000      -0.377347       -10.2681
 227   2.0000      -0.376500       -10.2451
 228   2.0000      -0.376135       -10.2351
 229   2.0000      -0.370454       -10.0806
 230   2.0000      -0.366430        -9.9711
 231   2.0000      -0.360245        -9.8028
 232   2.0000      -0.352258        -9.5854
 233   2.0000      -0.350035        -9.5249
 234   2.0000      -0.349209        -9.5025
 235   2.0000      -0.342550        -9.3213
 236   2.0000      -0.337673        -9.1886
 237   2.0000      -0.334214        -9.0944
 238   2.0000      -0.325893        -8.8680
 239   2.0000      -0.317829        -8.6486
 240   2.0000      -0.316560        -8.6140
 241   2.0000      -0.295517        -8.0414
 242   2.0000      -0.287030        -7.8105
 243   2.0000      -0.281767        -7.6673
 244   2.0000      -0.271310        -7.3827
 245   2.0000      -0.242376        -6.5954
 246   0.0000      -0.101027        -2.7491
 247   0.0000      -0.064863        -1.7650
 248   0.0000      -0.056068        -1.5257
 249   0.0000      -0.038357        -1.0437
 250   0.0000      -0.025535        -0.6949

MULLIKEN ATOMIC CHARGES
-----------------------
   0 C :    0.301432
   1 C :   -0.344987
   2 C :   -0.184804
   3 N :    0.154617
   4 C :   -0.199797
   5 N :    0.165575
   6 C :    0.024017
   7 C :   -0.020462
   8 C :   -0.064536
   9 C :    0.121184
  10 C :   -0.088738
  11 C :   -0.024248
  12 S :    0.187998
  13 C :   -0.123394
  14 C :    0.037920
  15 Br:    0.025634
  16 C :    0.163410
  17 O :   -0.146750
  18 C :   -0.076283
  19 C :   -0.036067
  20 C :    0.104142
  21 O :   -0.190536
  22 C :   -0.003308
  23 C :    0.183719
  24 O :   -0.134877
  25 N :   -0.157463
  26 C :    0.193670
  27 O :   -0.158141
  28 C :   -0.105501
  29 C :    0.150661
  30 C :   -0.022668
  31 C :    0.019653
  32 C :    0.004158
  33 C :   -0.175918
  34 C :    0.083453
  35 C :    0.201738
  36 N :   -0.152758
  37 C :    0.033126
  38 C :    0.047309
  39 C :   -0.105987
  40 C :   -0.081187
  41 C :    0.056872
  42 C :    0.014581
  43 C :   -0.000021
  44 C :    0.068757
  45 C :    0.016765
  46 C :   -0.151487
  47 S :    0.769010
  48 O :   -0.459727
  49 O :   -0.463642
  50 C :   -0.093062
  51 C :    0.130041
  52 O :   -0.312885
  53 C :    0.184799
  54 C :    0.241924
  55 O :   -0.310153
  56 C :    0.176769
  57 C :   -0.215042
  58 C :    0.087013
  59 C :    0.049975
  60 N :   -0.250821
  61 S :    0.478249
  62 N :   -0.276142
  63 H :   -0.009616
  64 H :   -0.006353
  65 H :   -0.002237
  66 H :    0.037811
  67 H :    0.140400
  68 H :   -0.011401
  69 H :    0.021660
  70 H :   -0.025920
  71 H :    0.036798
  72 H :    0.048576
  73 H :    0.025264
  74 H :    0.012660
  75 H :    0.016753
  76 H :    0.120590
  77 H :    0.001835
  78 H :   -0.013885
  79 H :    0.008709
  80 H :   -0.005783
  81 H :    0.021126
  82 H :    0.011461
  83 H :    0.022119
  84 H :    0.007105
  85 H :    0.014710
  86 H :   -0.000886
  87 H :    0.011492
  88 H :    0.028827
  89 H :    0.021138
  90 H :    0.038085
  91 H :    0.017004
  92 H :    0.027832
  93 H :    0.041678
  94 H :    0.029845
  95 H :   -0.034173
Sum of atomic charges:   -0.0000000

LOEWDIN ATOMIC CHARGES
----------------------
   0 C :    0.073749
   1 C :   -0.134589
   2 C :   -0.017834
   3 N :   -0.049498
   4 C :   -0.022838
   5 N :   -0.047199
   6 C :   -0.019718
   7 C :   -0.046157
   8 C :    0.025675
   9 C :   -0.030936
  10 C :   -0.142682
  11 C :   -0.009326
  12 S :    0.433901
  13 C :   -0.270791
  14 C :   -0.069983
  15 Br:    0.138743
  16 C :    0.089256
  17 O :   -0.131649
  18 C :   -0.071990
  19 C :    0.047644
  20 C :    0.040758
  21 O :    0.024987
  22 C :   -0.047059
  23 C :    0.090726
  24 O :   -0.143508
  25 N :    0.002062
  26 C :    0.091736
  27 O :   -0.164161
  28 C :   -0.110204
  29 C :    0.089397
  30 C :   -0.057675
  31 C :    0.031410
  32 C :   -0.058813
  33 C :   -0.009317
  34 C :   -0.050525
  35 C :    0.046059
  36 N :   -0.003317
  37 C :    0.045254
  38 C :   -0.131258
  39 C :   -0.145904
  40 C :   -0.054649
  41 C :   -0.031344
  42 C :   -0.049508
  43 C :    0.001998
  44 C :   -0.025572
  45 C :   -0.052064
  46 C :   -0.168201
  47 S :    1.186640
  48 O :   -0.505358
  49 O :   -0.504886
  50 C :   -0.082160
  51 C :    0.058389
  52 O :   -0.112702
  53 C :    0.075810
  54 C :    0.049040
  55 O :   -0.087811
  56 C :    0.079320
  57 C :   -0.082357
  58 C :   -0.052329
  59 C :   -0.049543
  60 N :   -0.279882
  61 S :    0.617556
  62 N :   -0.296490
  63 H :    0.041768
  64 H :    0.041077
  65 H :    0.039250
  66 H :    0.052752
  67 H :    0.096653
  68 H :    0.037193
  69 H :    0.033548
  70 H :    0.025424
  71 H :    0.039044
  72 H :    0.043637
  73 H :    0.040005
  74 H :    0.027351
  75 H :    0.031483
  76 H :    0.080582
  77 H :    0.024160
  78 H :    0.026984
  79 H :    0.025220
  80 H :    0.026828
  81 H :    0.024813
  82 H :    0.022585
  83 H :    0.026828
  84 H :    0.025192
  85 H :    0.034855
  86 H :    0.018364
  87 H :    0.024111
  88 H :    0.026081
  89 H :    0.021853
  90 H :    0.013761
  91 H :    0.005847
  92 H :    0.018495
  93 H :    0.030580
  94 H :    0.018611
  95 H :    0.036742

  Mayer bond orders larger than 0.100000
B(  0-C ,  1-C ) :   1.6424 B(  0-C ,  6-C ) :   1.0119 B(  0-C , 18-C ) :   1.0726
B(  1-C ,  2-C ) :   1.1429 B(  1-C ,  4-C ) :   1.1426 B(  2-C ,  3-N ) :   2.9713
B(  4-C ,  5-N ) :   2.9904 B(  6-C ,  7-C ) :   1.2725 B(  6-C , 11-C ) :   1.4024
B(  7-C ,  8-C ) :   1.4262 B(  7-C , 16-C ) :   0.9446 B(  8-C ,  9-C ) :   1.2467
B(  8-C , 63-H ) :   1.0162 B(  9-C , 10-C ) :   1.3017 B(  9-C , 14-C ) :   1.1618
B( 10-C , 11-C ) :   1.3358 B( 10-C , 12-S ) :   1.0866 B( 11-C , 64-H ) :   0.9803
B( 12-S , 13-C ) :   1.0865 B( 13-C , 14-C ) :   1.6175 B( 13-C , 15-Br) :   1.0204
B( 14-C , 65-H ) :   1.0007 B( 16-C , 17-O ) :   2.2140 B( 16-C , 18-C ) :   0.9311
B( 18-C , 19-C ) :   1.6052 B( 19-C , 20-C ) :   1.1660 B( 19-C , 66-H ) :   0.9376
B( 20-C , 21-O ) :   1.1146 B( 20-C , 22-C ) :   1.4363 B( 21-O , 29-C ) :   1.1763
B( 22-C , 23-C ) :   0.8618 B( 22-C , 28-C ) :   1.3248 B( 23-C , 24-O ) :   2.2514
B( 23-C , 25-N ) :   1.0822 B( 25-N , 26-C ) :   1.1026 B( 25-N , 67-H ) :   0.9158
B( 26-C , 27-O ) :   2.1707 B( 26-C , 28-C ) :   0.8894 B( 28-C , 29-C ) :   1.3745
B( 29-C , 30-C ) :   1.1434 B( 30-C , 31-C ) :   1.6412 B( 30-C , 68-H ) :   0.9789
B( 31-C , 32-C ) :   1.1195 B( 31-C , 69-H ) :   0.9557 B( 32-C , 33-C ) :   1.7318
B( 32-C , 70-H ) :   0.9777 B( 33-C , 34-C ) :   1.0799 B( 33-C , 35-C ) :   1.0361
B( 34-C , 71-H ) :   0.9489 B( 34-C , 72-H ) :   0.9367 B( 34-C , 73-H ) :   0.9402
B( 35-C , 36-N ) :   1.0185 B( 35-C , 74-H ) :   0.9419 B( 35-C , 75-H ) :   0.9295
B( 36-N , 37-C ) :   1.2221 B( 36-N , 76-H ) :   0.9365 B( 37-C , 38-C ) :   1.6026
B( 37-C , 77-H ) :   0.9656 B( 38-C , 39-C ) :   1.1682 B( 38-C , 78-H ) :   0.9245
B( 39-C , 40-C ) :   1.6978 B( 39-C , 47-S ) :   0.8392 B( 40-C , 41-C ) :   1.0726
B( 40-C , 43-C ) :   1.0606 B( 41-C , 42-C ) :   1.1090 B( 41-C , 79-H ) :   0.9180
B( 41-C , 80-H ) :   0.9141 B( 42-C , 81-H ) :   0.9667 B( 42-C , 82-H ) :   0.9674
B( 42-C , 83-H ) :   0.9613 B( 43-C , 44-C ) :   1.0897 B( 43-C , 46-C ) :   1.8334
B( 44-C , 45-C ) :   1.1011 B( 44-C , 84-H ) :   0.9202 B( 44-C , 85-H ) :   0.9114
B( 45-C , 86-H ) :   0.9671 B( 45-C , 87-H ) :   0.9619 B( 45-C , 88-H ) :   0.9529
B( 46-C , 47-S ) :   0.7880 B( 46-C , 50-C ) :   0.9725 B( 47-S , 48-O ) :   1.7186
B( 47-S , 49-O ) :   1.6727 B( 50-C , 51-C ) :   1.5619 B( 50-C , 57-C ) :   0.1235
B( 50-C , 59-C ) :   1.2095 B( 51-C , 52-O ) :   1.2333 B( 51-C , 54-C ) :   1.1337
B( 52-O , 53-C ) :   0.9137 B( 53-C , 89-H ) :   0.9830 B( 53-C , 90-H ) :   0.9553
B( 53-C , 91-H ) :   0.9626 B( 54-C , 55-O ) :   1.1452 B( 54-C , 57-C ) :   1.3880
B( 55-O , 56-C ) :   0.9588 B( 56-C , 92-H ) :   0.9690 B( 56-C , 93-H ) :   0.9780
B( 56-C , 94-H ) :   0.9693 B( 57-C , 58-C ) :   1.1259 B( 57-C , 95-H ) :   1.0431
B( 58-C , 59-C ) :   1.1764 B( 58-C , 62-N ) :   1.5374 B( 59-C , 60-N ) :   1.5392
B( 60-N , 61-S ) :   1.2389 B( 60-N , 62-N ) :   0.1476 B( 61-S , 62-N ) :   1.2519

-----------------------------------------------------------------------------
         ABSORPTION SPECTRUM VIA TRANSITION ELECTRIC DIPOLE MOMENTS
-----------------------------------------------------------------------------
State   Energy  Wavelength   fosc         T2         TX        TY        TZ
        (cm-1)    (nm)                  (au**2)     (au)      (au)      (au)
-----------------------------------------------------------------------------
   0   19297.6    518.2   0.941059457  16.05422  -0.72007   1.16514  -3.76539
   1   22170.1    451.1   0.036986572   0.54923   0.36890  -0.44599   0.46285
   2   25665.6    389.6   0.098613115   1.26491   0.73525   0.30390  -0.79496
   3   26176.3    382.0   0.438713962   5.51758  -0.06031  -0.28718   2.33055
   4   26540.7    376.8   0.101391099   1.25766   1.04025  -0.33092   0.25697
   5   27379.2    365.2   0.020242397   0.24340  -0.08845  -0.47145  -0.11538
   6   27907.1    358.3   0.203240864   2.39758  -0.55684  -0.12015   1.43981
   7   28633.0    349.2   0.022652662   0.26045  -0.49108   0.11745  -0.07413
   8   30185.6    331.3   0.446658563   4.87137  -0.28810  -0.00135  -2.18823
   9   30567.1    327.1   0.456340084   4.91484  -1.02983  -1.91189   0.44605
  10   31531.8    317.1   0.008406327   0.08777  -0.23346   0.09144   0.15780
  11   32182.6    310.7   0.200958744   2.05571   1.20667   0.10221  -0.76760
  12   32528.2    307.4   0.065307019   0.66096   0.64460  -0.03249  -0.49436
  13   32560.2    307.1   0.319649354   3.23193  -1.52024   0.09931   0.95443
  14   33433.3    299.1   0.008094368   0.07970   0.21835  -0.04522   0.17315
  15   33842.8    295.5   0.042209304   0.41060  -0.19039   0.49858   0.35464
  16   34133.7    293.0   0.002363332   0.02279   0.00256   0.14726   0.03318
  17   34516.9    289.7   0.054704640   0.52176  -0.14180  -0.15548  -0.69100
  18   35177.8    284.3   0.035158336   0.32903   0.17629   0.44126   0.32131
  19   37012.0    270.2   0.207089751   1.84201  -0.73844   0.37486  -1.07526
  20   38491.7    259.8   0.134639573   1.15155   0.80623  -0.38321   0.59555
  21   38716.4    258.3   0.017255286   0.14672   0.36043  -0.06509  -0.11217
  22   38883.3    257.2   0.001565261   0.01325  -0.11151   0.00902   0.02714
  23   39166.9    255.3   0.010401609   0.08743  -0.07606  -0.10834   0.26440
  24   39543.0    252.9   0.024785982   0.20635  -0.24308  -0.36238   0.12628
  25   39661.2    252.1   0.005483472   0.04552  -0.03979   0.18353  -0.10125
  26   40059.9    249.6   0.039781887   0.32693   0.11020  -0.41512   0.37744
  27   40281.7    248.3   0.031877653   0.26053   0.18911   0.18507  -0.43648

FINAL SINGLE POINT ENERGY     -6429.653561707995

DIPOLE MOMENT
-------------
                                X             Y             Z
Electronic contribution:    -13.89520     -70.43365     268.28335
Nuclear contribution   :     10.91962      72.09826    -268.17716
                        -----------------------------------------
Total Dipole Moment    :     -2.97558       1.66461       0.10619
                        -----------------------------------------
Magnitude (a.u.)       :      3.41120
Magnitude (Debye)      :      8.67058

Rotational constants in cm-1:     0.002341     0.000206     0.000203
Rotational constants in MHz :    70.182763     6.181971     6.074567

                             ****ORCA TERMINATED NORMALLY****
TOTAL RUN TIME: 0 days 0 hours 8 minutes 33 seconds 782 msec
