                         Program Version 4.2.0 -  RELEASE  -
|  1> # ORCA input file
|  2> # SCF done       -202.817627492994          0.000506995125
|  3> ! CAM-B3LYP def2-SVP def2/J RIJCOSX Grid4 TightSCF
|  4> %maxcore 5000
|  5> %tddft
|  6>     Mode sTDDFT
|  7>     Ethresh 5.0
|  8>     maxcore 5000
|  9> end
| 10>
| 11> %pal
| 12>   nprocs 6
| 13>   end
| 14> * xyz 0 1
| 15>    C       -5.72948        -1.02596         3.85774
| 16>    C       -6.18555        -1.42341         2.60770
| 17>    C       -5.38991        -2.27674         1.75765
| 18>    N       -5.85069        -2.64720         0.55964
| 19>    C       -7.02951        -2.23314         0.16005
| 20>    C       -7.82174        -1.38344         1.00781
| 21>    N       -7.39770        -1.00453         2.18196
| 22>    C       -9.09643        -0.95026         0.55541
| 23>    N      -10.11756        -0.62160         0.15590
| 24>    C       -7.50997        -2.63396        -1.10898
| 25>    N       -7.92236        -2.94496        -2.13174
| 26>    C       -4.11512        -2.75531         2.14677
| 27>    C       -3.66708        -2.34127         3.42003
| 28>    C       -4.47867        -1.48154         4.26029
| 29>    N       -3.86704        -1.21281         5.42126
| 30>    S       -2.44943        -1.94965         5.44986
| 31>    N       -2.51164        -2.65174         4.01061
| 32>    C       -3.36856        -3.60562         1.29182
| 33>    C       -2.12788        -4.17461         1.56029
| 34>    C       -1.68655        -4.97326         0.51717
| 35>    C       -2.59932        -5.01134        -0.56362
| 36>    S       -3.99827        -4.06592        -0.28214
| 37>    C       -2.07192        -5.86073        -1.55484
| 38>    C       -0.82586        -6.36874        -1.11461
| 39>    C       -0.55984        -5.84019         0.21635
| 40>    C        0.48426        -6.14439         1.03775
| 41>    C        1.46814        -7.10339         0.70901
| 42>    N        2.25144        -7.91066         0.49093
| 43>    C        0.62529        -5.55698         2.31414
| 44>    N        0.75032        -5.08411         3.35104
| 45>    C       -0.22448        -7.21289        -2.03387
| 46>    C       -1.01316        -7.37534        -3.17271
| 47>    S       -2.50709        -6.44829        -3.09721
| 48>    C       -0.72890        -8.20866        -4.26586
| 49>    C        0.44107        -8.95861        -4.47424
| 50>    C        0.36221        -9.78684        -5.64257
| 51>    N        1.35507       -10.59972        -5.99712
| 52>    C        2.43577       -10.58124        -5.24589
| 53>    C        3.54160       -11.49774        -5.62617
| 54>    O        3.48381       -12.21709        -6.59962
| 55>    C        4.70858       -11.46748        -4.72723
| 56>    C        4.82491       -10.62841        -3.69296
| 57>    C        3.80440        -9.62641        -3.33398
| 58>    O        3.98996        -8.77986        -2.48903
| 59>    C        2.54149        -9.71275        -4.11539
| 60>    N        1.55164        -8.93321        -3.73472
| 61>    C       -0.84120        -9.65184        -6.34802
| 62>    S       -1.86485        -8.49748        -5.55521
| 63>    C       -1.17957       -10.37344        -7.50123
| 64>    C       -2.31091       -10.23305        -8.30119
| 65>    C       -2.31846       -11.15573        -9.33414
| 66>    C       -1.19345       -12.01623        -9.31129
| 67>    S       -0.10615       -11.65715        -8.04251
| 68>    C       -1.31908       -12.94585       -10.36590
| 69>    C       -2.51444       -12.66567       -11.06999
| 70>    C       -3.17108       -11.52766       -10.45247
| 71>    C       -4.33503       -10.93035       -10.83874
| 72>    C       -5.07785       -11.37657       -11.95249
| 73>    N       -5.68884       -11.73200       -12.85515
| 74>    C       -4.86844        -9.82184       -10.14774
| 75>    N       -5.29692        -8.91887        -9.58581
| 76>    C       -2.74128       -13.54690       -12.11509
| 77>    C       -1.74194       -14.51004       -12.20740
| 78>    S       -0.49584       -14.31095       -10.98486
| 79>    C       -1.67849       -15.57599       -13.14192
| 80>    C       -0.64939       -16.54588       -13.06814
| 81>    C       -0.56718       -17.65205       -13.99183
| 82>    N        0.43321       -18.55165       -13.86619
| 83>    C        1.30226       -18.40047       -12.90531
| 84>    C        1.21836       -17.30096       -11.98119
| 85>    N        0.25635       -16.41724       -12.09339
| 86>    C        2.16804       -17.17291       -10.93965
| 87>    N        2.95239       -17.10677       -10.10732
| 88>    C        2.35187       -19.34673       -12.76334
| 89>    N        3.20975       -20.09073       -12.61933
| 90>    C       -1.49912       -17.81312       -15.00899
| 91>    C       -2.51806       -16.87172       -15.10157
| 92>    C       -2.61961       -15.75737       -14.17874
| 93>    N       -3.67325       -14.98735       -14.45796
| 94>    S       -4.44546       -15.58921       -15.72656
| 95>    N       -3.50719       -16.85194       -16.00477
| 96>    H       -6.32930        -0.38978         4.48506
| 97>    H       -1.60836        -3.99211         2.48322
| 98>    H        0.72636        -7.70453        -1.92799
| 99>    H        5.49159       -12.17230        -4.97232
|100>    H        5.70758       -10.62376        -3.06790
|101>    H       -3.06603        -9.49087        -8.11251
|102>    H       -3.57797       -13.52884       -12.78936
|103>    H       -1.42719       -18.63970       -15.69431
|104> *
|105>
|106>                          ****END OF INPUT****

CARTESIAN COORDINATES (ANGSTROEM)
---------------------------------
  C     -5.729480   -1.025960    3.857740
  C     -6.185550   -1.423410    2.607700
  C     -5.389910   -2.276740    1.757650
  N     -5.850690   -2.647200    0.559640
  C     -7.029510   -2.233140    0.160050
  C     -7.821740   -1.383440    1.007810
  N     -7.397700   -1.004530    2.181960
  C     -9.096430   -0.950260    0.555410
  N    -10.117560   -0.621600    0.155900
  C     -7.509970   -2.633960   -1.108980
  N     -7.922360   -2.944960   -2.131740
  C     -4.115120   -2.755310    2.146770
  C     -3.667080   -2.341270    3.420030
  C     -4.478670   -1.481540    4.260290
  N     -3.867040   -1.212810    5.421260
  S     -2.449430   -1.949650    5.449860
  N     -2.511640   -2.651740    4.010610
  C     -3.368560   -3.605620    1.291820
  C     -2.127880   -4.174610    1.560290
  C     -1.686550   -4.973260    0.517170
  C     -2.599320   -5.011340   -0.563620
  S     -3.998270   -4.065920   -0.282140
  C     -2.071920   -5.860730   -1.554840
  C     -0.825860   -6.368740   -1.114610
  C     -0.559840   -5.840190    0.216350
  C      0.484260   -6.144390    1.037750
  C      1.468140   -7.103390    0.709010
  N      2.251440   -7.910660    0.490930
  C      0.625290   -5.556980    2.314140
  N      0.750320   -5.084110    3.351040
  C     -0.224480   -7.212890   -2.033870
  C     -1.013160   -7.375340   -3.172710
  S     -2.507090   -6.448290   -3.097210
  C     -0.728900   -8.208660   -4.265860
  C      0.441070   -8.958610   -4.474240
  C      0.362210   -9.786840   -5.642570
  N      1.355070  -10.599720   -5.997120
  C      2.435770  -10.581240   -5.245890
  C      3.541600  -11.497740   -5.626170
  O      3.483810  -12.217090   -6.599620
  C      4.708580  -11.467480   -4.727230
  C      4.824910  -10.628410   -3.692960
  C      3.804400   -9.626410   -3.333980
  O      3.989960   -8.779860   -2.489030
  C      2.541490   -9.712750   -4.115390
  N      1.551640   -8.933210   -3.734720
  C     -0.841200   -9.651840   -6.348020
  S     -1.864850   -8.497480   -5.555210
  C     -1.179570  -10.373440   -7.501230
  C     -2.310910  -10.233050   -8.301190
  C     -2.318460  -11.155730   -9.334140
  C     -1.193450  -12.016230   -9.311290
  S     -0.106150  -11.657150   -8.042510
  C     -1.319080  -12.945850  -10.365900
  C     -2.514440  -12.665670  -11.069990
  C     -3.171080  -11.527660  -10.452470
  C     -4.335030  -10.930350  -10.838740
  C     -5.077850  -11.376570  -11.952490
  N     -5.688840  -11.732000  -12.855150
  C     -4.868440   -9.821840  -10.147740
  N     -5.296920   -8.918870   -9.585810
  C     -2.741280  -13.546900  -12.115090
  C     -1.741940  -14.510040  -12.207400
  S     -0.495840  -14.310950  -10.984860
  C     -1.678490  -15.575990  -13.141920
  C     -0.649390  -16.545880  -13.068140
  C     -0.567180  -17.652050  -13.991830
  N      0.433210  -18.551650  -13.866190
  C      1.302260  -18.400470  -12.905310
  C      1.218360  -17.300960  -11.981190
  N      0.256350  -16.417240  -12.093390
  C      2.168040  -17.172910  -10.939650
  N      2.952390  -17.106770  -10.107320
  C      2.351870  -19.346730  -12.763340
  N      3.209750  -20.090730  -12.619330
  C     -1.499120  -17.813120  -15.008990
  C     -2.518060  -16.871720  -15.101570
  C     -2.619610  -15.757370  -14.178740
  N     -3.673250  -14.987350  -14.457960
  S     -4.445460  -15.589210  -15.726560
  N     -3.507190  -16.851940  -16.004770
  H     -6.329300   -0.389780    4.485060
  H     -1.608360   -3.992110    2.483220
  H      0.726360   -7.704530   -1.927990
  H      5.491590  -12.172300   -4.972320
  H      5.707580  -10.623760   -3.067900
  H     -3.066030   -9.490870   -8.112510
  H     -3.577970  -13.528840  -12.789360
  H     -1.427190  -18.639700  -15.694310

 Total Charge           Charge          ....    0
 Multiplicity           Mult            ....    1
 Number of Electrons    NEL             ....  586
 Basis Dimension        Dim             .... 1202

ORBITAL ENERGIES
----------------

  NO   OCC          E(Eh)            E(eV)
   0   2.0000     -89.053806     -2423.2772
   1   2.0000     -89.053389     -2423.2659
   2   2.0000     -89.009928     -2422.0833
   3   2.0000     -88.999254     -2421.7928
   4   2.0000     -88.992370     -2421.6055
   5   2.0000     -88.990618     -2421.5578
   6   2.0000     -88.989654     -2421.5316
   7   2.0000     -19.233513      -523.3705
   8   2.0000     -19.231982      -523.3288
   9   2.0000     -14.477309      -393.9476
  10   2.0000     -14.475870      -393.9085
  11   2.0000     -14.468388      -393.7049
  12   2.0000     -14.467278      -393.6747
  13   2.0000     -14.462313      -393.5395
  14   2.0000     -14.461914      -393.5287
  15   2.0000     -14.461578      -393.5195
  16   2.0000     -14.459004      -393.4495
  17   2.0000     -14.458068      -393.4240
  18   2.0000     -14.457484      -393.4081
  19   2.0000     -14.438041      -392.8791
  20   2.0000     -14.436016      -392.8240
  21   2.0000     -14.435217      -392.8022
  22   2.0000     -14.434082      -392.7713
  23   2.0000     -14.433905      -392.7665
  24   2.0000     -14.432755      -392.7352
  25   2.0000     -14.432579      -392.7304
  26   2.0000     -14.428931      -392.6312
  27   2.0000     -10.391466      -282.7662
  28   2.0000     -10.390738      -282.7464
  29   2.0000     -10.390284      -282.7340
  30   2.0000     -10.389517      -282.7131
  31   2.0000     -10.383191      -282.5410
  32   2.0000     -10.380774      -282.4752
  33   2.0000     -10.368178      -282.1325
  34   2.0000     -10.367289      -282.1083
  35   2.0000     -10.355851      -281.7970
  36   2.0000     -10.355287      -281.7817
  37   2.0000     -10.354946      -281.7724
  38   2.0000     -10.354680      -281.7652
  39   2.0000     -10.354343      -281.7560
  40   2.0000     -10.353683      -281.7380
  41   2.0000     -10.352664      -281.7103
  42   2.0000     -10.352001      -281.6923
  43   2.0000     -10.351918      -281.6900
  44   2.0000     -10.350399      -281.6487
  45   2.0000     -10.349472      -281.6235
  46   2.0000     -10.348690      -281.6022
  47   2.0000     -10.347222      -281.5622
  48   2.0000     -10.345793      -281.5233
  49   2.0000     -10.345573      -281.5174
  50   2.0000     -10.343604      -281.4638
  51   2.0000     -10.341237      -281.3994
  52   2.0000     -10.339635      -281.3558
  53   2.0000     -10.338899      -281.3357
  54   2.0000     -10.338033      -281.3122
  55   2.0000     -10.337134      -281.2877
  56   2.0000     -10.334457      -281.2149
  57   2.0000     -10.333167      -281.1798
  58   2.0000     -10.332865      -281.1716
  59   2.0000     -10.332756      -281.1686
  60   2.0000     -10.332401      -281.1589
  61   2.0000     -10.331947      -281.1466
  62   2.0000     -10.331646      -281.1384
  63   2.0000     -10.329788      -281.0878
  64   2.0000     -10.329349      -281.0759
  65   2.0000     -10.328701      -281.0583
  66   2.0000     -10.328035      -281.0401
  67   2.0000     -10.327963      -281.0382
  68   2.0000     -10.327001      -281.0120
  69   2.0000     -10.314028      -280.6590
  70   2.0000     -10.313243      -280.6376
  71   2.0000     -10.313166      -280.6355
  72   2.0000     -10.312295      -280.6118
  73   2.0000     -10.311191      -280.5818
  74   2.0000     -10.307504      -280.4815
  75   2.0000     -10.306730      -280.4604
  76   2.0000     -10.306460      -280.4530
  77   2.0000     -10.305936      -280.4388
  78   2.0000     -10.305439      -280.4253
  79   2.0000     -10.304810      -280.4081
  80   2.0000     -10.304278      -280.3937
  81   2.0000      -8.145120      -221.6400
  82   2.0000      -8.144595      -221.6257
  83   2.0000      -8.104273      -220.5285
  84   2.0000      -8.094044      -220.2501
  85   2.0000      -8.085552      -220.0190
  86   2.0000      -8.083111      -219.9526
  87   2.0000      -8.082200      -219.9278
  88   2.0000      -6.116025      -166.4255
  89   2.0000      -6.115509      -166.4114
  90   2.0000      -6.108266      -166.2144
  91   2.0000      -6.108157      -166.2114
  92   2.0000      -6.107767      -166.2008
  93   2.0000      -6.107651      -166.1976
  94   2.0000      -6.073389      -165.2653
  95   2.0000      -6.069270      -165.1532
  96   2.0000      -6.066878      -165.0881
  97   2.0000      -6.063301      -164.9908
  98   2.0000      -6.059167      -164.8783
  99   2.0000      -6.056318      -164.8008
 100   2.0000      -6.054915      -164.7626
 101   2.0000      -6.052736      -164.7033
 102   2.0000      -6.051738      -164.6762
 103   2.0000      -6.050466      -164.6415
 104   2.0000      -6.047893      -164.5715
 105   2.0000      -6.047832      -164.5699
 106   2.0000      -6.046898      -164.5444
 107   2.0000      -6.045506      -164.5066
 108   2.0000      -6.044683      -164.4842
 109   2.0000      -1.151111       -31.3233
 110   2.0000      -1.149831       -31.2885
 111   2.0000      -1.149233       -31.2722
 112   2.0000      -1.145904       -31.1816
 113   2.0000      -1.131071       -30.7780
 114   2.0000      -1.129767       -30.7425
 115   2.0000      -1.111882       -30.2559
 116   2.0000      -1.059001       -28.8169
 117   2.0000      -1.057706       -28.7816
 118   2.0000      -1.049171       -28.5494
 119   2.0000      -1.047697       -28.5093
 120   2.0000      -1.039007       -28.2728
 121   2.0000      -1.026077       -27.9210
 122   2.0000      -1.024128       -27.8679
 123   2.0000      -1.022542       -27.8248
 124   2.0000      -1.020654       -27.7734
 125   2.0000      -1.018839       -27.7240
 126   2.0000      -1.011258       -27.5177
 127   2.0000      -1.010795       -27.5051
 128   2.0000      -1.009691       -27.4751
 129   2.0000      -1.007966       -27.4281
 130   2.0000      -1.006399       -27.3855
 131   2.0000      -1.004101       -27.3230
 132   2.0000      -0.998122       -27.1603
 133   2.0000      -0.994048       -27.0494
 134   2.0000      -0.983102       -26.7516
 135   2.0000      -0.979957       -26.6660
 136   2.0000      -0.960788       -26.1444
 137   2.0000      -0.958145       -26.0724
 138   2.0000      -0.945660       -25.7327
 139   2.0000      -0.925330       -25.1795
 140   2.0000      -0.918145       -24.9840
 141   2.0000      -0.915135       -24.9021
 142   2.0000      -0.914028       -24.8720
 143   2.0000      -0.896833       -24.4041
 144   2.0000      -0.888699       -24.1827
 145   2.0000      -0.885885       -24.1062
 146   2.0000      -0.879677       -23.9372
 147   2.0000      -0.872066       -23.7301
 148   2.0000      -0.862503       -23.4699
 149   2.0000      -0.859722       -23.3942
 150   2.0000      -0.857617       -23.3369
 151   2.0000      -0.842305       -22.9203
 152   2.0000      -0.841214       -22.8906
 153   2.0000      -0.823778       -22.4161
 154   2.0000      -0.814737       -22.1701
 155   2.0000      -0.805034       -21.9061
 156   2.0000      -0.801911       -21.8211
 157   2.0000      -0.800937       -21.7946
 158   2.0000      -0.787582       -21.4312
 159   2.0000      -0.786022       -21.3887
 160   2.0000      -0.778012       -21.1708
 161   2.0000      -0.764785       -20.8109
 162   2.0000      -0.759484       -20.6666
 163   2.0000      -0.745571       -20.2880
 164   2.0000      -0.743099       -20.2208
 165   2.0000      -0.727217       -19.7886
 166   2.0000      -0.721586       -19.6354
 167   2.0000      -0.709740       -19.3130
 168   2.0000      -0.708767       -19.2865
 169   2.0000      -0.700693       -19.0668
 170   2.0000      -0.698979       -19.0202
 171   2.0000      -0.697461       -18.9789
 172   2.0000      -0.694349       -18.8942
 173   2.0000      -0.689836       -18.7714
 174   2.0000      -0.685951       -18.6657
 175   2.0000      -0.681403       -18.5419
 176   2.0000      -0.675163       -18.3721
 177   2.0000      -0.668944       -18.2029
 178   2.0000      -0.662245       -18.0206
 179   2.0000      -0.660271       -17.9669
 180   2.0000      -0.653277       -17.7766
 181   2.0000      -0.650127       -17.6909
 182   2.0000      -0.639254       -17.3950
 183   2.0000      -0.635191       -17.2844
 184   2.0000      -0.631346       -17.1798
 185   2.0000      -0.631109       -17.1733
 186   2.0000      -0.624384       -16.9904
 187   2.0000      -0.621424       -16.9098
 188   2.0000      -0.618995       -16.8437
 189   2.0000      -0.616042       -16.7634
 190   2.0000      -0.607335       -16.5264
 191   2.0000      -0.601461       -16.3666
 192   2.0000      -0.597881       -16.2692
 193   2.0000      -0.588387       -16.0108
 194   2.0000      -0.587301       -15.9813
 195   2.0000      -0.582405       -15.8480
 196   2.0000      -0.578574       -15.7438
 197   2.0000      -0.573093       -15.5947
 198   2.0000      -0.568972       -15.4825
 199   2.0000      -0.565237       -15.3809
 200   2.0000      -0.564797       -15.3689
 201   2.0000      -0.564003       -15.3473
 202   2.0000      -0.554556       -15.0902
 203   2.0000      -0.551501       -15.0071
 204   2.0000      -0.550775       -14.9873
 205   2.0000      -0.549374       -14.9492
 206   2.0000      -0.545467       -14.8429
 207   2.0000      -0.541343       -14.7307
 208   2.0000      -0.538199       -14.6451
 209   2.0000      -0.534770       -14.5518
 210   2.0000      -0.532097       -14.4791
 211   2.0000      -0.530841       -14.4449
 212   2.0000      -0.527046       -14.3416
 213   2.0000      -0.519190       -14.1279
 214   2.0000      -0.514004       -13.9868
 215   2.0000      -0.510145       -13.8817
 216   2.0000      -0.508989       -13.8503
 217   2.0000      -0.507586       -13.8121
 218   2.0000      -0.502821       -13.6824
 219   2.0000      -0.501451       -13.6452
 220   2.0000      -0.501227       -13.6391
 221   2.0000      -0.499962       -13.6047
 222   2.0000      -0.498879       -13.5752
 223   2.0000      -0.498542       -13.5660
 224   2.0000      -0.496528       -13.5112
 225   2.0000      -0.491873       -13.3845
 226   2.0000      -0.491216       -13.3667
 227   2.0000      -0.488751       -13.2996
 228   2.0000      -0.487258       -13.2590
 229   2.0000      -0.485880       -13.2215
 230   2.0000      -0.482324       -13.1247
 231   2.0000      -0.480567       -13.0769
 232   2.0000      -0.477681       -12.9984
 233   2.0000      -0.475219       -12.9314
 234   2.0000      -0.473303       -12.8792
 235   2.0000      -0.472464       -12.8564
 236   2.0000      -0.464654       -12.6439
 237   2.0000      -0.463322       -12.6076
 238   2.0000      -0.462526       -12.5860
 239   2.0000      -0.462345       -12.5811
 240   2.0000      -0.460865       -12.5408
 241   2.0000      -0.460248       -12.5240
 242   2.0000      -0.459424       -12.5016
 243   2.0000      -0.458244       -12.4695
 244   2.0000      -0.456760       -12.4291
 245   2.0000      -0.455597       -12.3974
 246   2.0000      -0.454212       -12.3597
 247   2.0000      -0.451333       -12.2814
 248   2.0000      -0.449815       -12.2401
 249   2.0000      -0.447813       -12.1856
 250   2.0000      -0.444993       -12.1089
 251   2.0000      -0.444098       -12.0845
 252   2.0000      -0.441845       -12.0232
 253   2.0000      -0.441519       -12.0143
 254   2.0000      -0.440406       -11.9840
 255   2.0000      -0.439473       -11.9587
 256   2.0000      -0.436330       -11.8731
 257   2.0000      -0.435107       -11.8399
 258   2.0000      -0.430971       -11.7273
 259   2.0000      -0.428282       -11.6542
 260   2.0000      -0.427639       -11.6366
 261   2.0000      -0.426456       -11.6044
 262   2.0000      -0.420902       -11.4533
 263   2.0000      -0.420758       -11.4494
 264   2.0000      -0.420233       -11.4351
 265   2.0000      -0.419772       -11.4226
 266   2.0000      -0.412870       -11.2348
 267   2.0000      -0.411954       -11.2098
 268   2.0000      -0.409814       -11.1516
 269   2.0000      -0.407797       -11.0967
 270   2.0000      -0.405263       -11.0278
 271   2.0000      -0.393731       -10.7140
 272   2.0000      -0.388766       -10.5789
 273   2.0000      -0.388085       -10.5603
 274   2.0000      -0.378807       -10.3079
 275   2.0000      -0.378197       -10.2913
 276   2.0000      -0.371444       -10.1075
 277   2.0000      -0.362992        -9.8775
 278   2.0000      -0.362341        -9.8598
 279   2.0000      -0.360695        -9.8150
 280   2.0000      -0.355878        -9.6839
 281   2.0000      -0.354736        -9.6528
 282   2.0000      -0.353398        -9.6164
 283   2.0000      -0.352441        -9.5904
 284   2.0000      -0.351358        -9.5609
 285   2.0000      -0.348959        -9.4957
 286   2.0000      -0.343963        -9.3597
 287   2.0000      -0.328756        -8.9459
 288   2.0000      -0.325331        -8.8527
 289   2.0000      -0.323985        -8.8161
 290   2.0000      -0.297402        -8.0927
 291   2.0000      -0.270061        -7.3487
 292   2.0000      -0.238011        -6.4766
 293   0.0000      -0.138766        -3.7760
 294   0.0000      -0.129052        -3.5117
 295   0.0000      -0.110499        -3.0068
 296   0.0000      -0.103814        -2.8249
 297   0.0000      -0.096955        -2.6383

MULLIKEN ATOMIC CHARGES
-----------------------
   0 C :   -0.089105
   1 C :    0.027424
   2 C :   -0.057620
   3 N :   -0.014268
   4 C :   -0.096317
   5 C :   -0.154605
   6 N :    0.062310
   7 C :   -0.208129
   8 N :    0.243486
   9 C :   -0.233112
  10 N :    0.247499
  11 C :    0.212236
  12 C :   -0.042116
  13 C :    0.103450
  14 N :   -0.269273
  15 S :    0.568799
  16 N :   -0.281058
  17 C :   -0.178346
  18 C :   -0.052332
  19 C :    0.033035
  20 C :   -0.054679
  21 S :    0.210551
  22 C :   -0.100361
  23 C :    0.034530
  24 C :    0.309537
  25 C :   -0.297672
  26 C :   -0.199096
  27 N :    0.196502
  28 C :   -0.188391
  29 N :    0.173667
  30 C :   -0.065419
  31 C :   -0.086358
  32 S :    0.194023
  33 C :   -0.126195
  34 C :    0.041106
  35 C :    0.015513
  36 N :    0.030462
  37 C :   -0.112002
  38 C :    0.140490
  39 O :   -0.102584
  40 C :   -0.018716
  41 C :   -0.008383
  42 C :    0.136203
  43 O :   -0.091847
  44 C :   -0.111754
  45 N :    0.063266
  46 C :   -0.116593
  47 S :    0.223193
  48 C :   -0.071007
  49 C :   -0.084617
  50 C :    0.032831
  51 C :   -0.092540
  52 S :    0.252491
  53 C :   -0.056745
  54 C :    0.030666
  55 C :    0.305534
  56 C :   -0.300904
  57 C :   -0.186753
  58 N :    0.173830
  59 C :   -0.191256
  60 N :    0.172232
  61 C :   -0.052706
  62 C :   -0.178729
  63 S :    0.218319
  64 C :    0.213687
  65 C :   -0.062929
  66 C :    0.019573
  67 N :    0.064720
  68 C :   -0.154118
  69 C :   -0.095928
  70 N :   -0.003622
  71 C :   -0.232692
  72 N :    0.246230
  73 C :   -0.206186
  74 N :    0.239344
  75 C :   -0.081841
  76 C :    0.096805
  77 C :   -0.044195
  78 N :   -0.281116
  79 S :    0.566986
  80 N :   -0.266294
  81 H :   -0.017340
  82 H :    0.022415
  83 H :    0.029933
  84 H :    0.022795
  85 H :    0.024398
  86 H :    0.010134
  87 H :    0.024313
  88 H :   -0.016665
Sum of atomic charges:    0.0000000

LOEWDIN ATOMIC CHARGES
----------------------
   0 C :   -0.017660
   1 C :   -0.007519
   2 C :   -0.023414
   3 N :   -0.019681
   4 C :   -0.028531
   5 C :   -0.023762
   6 N :    0.003392
   7 C :   -0.035522
   8 N :    0.000681
   9 C :   -0.040858
  10 N :   -0.002261
  11 C :   -0.017503
  12 C :   -0.043851
  13 C :   -0.043341
  14 N :   -0.283943
  15 S :    0.701068
  16 N :   -0.277266
  17 C :   -0.171958
  18 C :    0.000522
  19 C :   -0.073940
  20 C :   -0.171534
  21 S :    0.512214
  22 C :   -0.180410
  23 C :   -0.055348
  24 C :    0.075787
  25 C :   -0.093852
  26 C :   -0.024468
  27 N :   -0.014743
  28 C :   -0.015272
  29 N :   -0.031049
  30 C :   -0.008709
  31 C :   -0.178485
  32 S :    0.470587
  33 C :   -0.190557
  34 C :   -0.040464
  35 C :   -0.052639
  36 N :   -0.011395
  37 C :   -0.035814
  38 C :    0.055474
  39 O :   -0.098589
  40 C :   -0.013780
  41 C :   -0.008588
  42 C :    0.054726
  43 O :   -0.086287
  44 C :   -0.036222
  45 N :    0.009308
  46 C :   -0.191275
  47 S :    0.506983
  48 C :   -0.176514
  49 C :   -0.029491
  50 C :   -0.060186
  51 C :   -0.183745
  52 S :    0.536703
  53 C :   -0.168662
  54 C :   -0.076167
  55 C :    0.080467
  56 C :   -0.104085
  57 C :   -0.017049
  58 N :   -0.032021
  59 C :   -0.016611
  60 N :   -0.035255
  61 C :   -0.000252
  62 C :   -0.172800
  63 S :    0.519651
  64 C :   -0.017610
  65 C :   -0.023667
  66 C :   -0.008053
  67 N :    0.003812
  68 C :   -0.023981
  69 C :   -0.028006
  70 N :   -0.018861
  71 C :   -0.041168
  72 N :    0.000174
  73 C :   -0.035227
  74 N :    0.000050
  75 C :   -0.017317
  76 C :   -0.044047
  77 C :   -0.043767
  78 N :   -0.277568
  79 S :    0.700288
  80 N :   -0.283507
  81 H :    0.048666
  82 H :    0.039449
  83 H :    0.044797
  84 H :    0.047535
  85 H :    0.047960
  86 H :    0.037774
  87 H :    0.039394
  88 H :    0.048650

  Mayer bond orders larger than 0.100000
B(  0-C ,  1-C ) :   1.3171 B(  0-C , 11-C ) :   0.1272 B(  0-C , 13-C ) :   1.1733
B(  0-C , 81-H ) :   1.0595 B(  1-C ,  2-C ) :   1.1253 B(  1-C ,  6-N ) :   1.3360
B(  2-C ,  3-N ) :   1.3988 B(  2-C , 11-C ) :   1.2414 B(  3-N ,  4-C ) :   1.6936
B(  4-C ,  5-C ) :   1.1928 B(  4-C ,  9-C ) :   1.1597 B(  5-C ,  6-N ) :   1.7850
B(  5-C ,  7-C ) :   1.1620 B(  7-C ,  8-N ) :   3.0533 B(  9-C , 10-N ) :   3.0391
B( 11-C , 12-C ) :   1.2134 B( 11-C , 17-C ) :   1.2099 B( 12-C , 13-C ) :   1.1176
B( 12-C , 16-N ) :   1.5096 B( 13-C , 14-N ) :   1.4602 B( 14-N , 15-S ) :   1.3105
B( 14-N , 16-N ) :   0.1543 B( 15-S , 16-N ) :   1.2843 B( 17-C , 18-C ) :   1.4017
B( 17-C , 21-S ) :   1.0802 B( 18-C , 19-C ) :   1.2896 B( 18-C , 82-H ) :   0.9823
B( 19-C , 20-C ) :   1.3792 B( 19-C , 24-C ) :   0.9940 B( 20-C , 21-S ) :   1.0880
B( 20-C , 22-C ) :   1.2277 B( 22-C , 23-C ) :   1.3976 B( 22-C , 32-S ) :   1.1182
B( 23-C , 24-C ) :   0.9850 B( 23-C , 30-C ) :   1.2897 B( 24-C , 25-C ) :   1.7152
B( 25-C , 26-C ) :   1.1310 B( 25-C , 28-C ) :   1.1408 B( 26-C , 27-N ) :   3.0040
B( 28-C , 29-N ) :   2.9854 B( 30-C , 31-C ) :   1.4289 B( 30-C , 83-H ) :   0.9875
B( 31-C , 32-S ) :   1.0872 B( 31-C , 33-C ) :   1.2087 B( 33-C , 34-C ) :   1.3541
B( 33-C , 46-C ) :   0.1318 B( 33-C , 47-S ) :   1.1510 B( 34-C , 35-C ) :   1.1903
B( 34-C , 45-N ) :   1.4429 B( 35-C , 36-N ) :   1.4211 B( 35-C , 46-C ) :   1.3099
B( 36-N , 37-C ) :   1.6946 B( 37-C , 38-C ) :   0.8927 B( 37-C , 44-C ) :   1.1026
B( 38-C , 39-O ) :   2.2508 B( 38-C , 40-C ) :   1.0243 B( 40-C , 41-C ) :   1.6838
B( 40-C , 84-H ) :   0.9967 B( 41-C , 42-C ) :   1.0225 B( 41-C , 85-H ) :   0.9957
B( 42-C , 43-O ) :   2.2442 B( 42-C , 44-C ) :   0.8906 B( 44-C , 45-N ) :   1.7098
B( 46-C , 47-S ) :   1.1549 B( 46-C , 48-C ) :   1.2505 B( 48-C , 49-C ) :   1.3692
B( 48-C , 52-S ) :   1.1186 B( 49-C , 50-C ) :   1.3388 B( 49-C , 86-H ) :   0.9950
B( 50-C , 51-C ) :   1.3838 B( 50-C , 55-C ) :   0.9896 B( 51-C , 52-S ) :   1.0978
B( 51-C , 53-C ) :   1.2221 B( 53-C , 54-C ) :   1.3768 B( 53-C , 63-S ) :   1.0987
B( 54-C , 55-C ) :   0.9960 B( 54-C , 61-C ) :   1.2922 B( 55-C , 56-C ) :   1.7108
B( 56-C , 57-C ) :   1.1381 B( 56-C , 59-C ) :   1.1333 B( 57-C , 58-N ) :   2.9875
B( 59-C , 60-N ) :   2.9927 B( 61-C , 62-C ) :   1.4043 B( 61-C , 87-H ) :   0.9814
B( 62-C , 63-S ) :   1.0823 B( 62-C , 64-C ) :   1.2067 B( 64-C , 65-C ) :   1.2447
B( 64-C , 75-C ) :   0.1260 B( 64-C , 77-C ) :   1.2159 B( 65-C , 66-C ) :   1.1261
B( 65-C , 70-N ) :   1.4024 B( 66-C , 67-N ) :   1.3368 B( 66-C , 75-C ) :   1.3173
B( 67-N , 68-C ) :   1.7870 B( 68-C , 69-C ) :   1.1918 B( 68-C , 73-C ) :   1.1560
B( 69-C , 70-N ) :   1.6995 B( 69-C , 71-C ) :   1.1584 B( 71-C , 72-N ) :   3.0377
B( 73-C , 74-N ) :   3.0552 B( 75-C , 76-C ) :   1.1781 B( 75-C , 88-H ) :   1.0583
B( 76-C , 77-C ) :   1.1179 B( 76-C , 80-N ) :   1.4612 B( 77-C , 78-N ) :   1.5078
B( 78-N , 79-S ) :   1.2851 B( 78-N , 80-N ) :   0.1548 B( 79-S , 80-N ) :   1.3118

-----------------------------------------------------------------------------
         ABSORPTION SPECTRUM VIA TRANSITION ELECTRIC DIPOLE MOMENTS
-----------------------------------------------------------------------------
State   Energy  Wavelength   fosc         T2         TX        TY        TZ
        (cm-1)    (nm)                  (au**2)     (au)      (au)      (au)
-----------------------------------------------------------------------------
   0    8096.3   1235.1   1.174376351  47.75227  -1.21297   4.54107   5.06553
   1   10698.7    934.7   0.069919447   2.15150  -1.45092  -0.11166  -0.18399
   2   13443.2    743.9   0.134636086   3.29711   0.71089  -1.37767  -0.94539
   3   13567.3    737.1   0.021155988   0.51335   0.70588  -0.01022   0.12241
   4   13995.8    714.5   0.044007079   1.03514  -0.58043  -0.10856  -0.82853
   5   16351.7    611.6   0.011341058   0.22833  -0.39272  -0.21209  -0.17064
   6   17330.1    577.0   0.099425738   1.88874  -1.29057   0.47119  -0.03411
   7   18658.2    536.0   0.030689844   0.54150  -0.51600   0.07190  -0.51969
   8   21718.3    460.4   0.015841059   0.24012   0.47043  -0.06350   0.12161
   9   22395.6    446.5   0.002131779   0.03134   0.04254  -0.13929  -0.10062
  10   23214.5    430.8   0.053884623   0.76416   0.00243  -0.55425  -0.67599
  11   23812.9    419.9   0.044755871   0.61875   0.62742  -0.36341  -0.30499
  12   24536.0    407.6   0.003114755   0.04179   0.02687  -0.13270   0.15317
  13   25186.4    397.0   0.025663336   0.33545   0.44954  -0.36490  -0.01444
  14   25265.1    395.8   0.044358777   0.57801  -0.66365   0.19629  -0.31471
  15   25434.4    393.2   0.001400400   0.01813   0.03423   0.09223   0.09192
  16   25725.4    388.7   0.001150770   0.01473   0.01406  -0.08408  -0.08637
  17   25851.5    386.8   0.412518066   5.25331  -0.49507   1.50928   1.65236
  18   26053.3    383.8   0.002818138   0.03561   0.16978   0.08193   0.00840
  19   26239.3    381.1   0.008152295   0.10228   0.09882  -0.30394   0.01183
  20   26302.6    380.2   0.026346062   0.32976  -0.07926  -0.27410  -0.49834
  21   26571.0    376.3   0.139164367   1.72423  -0.17774   0.80164   1.02470
  22   26669.9    375.0   0.009711928   0.11988  -0.04276   0.30103   0.16564
  23   27151.2    368.3   0.200945616   2.43649   0.08689  -0.97070  -1.21929
  24   28010.5    357.0   0.010925319   0.12841   0.27464   0.17432   0.15030
  25   28510.6    350.7   0.035081962   0.40509  -0.02899   0.28088   0.57040
  26   28611.8    349.5   0.009683195   0.11142  -0.04655   0.16650   0.28553
  27   28831.2    346.8   0.171751207   1.96116  -0.43782  -0.62643  -1.17348
  28   29338.9    340.8   0.193790895   2.17453   0.74924   0.24737   1.24579
  29   29735.9    336.3   0.038034909   0.42109   0.23273   0.27877   0.53779
  30   30053.0    332.7   0.016144838   0.17686  -0.16075  -0.05503  -0.38469
  31   30234.5    330.7   0.002657825   0.02894  -0.02034   0.10867   0.12930
  32   30336.1    329.6   0.001989098   0.02159  -0.07463  -0.00287  -0.12653
  33   31086.0    321.7   0.074504046   0.78903  -0.49776  -0.18631  -0.71173
  34   31225.4    320.3   0.295854565   3.11922  -1.36456   0.38390  -1.05348
  35   31426.2    318.2   0.294361724   3.08365   0.94426   0.46352   1.40612
  36   31667.7    315.8   0.047077712   0.48941   0.36684  -0.13476   0.58024
  37   31953.2    313.0   0.440902337   4.54259   1.80518  -0.88522   0.70733
  38   32519.4    307.5   0.016747835   0.16955   0.21497  -0.22882  -0.26641
  39   32695.9    305.8   0.214338255   2.15815  -1.12421   0.94513   0.03209
  40   32787.3    305.0   0.262712781   2.63786   1.46985  -0.60592   0.33205
  41   33077.8    302.3   0.413580502   4.11623   1.60370  -1.19415   0.34408
  42   33338.2    300.0   0.016972333   0.16760  -0.33775   0.23115  -0.00966
  43   33774.1    296.1   0.309645430   3.01825  -1.61619   0.63098  -0.08963
  44   34109.4    293.2   0.007143715   0.06895  -0.13002   0.01686  -0.22751
  45   34186.4    292.5   0.092753593   0.89321  -0.82997  -0.05824  -0.44829
  46   34233.2    292.1   0.024779587   0.23830  -0.36334   0.13678  -0.29593
  47   34545.6    289.5   0.001349809   0.01286  -0.00730   0.04976  -0.10166
  48   34613.5    288.9   0.027728938   0.26373   0.48003  -0.16049   0.08684
  49   34717.6    288.0   0.012458473   0.11814  -0.28502  -0.07819  -0.17546
  50   35067.2    285.2   0.023751542   0.22298  -0.36183  -0.00557  -0.30336
  51   35307.0    283.2   0.010360598   0.09661  -0.21316   0.11998  -0.19176
  52   35459.9    282.0   0.004134028   0.03838   0.05846   0.08668   0.16568
  53   35562.9    281.2   0.014248051   0.13190   0.30092  -0.08655   0.18399
  54   35732.8    279.9   0.395188317   3.64093  -1.30361   0.00294  -1.39339
  55   35863.5    278.8   0.191704903   1.75977  -1.15957   0.55273  -0.33114
  56   35969.5    278.0   0.741846062   6.78977  -2.13607   0.73054  -1.30127
  57   36119.9    276.9   0.070422496   0.64186  -0.09672  -0.44500  -0.65915
  58   36450.6    274.3   0.042942937   0.38785  -0.37541   0.49313   0.06118
  59   36700.0    272.5   0.020924101   0.18770   0.41968   0.09909   0.04174
  60   36745.2    272.1   0.005250129   0.04704  -0.17896   0.06726   0.10240
  61   36902.9    271.0   0.131516836   1.17327   0.85097  -0.66007   0.11583
  62   36987.9    270.4   0.088890794   0.79118   0.75321  -0.15111   0.44834
  63   37189.0    268.9   0.027379114   0.24237   0.15798   0.22414   0.40887
  64   37626.5    265.8   0.208075206   1.82055   0.47416   0.61618   1.10275
  65   37704.5    265.2   0.042380090   0.37004  -0.07268  -0.22620  -0.55999
  66   37808.4    264.5   0.014446672   0.12579   0.04350   0.28947   0.20027
  67   37907.0    263.8   0.169260978   1.46998   0.04744   0.69189   0.99450
  68   37943.4    263.6   0.055432812   0.48096   0.22614  -0.44141  -0.48474
  69   38004.4    263.1   0.011079580   0.09598   0.24861  -0.17152   0.06891
  70   38118.2    262.3   0.121674171   1.05085   0.20681  -0.57569  -0.82259
  71   38275.1    261.3   0.015336361   0.13191   0.27593  -0.22103  -0.08316
  72   38389.1    260.5   0.016063010   0.13775  -0.06937   0.10541   0.34904
  73   38613.4    259.0   0.001347622   0.01149   0.04415   0.05536   0.08047
  74   38875.6    257.2   0.003773876   0.03196   0.02323   0.02264   0.17580
  75   38944.2    256.8   0.016576387   0.14013  -0.32651   0.18099   0.02756
  76   39199.2    255.1   0.143331876   1.20376   0.90858  -0.31683   0.52713
  77   39224.5    254.9   0.015541680   0.13044   0.06351  -0.24309  -0.25945
  78   39458.9    253.4   0.033218977   0.27715   0.21734   0.20443   0.43373
  79   39541.2    252.9   0.000123583   0.00103  -0.01131  -0.02391  -0.01815
  80   39743.4    251.6   0.013720110   0.11365   0.26622  -0.13414   0.15742
  81   39819.8    251.1   0.013739187   0.11359   0.30830  -0.10525   0.08638
  82   39954.2    250.3   0.083087327   0.68462   0.72473  -0.23052   0.32596
  83   40098.0    249.4   0.027636653   0.22690   0.38398  -0.03762   0.27936
  84   40196.3    248.8   0.001728785   0.01416   0.05447  -0.04742  -0.09457

FINAL SINGLE POINT ENERGY     -5980.774957423746

DIPOLE MOMENT
-------------
                                X             Y             Z
Electronic contribution:     -9.25935       2.75905      -2.60611
Nuclear contribution   :      9.52968      -2.37825       2.91029
                        -----------------------------------------
Total Dipole Moment    :      0.27033       0.38080       0.30418
                        -----------------------------------------
Magnitude (a.u.)       :      0.55733
Magnitude (Debye)      :      1.41661

Rotational constants in cm-1:     0.001273     0.000214     0.000185
Rotational constants in MHz :    38.175273     6.412103     5.549555

                             ****ORCA TERMINATED NORMALLY****
TOTAL RUN TIME: 0 days 0 hours 9 minutes 29 seconds 640 msec
