                         Program Version 4.2.0 -  RELEASE  -
|  1> # ORCA input file
|  2> # SCF done       -140.101989416307          0.000700110756
|  3> ! CAM-B3LYP def2-SVP def2/J RIJCOSX Grid4 TightSCF
|  4> %maxcore 5000
|  5> %tddft
|  6>     Mode sTDDFT
|  7>     Ethresh 5.0
|  8>     maxcore 5000
|  9> end
| 10>
| 11> %pal
| 12>   nprocs 6
| 13>   end
| 14> * xyz 0 1
| 15>    O       -3.34504         1.81409        -3.42908
| 16>    C       -2.54530         1.86063        -2.33092
| 17>    N       -2.41996         0.70874        -1.74007
| 18>    C       -3.17551        -0.16127        -2.47832
| 19>    C       -3.73962         0.53960        -3.51825
| 20>    C       -3.29993        -1.57378        -2.13660
| 21>    O       -3.95452        -2.37129        -2.75566
| 22>    C       -1.94422         3.08807        -1.92730
| 23>    C       -1.11777         3.27850        -0.84006
| 24>    C       -0.71643         4.61217        -0.73482
| 25>    C       -1.24824         5.42211        -1.75338
| 26>    S       -2.23626         4.55159        -2.83766
| 27>    C       -0.79413         6.75311        -1.55812
| 28>    C        0.02333         6.78423        -0.41448
| 29>    C        0.10308         5.43848         0.13786
| 30>    C        0.80109         5.03929         1.23788
| 31>    C        1.57000         5.93603         2.01157
| 32>    N        2.19727         6.65322         2.64859
| 33>    C        0.80851         3.69904         1.68267
| 34>    N        0.82431         2.61474         2.05341
| 35>    C        0.51227         8.05827        -0.13327
| 36>    C        0.07061         8.98892        -1.05902
| 37>    S       -0.95686         8.28613        -2.28896
| 38>    C        0.37726        10.37167        -1.05959
| 39>    N        1.10514        10.94138        -0.14325
| 40>    C        1.23329        12.24373        -0.38420
| 41>    C        0.58971        12.73992        -1.53338
| 42>    S       -0.22285        11.46029        -2.33966
| 43>    N        0.71910        14.04215        -1.77496
| 44>    C        1.44417        14.61209        -0.85642
| 45>    S        2.04170        13.52393         0.42502
| 46>    C        1.75519        15.99405        -0.85593
| 47>    C        1.37943        16.91402        -1.82070
| 48>    C        1.85416        18.18975        -1.52290
| 49>    C        2.58906        18.23434        -0.32509
| 50>    S        2.69970        16.71017         0.43179
| 51>    C        3.02809        19.56852        -0.10958
| 52>    C        2.57182        20.36364        -1.17560
| 53>    C        1.82052        19.52787        -2.09788
| 54>    C        1.21520        19.91440        -3.25634
| 55>    C        1.25472        21.24949        -3.71354
| 56>    N        1.28463        22.33217        -4.08899
| 57>    C        0.50809        19.01205        -4.08027
| 58>    N       -0.06779        18.29079        -4.75985
| 59>    C        2.95850        21.70058        -1.05304
| 60>    C        3.69500        21.90518         0.09436
| 61>    S        3.92458        20.45691         1.03995
| 62>    C        4.25699        23.13031         0.55961
| 63>    N        4.92682        23.30113         1.66129
| 64>    C        5.25799        24.62884         1.68376
| 65>    C        4.74917        25.21176         0.54674
| 66>    O        4.11799        24.27153        -0.16412
| 67>    C        6.01953        25.22705         2.77357
| 68>    O        6.32789        26.38843         2.83616
| 69>    H       -4.38897         0.25056        -4.31859
| 70>    H       -2.72349        -1.84773        -1.23650
| 71>    H       -0.84365         2.47548        -0.18162
| 72>    H        1.15196         8.32914         0.68596
| 73>    H        0.79558        16.63501        -2.67806
| 74>    H        2.72599        22.48803        -1.74665
| 75>    H        4.77776        26.21451         0.17300
| 76>    H        6.28775        24.49800         3.55765
| 77> *
| 78>
| 79>                          ****END OF INPUT****

CARTESIAN COORDINATES (ANGSTROEM)
---------------------------------
  O     -3.345040    1.814090   -3.429080
  C     -2.545300    1.860630   -2.330920
  N     -2.419960    0.708740   -1.740070
  C     -3.175510   -0.161270   -2.478320
  C     -3.739620    0.539600   -3.518250
  C     -3.299930   -1.573780   -2.136600
  O     -3.954520   -2.371290   -2.755660
  C     -1.944220    3.088070   -1.927300
  C     -1.117770    3.278500   -0.840060
  C     -0.716430    4.612170   -0.734820
  C     -1.248240    5.422110   -1.753380
  S     -2.236260    4.551590   -2.837660
  C     -0.794130    6.753110   -1.558120
  C      0.023330    6.784230   -0.414480
  C      0.103080    5.438480    0.137860
  C      0.801090    5.039290    1.237880
  C      1.570000    5.936030    2.011570
  N      2.197270    6.653220    2.648590
  C      0.808510    3.699040    1.682670
  N      0.824310    2.614740    2.053410
  C      0.512270    8.058270   -0.133270
  C      0.070610    8.988920   -1.059020
  S     -0.956860    8.286130   -2.288960
  C      0.377260   10.371670   -1.059590
  N      1.105140   10.941380   -0.143250
  C      1.233290   12.243730   -0.384200
  C      0.589710   12.739920   -1.533380
  S     -0.222850   11.460290   -2.339660
  N      0.719100   14.042150   -1.774960
  C      1.444170   14.612090   -0.856420
  S      2.041700   13.523930    0.425020
  C      1.755190   15.994050   -0.855930
  C      1.379430   16.914020   -1.820700
  C      1.854160   18.189750   -1.522900
  C      2.589060   18.234340   -0.325090
  S      2.699700   16.710170    0.431790
  C      3.028090   19.568520   -0.109580
  C      2.571820   20.363640   -1.175600
  C      1.820520   19.527870   -2.097880
  C      1.215200   19.914400   -3.256340
  C      1.254720   21.249490   -3.713540
  N      1.284630   22.332170   -4.088990
  C      0.508090   19.012050   -4.080270
  N     -0.067790   18.290790   -4.759850
  C      2.958500   21.700580   -1.053040
  C      3.695000   21.905180    0.094360
  S      3.924580   20.456910    1.039950
  C      4.256990   23.130310    0.559610
  N      4.926820   23.301130    1.661290
  C      5.257990   24.628840    1.683760
  C      4.749170   25.211760    0.546740
  O      4.117990   24.271530   -0.164120
  C      6.019530   25.227050    2.773570
  O      6.327890   26.388430    2.836160
  H     -4.388970    0.250560   -4.318590
  H     -2.723490   -1.847730   -1.236500
  H     -0.843650    2.475480   -0.181620
  H      1.151960    8.329140    0.685960
  H      0.795580   16.635010   -2.678060
  H      2.725990   22.488030   -1.746650
  H      4.777760   26.214510    0.173000
  H      6.287750   24.498000    3.557650

 Total Charge           Charge          ....    0
 Multiplicity           Mult            ....    1
 Number of Electrons    NEL             ....  408
 Basis Dimension        Dim             ....  820

ORBITAL ENERGIES
----------------

  NO   OCC          E(Eh)            E(eV)
   0   2.0000     -89.002751     -2421.8880
   1   2.0000     -89.002200     -2421.8730
   2   2.0000     -89.002199     -2421.8729
   3   2.0000     -89.001372     -2421.8504
   4   2.0000     -88.983480     -2421.3636
   5   2.0000     -88.983372     -2421.3607
   6   2.0000     -19.330230      -526.0023
   7   2.0000     -19.329008      -525.9690
   8   2.0000     -19.218400      -522.9592
   9   2.0000     -19.217680      -522.9397
  10   2.0000     -14.436754      -392.8441
  11   2.0000     -14.435847      -392.8194
  12   2.0000     -14.435700      -392.8154
  13   2.0000     -14.435414      -392.8076
  14   2.0000     -14.435017      -392.7968
  15   2.0000     -14.434927      -392.7943
  16   2.0000     -14.428623      -392.6228
  17   2.0000     -14.426823      -392.5738
  18   2.0000     -10.389638      -282.7164
  19   2.0000     -10.389233      -282.7054
  20   2.0000     -10.372534      -282.2510
  21   2.0000     -10.372336      -282.2456
  22   2.0000     -10.365648      -282.0636
  23   2.0000     -10.365624      -282.0630
  24   2.0000     -10.363478      -282.0046
  25   2.0000     -10.362356      -281.9741
  26   2.0000     -10.359311      -281.8912
  27   2.0000     -10.358677      -281.8739
  28   2.0000     -10.358348      -281.8650
  29   2.0000     -10.358077      -281.8576
  30   2.0000     -10.343952      -281.4732
  31   2.0000     -10.343656      -281.4652
  32   2.0000     -10.343423      -281.4588
  33   2.0000     -10.343251      -281.4542
  34   2.0000     -10.343019      -281.4479
  35   2.0000     -10.342966      -281.4464
  36   2.0000     -10.336661      -281.2748
  37   2.0000     -10.335831      -281.2523
  38   2.0000     -10.335585      -281.2456
  39   2.0000     -10.335164      -281.2341
  40   2.0000     -10.334595      -281.2186
  41   2.0000     -10.334551      -281.2174
  42   2.0000     -10.334542      -281.2172
  43   2.0000     -10.334359      -281.2122
  44   2.0000     -10.315190      -280.6906
  45   2.0000     -10.314712      -280.6776
  46   2.0000     -10.314251      -280.6650
  47   2.0000     -10.313350      -280.6405
  48   2.0000     -10.313136      -280.6347
  49   2.0000     -10.313006      -280.6312
  50   2.0000     -10.312451      -280.6161
  51   2.0000     -10.312411      -280.6150
  52   2.0000     -10.310442      -280.5614
  53   2.0000     -10.310163      -280.5538
  54   2.0000      -8.097178      -220.3354
  55   2.0000      -8.096980      -220.3300
  56   2.0000      -8.096964      -220.3296
  57   2.0000      -8.095580      -220.2919
  58   2.0000      -8.079549      -219.8557
  59   2.0000      -8.079450      -219.8530
  60   2.0000      -6.066402      -165.0752
  61   2.0000      -6.066216      -165.0701
  62   2.0000      -6.066213      -165.0700
  63   2.0000      -6.064948      -165.0356
  64   2.0000      -6.062197      -164.9608
  65   2.0000      -6.062060      -164.9570
  66   2.0000      -6.062055      -164.9569
  67   2.0000      -6.060562      -164.9163
  68   2.0000      -6.059621      -164.8907
  69   2.0000      -6.059310      -164.8822
  70   2.0000      -6.059291      -164.8817
  71   2.0000      -6.057915      -164.8442
  72   2.0000      -6.048704      -164.5936
  73   2.0000      -6.048610      -164.5910
  74   2.0000      -6.045051      -164.4942
  75   2.0000      -6.044955      -164.4916
  76   2.0000      -6.041227      -164.3902
  77   2.0000      -6.041135      -164.3876
  78   2.0000      -1.258565       -34.2473
  79   2.0000      -1.257549       -34.2197
  80   2.0000      -1.132113       -30.8064
  81   2.0000      -1.131324       -30.7849
  82   2.0000      -1.108646       -30.1678
  83   2.0000      -1.069667       -29.1071
  84   2.0000      -1.054088       -28.6832
  85   2.0000      -1.053044       -28.6548
  86   2.0000      -1.038402       -28.2564
  87   2.0000      -1.036639       -28.2084
  88   2.0000      -1.028156       -27.9776
  89   2.0000      -1.027310       -27.9545
  90   2.0000      -1.013570       -27.5806
  91   2.0000      -1.012456       -27.5503
  92   2.0000      -1.008323       -27.4379
  93   2.0000      -1.006938       -27.4002
  94   2.0000      -0.968732       -26.3605
  95   2.0000      -0.968280       -26.3482
  96   2.0000      -0.934183       -25.4204
  97   2.0000      -0.928829       -25.2747
  98   2.0000      -0.922623       -25.1059
  99   2.0000      -0.900334       -24.4993
 100   2.0000      -0.895930       -24.3795
 101   2.0000      -0.893463       -24.3124
 102   2.0000      -0.878516       -23.9056
 103   2.0000      -0.876538       -23.8518
 104   2.0000      -0.865387       -23.5484
 105   2.0000      -0.863565       -23.4988
 106   2.0000      -0.855539       -23.2804
 107   2.0000      -0.828935       -22.5565
 108   2.0000      -0.798897       -21.7391
 109   2.0000      -0.791311       -21.5327
 110   2.0000      -0.787698       -21.4343
 111   2.0000      -0.779134       -21.2013
 112   2.0000      -0.774831       -21.0842
 113   2.0000      -0.766552       -20.8589
 114   2.0000      -0.737396       -20.0656
 115   2.0000      -0.720267       -19.5995
 116   2.0000      -0.710859       -19.3435
 117   2.0000      -0.708273       -19.2731
 118   2.0000      -0.707511       -19.2524
 119   2.0000      -0.703592       -19.1457
 120   2.0000      -0.692610       -18.8469
 121   2.0000      -0.687539       -18.7089
 122   2.0000      -0.684516       -18.6266
 123   2.0000      -0.676713       -18.4143
 124   2.0000      -0.661518       -18.0008
 125   2.0000      -0.641449       -17.4547
 126   2.0000      -0.638941       -17.3865
 127   2.0000      -0.635754       -17.2997
 128   2.0000      -0.632905       -17.2222
 129   2.0000      -0.624773       -17.0009
 130   2.0000      -0.623594       -16.9689
 131   2.0000      -0.617357       -16.7991
 132   2.0000      -0.613893       -16.7049
 133   2.0000      -0.606369       -16.5001
 134   2.0000      -0.599852       -16.3228
 135   2.0000      -0.599085       -16.3019
 136   2.0000      -0.587164       -15.9775
 137   2.0000      -0.580166       -15.7871
 138   2.0000      -0.573348       -15.6016
 139   2.0000      -0.570337       -15.5197
 140   2.0000      -0.568278       -15.4636
 141   2.0000      -0.562860       -15.3162
 142   2.0000      -0.555605       -15.1188
 143   2.0000      -0.551362       -15.0033
 144   2.0000      -0.545698       -14.8492
 145   2.0000      -0.537636       -14.6298
 146   2.0000      -0.535269       -14.5654
 147   2.0000      -0.529525       -14.4091
 148   2.0000      -0.526318       -14.3218
 149   2.0000      -0.517877       -14.0922
 150   2.0000      -0.516964       -14.0673
 151   2.0000      -0.516369       -14.0511
 152   2.0000      -0.510717       -13.8973
 153   2.0000      -0.506468       -13.7817
 154   2.0000      -0.505785       -13.7631
 155   2.0000      -0.505761       -13.7624
 156   2.0000      -0.502784       -13.6815
 157   2.0000      -0.499609       -13.5950
 158   2.0000      -0.497895       -13.5484
 159   2.0000      -0.492723       -13.4077
 160   2.0000      -0.492494       -13.4014
 161   2.0000      -0.487198       -13.2573
 162   2.0000      -0.485951       -13.2234
 163   2.0000      -0.484289       -13.1782
 164   2.0000      -0.483410       -13.1543
 165   2.0000      -0.472441       -12.8558
 166   2.0000      -0.467201       -12.7132
 167   2.0000      -0.465745       -12.6736
 168   2.0000      -0.464676       -12.6445
 169   2.0000      -0.463571       -12.6144
 170   2.0000      -0.462449       -12.5839
 171   2.0000      -0.461734       -12.5644
 172   2.0000      -0.454177       -12.3588
 173   2.0000      -0.451442       -12.2843
 174   2.0000      -0.445863       -12.1325
 175   2.0000      -0.445089       -12.1115
 176   2.0000      -0.444553       -12.0969
 177   2.0000      -0.444019       -12.0824
 178   2.0000      -0.436210       -11.8699
 179   2.0000      -0.435629       -11.8541
 180   2.0000      -0.432178       -11.7602
 181   2.0000      -0.430921       -11.7260
 182   2.0000      -0.428532       -11.6609
 183   2.0000      -0.416930       -11.3453
 184   2.0000      -0.415009       -11.2930
 185   2.0000      -0.407621       -11.0919
 186   2.0000      -0.397182       -10.8079
 187   2.0000      -0.392805       -10.6888
 188   2.0000      -0.391572       -10.6552
 189   2.0000      -0.390412       -10.6236
 190   2.0000      -0.386802       -10.5254
 191   2.0000      -0.363615        -9.8945
 192   2.0000      -0.361264        -9.8305
 193   2.0000      -0.358802        -9.7635
 194   2.0000      -0.356888        -9.7114
 195   2.0000      -0.340824        -9.2743
 196   2.0000      -0.339912        -9.2495
 197   2.0000      -0.339539        -9.2393
 198   2.0000      -0.338634        -9.2147
 199   2.0000      -0.330782        -9.0010
 200   2.0000      -0.329696        -8.9715
 201   2.0000      -0.309183        -8.4133
 202   2.0000      -0.280543        -7.6340
 203   2.0000      -0.253125        -6.8879
 204   0.0000      -0.115625        -3.1463
 205   0.0000      -0.110917        -3.0182
 206   0.0000      -0.070124        -1.9082
 207   0.0000      -0.045058        -1.2261
 208   0.0000      -0.029693        -0.8080

MULLIKEN ATOMIC CHARGES
-----------------------
   0 O :   -0.174176
   1 C :    0.095658
   2 N :   -0.071447
   3 C :   -0.045571
   4 C :    0.132672
   5 C :    0.169902
   6 O :   -0.172947
   7 C :   -0.102722
   8 C :   -0.033099
   9 C :    0.012691
  10 C :   -0.095149
  11 S :    0.226876
  12 C :   -0.093376
  13 C :    0.013506
  14 C :    0.296094
  15 C :   -0.291420
  16 C :   -0.193905
  17 N :    0.187450
  18 C :   -0.194034
  19 N :    0.186010
  20 C :   -0.036517
  21 C :   -0.037206
  22 S :    0.200767
  23 C :   -0.111262
  24 N :   -0.025459
  25 C :   -0.053725
  26 C :   -0.054174
  27 S :    0.128020
  28 N :   -0.025344
  29 C :   -0.111677
  30 S :    0.128638
  31 C :   -0.037455
  32 C :   -0.035627
  33 C :    0.013184
  34 C :   -0.096309
  35 S :    0.203182
  36 C :   -0.097605
  37 C :    0.013652
  38 C :    0.297002
  39 C :   -0.293205
  40 C :   -0.191667
  41 N :    0.178580
  42 C :   -0.193099
  43 N :    0.187163
  44 C :   -0.035275
  45 C :   -0.105952
  46 S :    0.254829
  47 C :    0.095122
  48 N :   -0.087267
  49 C :   -0.046541
  50 C :    0.135738
  51 O :   -0.166819
  52 C :    0.169514
  53 O :   -0.172784
  54 H :    0.037698
  55 H :   -0.005658
  56 H :    0.027337
  57 H :    0.023521
  58 H :    0.023411
  59 H :    0.020668
  60 H :    0.039320
  61 H :   -0.009731
Sum of atomic charges:   -0.0000000

LOEWDIN ATOMIC CHARGES
----------------------
   0 O :    0.019563
   1 C :    0.025524
   2 N :   -0.093952
   3 C :   -0.103390
   4 C :    0.072621
   5 C :    0.105458
   6 O :   -0.128536
   7 C :   -0.196445
   8 C :    0.002111
   9 C :   -0.068467
  10 C :   -0.176745
  11 S :    0.497310
  12 C :   -0.179079
  13 C :   -0.065286
  14 C :    0.077663
  15 C :   -0.093052
  16 C :   -0.018595
  17 N :   -0.023481
  18 C :   -0.018907
  19 N :   -0.022647
  20 C :   -0.000145
  21 C :   -0.198494
  22 S :    0.479810
  23 C :   -0.133452
  24 N :   -0.095063
  25 C :   -0.209166
  26 C :   -0.209350
  27 S :    0.404515
  28 N :   -0.095239
  29 C :   -0.133692
  30 S :    0.405304
  31 C :   -0.198168
  32 C :   -0.000395
  33 C :   -0.065457
  34 C :   -0.179134
  35 S :    0.482210
  36 C :   -0.174605
  37 C :   -0.071266
  38 C :    0.078911
  39 C :   -0.095888
  40 C :   -0.017017
  41 N :   -0.027846
  42 C :   -0.019149
  43 N :   -0.024006
  44 C :   -0.011648
  45 C :   -0.196097
  46 S :    0.520589
  47 C :    0.025958
  48 N :   -0.107479
  49 C :   -0.105416
  50 C :    0.076700
  51 O :    0.030608
  52 C :    0.104397
  53 O :   -0.128638
  54 H :    0.037369
  55 H :    0.004348
  56 H :    0.050451
  57 H :    0.048467
  58 H :    0.048436
  59 H :    0.045953
  60 H :    0.038426
  61 H :    0.002690

  Mayer bond orders larger than 0.100000
B(  0-O ,  1-C ) :   1.2060 B(  0-O ,  4-C ) :   1.1550 B(  1-C ,  2-N ) :   1.7774
B(  1-C ,  7-C ) :   1.0449 B(  2-N ,  3-C ) :   1.2969 B(  3-C ,  4-C ) :   1.5175
B(  3-C ,  5-C ) :   0.9649 B(  4-C , 54-H ) :   0.9905 B(  5-C ,  6-O ) :   2.2077
B(  5-C , 55-H ) :   0.9530 B(  7-C ,  8-C ) :   1.5002 B(  7-C , 11-S ) :   1.1013
B(  8-C ,  9-C ) :   1.2653 B(  8-C , 56-H ) :   1.0068 B(  9-C , 10-C ) :   1.4404
B(  9-C , 14-C ) :   0.9919 B( 10-C , 11-S ) :   1.1307 B( 10-C , 12-C ) :   1.1900
B( 12-C , 13-C ) :   1.4368 B( 12-C , 22-S ) :   1.1329 B( 13-C , 14-C ) :   0.9887
B( 13-C , 20-C ) :   1.2711 B( 14-C , 15-C ) :   1.7256 B( 15-C , 16-C ) :   1.1340
B( 15-C , 18-C ) :   1.1339 B( 16-C , 17-N ) :   2.9999 B( 18-C , 19-N ) :   2.9992
B( 20-C , 21-C ) :   1.4720 B( 20-C , 57-H ) :   1.0104 B( 21-C , 22-S ) :   1.1049
B( 21-C , 23-C ) :   1.1039 B( 23-C , 24-N ) :   1.7333 B( 23-C , 27-S ) :   1.0810
B( 24-N , 25-C ) :   1.3985 B( 24-N , 27-S ) :   0.1002 B( 25-C , 26-C ) :   1.2934
B( 25-C , 30-S ) :   1.0995 B( 26-C , 27-S ) :   1.0990 B( 26-C , 28-N ) :   1.3984
B( 28-N , 29-C ) :   1.7334 B( 28-N , 30-S ) :   0.1002 B( 29-C , 30-S ) :   1.0815
B( 29-C , 31-C ) :   1.1032 B( 31-C , 32-C ) :   1.4723 B( 31-C , 35-S ) :   1.1067
B( 32-C , 33-C ) :   1.2723 B( 32-C , 58-H ) :   1.0100 B( 33-C , 34-C ) :   1.4385
B( 33-C , 38-C ) :   0.9872 B( 34-C , 35-S ) :   1.1345 B( 34-C , 36-C ) :   1.1888
B( 36-C , 37-C ) :   1.4411 B( 36-C , 46-S ) :   1.1304 B( 37-C , 38-C ) :   0.9957
B( 37-C , 44-C ) :   1.2704 B( 38-C , 39-C ) :   1.7229 B( 39-C , 40-C ) :   1.1344
B( 39-C , 42-C ) :   1.1329 B( 40-C , 41-N ) :   2.9949 B( 42-C , 43-N ) :   3.0006
B( 44-C , 45-C ) :   1.4717 B( 44-C , 59-H ) :   1.0034 B( 45-C , 46-S ) :   1.1157
B( 45-C , 47-C ) :   1.0720 B( 47-C , 48-N ) :   1.7796 B( 47-C , 51-O ) :   1.1996
B( 48-N , 49-C ) :   1.2944 B( 49-C , 50-C ) :   1.5153 B( 49-C , 52-C ) :   0.9679
B( 50-C , 51-O ) :   1.1613 B( 50-C , 60-H ) :   0.9916 B( 52-C , 53-O ) :   2.2069
B( 52-C , 61-H ) :   0.9521

-----------------------------------------------------------------------------
         ABSORPTION SPECTRUM VIA TRANSITION ELECTRIC DIPOLE MOMENTS
-----------------------------------------------------------------------------
State   Energy  Wavelength   fosc         T2         TX        TY        TZ
        (cm-1)    (nm)                  (au**2)     (au)      (au)      (au)
-----------------------------------------------------------------------------
   0   13263.0    754.0   0.413413782  10.26171   0.87184   3.07205   0.25321
   1   13870.3    721.0   0.002478849   0.05884   0.08483   0.22642   0.01937
   2   22386.2    446.7   1.213323763  17.84317  -0.94805  -4.11626  -0.02728
   3   22710.3    440.3   0.014340779   0.20789  -0.08357  -0.44805   0.01234
   4   24647.6    405.7   1.198199972  16.00410  -0.96768  -3.88013  -0.11078
   5   29730.4    336.4   0.028218384   0.31247  -0.16237   0.38762  -0.36859
   6   29986.0    333.5   0.000247644   0.00272  -0.00302   0.04724   0.02186
   7   30318.5    329.8   0.002908194   0.03158   0.14742  -0.00940   0.09878
   8   31671.2    315.7   1.211084159  12.58883   1.79139  -0.65054   2.99275
   9   31839.2    314.1   0.029542497   0.30546  -0.38248   0.16240  -0.36441
  10   33036.5    302.7   0.136851259   1.36374  -0.26254  -1.13787  -0.00827
  11   33067.6    302.4   0.036165598   0.36005  -0.10650  -0.58864   0.04711
  12   33510.8    298.4   0.000897521   0.00882   0.02951   0.08480  -0.02748
  13   34000.4    294.1   0.595081293   5.76192   1.34681   1.11523   1.64448
  14   34765.1    287.6   0.459751855   4.35367   0.72108   1.92506   0.35757
  15   35003.8    285.7   0.010145255   0.09542   0.02176   0.30806  -0.00648
  16   35977.8    277.9   0.000045065   0.00041  -0.00502   0.01694  -0.01002
  17   36603.8    273.2   0.000000711   0.00001  -0.00149   0.00105   0.00175
  18   36881.7    271.1   0.000035553   0.00032   0.01130   0.01365   0.00182
  19   36966.4    270.5   0.001340419   0.01194  -0.04084  -0.09843  -0.02410
  20   37052.6    269.9   0.014569849   0.12945   0.06438   0.35158  -0.04122
  21   37199.6    268.8   0.080019025   0.70816   0.28645   0.77806   0.14397
  22   37507.6    266.6   0.236804804   2.07849  -0.79561  -0.76878  -0.92438
  23   37610.6    265.9   0.004380590   0.03834  -0.01740   0.19383  -0.02168
  24   38495.6    259.8   0.001021419   0.00874   0.03176  -0.02902  -0.08297
  25   38554.2    259.4   0.005155008   0.04402   0.11664   0.09013   0.14930
  26   38801.8    257.7   0.065218528   0.55334   0.14534   0.72953  -0.00094
  27   38896.4    257.1   0.071922126   0.60874  -0.37096   0.08910  -0.68058
  28   38908.2    257.0   0.124985639   1.05753   0.28659   0.98606   0.05548

FINAL SINGLE POINT ENERGY     -4501.224783937261

DIPOLE MOMENT
-------------
                                X             Y             Z
Electronic contribution:     -0.80681       1.07126      -1.97607
Nuclear contribution   :      0.31945      -0.59620       1.22084
                        -----------------------------------------
Total Dipole Moment    :     -0.48736       0.47506      -0.75523
                        -----------------------------------------
Magnitude (a.u.)       :      1.01665
Magnitude (Debye)      :      2.58412

Rotational constants in cm-1:     0.004802     0.000293     0.000276
Rotational constants in MHz :   143.966839     8.783267     8.280459

                             ****ORCA TERMINATED NORMALLY****
TOTAL RUN TIME: 0 days 0 hours 4 minutes 15 seconds 544 msec
