                         Program Version 4.2.0 -  RELEASE  -
|  1> # ORCA input file
|  2> # SCF done       -197.280571491806          0.000301976484
|  3> ! CAM-B3LYP def2-SVP def2/J RIJCOSX Grid4 TightSCF
|  4> %maxcore 5000
|  5> %tddft
|  6>     Mode sTDDFT
|  7>     Ethresh 5.0
|  8>     maxcore 5000
|  9> end
| 10>
| 11> %pal
| 12>   nprocs 6
| 13>   end
| 14> * xyz 0 1
| 15>    C       -3.91392        -0.32047        -1.83203
| 16>    C       -3.76653        -0.86262        -3.18728
| 17>    O       -3.97607        -2.00522        -3.55425
| 18>    C       -3.31150         0.25737        -4.03043
| 19>    C       -3.18373         1.41287        -3.23887
| 20>    C       -3.54798         1.08679        -1.86178
| 21>    C       -3.53033         1.96503        -0.81143
| 22>    C       -3.15475         3.32183        -0.92237
| 23>    N       -2.85956         4.43055        -0.94190
| 24>    C       -3.87270         1.66438         0.52473
| 25>    N       -4.13380         1.50322         1.63117
| 26>    C       -2.76506         2.59641        -3.83060
| 27>    C       -2.48411         2.60377        -5.18826
| 28>    C       -2.61629         1.44981        -5.95405
| 29>    C       -3.03459         0.25360        -5.38179
| 30>   Cl       -2.25623         1.50537        -7.63619
| 31>    C       -4.32986        -1.02633        -0.73350
| 32>    C       -4.69053        -2.37785        -0.60347
| 33>    C       -5.08736        -2.91560         0.62770
| 34>    C       -5.38615        -4.26207         0.54650
| 35>    C       -5.21737        -4.76604        -0.76477
| 36>    S       -4.69959        -3.59047        -1.88257
| 37>    C       -5.53387        -6.14538        -0.74401
| 38>    C       -5.90040        -6.51765         0.56524
| 39>    C       -5.82190        -5.34344         1.42006
| 40>    C       -6.09125        -5.26292         2.75291
| 41>    C       -6.50806        -6.36481         3.53278
| 42>    N       -6.84721        -7.23168         4.20089
| 43>    C       -5.97060        -4.04959         3.46614
| 44>    N       -5.87489        -3.07004         4.05352
| 45>    C       -6.21723        -7.86894         0.67958
| 46>    C       -6.09150        -8.52526        -0.53499
| 47>    S       -5.58159        -7.45580        -1.83270
| 48>    C       -6.30879        -9.90145        -0.79363
| 49>    C       -6.68428       -10.91287         0.06392
| 50>    C       -7.02312       -11.08519         1.48517
| 51>    O       -7.07220       -10.28221         2.38319
| 52>    N       -7.29727       -12.44363         1.62726
| 53>    C       -7.67427       -13.03699         2.88667
| 54>    C       -7.16871       -13.16732         0.45291
| 55>    O       -7.34759       -14.35821         0.33832
| 56>    C       -6.77744       -12.18027        -0.55565
| 57>    C       -6.48305       -12.19100        -1.89822
| 58>    S       -6.07942       -10.56079        -2.40689
| 59>    C       -6.46271       -13.27811        -2.80375
| 60>    C       -6.14875       -13.21764        -4.15293
| 61>    C       -6.19967       -14.47237        -4.74896
| 62>    C       -6.55802       -15.48922        -3.84066
| 63>    S       -6.83628       -14.90698        -2.26131
| 64>    C       -6.57054       -16.72483        -4.53911
| 65>    C       -6.21649       -16.48385        -5.88210
| 66>    C       -5.98779       -15.06072        -6.06074
| 67>    C       -5.67467       -14.42260        -7.22479
| 68>    C       -5.52738       -15.13436        -8.43424
| 69>    N       -5.40711       -15.73050        -9.40630
| 70>    C       -5.48276       -13.02644        -7.28640
| 71>    N       -5.32018       -11.89242        -7.32877
| 72>    C       -6.20949       -17.63556        -6.65675
| 73>    C       -6.56238       -18.76077        -5.92508
| 74>    S       -6.87534       -18.37015        -4.23784
| 75>    C       -6.63198       -20.10586        -6.35098
| 76>    C       -6.70831       -20.59616        -7.61869
| 77>    C       -6.32630       -22.01819        -7.85825
| 78>    O       -6.17155       -22.87417        -7.02079
| 79>    C       -6.12619       -22.11967        -9.31973
| 80>    C       -6.49646       -20.90608        -9.92856
| 81>    C       -7.00812       -19.99838        -8.90481
| 82>    C       -7.83762       -18.93518        -9.14551
| 83>    C       -8.19872       -18.49665       -10.43782
| 84>    N       -8.52960       -18.10280       -11.46304
| 85>    C       -8.50522       -18.21264        -8.13702
| 86>    N       -9.08682       -17.61185        -7.35042
| 87>    C       -6.35294       -20.75284       -11.29945
| 88>    C       -5.85555       -21.81397       -12.03966
| 89>    C       -5.51143       -23.01434       -11.42554
| 90>    C       -5.63926       -23.18357       -10.05102
| 91>   Cl       -4.91017       -24.31048       -12.38567
| 92>    H       -2.65397         3.50537        -3.26295
| 93>    H       -2.15783         3.51671        -5.66110
| 94>    H       -3.14138        -0.64773        -5.96428
| 95>    H       -4.39924        -0.48309         0.20124
| 96>    H       -5.14048        -2.31912         1.52134
| 97>    H       -6.52088        -8.37033         1.58238
| 98>    H       -7.66871       -12.24958         3.63827
| 99>    H       -6.96454       -13.81934         3.15714
|100>    H       -8.67031       -13.47463         2.81129
|101>    H       -5.89693       -12.29805        -4.65090
|102>    H       -5.91771       -17.67546        -7.69018
|103>    H       -6.54137       -20.86017        -5.57517
|104>    H       -6.60430       -19.82762       -11.79225
|105>    H       -5.73192       -21.71178       -13.10631
|106>    H       -5.36963       -24.10879        -9.56699
|107> *
|108>
|109>                          ****END OF INPUT****

CARTESIAN COORDINATES (ANGSTROEM)
---------------------------------
  C     -3.913920   -0.320470   -1.832030
  C     -3.766530   -0.862620   -3.187280
  O     -3.976070   -2.005220   -3.554250
  C     -3.311500    0.257370   -4.030430
  C     -3.183730    1.412870   -3.238870
  C     -3.547980    1.086790   -1.861780
  C     -3.530330    1.965030   -0.811430
  C     -3.154750    3.321830   -0.922370
  N     -2.859560    4.430550   -0.941900
  C     -3.872700    1.664380    0.524730
  N     -4.133800    1.503220    1.631170
  C     -2.765060    2.596410   -3.830600
  C     -2.484110    2.603770   -5.188260
  C     -2.616290    1.449810   -5.954050
  C     -3.034590    0.253600   -5.381790
  Cl    -2.256230    1.505370   -7.636190
  C     -4.329860   -1.026330   -0.733500
  C     -4.690530   -2.377850   -0.603470
  C     -5.087360   -2.915600    0.627700
  C     -5.386150   -4.262070    0.546500
  C     -5.217370   -4.766040   -0.764770
  S     -4.699590   -3.590470   -1.882570
  C     -5.533870   -6.145380   -0.744010
  C     -5.900400   -6.517650    0.565240
  C     -5.821900   -5.343440    1.420060
  C     -6.091250   -5.262920    2.752910
  C     -6.508060   -6.364810    3.532780
  N     -6.847210   -7.231680    4.200890
  C     -5.970600   -4.049590    3.466140
  N     -5.874890   -3.070040    4.053520
  C     -6.217230   -7.868940    0.679580
  C     -6.091500   -8.525260   -0.534990
  S     -5.581590   -7.455800   -1.832700
  C     -6.308790   -9.901450   -0.793630
  C     -6.684280  -10.912870    0.063920
  C     -7.023120  -11.085190    1.485170
  O     -7.072200  -10.282210    2.383190
  N     -7.297270  -12.443630    1.627260
  C     -7.674270  -13.036990    2.886670
  C     -7.168710  -13.167320    0.452910
  O     -7.347590  -14.358210    0.338320
  C     -6.777440  -12.180270   -0.555650
  C     -6.483050  -12.191000   -1.898220
  S     -6.079420  -10.560790   -2.406890
  C     -6.462710  -13.278110   -2.803750
  C     -6.148750  -13.217640   -4.152930
  C     -6.199670  -14.472370   -4.748960
  C     -6.558020  -15.489220   -3.840660
  S     -6.836280  -14.906980   -2.261310
  C     -6.570540  -16.724830   -4.539110
  C     -6.216490  -16.483850   -5.882100
  C     -5.987790  -15.060720   -6.060740
  C     -5.674670  -14.422600   -7.224790
  C     -5.527380  -15.134360   -8.434240
  N     -5.407110  -15.730500   -9.406300
  C     -5.482760  -13.026440   -7.286400
  N     -5.320180  -11.892420   -7.328770
  C     -6.209490  -17.635560   -6.656750
  C     -6.562380  -18.760770   -5.925080
  S     -6.875340  -18.370150   -4.237840
  C     -6.631980  -20.105860   -6.350980
  C     -6.708310  -20.596160   -7.618690
  C     -6.326300  -22.018190   -7.858250
  O     -6.171550  -22.874170   -7.020790
  C     -6.126190  -22.119670   -9.319730
  C     -6.496460  -20.906080   -9.928560
  C     -7.008120  -19.998380   -8.904810
  C     -7.837620  -18.935180   -9.145510
  C     -8.198720  -18.496650  -10.437820
  N     -8.529600  -18.102800  -11.463040
  C     -8.505220  -18.212640   -8.137020
  N     -9.086820  -17.611850   -7.350420
  C     -6.352940  -20.752840  -11.299450
  C     -5.855550  -21.813970  -12.039660
  C     -5.511430  -23.014340  -11.425540
  C     -5.639260  -23.183570  -10.051020
  Cl    -4.910170  -24.310480  -12.385670
  H     -2.653970    3.505370   -3.262950
  H     -2.157830    3.516710   -5.661100
  H     -3.141380   -0.647730   -5.964280
  H     -4.399240   -0.483090    0.201240
  H     -5.140480   -2.319120    1.521340
  H     -6.520880   -8.370330    1.582380
  H     -7.668710  -12.249580    3.638270
  H     -6.964540  -13.819340    3.157140
  H     -8.670310  -13.474630    2.811290
  H     -5.896930  -12.298050   -4.650900
  H     -5.917710  -17.675460   -7.690180
  H     -6.541370  -20.860170   -5.575170
  H     -6.604300  -19.827620  -11.792250
  H     -5.731920  -21.711780  -13.106310
  H     -5.369630  -24.108790   -9.566990

 Total Charge           Charge          ....    0
 Multiplicity           Mult            ....    1
 Number of Electrons    NEL             ....  566
 Basis Dimension        Dim             .... 1181

ORBITAL ENERGIES
----------------

  NO   OCC          E(Eh)            E(eV)
   0   2.0000    -101.602162     -2764.7354
   1   2.0000    -101.599732     -2764.6693
   2   2.0000     -89.005503     -2421.9629
   3   2.0000     -89.003785     -2421.9161
   4   2.0000     -89.001240     -2421.8469
   5   2.0000     -88.999571     -2421.8014
   6   2.0000     -88.997893     -2421.7558
   7   2.0000     -19.237283      -523.4731
   8   2.0000     -19.229722      -523.2673
   9   2.0000     -19.229148      -523.2517
  10   2.0000     -19.226501      -523.1797
  11   2.0000     -14.473691      -393.8492
  12   2.0000     -14.440128      -392.9359
  13   2.0000     -14.439986      -392.9320
  14   2.0000     -14.435367      -392.8063
  15   2.0000     -14.432711      -392.7340
  16   2.0000     -14.425504      -392.5379
  17   2.0000     -14.425212      -392.5300
  18   2.0000     -14.422071      -392.4445
  19   2.0000     -14.420254      -392.3951
  20   2.0000     -10.412290      -283.3328
  21   2.0000     -10.411537      -283.3123
  22   2.0000     -10.384391      -282.5737
  23   2.0000     -10.377344      -282.3819
  24   2.0000     -10.374883      -282.3149
  25   2.0000     -10.372800      -282.2582
  26   2.0000     -10.362544      -281.9792
  27   2.0000     -10.359464      -281.8954
  28   2.0000     -10.358819      -281.8778
  29   2.0000     -10.357821      -281.8506
  30   2.0000     -10.356055      -281.8026
  31   2.0000     -10.353557      -281.7346
  32   2.0000     -10.352668      -281.7104
  33   2.0000     -10.352599      -281.7085
  34   2.0000     -10.351420      -281.6764
  35   2.0000     -10.351352      -281.6746
  36   2.0000     -10.350480      -281.6509
  37   2.0000     -10.346318      -281.5376
  38   2.0000     -10.345729      -281.5216
  39   2.0000     -10.344739      -281.4947
  40   2.0000     -10.342266      -281.4274
  41   2.0000     -10.341767      -281.4138
  42   2.0000     -10.340352      -281.3753
  43   2.0000     -10.340193      -281.3709
  44   2.0000     -10.336250      -281.2637
  45   2.0000     -10.335857      -281.2530
  46   2.0000     -10.335619      -281.2465
  47   2.0000     -10.334739      -281.2225
  48   2.0000     -10.333229      -281.1815
  49   2.0000     -10.331410      -281.1320
  50   2.0000     -10.327441      -281.0240
  51   2.0000     -10.326245      -280.9914
  52   2.0000     -10.324697      -280.9493
  53   2.0000     -10.322302      -280.8841
  54   2.0000     -10.320549      -280.8364
  55   2.0000     -10.319961      -280.8204
  56   2.0000     -10.319017      -280.7947
  57   2.0000     -10.318942      -280.7927
  58   2.0000     -10.317747      -280.7602
  59   2.0000     -10.317655      -280.7577
  60   2.0000     -10.316120      -280.7159
  61   2.0000     -10.315756      -280.7060
  62   2.0000     -10.315035      -280.6864
  63   2.0000     -10.314135      -280.6619
  64   2.0000     -10.314094      -280.6608
  65   2.0000     -10.311976      -280.6031
  66   2.0000     -10.311883      -280.6006
  67   2.0000     -10.311234      -280.5829
  68   2.0000     -10.309683      -280.5407
  69   2.0000     -10.309387      -280.5327
  70   2.0000     -10.309263      -280.5293
  71   2.0000     -10.309135      -280.5258
  72   2.0000     -10.308740      -280.5151
  73   2.0000     -10.307954      -280.4937
  74   2.0000     -10.307716      -280.4872
  75   2.0000     -10.307478      -280.4807
  76   2.0000     -10.305727      -280.4331
  77   2.0000      -9.557282      -260.0669
  78   2.0000      -9.554859      -260.0009
  79   2.0000      -8.100282      -220.4199
  80   2.0000      -8.098425      -220.3693
  81   2.0000      -8.094602      -220.2653
  82   2.0000      -8.094576      -220.2646
  83   2.0000      -8.090230      -220.1464
  84   2.0000      -7.327500      -199.3914
  85   2.0000      -7.325071      -199.3253
  86   2.0000      -7.317542      -199.1204
  87   2.0000      -7.316997      -199.1056
  88   2.0000      -7.315114      -199.0544
  89   2.0000      -7.314591      -199.0401
  90   2.0000      -6.069500      -165.1595
  91   2.0000      -6.067548      -165.1064
  92   2.0000      -6.065332      -165.0461
  93   2.0000      -6.064198      -165.0152
  94   2.0000      -6.063937      -165.0081
  95   2.0000      -6.063393      -164.9933
  96   2.0000      -6.062647      -164.9730
  97   2.0000      -6.060982      -164.9277
  98   2.0000      -6.059836      -164.8965
  99   2.0000      -6.059677      -164.8922
 100   2.0000      -6.059469      -164.8865
 101   2.0000      -6.056968      -164.8185
 102   2.0000      -6.056231      -164.7984
 103   2.0000      -6.054871      -164.7614
 104   2.0000      -6.052776      -164.7044
 105   2.0000      -1.176047       -32.0019
 106   2.0000      -1.152889       -31.3717
 107   2.0000      -1.152845       -31.3705
 108   2.0000      -1.142279       -31.0830
 109   2.0000      -1.067972       -29.0610
 110   2.0000      -1.058058       -28.7912
 111   2.0000      -1.056023       -28.7358
 112   2.0000      -1.033004       -28.1095
 113   2.0000      -1.030695       -28.0466
 114   2.0000      -1.029557       -28.0157
 115   2.0000      -1.028084       -27.9756
 116   2.0000      -1.025601       -27.9080
 117   2.0000      -1.017809       -27.6960
 118   2.0000      -1.014724       -27.6120
 119   2.0000      -1.013257       -27.5721
 120   2.0000      -1.011914       -27.5356
 121   2.0000      -1.010462       -27.4961
 122   2.0000      -1.003516       -27.3070
 123   2.0000      -1.002058       -27.2674
 124   2.0000      -1.000035       -27.2123
 125   2.0000      -0.991102       -26.9692
 126   2.0000      -0.988903       -26.9094
 127   2.0000      -0.972264       -26.4567
 128   2.0000      -0.967355       -26.3231
 129   2.0000      -0.942226       -25.6393
 130   2.0000      -0.941369       -25.6160
 131   2.0000      -0.931912       -25.3586
 132   2.0000      -0.926958       -25.2238
 133   2.0000      -0.913252       -24.8508
 134   2.0000      -0.912260       -24.8239
 135   2.0000      -0.906905       -24.6781
 136   2.0000      -0.895756       -24.3748
 137   2.0000      -0.888620       -24.1806
 138   2.0000      -0.887129       -24.1400
 139   2.0000      -0.877140       -23.8682
 140   2.0000      -0.870755       -23.6945
 141   2.0000      -0.869696       -23.6656
 142   2.0000      -0.867700       -23.6113
 143   2.0000      -0.865713       -23.5572
 144   2.0000      -0.860570       -23.4173
 145   2.0000      -0.826263       -22.4838
 146   2.0000      -0.816773       -22.2255
 147   2.0000      -0.813458       -22.1353
 148   2.0000      -0.797462       -21.7000
 149   2.0000      -0.789801       -21.4916
 150   2.0000      -0.784767       -21.3546
 151   2.0000      -0.782117       -21.2825
 152   2.0000      -0.779581       -21.2135
 153   2.0000      -0.775348       -21.0983
 154   2.0000      -0.759808       -20.6754
 155   2.0000      -0.746916       -20.3246
 156   2.0000      -0.729304       -19.8454
 157   2.0000      -0.717928       -19.5358
 158   2.0000      -0.714692       -19.4478
 159   2.0000      -0.709516       -19.3069
 160   2.0000      -0.707805       -19.2604
 161   2.0000      -0.705164       -19.1885
 162   2.0000      -0.700834       -19.0707
 163   2.0000      -0.697664       -18.9844
 164   2.0000      -0.693515       -18.8715
 165   2.0000      -0.690138       -18.7796
 166   2.0000      -0.687031       -18.6951
 167   2.0000      -0.686037       -18.6680
 168   2.0000      -0.667254       -18.1569
 169   2.0000      -0.661005       -17.9869
 170   2.0000      -0.649850       -17.6833
 171   2.0000      -0.643857       -17.5202
 172   2.0000      -0.639418       -17.3995
 173   2.0000      -0.633187       -17.2299
 174   2.0000      -0.631831       -17.1930
 175   2.0000      -0.628358       -17.0985
 176   2.0000      -0.624245       -16.9866
 177   2.0000      -0.623215       -16.9586
 178   2.0000      -0.619142       -16.8477
 179   2.0000      -0.616852       -16.7854
 180   2.0000      -0.598047       -16.2737
 181   2.0000      -0.595856       -16.2141
 182   2.0000      -0.594529       -16.1780
 183   2.0000      -0.592320       -16.1179
 184   2.0000      -0.586951       -15.9718
 185   2.0000      -0.578997       -15.7553
 186   2.0000      -0.575978       -15.6732
 187   2.0000      -0.565331       -15.3835
 188   2.0000      -0.564198       -15.3526
 189   2.0000      -0.560766       -15.2592
 190   2.0000      -0.559280       -15.2188
 191   2.0000      -0.559074       -15.2132
 192   2.0000      -0.557788       -15.1782
 193   2.0000      -0.552025       -15.0214
 194   2.0000      -0.550824       -14.9887
 195   2.0000      -0.547349       -14.8941
 196   2.0000      -0.546951       -14.8833
 197   2.0000      -0.543756       -14.7964
 198   2.0000      -0.543113       -14.7789
 199   2.0000      -0.539527       -14.6813
 200   2.0000      -0.537700       -14.6316
 201   2.0000      -0.534512       -14.5448
 202   2.0000      -0.531816       -14.4714
 203   2.0000      -0.526182       -14.3181
 204   2.0000      -0.522145       -14.2083
 205   2.0000      -0.521271       -14.1845
 206   2.0000      -0.518328       -14.1044
 207   2.0000      -0.516008       -14.0413
 208   2.0000      -0.513125       -13.9628
 209   2.0000      -0.511895       -13.9294
 210   2.0000      -0.509716       -13.8701
 211   2.0000      -0.508608       -13.8399
 212   2.0000      -0.507182       -13.8011
 213   2.0000      -0.502830       -13.6827
 214   2.0000      -0.500712       -13.6251
 215   2.0000      -0.499753       -13.5990
 216   2.0000      -0.498872       -13.5750
 217   2.0000      -0.495904       -13.4942
 218   2.0000      -0.493015       -13.4156
 219   2.0000      -0.491791       -13.3823
 220   2.0000      -0.490655       -13.3514
 221   2.0000      -0.488377       -13.2894
 222   2.0000      -0.488086       -13.2815
 223   2.0000      -0.483185       -13.1481
 224   2.0000      -0.479510       -13.0481
 225   2.0000      -0.477711       -12.9992
 226   2.0000      -0.477474       -12.9927
 227   2.0000      -0.473043       -12.8722
 228   2.0000      -0.470744       -12.8096
 229   2.0000      -0.469146       -12.7661
 230   2.0000      -0.467661       -12.7257
 231   2.0000      -0.465466       -12.6660
 232   2.0000      -0.463992       -12.6259
 233   2.0000      -0.460034       -12.5182
 234   2.0000      -0.457883       -12.4596
 235   2.0000      -0.457233       -12.4419
 236   2.0000      -0.456336       -12.4175
 237   2.0000      -0.453328       -12.3357
 238   2.0000      -0.450513       -12.2591
 239   2.0000      -0.450216       -12.2510
 240   2.0000      -0.449576       -12.2336
 241   2.0000      -0.448589       -12.2067
 242   2.0000      -0.446320       -12.1450
 243   2.0000      -0.444957       -12.1079
 244   2.0000      -0.443743       -12.0749
 245   2.0000      -0.443261       -12.0618
 246   2.0000      -0.442994       -12.0545
 247   2.0000      -0.442568       -12.0429
 248   2.0000      -0.438854       -11.9418
 249   2.0000      -0.436068       -11.8660
 250   2.0000      -0.435403       -11.8479
 251   2.0000      -0.433177       -11.7873
 252   2.0000      -0.433022       -11.7831
 253   2.0000      -0.431039       -11.7292
 254   2.0000      -0.427740       -11.6394
 255   2.0000      -0.425611       -11.5815
 256   2.0000      -0.417957       -11.3732
 257   2.0000      -0.415258       -11.2997
 258   2.0000      -0.412097       -11.2137
 259   2.0000      -0.408941       -11.1278
 260   2.0000      -0.402532       -10.9535
 261   2.0000      -0.399296       -10.8654
 262   2.0000      -0.397344       -10.8123
 263   2.0000      -0.386049       -10.5049
 264   2.0000      -0.380052       -10.3417
 265   2.0000      -0.373588       -10.1659
 266   2.0000      -0.372371       -10.1327
 267   2.0000      -0.363451        -9.8900
 268   2.0000      -0.362097        -9.8532
 269   2.0000      -0.360179        -9.8010
 270   2.0000      -0.358106        -9.7446
 271   2.0000      -0.356540        -9.7020
 272   2.0000      -0.352146        -9.5824
 273   2.0000      -0.351711        -9.5705
 274   2.0000      -0.349803        -9.5186
 275   2.0000      -0.345148        -9.3919
 276   2.0000      -0.333455        -9.0738
 277   2.0000      -0.330072        -8.9817
 278   2.0000      -0.323172        -8.7940
 279   2.0000      -0.316900        -8.6233
 280   2.0000      -0.313350        -8.5267
 281   2.0000      -0.284728        -7.7478
 282   2.0000      -0.261106        -7.1051
 283   0.0000      -0.123602        -3.3634
 284   0.0000      -0.116730        -3.1764
 285   0.0000      -0.094954        -2.5838
 286   0.0000      -0.093568        -2.5461
 287   0.0000      -0.077870        -2.1190

MULLIKEN ATOMIC CHARGES
-----------------------
   0 C :   -0.088362
   1 C :    0.168132
   2 O :   -0.184622
   3 C :   -0.024707
   4 C :    0.031861
   5 C :    0.323907
   6 C :   -0.346590
   7 C :   -0.189637
   8 N :    0.159690
   9 C :   -0.188336
  10 N :    0.156513
  11 C :   -0.028526
  12 C :    0.051298
  13 C :    0.070334
  14 C :   -0.012364
  15 Cl:   -0.064158
  16 C :   -0.030557
  17 C :   -0.051516
  18 C :   -0.061964
  19 C :    0.047378
  20 C :   -0.069054
  21 S :    0.244806
  22 C :   -0.101016
  23 C :    0.022612
  24 C :    0.312585
  25 C :   -0.297996
  26 C :   -0.196419
  27 N :    0.201564
  28 C :   -0.197181
  29 N :    0.184353
  30 C :   -0.058481
  31 C :   -0.065770
  32 S :    0.202022
  33 C :   -0.097590
  34 C :   -0.014181
  35 C :    0.200287
  36 O :   -0.151374
  37 N :   -0.305879
  38 C :    0.134546
  39 C :    0.186922
  40 O :   -0.179017
  41 C :   -0.026621
  42 C :   -0.088018
  43 S :    0.166098
  44 C :   -0.075619
  45 C :   -0.072903
  46 C :    0.032295
  47 C :   -0.094610
  48 S :    0.252443
  49 C :   -0.072417
  50 C :   -0.006761
  51 C :    0.305701
  52 C :   -0.284636
  53 C :   -0.184823
  54 N :    0.171394
  55 C :   -0.189845
  56 N :    0.175378
  57 C :    0.000145
  58 C :   -0.113898
  59 S :    0.224698
  60 C :    0.087160
  61 C :   -0.134915
  62 C :    0.135796
  63 O :   -0.135255
  64 C :   -0.007547
  65 C :    0.016266
  66 C :    0.260068
  67 C :   -0.327047
  68 C :   -0.174423
  69 N :    0.167705
  70 C :   -0.200854
  71 N :    0.170496
  72 C :   -0.025676
  73 C :    0.047670
  74 C :    0.070381
  75 C :   -0.012879
  76 Cl:   -0.066265
  77 H :    0.008689
  78 H :    0.001965
  79 H :   -0.003008
  80 H :    0.017016
  81 H :    0.030332
  82 H :    0.031233
  83 H :    0.063761
  84 H :    0.043369
  85 H :    0.042081
  86 H :    0.015011
  87 H :    0.025148
  88 H :    0.023607
  89 H :    0.015906
  90 H :    0.003228
  91 H :   -0.000528
Sum of atomic charges:   -0.0000000

LOEWDIN ATOMIC CHARGES
----------------------
   0 C :   -0.110540
   1 C :    0.087488
   2 O :   -0.167452
   3 C :   -0.038393
   4 C :   -0.017521
   5 C :    0.075021
   6 C :   -0.134477
   7 C :   -0.018825
   8 N :   -0.046437
   9 C :   -0.022988
  10 N :   -0.041970
  11 C :    0.010311
  12 C :   -0.016362
  13 C :   -0.105956
  14 C :   -0.004655
  15 Cl:    0.147105
  16 C :    0.057724
  17 C :   -0.182309
  18 C :    0.011969
  19 C :   -0.072657
  20 C :   -0.170236
  21 S :    0.548053
  22 C :   -0.179589
  23 C :   -0.055624
  24 C :    0.072407
  25 C :   -0.091010
  26 C :   -0.025323
  27 N :   -0.011103
  28 C :   -0.018572
  29 N :   -0.022057
  30 C :   -0.006666
  31 C :   -0.183571
  32 S :    0.480102
  33 C :   -0.143975
  34 C :   -0.091970
  35 C :    0.094255
  36 O :   -0.145970
  37 N :   -0.032998
  38 C :    0.038137
  39 C :    0.083853
  40 O :   -0.174937
  41 C :   -0.102608
  42 C :   -0.143269
  43 S :    0.450478
  44 C :   -0.184810
  45 C :   -0.025678
  46 C :   -0.061297
  47 C :   -0.181983
  48 S :    0.543240
  49 C :   -0.159845
  50 C :   -0.064452
  51 C :    0.082079
  52 C :   -0.098248
  53 C :   -0.013212
  54 N :   -0.031072
  55 C :   -0.016504
  56 N :   -0.030338
  57 C :    0.008675
  58 C :   -0.180703
  59 S :    0.507363
  60 C :    0.043455
  61 C :   -0.090558
  62 C :    0.084786
  63 O :   -0.134466
  64 C :   -0.040313
  65 C :   -0.015482
  66 C :    0.064268
  67 C :   -0.132773
  68 C :   -0.020161
  69 N :   -0.040962
  70 C :   -0.015876
  71 N :   -0.043340
  72 C :    0.009699
  73 C :   -0.015509
  74 C :   -0.106227
  75 C :   -0.004306
  76 Cl:    0.145625
  77 H :    0.043557
  78 H :    0.040638
  79 H :    0.043509
  80 H :    0.054290
  81 H :    0.048664
  82 H :    0.043742
  83 H :    0.041920
  84 H :    0.034708
  85 H :    0.034394
  86 H :    0.037460
  87 H :    0.042498
  88 H :    0.046911
  89 H :    0.044874
  90 H :    0.040728
  91 H :    0.044145

  Mayer bond orders larger than 0.100000
B(  0-C ,  1-C ) :   0.9864 B(  0-C ,  5-C ) :   1.0705 B(  0-C , 16-C ) :   1.5009
B(  1-C ,  2-O ) :   2.1132 B(  1-C ,  3-C ) :   0.9617 B(  3-C ,  4-C ) :   1.3328
B(  3-C , 14-C ) :   1.3595 B(  4-C ,  5-C ) :   0.9906 B(  4-C , 11-C ) :   1.3646
B(  5-C ,  6-C ) :   1.6378 B(  6-C ,  7-C ) :   1.1433 B(  6-C ,  9-C ) :   1.1408
B(  7-C ,  8-N ) :   2.9749 B(  9-C , 10-N ) :   2.9599 B( 11-C , 12-C ) :   1.3716
B( 11-C , 77-H ) :   0.9829 B( 12-C , 13-C ) :   1.3831 B( 12-C , 78-H ) :   0.9872
B( 13-C , 14-C ) :   1.3303 B( 13-C , 15-Cl) :   0.9923 B( 14-C , 79-H ) :   1.0132
B( 16-C , 17-C ) :   1.2605 B( 16-C , 80-H ) :   0.9401 B( 17-C , 18-C ) :   1.3289
B( 17-C , 21-S ) :   1.0743 B( 18-C , 19-C ) :   1.3279 B( 18-C , 81-H ) :   1.0085
B( 19-C , 20-C ) :   1.3612 B( 19-C , 24-C ) :   0.9840 B( 20-C , 21-S ) :   1.1218
B( 20-C , 22-C ) :   1.2048 B( 22-C , 23-C ) :   1.4171 B( 22-C , 32-S ) :   1.1300
B( 23-C , 24-C ) :   0.9942 B( 23-C , 30-C ) :   1.2842 B( 24-C , 25-C ) :   1.7200
B( 25-C , 26-C ) :   1.1355 B( 25-C , 28-C ) :   1.1368 B( 26-C , 27-N ) :   3.0023
B( 28-C , 29-N ) :   2.9915 B( 30-C , 31-C ) :   1.4662 B( 30-C , 82-H ) :   0.9734
B( 31-C , 32-S ) :   1.0908 B( 31-C , 33-C ) :   1.1521 B( 33-C , 34-C ) :   1.5702
B( 33-C , 43-S ) :   1.1074 B( 34-C , 35-C ) :   0.8988 B( 34-C , 41-C ) :   1.2432
B( 35-C , 36-O ) :   2.1218 B( 35-C , 37-N ) :   1.0797 B( 37-N , 38-C ) :   0.9352
B( 37-N , 39-C ) :   1.0940 B( 38-C , 83-H ) :   0.9597 B( 38-C , 84-H ) :   0.9748
B( 38-C , 85-H ) :   0.9764 B( 39-C , 40-O ) :   2.1468 B( 39-C , 41-C ) :   0.9015
B( 41-C , 42-C ) :   1.5237 B( 42-C , 43-S ) :   1.1210 B( 42-C , 44-C ) :   1.1887
B( 44-C , 45-C ) :   1.4142 B( 44-C , 48-S ) :   1.1247 B( 45-C , 46-C ) :   1.3221
B( 45-C , 86-H ) :   0.9907 B( 46-C , 47-C ) :   1.4157 B( 46-C , 51-C ) :   0.9923
B( 47-C , 48-S ) :   1.1093 B( 47-C , 49-C ) :   1.1896 B( 49-C , 50-C ) :   1.4116
B( 49-C , 59-S ) :   1.1583 B( 50-C , 51-C ) :   0.9980 B( 50-C , 57-C ) :   1.3619
B( 51-C , 52-C ) :   1.7184 B( 52-C , 53-C ) :   1.1338 B( 52-C , 55-C ) :   1.1329
B( 53-C , 54-N ) :   2.9820 B( 55-C , 56-N ) :   2.9923 B( 57-C , 58-C ) :   1.3976
B( 57-C , 87-H ) :   0.9783 B( 58-C , 59-S ) :   1.0927 B( 58-C , 60-C ) :   1.1332
B( 60-C , 61-C ) :   1.6799 B( 60-C , 88-H ) :   0.9287 B( 61-C , 62-C ) :   0.9442
B( 61-C , 66-C ) :   1.0327 B( 62-C , 63-O ) :   2.2705 B( 62-C , 64-C ) :   0.9171
B( 64-C , 65-C ) :   1.3319 B( 64-C , 75-C ) :   1.3688 B( 65-C , 66-C ) :   1.0053
B( 65-C , 72-C ) :   1.3668 B( 66-C , 67-C ) :   1.6584 B( 67-C , 68-C ) :   1.1253
B( 67-C , 70-C ) :   1.1701 B( 68-C , 69-N ) :   2.9997 B( 70-C , 71-N ) :   2.9988
B( 72-C , 73-C ) :   1.3743 B( 72-C , 89-H ) :   0.9852 B( 73-C , 74-C ) :   1.3810
B( 73-C , 90-H ) :   0.9890 B( 74-C , 75-C ) :   1.3360 B( 74-C , 76-Cl) :   0.9911
B( 75-C , 91-H ) :   1.0108

-----------------------------------------------------------------------------
         ABSORPTION SPECTRUM VIA TRANSITION ELECTRIC DIPOLE MOMENTS
-----------------------------------------------------------------------------
State   Energy  Wavelength   fosc         T2         TX        TY        TZ
        (cm-1)    (nm)                  (au**2)     (au)      (au)      (au)
-----------------------------------------------------------------------------
   0   13627.5    733.8   0.612282651  14.79148  -0.48669  -3.54015  -1.42195
   1   14830.0    674.3   0.244264298   5.42243  -0.56686  -2.22791   0.37083
   2   19931.5    501.7   1.399308459  23.11267   0.76352   4.28374   2.04433
   3   21634.7    462.2   0.490509700   7.46400  -0.52254  -2.14835   1.60486
   4   22441.0    445.6   0.087291311   1.28057   0.24414   0.78637  -0.77626
   5   23710.5    421.8   0.113795653   1.58001   0.60549   1.03136  -0.38691
   6   25621.5    390.3   0.107790879   1.38501   0.08225  -1.00967  -0.59901
   7   26399.6    378.8   0.189930524   2.36850  -0.28373   0.55659   1.40649
   8   27520.2    363.4   0.211586019   2.53111  -0.63332   0.99828   1.06464
   9   28071.5    356.2   0.025994037   0.30485   0.03955  -0.53258   0.14013
  10   28464.8    351.3   0.006572375   0.07601  -0.11968  -0.24738   0.02219
  11   28699.7    348.4   0.014679133   0.16838   0.20889  -0.02817  -0.35207
  12   29209.6    342.4   0.001403885   0.01582  -0.09604   0.02387  -0.07765
  13   29720.0    336.5   0.073950777   0.81916   0.16647  -0.37247  -0.80791
  14   29926.4    334.2   0.123442193   1.35795  -0.29735  -1.12659   0.01818
  15   30095.5    332.3   0.456190350   4.99023   0.33691   0.16711  -2.20200
  16   30388.0    329.1   0.063546948   0.68844   0.18540   0.21704  -0.77908
  17   30661.2    326.1   0.226217827   2.42892   0.60305   0.84818  -1.16011
  18   30930.7    323.3   0.047267350   0.50309   0.23321   0.65994   0.11484
  19   31259.1    319.9   0.345520227   3.63892   0.70317  -0.11112  -1.76978
  20   31953.6    313.0   0.157096936   1.61854   0.42038  -1.19551   0.11215
  21   32645.8    306.3   0.190714577   1.92323  -0.18538  -1.24898  -0.57351
  22   32652.3    306.3   0.070636021   0.71218   0.04454   0.78353   0.31028
  23   33023.7    302.8   0.096907498   0.96607   0.12853   0.95807  -0.17791
  24   33166.9    301.5   0.059996103   0.59552  -0.48423   0.44607   0.40258
  25   33881.6    295.1   0.121179991   1.17745   0.34974   0.06801  -1.02494
  26   34031.1    293.8   0.103307639   0.99938   0.19583   0.14365  -0.96974
  27   34417.5    290.5   0.105787850   1.01189   0.20795   0.94091  -0.28866
  28   34671.8    288.4   0.237475471   2.25485  -0.19353   0.35353   1.44652
  29   34718.0    288.0   0.013145159   0.12465   0.11058  -0.31697  -0.10933
  30   34819.3    287.2   0.198149579   1.87348  -0.11562  -1.29044   0.44146
  31   34876.6    286.7   0.002575175   0.02431   0.10213  -0.11304   0.03315
  32   35247.2    283.7   0.723805513   6.76041  -0.43109  -0.37846   2.53601
  33   35439.6    282.2   0.227390176   2.11232   0.33007  -0.98031  -1.02096
  34   35952.6    278.1   0.323640537   2.96352   0.69096  -1.30766  -0.88097
  35   36035.3    277.5   0.000786502   0.00719   0.02740   0.05426   0.05908
  36   36122.3    276.8   0.005979572   0.05450   0.05196  -0.00436   0.22755
  37   36234.2    276.0   0.302854791   2.75164   0.78747  -1.45848   0.06603
  38   36425.8    274.5   0.035234882   0.31845  -0.08076  -0.42370  -0.36388
  39   36611.3    273.1   0.026588471   0.23909   0.34747  -0.32879  -0.10123
  40   36760.1    272.0   0.007181358   0.06431  -0.12023   0.20198   0.09520
  41   36779.3    271.9   0.000933419   0.00836  -0.04633  -0.06883  -0.03836
  42   36823.8    271.6   0.000218316   0.00195   0.02594  -0.00274  -0.03565
  43   37094.8    269.6   0.092070508   0.81712  -0.05422  -0.41672  -0.80033
  44   37248.6    268.5   0.043006697   0.38010   0.16722  -0.59216  -0.03854
  45   37469.8    266.9   0.005072340   0.04457   0.13918  -0.05145  -0.15016
  46   37728.9    265.0   0.003693553   0.03223  -0.10901   0.14237   0.00873
  47   38048.2    262.8   0.000230152   0.00199   0.01604   0.00650  -0.04113
  48   38464.9    260.0   0.011026362   0.09437   0.00285  -0.15445   0.26554
  49   38676.0    258.6   0.036309178   0.30907   0.05899  -0.54551   0.08949
  50   39229.0    254.9   0.008652999   0.07262   0.13666   0.09020   0.21402
  51   39572.8    252.7   0.140580856   1.16951  -0.10347   0.09531   1.07225
  52   39751.2    251.6   0.040430271   0.33484  -0.05478  -0.31413  -0.48287

FINAL SINGLE POINT ENERGY     -5881.338289005288

DIPOLE MOMENT
-------------
                                X             Y             Z
Electronic contribution:      5.41117      -0.58348     -19.67244
Nuclear contribution   :     -4.34601      -1.49966      18.66504
                        -----------------------------------------
Total Dipole Moment    :      1.06516      -2.08314      -1.00741
                        -----------------------------------------
Magnitude (a.u.)       :      2.54733
Magnitude (Debye)      :      6.47481

Rotational constants in cm-1:     0.001183     0.000196     0.000170
Rotational constants in MHz :    35.473522     5.866634     5.089297

                             ****ORCA TERMINATED NORMALLY****
TOTAL RUN TIME: 0 days 0 hours 19 minutes 50 seconds 843 msec
