                         Program Version 4.2.0 -  RELEASE  -
|  1> # ORCA input file
|  2> # SCF done       -148.668997191343          0.000293279476
|  3> ! CAM-B3LYP def2-SVP def2/J RIJCOSX Grid4 TightSCF
|  4> %maxcore 5000
|  5> %tddft
|  6>     Mode sTDDFT
|  7>     Ethresh 5.0
|  8>     maxcore 5000
|  9> end
| 10>
| 11> %pal
| 12>   nprocs 6
| 13>   end
| 14> * xyz 0 1
| 15>    C        0.86193        -0.09478         4.29803
| 16>    C        0.40468        -1.36619         4.54611
| 17>    N        0.59043        -2.41628         3.74312
| 18>    C        1.25381        -2.29358         2.60956
| 19>    C        1.78366        -1.03031         2.22649
| 20>    C        1.57504         0.08995         3.10387
| 21>    N        2.12566         1.20647         2.62046
| 22>    S        2.82560         0.87078         1.21647
| 23>    N        2.47486        -0.69572         1.13981
| 24>    C        1.40984        -3.46785         1.80849
| 25>    C        2.04708        -3.61466         0.59372
| 26>    C        1.98093        -4.93194         0.13833
| 27>    C        1.28608        -5.77835         1.02382
| 28>    S        0.71621        -4.96009         2.40709
| 29>    C        1.27893        -7.08786         0.47485
| 30>    C        1.96602        -7.06849        -0.75001
| 31>    C        2.42803        -5.71155        -1.00335
| 32>    C        3.12980        -5.26918        -2.08611
| 33>    C        3.50979        -6.12596        -3.14107
| 34>    N        3.82340        -6.81018        -4.00611
| 35>    C        3.52498        -3.92216        -2.23042
| 36>    N        3.85415        -2.83163        -2.36158
| 37>    C        2.01562        -8.31861        -1.36632
| 38>    C        1.37193        -9.28892        -0.62244
| 39>    S        0.69320        -8.64146         0.86578
| 40>    C        1.22732       -10.67369        -0.94389
| 41>    C        0.53989       -11.57074        -0.12796
| 42>    N        0.36929       -12.85944        -0.36578
| 43>    C        0.86673       -13.42842        -1.45407
| 44>    C        1.59692       -12.64161        -2.38673
| 45>    C        1.77699       -11.24051        -2.12461
| 46>    N        2.47810       -10.64695        -3.08960
| 47>    S        2.86677       -11.73569        -4.20434
| 48>    N        2.17064       -13.01503        -3.52794
| 49>    C        0.63417       -14.82297        -1.63020
| 50>    C        1.04832       -15.65271        -2.65507
| 51>    C        0.61189       -16.96145        -2.45909
| 52>    C       -0.13830       -17.11459        -1.27664
| 53>    S       -0.30336       -15.65663        -0.40762
| 54>    C       -0.53595       -18.47385        -1.17463
| 55>    C       -0.03803       -19.17529        -2.28502
| 56>    C        0.70049       -18.24955        -3.12882
| 57>    C        1.34068       -18.53073        -4.29992
| 58>    C        1.36038       -19.82690        -4.85767
| 59>    N        1.38475       -20.87474        -5.32261
| 60>    C        2.03021       -17.54507        -5.03795
| 61>    N        2.59406       -16.75461        -5.64783
| 62>    C       -0.38343       -20.52797        -2.27236
| 63>    C       -1.13869       -20.85890        -1.16630
| 64>    S       -1.42685       -19.47531        -0.12021
| 65>    C       -1.67019       -22.14766        -0.83142
| 66>    C       -2.44050       -22.37605         0.30182
| 67>    N       -2.96493       -23.54678         0.66593
| 68>    C       -2.77421       -24.61227        -0.06419
| 69>    C       -2.01367       -24.54984        -1.24637
| 70>    C       -1.44567       -23.28972        -1.64450
| 71>    N       -0.75607       -23.39544        -2.78006
| 72>    S       -0.82004       -24.91824        -3.28626
| 73>    N       -1.71689       -25.52644        -2.10688
| 74>    H        0.69048         0.72539         4.97393
| 75>    H       -0.15324        -1.58846         5.44541
| 76>    H        2.52484        -2.79329         0.09128
| 77>    H        2.48845        -8.54033        -2.30553
| 78>    H        0.08987       -11.21949         0.79200
| 79>    H        1.63263       -15.29502        -3.48317
| 80>    H       -0.11236       -21.25375        -3.01722
| 81>    H       -2.65884       -21.55724         0.97559
| 82>    H       -3.21890       -25.53742         0.27055
| 83> *
| 84>
| 85>                          ****END OF INPUT****

CARTESIAN COORDINATES (ANGSTROEM)
---------------------------------
  C      0.861930   -0.094780    4.298030
  C      0.404680   -1.366190    4.546110
  N      0.590430   -2.416280    3.743120
  C      1.253810   -2.293580    2.609560
  C      1.783660   -1.030310    2.226490
  C      1.575040    0.089950    3.103870
  N      2.125660    1.206470    2.620460
  S      2.825600    0.870780    1.216470
  N      2.474860   -0.695720    1.139810
  C      1.409840   -3.467850    1.808490
  C      2.047080   -3.614660    0.593720
  C      1.980930   -4.931940    0.138330
  C      1.286080   -5.778350    1.023820
  S      0.716210   -4.960090    2.407090
  C      1.278930   -7.087860    0.474850
  C      1.966020   -7.068490   -0.750010
  C      2.428030   -5.711550   -1.003350
  C      3.129800   -5.269180   -2.086110
  C      3.509790   -6.125960   -3.141070
  N      3.823400   -6.810180   -4.006110
  C      3.524980   -3.922160   -2.230420
  N      3.854150   -2.831630   -2.361580
  C      2.015620   -8.318610   -1.366320
  C      1.371930   -9.288920   -0.622440
  S      0.693200   -8.641460    0.865780
  C      1.227320  -10.673690   -0.943890
  C      0.539890  -11.570740   -0.127960
  N      0.369290  -12.859440   -0.365780
  C      0.866730  -13.428420   -1.454070
  C      1.596920  -12.641610   -2.386730
  C      1.776990  -11.240510   -2.124610
  N      2.478100  -10.646950   -3.089600
  S      2.866770  -11.735690   -4.204340
  N      2.170640  -13.015030   -3.527940
  C      0.634170  -14.822970   -1.630200
  C      1.048320  -15.652710   -2.655070
  C      0.611890  -16.961450   -2.459090
  C     -0.138300  -17.114590   -1.276640
  S     -0.303360  -15.656630   -0.407620
  C     -0.535950  -18.473850   -1.174630
  C     -0.038030  -19.175290   -2.285020
  C      0.700490  -18.249550   -3.128820
  C      1.340680  -18.530730   -4.299920
  C      1.360380  -19.826900   -4.857670
  N      1.384750  -20.874740   -5.322610
  C      2.030210  -17.545070   -5.037950
  N      2.594060  -16.754610   -5.647830
  C     -0.383430  -20.527970   -2.272360
  C     -1.138690  -20.858900   -1.166300
  S     -1.426850  -19.475310   -0.120210
  C     -1.670190  -22.147660   -0.831420
  C     -2.440500  -22.376050    0.301820
  N     -2.964930  -23.546780    0.665930
  C     -2.774210  -24.612270   -0.064190
  C     -2.013670  -24.549840   -1.246370
  C     -1.445670  -23.289720   -1.644500
  N     -0.756070  -23.395440   -2.780060
  S     -0.820040  -24.918240   -3.286260
  N     -1.716890  -25.526440   -2.106880
  H      0.690480    0.725390    4.973930
  H     -0.153240   -1.588460    5.445410
  H      2.524840   -2.793290    0.091280
  H      2.488450   -8.540330   -2.305530
  H      0.089870  -11.219490    0.792000
  H      1.632630  -15.295020   -3.483170
  H     -0.112360  -21.253750   -3.017220
  H     -2.658840  -21.557240    0.975590
  H     -3.218900  -25.537420    0.270550

 Total Charge           Charge          ....    0
 Multiplicity           Mult            ....    1
 Number of Electrons    NEL             ....  446
 Basis Dimension        Dim             ....  899

ORBITAL ENERGIES
----------------

  NO   OCC          E(Eh)            E(eV)
   0   2.0000     -89.040938     -2422.9271
   1   2.0000     -89.038210     -2422.8529
   2   2.0000     -89.033778     -2422.7323
   3   2.0000     -88.987725     -2421.4791
   4   2.0000     -88.986329     -2421.4411
   5   2.0000     -88.984875     -2421.4016
   6   2.0000     -88.982210     -2421.3290
   7   2.0000     -14.457359      -393.4047
   8   2.0000     -14.452576      -393.2746
   9   2.0000     -14.451811      -393.2538
  10   2.0000     -14.450779      -393.2257
  11   2.0000     -14.449096      -393.1799
  12   2.0000     -14.443019      -393.0145
  13   2.0000     -14.425866      -392.5478
  14   2.0000     -14.425715      -392.5437
  15   2.0000     -14.424848      -392.5201
  16   2.0000     -14.424239      -392.5035
  17   2.0000     -14.424174      -392.5017
  18   2.0000     -14.420354      -392.3978
  19   2.0000     -14.417216      -392.3124
  20   2.0000     -10.360497      -281.9235
  21   2.0000     -10.358620      -281.8724
  22   2.0000     -10.347765      -281.5770
  23   2.0000     -10.345962      -281.5279
  24   2.0000     -10.344868      -281.4982
  25   2.0000     -10.341768      -281.4138
  26   2.0000     -10.341458      -281.4054
  27   2.0000     -10.338203      -281.3168
  28   2.0000     -10.338104      -281.3141
  29   2.0000     -10.331329      -281.1298
  30   2.0000     -10.331006      -281.1210
  31   2.0000     -10.330782      -281.1149
  32   2.0000     -10.330575      -281.1092
  33   2.0000     -10.330378      -281.1039
  34   2.0000     -10.328411      -281.0503
  35   2.0000     -10.328093      -281.0417
  36   2.0000     -10.326128      -280.9882
  37   2.0000     -10.326011      -280.9850
  38   2.0000     -10.324734      -280.9503
  39   2.0000     -10.324616      -280.9471
  40   2.0000     -10.324486      -280.9436
  41   2.0000     -10.324238      -280.9368
  42   2.0000     -10.322590      -280.8919
  43   2.0000     -10.322009      -280.8761
  44   2.0000     -10.319384      -280.8047
  45   2.0000     -10.315626      -280.7025
  46   2.0000     -10.315243      -280.6920
  47   2.0000     -10.313429      -280.6427
  48   2.0000     -10.311888      -280.6007
  49   2.0000     -10.311740      -280.5967
  50   2.0000     -10.299850      -280.2732
  51   2.0000     -10.298781      -280.2441
  52   2.0000     -10.298413      -280.2341
  53   2.0000     -10.297190      -280.2008
  54   2.0000     -10.295920      -280.1662
  55   2.0000     -10.294399      -280.1249
  56   2.0000     -10.293179      -280.0916
  57   2.0000     -10.291544      -280.0471
  58   2.0000     -10.287489      -279.9368
  59   2.0000      -8.132394      -221.2937
  60   2.0000      -8.129966      -221.2276
  61   2.0000      -8.125519      -221.1066
  62   2.0000      -8.082138      -219.9262
  63   2.0000      -8.080761      -219.8887
  64   2.0000      -8.078849      -219.8367
  65   2.0000      -8.076172      -219.7638
  66   2.0000      -6.103607      -166.0876
  67   2.0000      -6.101067      -166.0185
  68   2.0000      -6.096646      -165.8982
  69   2.0000      -6.095630      -165.8705
  70   2.0000      -6.094989      -165.8531
  71   2.0000      -6.093166      -165.8035
  72   2.0000      -6.092676      -165.7902
  73   2.0000      -6.088764      -165.6837
  74   2.0000      -6.088189      -165.6680
  75   2.0000      -6.051381      -164.6664
  76   2.0000      -6.050000      -164.6289
  77   2.0000      -6.048085      -164.5767
  78   2.0000      -6.047189      -164.5524
  79   2.0000      -6.045847      -164.5159
  80   2.0000      -6.045385      -164.5033
  81   2.0000      -6.044598      -164.4819
  82   2.0000      -6.043766      -164.4592
  83   2.0000      -6.043194      -164.4437
  84   2.0000      -6.041416      -164.3953
  85   2.0000      -6.041074      -164.3860
  86   2.0000      -6.038786      -164.3237
  87   2.0000      -1.141526       -31.0625
  88   2.0000      -1.137895       -30.9637
  89   2.0000      -1.133624       -30.8475
  90   2.0000      -1.061521       -28.8854
  91   2.0000      -1.053887       -28.6777
  92   2.0000      -1.050786       -28.5933
  93   2.0000      -1.040001       -28.2999
  94   2.0000      -1.037695       -28.2371
  95   2.0000      -1.017546       -27.6888
  96   2.0000      -1.015911       -27.6443
  97   2.0000      -1.003299       -27.3011
  98   2.0000      -1.001814       -27.2607
  99   2.0000      -1.000437       -27.2233
 100   2.0000      -0.995305       -27.0836
 101   2.0000      -0.989190       -26.9172
 102   2.0000      -0.985726       -26.8230
 103   2.0000      -0.983497       -26.7623
 104   2.0000      -0.955497       -26.0004
 105   2.0000      -0.952857       -25.9286
 106   2.0000      -0.923071       -25.1180
 107   2.0000      -0.920464       -25.0471
 108   2.0000      -0.904832       -24.6217
 109   2.0000      -0.902689       -24.5634
 110   2.0000      -0.901160       -24.5218
 111   2.0000      -0.885616       -24.0988
 112   2.0000      -0.874164       -23.7872
 113   2.0000      -0.871321       -23.7098
 114   2.0000      -0.861414       -23.4403
 115   2.0000      -0.854722       -23.2582
 116   2.0000      -0.849929       -23.1277
 117   2.0000      -0.847845       -23.0710
 118   2.0000      -0.819725       -22.3059
 119   2.0000      -0.794690       -21.6246
 120   2.0000      -0.784051       -21.3351
 121   2.0000      -0.773843       -21.0573
 122   2.0000      -0.771554       -20.9951
 123   2.0000      -0.762895       -20.7594
 124   2.0000      -0.759216       -20.6593
 125   2.0000      -0.735740       -20.0205
 126   2.0000      -0.734908       -19.9979
 127   2.0000      -0.726512       -19.7694
 128   2.0000      -0.724532       -19.7155
 129   2.0000      -0.717756       -19.5311
 130   2.0000      -0.705736       -19.2040
 131   2.0000      -0.696569       -18.9546
 132   2.0000      -0.684896       -18.6370
 133   2.0000      -0.679395       -18.4873
 134   2.0000      -0.675649       -18.3853
 135   2.0000      -0.669246       -18.2111
 136   2.0000      -0.651340       -17.7239
 137   2.0000      -0.643120       -17.5002
 138   2.0000      -0.640560       -17.4305
 139   2.0000      -0.629797       -17.1377
 140   2.0000      -0.628360       -17.0985
 141   2.0000      -0.621242       -16.9049
 142   2.0000      -0.611399       -16.6370
 143   2.0000      -0.610554       -16.6140
 144   2.0000      -0.608996       -16.5716
 145   2.0000      -0.607848       -16.5404
 146   2.0000      -0.605503       -16.4766
 147   2.0000      -0.599764       -16.3204
 148   2.0000      -0.589559       -16.0427
 149   2.0000      -0.568430       -15.4678
 150   2.0000      -0.567143       -15.4328
 151   2.0000      -0.564234       -15.3536
 152   2.0000      -0.562533       -15.3073
 153   2.0000      -0.559645       -15.2287
 154   2.0000      -0.556562       -15.1448
 155   2.0000      -0.555077       -15.1044
 156   2.0000      -0.550561       -14.9815
 157   2.0000      -0.543134       -14.7794
 158   2.0000      -0.542008       -14.7488
 159   2.0000      -0.540968       -14.7205
 160   2.0000      -0.520972       -14.1764
 161   2.0000      -0.517934       -14.0937
 162   2.0000      -0.514081       -13.9888
 163   2.0000      -0.505671       -13.7600
 164   2.0000      -0.504799       -13.7363
 165   2.0000      -0.503101       -13.6901
 166   2.0000      -0.501654       -13.6507
 167   2.0000      -0.500278       -13.6133
 168   2.0000      -0.495530       -13.4840
 169   2.0000      -0.491508       -13.3746
 170   2.0000      -0.489366       -13.3163
 171   2.0000      -0.487876       -13.2758
 172   2.0000      -0.485705       -13.2167
 173   2.0000      -0.484770       -13.1913
 174   2.0000      -0.481687       -13.1074
 175   2.0000      -0.478841       -13.0299
 176   2.0000      -0.474540       -12.9129
 177   2.0000      -0.472972       -12.8702
 178   2.0000      -0.470589       -12.8054
 179   2.0000      -0.469619       -12.7790
 180   2.0000      -0.464153       -12.6303
 181   2.0000      -0.457314       -12.4442
 182   2.0000      -0.455829       -12.4037
 183   2.0000      -0.453413       -12.3380
 184   2.0000      -0.451942       -12.2980
 185   2.0000      -0.450162       -12.2495
 186   2.0000      -0.447440       -12.1755
 187   2.0000      -0.441070       -12.0021
 188   2.0000      -0.438937       -11.9441
 189   2.0000      -0.436813       -11.8863
 190   2.0000      -0.436072       -11.8661
 191   2.0000      -0.434399       -11.8206
 192   2.0000      -0.434363       -11.8196
 193   2.0000      -0.432903       -11.7799
 194   2.0000      -0.428110       -11.6495
 195   2.0000      -0.422465       -11.4959
 196   2.0000      -0.421313       -11.4645
 197   2.0000      -0.420834       -11.4515
 198   2.0000      -0.409841       -11.1524
 199   2.0000      -0.409081       -11.1317
 200   2.0000      -0.405841       -11.0435
 201   2.0000      -0.404924       -11.0186
 202   2.0000      -0.403163       -10.9706
 203   2.0000      -0.382500       -10.4083
 204   2.0000      -0.380135       -10.3440
 205   2.0000      -0.379434       -10.3249
 206   2.0000      -0.378244       -10.2925
 207   2.0000      -0.376675       -10.2499
 208   2.0000      -0.363807        -9.8997
 209   2.0000      -0.359407        -9.7800
 210   2.0000      -0.358361        -9.7515
 211   2.0000      -0.353268        -9.6129
 212   2.0000      -0.346669        -9.4333
 213   2.0000      -0.346564        -9.4305
 214   2.0000      -0.344131        -9.3643
 215   2.0000      -0.342647        -9.3239
 216   2.0000      -0.342171        -9.3110
 217   2.0000      -0.328395        -8.9361
 218   2.0000      -0.319084        -8.6827
 219   2.0000      -0.316071        -8.6007
 220   2.0000      -0.301538        -8.2053
 221   2.0000      -0.269507        -7.3337
 222   2.0000      -0.244036        -6.6405
 223   0.0000      -0.109027        -2.9668
 224   0.0000      -0.100199        -2.7265
 225   0.0000      -0.083679        -2.2770
 226   0.0000      -0.075422        -2.0523
 227   0.0000      -0.073090        -1.9889

MULLIKEN ATOMIC CHARGES
-----------------------
   0 C :   -0.035207
   1 C :    0.033842
   2 N :   -0.087816
   3 C :    0.054309
   4 C :   -0.035374
   5 C :    0.080338
   6 N :   -0.268836
   7 S :    0.531302
   8 N :   -0.261426
   9 C :   -0.126672
  10 C :   -0.043687
  11 C :    0.005856
  12 C :   -0.088480
  13 S :    0.232359
  14 C :   -0.095890
  15 C :    0.029610
  16 C :    0.312496
  17 C :   -0.308273
  18 C :   -0.188259
  19 N :    0.171945
  20 C :   -0.190593
  21 N :    0.176774
  22 C :   -0.063040
  23 C :   -0.098560
  24 S :    0.167170
  25 C :    0.080955
  26 C :   -0.061593
  27 N :   -0.058261
  28 C :    0.027271
  29 C :   -0.001760
  30 C :    0.047823
  31 N :   -0.284186
  32 S :    0.557732
  33 N :   -0.258454
  34 C :   -0.119238
  35 C :   -0.051001
  36 C :    0.007723
  37 C :   -0.086527
  38 S :    0.233917
  39 C :   -0.097081
  40 C :    0.029571
  41 C :    0.309916
  42 C :   -0.307124
  43 C :   -0.187995
  44 N :    0.173097
  45 C :   -0.190850
  46 N :    0.177427
  47 C :   -0.056410
  48 C :   -0.101574
  49 S :    0.172905
  50 C :    0.111161
  51 C :   -0.063416
  52 N :   -0.038948
  53 C :   -0.001105
  54 C :    0.015830
  55 C :    0.015029
  56 N :   -0.286618
  57 S :    0.540161
  58 N :   -0.257478
  59 H :   -0.004732
  60 H :    0.009307
  61 H :    0.017437
  62 H :    0.020109
  63 H :    0.007776
  64 H :    0.018212
  65 H :    0.021875
  66 H :    0.008631
  67 H :    0.006597
Sum of atomic charges:    0.0000000

LOEWDIN ATOMIC CHARGES
----------------------
   0 C :   -0.050212
   1 C :    0.020509
   2 N :   -0.095861
   3 C :    0.004189
   4 C :   -0.066829
   5 C :   -0.042060
   6 N :   -0.286796
   7 S :    0.666984
   8 N :   -0.271114
   9 C :   -0.182158
  10 C :   -0.008555
  11 C :   -0.077142
  12 C :   -0.172761
  13 S :    0.511701
  14 C :   -0.179346
  15 C :   -0.067064
  16 C :    0.081397
  17 C :   -0.102750
  18 C :   -0.017240
  19 N :   -0.033614
  20 C :   -0.017611
  21 N :   -0.032650
  22 C :   -0.021347
  23 C :   -0.159684
  24 S :    0.473469
  25 C :   -0.070107
  26 C :    0.007588
  27 N :   -0.085182
  28 C :   -0.001881
  29 C :   -0.061522
  30 C :   -0.030606
  31 N :   -0.277134
  32 S :    0.681678
  33 N :   -0.264405
  34 C :   -0.180553
  35 C :   -0.008922
  36 C :   -0.074765
  37 C :   -0.172553
  38 S :    0.511116
  39 C :   -0.178219
  40 C :   -0.068122
  41 C :    0.080833
  42 C :   -0.101888
  43 C :   -0.017298
  44 N :   -0.032383
  45 C :   -0.017580
  46 N :   -0.032215
  47 C :   -0.018831
  48 C :   -0.161009
  49 S :    0.477690
  50 C :   -0.058419
  51 C :    0.001647
  52 N :   -0.056603
  53 C :    0.033027
  54 C :   -0.076086
  55 C :   -0.035237
  56 N :   -0.282980
  57 S :    0.674834
  58 N :   -0.269923
  59 H :    0.040178
  60 H :    0.026753
  61 H :    0.040862
  62 H :    0.039138
  63 H :    0.017945
  64 H :    0.040839
  65 H :    0.039757
  66 H :    0.016879
  67 H :    0.030203

  Mayer bond orders larger than 0.100000
B(  0-C ,  1-C ) :   1.5019 B(  0-C ,  3-C ) :   0.1033 B(  0-C ,  5-C ) :   1.2353
B(  0-C , 59-H ) :   0.9895 B(  1-C ,  2-N ) :   1.3879 B(  1-C , 60-H ) :   0.9722
B(  2-N ,  3-C ) :   1.7135 B(  3-C ,  4-C ) :   1.1549 B(  3-C ,  9-C ) :   1.1152
B(  4-C ,  5-C ) :   1.1805 B(  4-C ,  8-N ) :   1.5426 B(  5-C ,  6-N ) :   1.5011
B(  6-N ,  7-S ) :   1.2830 B(  6-N ,  8-N ) :   0.1504 B(  7-S ,  8-N ) :   1.2739
B(  9-C , 10-C ) :   1.4921 B(  9-C , 13-S ) :   1.0890 B( 10-C , 11-C ) :   1.2579
B( 10-C , 61-H ) :   0.9827 B( 11-C , 12-C ) :   1.4312 B( 11-C , 16-C ) :   0.9948
B( 12-C , 13-S ) :   1.1287 B( 12-C , 14-C ) :   1.1820 B( 14-C , 15-C ) :   1.4482
B( 14-C , 24-S ) :   1.1221 B( 15-C , 16-C ) :   0.9912 B( 15-C , 22-C ) :   1.2448
B( 16-C , 17-C ) :   1.7107 B( 17-C , 18-C ) :   1.1361 B( 17-C , 20-C ) :   1.1368
B( 18-C , 19-N ) :   2.9883 B( 20-C , 21-N ) :   2.9927 B( 22-C , 23-C ) :   1.4837
B( 22-C , 62-H ) :   0.9847 B( 23-C , 24-S ) :   1.0947 B( 23-C , 25-C ) :   1.1177
B( 25-C , 26-C ) :   1.4099 B( 25-C , 28-C ) :   0.1088 B( 25-C , 30-C ) :   1.2085
B( 26-C , 27-N ) :   1.4576 B( 26-C , 63-H ) :   0.9749 B( 27-N , 28-C ) :   1.6642
B( 28-C , 29-C ) :   1.1676 B( 28-C , 34-C ) :   1.1346 B( 29-C , 30-C ) :   1.1856
B( 29-C , 33-N ) :   1.5471 B( 30-C , 31-N ) :   1.5149 B( 31-N , 32-S ) :   1.2666
B( 31-N , 33-N ) :   0.1452 B( 32-S , 33-N ) :   1.2815 B( 34-C , 35-C ) :   1.4794
B( 34-C , 38-S ) :   1.0887 B( 35-C , 36-C ) :   1.2639 B( 35-C , 64-H ) :   0.9823
B( 36-C , 37-C ) :   1.4305 B( 36-C , 41-C ) :   0.9938 B( 37-C , 38-S ) :   1.1271
B( 37-C , 39-C ) :   1.1822 B( 39-C , 40-C ) :   1.4470 B( 39-C , 49-S ) :   1.1257
B( 40-C , 41-C ) :   0.9945 B( 40-C , 47-C ) :   1.2399 B( 41-C , 42-C ) :   1.7095
B( 42-C , 43-C ) :   1.1378 B( 42-C , 45-C ) :   1.1366 B( 43-C , 44-N ) :   2.9880
B( 45-C , 46-N ) :   2.9923 B( 47-C , 48-C ) :   1.4960 B( 47-C , 65-H ) :   0.9835
B( 48-C , 49-S ) :   1.0945 B( 48-C , 50-C ) :   1.0980 B( 50-C , 51-C ) :   1.4605
B( 50-C , 53-C ) :   0.1053 B( 50-C , 55-C ) :   1.2027 B( 51-C , 52-N ) :   1.4337
B( 51-C , 66-H ) :   0.9795 B( 52-N , 53-C ) :   1.6990 B( 53-C , 54-C ) :   1.1793
B( 53-C , 67-H ) :   0.9926 B( 54-C , 55-C ) :   1.1880 B( 54-C , 58-N ) :   1.4896
B( 55-C , 56-N ) :   1.5132 B( 56-N , 57-S ) :   1.2604 B( 56-N , 58-N ) :   0.1500
B( 57-S , 58-N ) :   1.3068

-----------------------------------------------------------------------------
         ABSORPTION SPECTRUM VIA TRANSITION ELECTRIC DIPOLE MOMENTS
-----------------------------------------------------------------------------
State   Energy  Wavelength   fosc         T2         TX        TY        TZ
        (cm-1)    (nm)                  (au**2)     (au)      (au)      (au)
-----------------------------------------------------------------------------
   0   12925.6    773.7   0.584627079  14.89027   0.57313   3.76694   0.60986
   1   13815.6    723.8   0.014311117   0.34102  -0.31155  -0.21348   0.44540
   2   18051.1    554.0   1.019342796  18.59052   0.65593   4.21352   0.63758
   3   21876.0    457.1   0.034241089   0.51529   0.34078   0.51449  -0.36670
   4   22815.0    438.3   0.242388043   3.49757  -0.43435   1.25728   1.31460
   5   23107.9    432.8   0.246014946   3.50492  -0.61103  -1.74946   0.26635
   6   24075.6    415.4   0.060389853   0.82578   0.16049   0.88401   0.13619
   7   26852.5    372.4   0.019417834   0.23806   0.21387   0.38990  -0.20075
   8   28974.2    345.1   0.069126773   0.78544  -0.12284  -0.86119  -0.16939
   9   29991.8    333.4   0.168260376   1.84695   0.70153   0.16514  -1.15219
  10   30330.0    329.7   0.066159475   0.71812  -0.14873   0.70584   0.44474
  11   30527.7    327.6   0.000494294   0.00533  -0.06978   0.00336  -0.02122
  12   30676.5    326.0   0.400546587   4.29855   1.06346   0.25516  -1.76139
  13   30963.2    323.0   0.001315991   0.01399  -0.01266  -0.01986   0.11592
  14   31240.9    320.1   0.042766418   0.45067  -0.15491   0.50607   0.41299
  15   31464.8    317.8   0.000497662   0.00521   0.05553   0.02036   0.04134
  16   31563.3    316.8   0.160877516   1.67799  -0.56574   0.32993   1.11762
  17   32178.8    310.8   0.494068961   5.05468  -0.53994  -2.18174   0.05601
  18   32818.7    304.7   0.464374469   4.65825  -0.15137   1.88209   1.04550
  19   32898.0    304.0   0.251238872   2.51416   0.51878   1.47358  -0.27126
  20   33528.9    298.2   0.237641475   2.33334  -0.56063  -1.38590   0.31356
  21   33903.6    295.0   0.198843964   1.93082   0.61644  -0.29634  -1.20955
  22   34873.5    286.8   0.015049781   0.14207   0.17441  -0.02670  -0.33308
  23   35333.0    283.0   0.049106710   0.45755   0.02146  -0.62177  -0.26549
  24   35944.0    278.2   0.048197607   0.44144  -0.32185  -0.40249   0.41935
  25   36225.2    276.1   0.069467052   0.63131  -0.00326   0.73283   0.30702
  26   36558.0    273.5   0.205414257   1.84979  -0.64888   0.14320   1.18669
  27   36710.8    272.4   0.055860248   0.50094   0.34823   0.50386  -0.35468
  28   37693.0    265.3   0.000051405   0.00045  -0.01014   0.01067  -0.01524
  29   37925.7    263.7   0.039811797   0.34558  -0.11080   0.43025   0.38496
  30   37933.9    263.6   0.000235532   0.00204   0.04026  -0.01473  -0.01437
  31   38002.5    263.1   0.044184393   0.38277  -0.09670  -0.60449  -0.08948
  32   38318.5    261.0   0.000014590   0.00013   0.00465  -0.00578  -0.00839
  33   38469.1    259.9   0.044442417   0.38033   0.18322   0.58786  -0.03430
  34   38588.9    259.1   0.001554394   0.01326   0.05786   0.07875  -0.06092
  35   38738.2    258.1   0.019977173   0.16977  -0.15680   0.18355   0.33391
  36   39075.9    255.9   0.012356706   0.10410  -0.17889  -0.13528   0.23195
  37   39251.4    254.8   0.021970520   0.18427  -0.20675   0.07185   0.36928
  38   39741.8    251.6   0.079275613   0.65670  -0.08988  -0.78197  -0.19272
  39   39775.5    251.4   0.058530126   0.48444  -0.37732  -0.15362   0.56433
  40   40325.1    248.0   0.035005049   0.28578   0.16294  -0.32510  -0.39184

FINAL SINGLE POINT ENERGY     -4986.914823638061

DIPOLE MOMENT
-------------
                                X             Y             Z
Electronic contribution:      4.93789      -1.45212      -8.94811
Nuclear contribution   :     -6.11086       1.49266      11.04036
                        -----------------------------------------
Total Dipole Moment    :     -1.17297       0.04054       2.09225
                        -----------------------------------------
Magnitude (a.u.)       :      2.39896
Magnitude (Debye)      :      6.09768

Rotational constants in cm-1:     0.003701     0.000280     0.000260
Rotational constants in MHz :   110.939106     8.381985     7.793638

                             ****ORCA TERMINATED NORMALLY****
TOTAL RUN TIME: 0 days 0 hours 5 minutes 32 seconds 112 msec
