                         Program Version 4.2.0 -  RELEASE  -
|  1> # ORCA input file
|  2> # SCF done       -217.652288326412          0.000980914568
|  3> ! CAM-B3LYP def2-SVP def2/J RIJCOSX Grid4 TightSCF
|  4> %maxcore 5000
|  5> %tddft
|  6>     Mode sTDDFT
|  7>     Ethresh 5.0
|  8>     maxcore 5000
|  9> end
| 10>
| 11> %pal
| 12>   nprocs 6
| 13>   end
| 14> * xyz 0 1
| 15>    C       -4.97433         1.43945        -5.57338
| 16>    C       -5.09988         1.47643        -6.93399
| 17>    F       -5.13354         2.65114        -7.57534
| 18>    C       -5.19604         0.28337        -7.67822
| 19>    F       -5.31971         0.34939        -9.01038
| 20>    C       -5.16477        -0.93082        -7.05128
| 21>    C       -5.03772        -1.00148        -5.65052
| 22>    C       -4.94050         0.20383        -4.89659
| 23>    C       -4.81521         0.15828        -3.48864
| 24>    C       -4.79221        -1.05508        -2.85340
| 25>    C       -4.89387        -2.25248        -3.61564
| 26>    C       -5.01028        -2.24197        -4.97562
| 27>    C       -4.86458        -3.40630        -2.70306
| 28>    O       -4.91396        -4.58198        -3.02432
| 29>    C       -4.77678        -2.85744        -1.34654
| 30>    C       -4.68267        -1.41176        -1.43981
| 31>    C       -4.49738        -0.52145        -0.41500
| 32>    C       -4.34178        -0.85395         0.94764
| 33>    N       -4.19489        -1.04400         2.07041
| 34>    C       -4.41498         0.87646        -0.59086
| 35>    N       -4.34527         2.01948        -0.66621
| 36>    C       -4.84414        -3.58851        -0.18663
| 37>    C       -4.97009        -4.97145         0.00819
| 38>    C       -5.10653        -5.52602         1.28858
| 39>    C       -5.23978        -6.89968         1.25959
| 40>    C       -5.18731        -7.41320        -0.05968
| 41>    S       -4.99532        -6.21047        -1.24792
| 42>    C       -5.34754        -8.81726         0.01382
| 43>    C       -5.50376        -9.19476         1.36081
| 44>    C       -5.43530        -8.00282         2.18973
| 45>    C       -5.54072        -7.93733         3.54730
| 46>    C       -5.72985        -9.08811         4.34282
| 47>    N       -5.88418       -10.01857         4.99463
| 48>    C       -5.47134        -6.71511         4.25001
| 49>    N       -5.42038        -5.72659         4.82806
| 50>    C       -5.69474       -10.56598         1.52207
| 51>    C       -5.68031       -11.23537         0.31218
| 52>    S       -5.42217       -10.15171        -1.04705
| 53>    C       -5.87087       -12.63476         0.09470
| 54>    C       -5.76748       -13.22037        -1.16678
| 55>    N       -5.96705       -14.49594        -1.44433
| 56>    C       -6.30083       -15.36092        -0.49760
| 57>    C       -6.42421       -14.91860         0.84720
| 58>    C       -6.20022       -13.53109         1.14580
| 59>    N       -6.35524       -13.27819         2.44488
| 60>    S       -6.73675       -14.63953         3.20506
| 61>    N       -6.73154       -15.62092         1.93550
| 62>    C       -6.53414       -16.70754        -0.90247
| 63>    C       -6.97477       -17.78167        -0.15097
| 64>    C       -7.11575       -18.92446        -0.93459
| 65>    C       -6.76504       -18.70712        -2.28409
| 66>    S       -6.27693       -17.10145        -2.58737
| 67>    C       -6.94416       -19.91998        -2.99494
| 68>    C       -7.42621       -20.89665        -2.09881
| 69>    C       -7.53230       -20.30730        -0.77396
| 70>    C       -7.91095       -20.94298         0.37198
| 71>    C       -8.27332       -22.30699         0.36497
| 72>    N       -8.57172       -23.41392         0.33637
| 73>    C       -7.96802       -20.28529         1.61892
| 74>    N       -8.02168       -19.75013         2.63119
| 75>    C       -7.62785       -22.13089        -2.69927
| 76>    C       -7.28740       -22.12169        -4.04602
| 77>    S       -6.74755       -20.52893        -4.56973
| 78>    C       -7.36663       -23.15859        -4.99822
| 79>    C       -7.52827       -24.49896        -4.81087
| 80>    C       -8.00920       -25.31648        -5.96234
| 81>    O       -8.05252       -24.97269        -7.12028
| 82>    C       -8.46728       -26.58797        -5.37049
| 83>    C       -9.11403       -27.63016        -5.96967
| 84>    C       -9.50581       -28.73695        -5.18379
| 85>    C       -9.22806       -28.73628        -3.78563
| 86>    C       -9.63945       -29.83527        -3.00514
| 87>    C      -10.28933       -30.88791        -3.58609
| 88>    C      -10.55768       -30.89029        -4.96991
| 89>    C      -10.17504       -29.83779        -5.75321
| 90>    F      -11.19527       -31.93595        -5.51249
| 91>    F      -10.67940       -31.93144        -2.84343
| 92>    C       -8.54468       -27.64826        -3.19526
| 93>    C       -8.15989       -26.59481        -3.98005
| 94>    C       -7.42700       -25.37093        -3.66015
| 95>    C       -6.59280       -25.22266        -2.58269
| 96>    C       -5.71260       -24.13572        -2.41950
| 97>    N       -4.96921       -23.27447        -2.26531
| 98>    C       -6.44849       -26.19083        -1.56606
| 99>    N       -6.29456       -26.94972        -0.71970
|100>    H       -4.90147         2.36207        -5.01903
|101>    H       -5.23954        -1.83479        -7.63521
|102>    H       -4.74635         1.08896        -2.94964
|103>    H       -5.08376        -3.16652        -5.52783
|104>    H       -4.82335        -3.03310         0.74340
|105>    H       -5.11090        -4.91898         2.17679
|106>    H       -5.84408       -11.07767         2.45528
|107>    H       -5.50747       -12.60876        -2.02133
|108>    H       -7.17647       -17.70392         0.90206
|109>    H       -8.04694       -22.98824        -2.20568
|110>    H       -7.36853       -22.84769        -6.03899
|111>    H       -9.32715       -27.60929        -7.02754
|112>    H       -9.43845       -29.85123        -1.94539
|113>    H      -10.38892       -29.85394        -6.81041
|114>    H       -8.35430       -27.66816        -2.13404
|115> *
|116>
|117>                          ****END OF INPUT****

CARTESIAN COORDINATES (ANGSTROEM)
---------------------------------
  C     -4.974330    1.439450   -5.573380
  C     -5.099880    1.476430   -6.933990
  F     -5.133540    2.651140   -7.575340
  C     -5.196040    0.283370   -7.678220
  F     -5.319710    0.349390   -9.010380
  C     -5.164770   -0.930820   -7.051280
  C     -5.037720   -1.001480   -5.650520
  C     -4.940500    0.203830   -4.896590
  C     -4.815210    0.158280   -3.488640
  C     -4.792210   -1.055080   -2.853400
  C     -4.893870   -2.252480   -3.615640
  C     -5.010280   -2.241970   -4.975620
  C     -4.864580   -3.406300   -2.703060
  O     -4.913960   -4.581980   -3.024320
  C     -4.776780   -2.857440   -1.346540
  C     -4.682670   -1.411760   -1.439810
  C     -4.497380   -0.521450   -0.415000
  C     -4.341780   -0.853950    0.947640
  N     -4.194890   -1.044000    2.070410
  C     -4.414980    0.876460   -0.590860
  N     -4.345270    2.019480   -0.666210
  C     -4.844140   -3.588510   -0.186630
  C     -4.970090   -4.971450    0.008190
  C     -5.106530   -5.526020    1.288580
  C     -5.239780   -6.899680    1.259590
  C     -5.187310   -7.413200   -0.059680
  S     -4.995320   -6.210470   -1.247920
  C     -5.347540   -8.817260    0.013820
  C     -5.503760   -9.194760    1.360810
  C     -5.435300   -8.002820    2.189730
  C     -5.540720   -7.937330    3.547300
  C     -5.729850   -9.088110    4.342820
  N     -5.884180  -10.018570    4.994630
  C     -5.471340   -6.715110    4.250010
  N     -5.420380   -5.726590    4.828060
  C     -5.694740  -10.565980    1.522070
  C     -5.680310  -11.235370    0.312180
  S     -5.422170  -10.151710   -1.047050
  C     -5.870870  -12.634760    0.094700
  C     -5.767480  -13.220370   -1.166780
  N     -5.967050  -14.495940   -1.444330
  C     -6.300830  -15.360920   -0.497600
  C     -6.424210  -14.918600    0.847200
  C     -6.200220  -13.531090    1.145800
  N     -6.355240  -13.278190    2.444880
  S     -6.736750  -14.639530    3.205060
  N     -6.731540  -15.620920    1.935500
  C     -6.534140  -16.707540   -0.902470
  C     -6.974770  -17.781670   -0.150970
  C     -7.115750  -18.924460   -0.934590
  C     -6.765040  -18.707120   -2.284090
  S     -6.276930  -17.101450   -2.587370
  C     -6.944160  -19.919980   -2.994940
  C     -7.426210  -20.896650   -2.098810
  C     -7.532300  -20.307300   -0.773960
  C     -7.910950  -20.942980    0.371980
  C     -8.273320  -22.306990    0.364970
  N     -8.571720  -23.413920    0.336370
  C     -7.968020  -20.285290    1.618920
  N     -8.021680  -19.750130    2.631190
  C     -7.627850  -22.130890   -2.699270
  C     -7.287400  -22.121690   -4.046020
  S     -6.747550  -20.528930   -4.569730
  C     -7.366630  -23.158590   -4.998220
  C     -7.528270  -24.498960   -4.810870
  C     -8.009200  -25.316480   -5.962340
  O     -8.052520  -24.972690   -7.120280
  C     -8.467280  -26.587970   -5.370490
  C     -9.114030  -27.630160   -5.969670
  C     -9.505810  -28.736950   -5.183790
  C     -9.228060  -28.736280   -3.785630
  C     -9.639450  -29.835270   -3.005140
  C    -10.289330  -30.887910   -3.586090
  C    -10.557680  -30.890290   -4.969910
  C    -10.175040  -29.837790   -5.753210
  F    -11.195270  -31.935950   -5.512490
  F    -10.679400  -31.931440   -2.843430
  C     -8.544680  -27.648260   -3.195260
  C     -8.159890  -26.594810   -3.980050
  C     -7.427000  -25.370930   -3.660150
  C     -6.592800  -25.222660   -2.582690
  C     -5.712600  -24.135720   -2.419500
  N     -4.969210  -23.274470   -2.265310
  C     -6.448490  -26.190830   -1.566060
  N     -6.294560  -26.949720   -0.719700
  H     -4.901470    2.362070   -5.019030
  H     -5.239540   -1.834790   -7.635210
  H     -4.746350    1.088960   -2.949640
  H     -5.083760   -3.166520   -5.527830
  H     -4.823350   -3.033100    0.743400
  H     -5.110900   -4.918980    2.176790
  H     -5.844080  -11.077670    2.455280
  H     -5.507470  -12.608760   -2.021330
  H     -7.176470  -17.703920    0.902060
  H     -8.046940  -22.988240   -2.205680
  H     -7.368530  -22.847690   -6.038990
  H     -9.327150  -27.609290   -7.027540
  H     -9.438450  -29.851230   -1.945390
  H    -10.388920  -29.853940   -6.810410
  H     -8.354300  -27.668160   -2.134040

 Total Charge           Charge          ....    0
 Multiplicity           Mult            ....    1
 Number of Electrons    NEL             ....  602
 Basis Dimension        Dim             .... 1285

ORBITAL ENERGIES
----------------

  NO   OCC          E(Eh)            E(eV)
   0   2.0000     -89.053046     -2423.2566
   1   2.0000     -89.003178     -2421.8996
   2   2.0000     -88.999869     -2421.8096
   3   2.0000     -88.998250     -2421.7655
   4   2.0000     -88.996775     -2421.7254
   5   2.0000     -24.802939      -674.9223
   6   2.0000     -24.801744      -674.8898
   7   2.0000     -24.800214      -674.8481
   8   2.0000     -24.799431      -674.8268
   9   2.0000     -19.231902      -523.3267
  10   2.0000     -19.221767      -523.0509
  11   2.0000     -14.468973      -393.7208
  12   2.0000     -14.463414      -393.5695
  13   2.0000     -14.438369      -392.8880
  14   2.0000     -14.438126      -392.8814
  15   2.0000     -14.436098      -392.8262
  16   2.0000     -14.435214      -392.8021
  17   2.0000     -14.435028      -392.7971
  18   2.0000     -14.423932      -392.4951
  19   2.0000     -14.421999      -392.4425
  20   2.0000     -14.419422      -392.3724
  21   2.0000     -14.418686      -392.3524
  22   2.0000     -10.386256      -282.6244
  23   2.0000     -10.385506      -282.6040
  24   2.0000     -10.383607      -282.5523
  25   2.0000     -10.383147      -282.5398
  26   2.0000     -10.379708      -282.4462
  27   2.0000     -10.373132      -282.2673
  28   2.0000     -10.372697      -282.2554
  29   2.0000     -10.371641      -282.2267
  30   2.0000     -10.359994      -281.9098
  31   2.0000     -10.359189      -281.8879
  32   2.0000     -10.358698      -281.8745
  33   2.0000     -10.353898      -281.7439
  34   2.0000     -10.350542      -281.6526
  35   2.0000     -10.350354      -281.6475
  36   2.0000     -10.349607      -281.6271
  37   2.0000     -10.348976      -281.6100
  38   2.0000     -10.348257      -281.5904
  39   2.0000     -10.347627      -281.5732
  40   2.0000     -10.343428      -281.4590
  41   2.0000     -10.341397      -281.4037
  42   2.0000     -10.341173      -281.3976
  43   2.0000     -10.338571      -281.3268
  44   2.0000     -10.338322      -281.3200
  45   2.0000     -10.338096      -281.3139
  46   2.0000     -10.335974      -281.2562
  47   2.0000     -10.335692      -281.2485
  48   2.0000     -10.335151      -281.2338
  49   2.0000     -10.334614      -281.2191
  50   2.0000     -10.334335      -281.2116
  51   2.0000     -10.333687      -281.1939
  52   2.0000     -10.331858      -281.1441
  53   2.0000     -10.330800      -281.1154
  54   2.0000     -10.325330      -280.9665
  55   2.0000     -10.324751      -280.9508
  56   2.0000     -10.324321      -280.9391
  57   2.0000     -10.322417      -280.8872
  58   2.0000     -10.320861      -280.8449
  59   2.0000     -10.320040      -280.8226
  60   2.0000     -10.319823      -280.8167
  61   2.0000     -10.315727      -280.7052
  62   2.0000     -10.315715      -280.7049
  63   2.0000     -10.315611      -280.7020
  64   2.0000     -10.315374      -280.6956
  65   2.0000     -10.314567      -280.6736
  66   2.0000     -10.313480      -280.6440
  67   2.0000     -10.313163      -280.6354
  68   2.0000     -10.312976      -280.6303
  69   2.0000     -10.312407      -280.6149
  70   2.0000     -10.311688      -280.5953
  71   2.0000     -10.310735      -280.5694
  72   2.0000     -10.309090      -280.5246
  73   2.0000     -10.307401      -280.4786
  74   2.0000     -10.307374      -280.4779
  75   2.0000     -10.306528      -280.4549
  76   2.0000     -10.306269      -280.4478
  77   2.0000     -10.306165      -280.4450
  78   2.0000     -10.305478      -280.4263
  79   2.0000     -10.305446      -280.4254
  80   2.0000     -10.304940      -280.4117
  81   2.0000     -10.303551      -280.3739
  82   2.0000     -10.302425      -280.3432
  83   2.0000     -10.299694      -280.2689
  84   2.0000     -10.297836      -280.2184
  85   2.0000      -8.144401      -221.6204
  86   2.0000      -8.097852      -220.3538
  87   2.0000      -8.094346      -220.2583
  88   2.0000      -8.092191      -220.1997
  89   2.0000      -8.088967      -220.1120
  90   2.0000      -6.115614      -166.4143
  91   2.0000      -6.107583      -166.1958
  92   2.0000      -6.107076      -166.1820
  93   2.0000      -6.066970      -165.0906
  94   2.0000      -6.063565      -164.9980
  95   2.0000      -6.062846      -164.9784
  96   2.0000      -6.061385      -164.9387
  97   2.0000      -6.060400      -164.9119
  98   2.0000      -6.059404      -164.8848
  99   2.0000      -6.058398      -164.8574
 100   2.0000      -6.057119      -164.8226
 101   2.0000      -6.056779      -164.8133
 102   2.0000      -6.054783      -164.7590
 103   2.0000      -6.053618      -164.7273
 104   2.0000      -6.051569      -164.6716
 105   2.0000      -1.325428       -36.0667
 106   2.0000      -1.322932       -35.9988
 107   2.0000      -1.310536       -35.6615
 108   2.0000      -1.308063       -35.5942
 109   2.0000      -1.153643       -31.3922
 110   2.0000      -1.147532       -31.2259
 111   2.0000      -1.137602       -30.9557
 112   2.0000      -1.075353       -29.2618
 113   2.0000      -1.055192       -28.7132
 114   2.0000      -1.053239       -28.6601
 115   2.0000      -1.029281       -28.0082
 116   2.0000      -1.027406       -27.9571
 117   2.0000      -1.025742       -27.9119
 118   2.0000      -1.025641       -27.9091
 119   2.0000      -1.015014       -27.6199
 120   2.0000      -1.014011       -27.5926
 121   2.0000      -1.012111       -27.5409
 122   2.0000      -1.010068       -27.4853
 123   2.0000      -1.008714       -27.4485
 124   2.0000      -1.006607       -27.3912
 125   2.0000      -1.001812       -27.2607
 126   2.0000      -0.999354       -27.1938
 127   2.0000      -0.998648       -27.1746
 128   2.0000      -0.987387       -26.8682
 129   2.0000      -0.985513       -26.8172
 130   2.0000      -0.969421       -26.3793
 131   2.0000      -0.967373       -26.3236
 132   2.0000      -0.939616       -25.5683
 133   2.0000      -0.938070       -25.5262
 134   2.0000      -0.934620       -25.4323
 135   2.0000      -0.926896       -25.2221
 136   2.0000      -0.920020       -25.0350
 137   2.0000      -0.910083       -24.7646
 138   2.0000      -0.906119       -24.6567
 139   2.0000      -0.898543       -24.4506
 140   2.0000      -0.896388       -24.3919
 141   2.0000      -0.894511       -24.3409
 142   2.0000      -0.885234       -24.0884
 143   2.0000      -0.884714       -24.0743
 144   2.0000      -0.874738       -23.8028
 145   2.0000      -0.867324       -23.6011
 146   2.0000      -0.866219       -23.5710
 147   2.0000      -0.864104       -23.5135
 148   2.0000      -0.846050       -23.0222
 149   2.0000      -0.843858       -22.9625
 150   2.0000      -0.836863       -22.7722
 151   2.0000      -0.824051       -22.4236
 152   2.0000      -0.813071       -22.1248
 153   2.0000      -0.787373       -21.4255
 154   2.0000      -0.785782       -21.3822
 155   2.0000      -0.783198       -21.3119
 156   2.0000      -0.776855       -21.1393
 157   2.0000      -0.774720       -21.0812
 158   2.0000      -0.769744       -20.9458
 159   2.0000      -0.753956       -20.5162
 160   2.0000      -0.750815       -20.4307
 161   2.0000      -0.741675       -20.1820
 162   2.0000      -0.734700       -19.9922
 163   2.0000      -0.725905       -19.7529
 164   2.0000      -0.722482       -19.6597
 165   2.0000      -0.719735       -19.5850
 166   2.0000      -0.715512       -19.4701
 167   2.0000      -0.709613       -19.3096
 168   2.0000      -0.701571       -19.0907
 169   2.0000      -0.696746       -18.9594
 170   2.0000      -0.693585       -18.8734
 171   2.0000      -0.690868       -18.7995
 172   2.0000      -0.686609       -18.6836
 173   2.0000      -0.683671       -18.6036
 174   2.0000      -0.672815       -18.3082
 175   2.0000      -0.667422       -18.1615
 176   2.0000      -0.660381       -17.9699
 177   2.0000      -0.657908       -17.9026
 178   2.0000      -0.654507       -17.8100
 179   2.0000      -0.649237       -17.6666
 180   2.0000      -0.645824       -17.5738
 181   2.0000      -0.644885       -17.5482
 182   2.0000      -0.642646       -17.4873
 183   2.0000      -0.639279       -17.3957
 184   2.0000      -0.630723       -17.1628
 185   2.0000      -0.625615       -17.0238
 186   2.0000      -0.624851       -17.0031
 187   2.0000      -0.620493       -16.8845
 188   2.0000      -0.619594       -16.8600
 189   2.0000      -0.619226       -16.8500
 190   2.0000      -0.614796       -16.7295
 191   2.0000      -0.599408       -16.3107
 192   2.0000      -0.597189       -16.2503
 193   2.0000      -0.592044       -16.1103
 194   2.0000      -0.589900       -16.0520
 195   2.0000      -0.587481       -15.9862
 196   2.0000      -0.587325       -15.9819
 197   2.0000      -0.582274       -15.8445
 198   2.0000      -0.580611       -15.7992
 199   2.0000      -0.578773       -15.7492
 200   2.0000      -0.575197       -15.6519
 201   2.0000      -0.564448       -15.3594
 202   2.0000      -0.561957       -15.2916
 203   2.0000      -0.557836       -15.1795
 204   2.0000      -0.557282       -15.1644
 205   2.0000      -0.556727       -15.1493
 206   2.0000      -0.556328       -15.1385
 207   2.0000      -0.551420       -15.0049
 208   2.0000      -0.549123       -14.9424
 209   2.0000      -0.548968       -14.9382
 210   2.0000      -0.547763       -14.9054
 211   2.0000      -0.542466       -14.7612
 212   2.0000      -0.541302       -14.7296
 213   2.0000      -0.541236       -14.7278
 214   2.0000      -0.536531       -14.5998
 215   2.0000      -0.536162       -14.5897
 216   2.0000      -0.533283       -14.5114
 217   2.0000      -0.529658       -14.4127
 218   2.0000      -0.523848       -14.2546
 219   2.0000      -0.522338       -14.2135
 220   2.0000      -0.520871       -14.1736
 221   2.0000      -0.518796       -14.1172
 222   2.0000      -0.518148       -14.0995
 223   2.0000      -0.515089       -14.0163
 224   2.0000      -0.512768       -13.9531
 225   2.0000      -0.512089       -13.9346
 226   2.0000      -0.511546       -13.9199
 227   2.0000      -0.510067       -13.8796
 228   2.0000      -0.506283       -13.7767
 229   2.0000      -0.504950       -13.7404
 230   2.0000      -0.502570       -13.6756
 231   2.0000      -0.502068       -13.6620
 232   2.0000      -0.499185       -13.5835
 233   2.0000      -0.496311       -13.5053
 234   2.0000      -0.494506       -13.4562
 235   2.0000      -0.492524       -13.4023
 236   2.0000      -0.489935       -13.3318
 237   2.0000      -0.488469       -13.2919
 238   2.0000      -0.485297       -13.2056
 239   2.0000      -0.482482       -13.1290
 240   2.0000      -0.481271       -13.0961
 241   2.0000      -0.475711       -12.9447
 242   2.0000      -0.470538       -12.8040
 243   2.0000      -0.469774       -12.7832
 244   2.0000      -0.468090       -12.7374
 245   2.0000      -0.465819       -12.6756
 246   2.0000      -0.465463       -12.6659
 247   2.0000      -0.464838       -12.6489
 248   2.0000      -0.462507       -12.5855
 249   2.0000      -0.461941       -12.5701
 250   2.0000      -0.457319       -12.4443
 251   2.0000      -0.456861       -12.4318
 252   2.0000      -0.455654       -12.3990
 253   2.0000      -0.454153       -12.3581
 254   2.0000      -0.452454       -12.3119
 255   2.0000      -0.451590       -12.2884
 256   2.0000      -0.449903       -12.2425
 257   2.0000      -0.448304       -12.1990
 258   2.0000      -0.446861       -12.1597
 259   2.0000      -0.446678       -12.1547
 260   2.0000      -0.445300       -12.1172
 261   2.0000      -0.444867       -12.1054
 262   2.0000      -0.443978       -12.0813
 263   2.0000      -0.440468       -11.9857
 264   2.0000      -0.438833       -11.9413
 265   2.0000      -0.435370       -11.8470
 266   2.0000      -0.433890       -11.8068
 267   2.0000      -0.433430       -11.7942
 268   2.0000      -0.432288       -11.7632
 269   2.0000      -0.432231       -11.7616
 270   2.0000      -0.430481       -11.7140
 271   2.0000      -0.425696       -11.5838
 272   2.0000      -0.423289       -11.5183
 273   2.0000      -0.422806       -11.5051
 274   2.0000      -0.422063       -11.4849
 275   2.0000      -0.416152       -11.3241
 276   2.0000      -0.412537       -11.2257
 277   2.0000      -0.408462       -11.1148
 278   2.0000      -0.406243       -11.0544
 279   2.0000      -0.395649       -10.7662
 280   2.0000      -0.394527       -10.7356
 281   2.0000      -0.391026       -10.6404
 282   2.0000      -0.387771       -10.5518
 283   2.0000      -0.379566       -10.3285
 284   2.0000      -0.375702       -10.2234
 285   2.0000      -0.366502        -9.9730
 286   2.0000      -0.364140        -9.9088
 287   2.0000      -0.357255        -9.7214
 288   2.0000      -0.356535        -9.7018
 289   2.0000      -0.349214        -9.5026
 290   2.0000      -0.347817        -9.4646
 291   2.0000      -0.341350        -9.2886
 292   2.0000      -0.331881        -9.0310
 293   2.0000      -0.329236        -8.9590
 294   2.0000      -0.323240        -8.7958
 295   2.0000      -0.321075        -8.7369
 296   2.0000      -0.318059        -8.6548
 297   2.0000      -0.305957        -8.3255
 298   2.0000      -0.303685        -8.2637
 299   2.0000      -0.282935        -7.6990
 300   2.0000      -0.259168        -7.0523
 301   0.0000      -0.126561        -3.4439
 302   0.0000      -0.115343        -3.1386
 303   0.0000      -0.097997        -2.6666
 304   0.0000      -0.094982        -2.5846
 305   0.0000      -0.090022        -2.4496

MULLIKEN ATOMIC CHARGES
-----------------------
   0 C :   -0.106138
   1 C :    0.241920
   2 F :   -0.169430
   3 C :    0.238122
   4 F :   -0.171244
   5 C :   -0.103116
   6 C :    0.115076
   7 C :    0.110623
   8 C :   -0.081144
   9 C :    0.049974
  10 C :   -0.006213
  11 C :   -0.079340
  12 C :    0.167972
  13 O :   -0.189973
  14 C :   -0.094593
  15 C :    0.327474
  16 C :   -0.350856
  17 C :   -0.191498
  18 N :    0.154253
  19 C :   -0.181582
  20 N :    0.147854
  21 C :   -0.026020
  22 C :   -0.055132
  23 C :   -0.058832
  24 C :    0.047126
  25 C :   -0.068283
  26 S :    0.244139
  27 C :   -0.095622
  28 C :    0.034084
  29 C :    0.305343
  30 C :   -0.293990
  31 C :   -0.185698
  32 N :    0.176739
  33 C :   -0.195797
  34 N :    0.184726
  35 C :   -0.058023
  36 C :   -0.093906
  37 S :    0.178570
  38 C :    0.075376
  39 C :   -0.053147
  40 N :   -0.060828
  41 C :    0.034621
  42 C :    0.006290
  43 C :    0.045391
  44 N :   -0.281740
  45 S :    0.565929
  46 N :   -0.257130
  47 C :   -0.117705
  48 C :   -0.048891
  49 C :    0.014794
  50 C :   -0.090033
  51 S :    0.244276
  52 C :   -0.079396
  53 C :   -0.003423
  54 C :    0.308923
  55 C :   -0.288068
  56 C :   -0.183212
  57 N :    0.169767
  58 C :   -0.187595
  59 N :    0.179701
  60 C :    0.000122
  61 C :   -0.109476
  62 S :    0.217668
  63 C :    0.088844
  64 C :   -0.139980
  65 C :    0.137409
  66 O :   -0.142610
  67 C :    0.018706
  68 C :   -0.084466
  69 C :    0.113725
  70 C :    0.111839
  71 C :   -0.106975
  72 C :    0.242661
  73 C :    0.241717
  74 C :   -0.107100
  75 F :   -0.171617
  76 F :   -0.169968
  77 C :   -0.079323
  78 C :    0.029852
  79 C :    0.265848
  80 C :   -0.326811
  81 C :   -0.201947
  82 N :    0.167716
  83 C :   -0.166765
  84 N :    0.162570
  85 H :    0.009655
  86 H :   -0.001264
  87 H :   -0.005516
  88 H :   -0.011201
  89 H :    0.018651
  90 H :    0.029740
  91 H :    0.022949
  92 H :    0.011347
  93 H :    0.021258
  94 H :    0.025782
  95 H :    0.021462
  96 H :   -0.008149
  97 H :    0.008437
  98 H :    0.000513
  99 H :    0.003229
Sum of atomic charges:    0.0000000

LOEWDIN ATOMIC CHARGES
----------------------
   0 C :   -0.028547
   1 C :    0.067269
   2 F :   -0.047378
   3 C :    0.067989
   4 F :   -0.048645
   5 C :   -0.033116
   6 C :   -0.009359
   7 C :   -0.006102
   8 C :    0.018745
   9 C :   -0.021579
  10 C :   -0.052987
  11 C :    0.030193
  12 C :    0.085481
  13 O :   -0.176058
  14 C :   -0.112189
  15 C :    0.075625
  16 C :   -0.139657
  17 C :   -0.023754
  18 N :   -0.046150
  19 C :   -0.017243
  20 N :   -0.052345
  21 C :    0.058348
  22 C :   -0.183552
  23 C :    0.014134
  24 C :   -0.076147
  25 C :   -0.165949
  26 S :    0.548773
  27 C :   -0.184461
  28 C :   -0.054836
  29 C :    0.076370
  30 C :   -0.096807
  31 C :   -0.017229
  32 N :   -0.027508
  33 C :   -0.020212
  34 N :   -0.022679
  35 C :   -0.021689
  36 C :   -0.149882
  37 S :    0.481874
  38 C :   -0.069899
  39 C :    0.012926
  40 N :   -0.082668
  41 C :    0.001503
  42 C :   -0.061311
  43 C :   -0.029999
  44 N :   -0.276651
  45 S :    0.690536
  46 N :   -0.263722
  47 C :   -0.173350
  48 C :   -0.007259
  49 C :   -0.063849
  50 C :   -0.175888
  51 S :    0.520848
  52 C :   -0.162065
  53 C :   -0.061170
  54 C :    0.080564
  55 C :   -0.095955
  56 C :   -0.012291
  57 N :   -0.032170
  58 C :   -0.017888
  59 N :   -0.025806
  60 C :    0.010783
  61 C :   -0.178352
  62 S :    0.502923
  63 C :    0.042367
  64 C :   -0.090436
  65 C :    0.083642
  66 O :   -0.142351
  67 C :   -0.055164
  68 C :    0.031189
  69 C :   -0.009419
  70 C :   -0.005042
  71 C :   -0.029129
  72 C :    0.067696
  73 C :    0.067672
  74 C :   -0.032972
  75 F :   -0.048980
  76 F :   -0.047706
  77 C :    0.017068
  78 C :   -0.019984
  79 C :    0.064705
  80 C :   -0.134222
  81 C :   -0.015631
  82 N :   -0.044100
  83 C :   -0.018501
  84 N :   -0.043154
  85 H :    0.048420
  86 H :    0.044538
  87 H :    0.040466
  88 H :    0.039837
  89 H :    0.054179
  90 H :    0.048681
  91 H :    0.040459
  92 H :    0.019623
  93 H :    0.042620
  94 H :    0.042803
  95 H :    0.046211
  96 H :    0.040963
  97 H :    0.048309
  98 H :    0.045043
  99 H :    0.041771

  Mayer bond orders larger than 0.100000
B(  0-C ,  1-C ) :   1.4391 B(  0-C ,  5-C ) :   0.1078 B(  0-C ,  7-C ) :   1.1901
B(  0-C , 85-H ) :   1.0073 B(  1-C ,  2-F ) :   1.1374 B(  1-C ,  3-C ) :   1.1913
B(  3-C ,  4-F ) :   1.1334 B(  3-C ,  5-C ) :   1.4427 B(  5-C ,  6-C ) :   1.1928
B(  5-C , 86-H ) :   1.0074 B(  6-C ,  7-C ) :   1.2562 B(  6-C , 11-C ) :   1.1871
B(  7-C ,  8-C ) :   1.2141 B(  8-C ,  9-C ) :   1.4551 B(  8-C , 87-H ) :   0.9900
B(  9-C , 10-C ) :   1.2199 B(  9-C , 15-C ) :   0.9826 B( 10-C , 11-C ) :   1.4699
B( 10-C , 12-C ) :   0.9614 B( 11-C , 88-H ) :   1.0171 B( 12-C , 13-O ) :   2.1125
B( 12-C , 14-C ) :   0.9862 B( 14-C , 15-C ) :   1.0800 B( 14-C , 21-C ) :   1.4780
B( 15-C , 16-C ) :   1.6285 B( 16-C , 17-C ) :   1.1407 B( 16-C , 19-C ) :   1.1484
B( 17-C , 18-N ) :   2.9646 B( 19-C , 20-N ) :   2.9593 B( 21-C , 22-C ) :   1.2773
B( 21-C , 89-H ) :   0.9420 B( 22-C , 23-C ) :   1.3190 B( 22-C , 26-S ) :   1.0684
B( 23-C , 24-C ) :   1.3399 B( 23-C , 90-H ) :   1.0088 B( 24-C , 25-C ) :   1.3509
B( 24-C , 29-C ) :   0.9812 B( 25-C , 26-S ) :   1.1274 B( 25-C , 27-C ) :   1.2032
B( 27-C , 28-C ) :   1.4288 B( 27-C , 37-S ) :   1.1171 B( 28-C , 29-C ) :   0.9993
B( 28-C , 35-C ) :   1.2507 B( 29-C , 30-C ) :   1.7188 B( 30-C , 31-C ) :   1.1354
B( 30-C , 33-C ) :   1.1331 B( 31-C , 32-N ) :   2.9870 B( 33-C , 34-N ) :   2.9948
B( 35-C , 36-C ) :   1.4749 B( 35-C , 91-H ) :   0.9859 B( 36-C , 37-S ) :   1.1033
B( 36-C , 38-C ) :   1.1177 B( 38-C , 39-C ) :   1.4084 B( 38-C , 41-C ) :   0.1090
B( 38-C , 43-C ) :   1.2114 B( 39-C , 40-N ) :   1.4611 B( 39-C , 92-H ) :   0.9749
B( 40-N , 41-C ) :   1.6553 B( 41-C , 42-C ) :   1.1738 B( 41-C , 47-C ) :   1.1295
B( 42-C , 43-C ) :   1.1879 B( 42-C , 46-N ) :   1.5411 B( 43-C , 44-N ) :   1.5136
B( 44-N , 45-S ) :   1.2690 B( 44-N , 46-N ) :   0.1445 B( 45-S , 46-N ) :   1.2864
B( 47-C , 48-C ) :   1.4760 B( 47-C , 51-S ) :   1.0979 B( 48-C , 49-C ) :   1.2717
B( 48-C , 93-H ) :   0.9841 B( 49-C , 50-C ) :   1.4227 B( 49-C , 54-C ) :   0.9946
B( 50-C , 51-S ) :   1.1250 B( 50-C , 52-C ) :   1.1951 B( 52-C , 53-C ) :   1.4125
B( 52-C , 62-S ) :   1.1542 B( 53-C , 54-C ) :   0.9962 B( 53-C , 60-C ) :   1.3647
B( 54-C , 55-C ) :   1.7178 B( 55-C , 56-C ) :   1.1326 B( 55-C , 58-C ) :   1.1358
B( 56-C , 57-N ) :   2.9810 B( 58-C , 59-N ) :   2.9915 B( 60-C , 61-C ) :   1.3871
B( 60-C , 94-H ) :   0.9764 B( 61-C , 62-S ) :   1.0933 B( 61-C , 63-C ) :   1.1438
B( 63-C , 64-C ) :   1.6651 B( 63-C , 95-H ) :   0.9260 B( 64-C , 65-C ) :   0.9432
B( 64-C , 79-C ) :   1.0363 B( 65-C , 66-O ) :   2.2653 B( 65-C , 67-C ) :   0.9186
B( 67-C , 68-C ) :   1.4740 B( 67-C , 78-C ) :   1.2215 B( 68-C , 69-C ) :   1.1929
B( 68-C , 96-H ) :   1.0165 B( 69-C , 70-C ) :   1.2567 B( 69-C , 74-C ) :   1.1933
B( 70-C , 71-C ) :   1.1892 B( 70-C , 77-C ) :   1.2150 B( 71-C , 72-C ) :   1.4412
B( 71-C , 74-C ) :   0.1088 B( 71-C , 97-H ) :   1.0073 B( 72-C , 73-C ) :   1.1913
B( 72-C , 76-F ) :   1.1356 B( 73-C , 74-C ) :   1.4429 B( 73-C , 75-F ) :   1.1326
B( 74-C , 98-H ) :   1.0072 B( 77-C , 78-C ) :   1.4583 B( 77-C , 99-H ) :   0.9948
B( 78-C , 79-C ) :   0.9955 B( 79-C , 80-C ) :   1.6545 B( 80-C , 81-C ) :   1.1721
B( 80-C , 83-C ) :   1.1259 B( 81-C , 82-N ) :   2.9931 B( 83-C , 84-N ) :   2.9934

-----------------------------------------------------------------------------
         ABSORPTION SPECTRUM VIA TRANSITION ELECTRIC DIPOLE MOMENTS
-----------------------------------------------------------------------------
State   Energy  Wavelength   fosc         T2         TX        TY        TZ
        (cm-1)    (nm)                  (au**2)     (au)      (au)      (au)
-----------------------------------------------------------------------------
   0   13251.7    754.6   1.177136927  29.24352   0.64398   5.33351   0.61846
   1   14653.3    682.4   0.040072845   0.90031  -0.08941  -0.50119   0.80070
   2   18207.2    549.2   1.235342482  22.33678   0.54678   4.66896   0.48847
   3   21041.6    475.2   0.147913905   2.31422  -0.26406  -0.13732   1.49186
   4   21746.3    459.8   0.048109196   0.72831  -0.12113  -0.80708   0.24952
   5   22315.1    448.1   0.364928206   5.38373   0.00628  -2.06208   1.06373
   6   24029.2    416.2   0.040394439   0.55342   0.09767  -0.63637   0.37272
   7   25762.6    388.2   0.033924098   0.43351   0.46562   0.38954   0.25487
   8   26529.4    376.9   0.011587885   0.14380  -0.06448   0.21156  -0.30803
   9   27074.3    369.4   0.066550589   0.80923  -0.15585  -0.21524  -0.85942
  10   27716.1    360.8   0.089943742   1.06835   0.02493  -0.44755   0.93136
  11   27978.6    357.4   0.034910228   0.41077   0.05453  -0.37194   0.51909
  12   28327.2    353.0   0.005929633   0.06891  -0.07286   0.03533  -0.24971
  13   28691.9    348.5   0.027295822   0.31319   0.10031   0.33449  -0.43732
  14   29087.5    343.8   0.205141995   2.32180  -0.12581  -0.34059   1.47985
  15   29131.4    343.3   0.035467535   0.40082   0.02498  -0.02462   0.63213
  16   29232.6    342.1   0.026460147   0.29799  -0.29419  -0.20093   0.41361
  17   29627.6    337.5   0.213167324   2.36864  -0.30698  -1.41822  -0.51288
  18   29764.7    336.0   0.089620947   0.99125   0.38952   0.28258  -0.87159
  19   30018.7    333.1   0.142188568   1.55937   0.78853   0.75220   0.60974
  20   30498.5    327.9   0.255467182   2.75761  -0.54657  -1.17577   1.03751
  21   30736.3    325.3   0.195371822   2.09260   0.20574   0.42601   1.36703
  22   30816.2    324.5   0.034806625   0.37184  -0.19992  -0.54232  -0.19433
  23   31141.4    321.1   0.194356691   2.05465   0.46060   1.18926   0.65433
  24   32007.5    312.4   0.365018164   3.75438  -0.25626  -1.85993  -0.47894
  25   32303.5    309.6   0.135928645   1.38528   0.30634  -0.14816   1.12671
  26   32583.4    306.9   0.216163592   2.18404   0.27978   0.77799  -1.22495
  27   32709.2    305.7   0.053830407   0.54179   0.37956   0.59658   0.20448
  28   33283.1    300.5   0.378344612   3.74231  -0.46856  -0.69357  -1.74405
  29   33347.1    299.9   0.520027934   5.13386  -0.31916  -1.77079   1.37706
  30   33660.1    297.1   0.076376173   0.74700  -0.05092   0.03312   0.86215
  31   33765.7    296.2   0.049744888   0.48501  -0.05889   0.63242   0.28563
  32   34155.2    292.8   0.298346386   2.87568   0.46143   1.59215   0.35754
  33   34337.1    291.2   0.170330631   1.63307  -0.56665  -0.29914   1.10566
  34   34421.1    290.5   0.029943719   0.28639  -0.09515   0.21901  -0.47892
  35   34456.1    290.2   0.064972677   0.62078   0.60435   0.27979   0.42103
  36   34759.4    287.7   0.027232092   0.25792  -0.06721  -0.32317  -0.38596
  37   34905.1    286.5   0.408372162   3.85161   0.06644   0.20857  -1.95031
  38   35338.9    283.0   0.175161771   1.63178  -0.52492  -0.65902  -0.96017
  39   35612.8    280.8   0.049939331   0.46165   0.43972   0.41629   0.30822
  40   35811.9    279.2   0.103230640   0.94898  -0.61696  -0.57419  -0.48851
  41   35966.8    278.0   0.123838702   1.13352   0.18369   0.18212   1.03277
  42   36265.3    275.7   0.217811241   1.97726  -0.14475  -0.39405   1.34203
  43   36543.8    273.6   0.024625701   0.22185   0.22117   0.07971   0.40814
  44   36714.5    272.4   0.252499076   2.26411   0.62139   1.34807   0.24638
  45   37042.9    270.0   0.112151711   0.99673   0.07975   0.71402   0.69321
  46   37264.0    268.4   0.051106788   0.45151  -0.42083  -0.35533  -0.38490
  47   37461.2    266.9   0.075612241   0.66449   0.15858   0.49754   0.62593
  48   37621.8    265.8   0.005008956   0.04383   0.05960  -0.18112   0.08645
  49   37787.7    264.6   0.020766513   0.18092  -0.08735  -0.39095  -0.14301
  50   37920.1    263.7   0.014417709   0.12517   0.11223   0.26789  -0.20202
  51   38028.0    263.0   0.018695833   0.16185   0.27591   0.01046   0.29261
  52   38197.2    261.8   0.073885651   0.63680  -0.04312  -0.67483  -0.42372
  53   38239.8    261.5   0.023228642   0.19998  -0.06602  -0.40150  -0.18551
  54   38350.6    260.8   0.013883316   0.11918   0.05211   0.08566  -0.33034
  55   38561.9    259.3   0.006994590   0.05971  -0.09110   0.12584   0.18862
  56   38583.5    259.2   0.013768826   0.11748   0.05170   0.01470   0.33852
  57   38932.1    256.9   0.013878854   0.11736   0.00140  -0.18249  -0.28992
  58   39023.8    256.3   0.020692307   0.17456  -0.05258   0.39102   0.13750
  59   39121.9    255.6   0.040378530   0.33979  -0.08595   0.55053   0.17120
  60   39276.1    254.6   0.156042236   1.30795  -0.01438  -0.94383   0.64569
  61   39397.8    253.8   0.033078870   0.27641   0.15505   0.47774   0.15536
  62   39506.6    253.1   0.035947904   0.29956  -0.05263   0.47934  -0.25889
  63   40122.4    249.2   0.057912163   0.47518  -0.08619   0.04522  -0.68243

FINAL SINGLE POINT ENERGY     -5547.568353588051

DIPOLE MOMENT
-------------
                                X             Y             Z
Electronic contribution:     -3.03901      -4.05215      -5.20913
Nuclear contribution   :      1.99620       3.41855       1.51794
                        -----------------------------------------
Total Dipole Moment    :     -1.04281      -0.63360      -3.69120
                        -----------------------------------------
Magnitude (a.u.)       :      3.88765
Magnitude (Debye)      :      9.88163

Rotational constants in cm-1:     0.001340     0.000130     0.000119
Rotational constants in MHz :    40.165351     3.886853     3.577177

                             ****ORCA TERMINATED NORMALLY****
TOTAL RUN TIME: 0 days 0 hours 11 minutes 26 seconds 47 msec
