                         Program Version 4.2.0 -  RELEASE  -
|  1> # ORCA input file
|  2> # SCF done       -184.919074632898          0.000858995663
|  3> ! CAM-B3LYP def2-SVP def2/J RIJCOSX Grid4 TightSCF
|  4> %maxcore 5000
|  5> %tddft
|  6>     Mode sTDDFT
|  7>     Ethresh 5.0
|  8>     maxcore 5000
|  9> end
| 10>
| 11> %pal
| 12>   nprocs 6
| 13>   end
| 14> * xyz 0 1
| 15>    C       -5.43749         1.03149         6.75653
| 16>    C       -5.20830        -0.27833         6.39430
| 17>    C       -4.32726        -1.14252         7.07157
| 18>    N       -3.62514        -1.90290         7.57193
| 19>    C       -5.80234        -0.95922         5.31439
| 20>    N       -6.22751        -1.60449         4.46230
| 21>    C       -4.80414         1.70881         7.88833
| 22>    C       -5.29048         3.03678         7.94969
| 23>    C       -4.88372         3.93246         8.90621
| 24>    C       -3.94846         3.49727         9.85245
| 25>    C       -3.46876         2.16998         9.78407
| 26>    C       -3.88159         1.26287         8.81435
| 27>    S       -2.32044         1.83963        11.04740
| 28>    C       -2.50039         3.46935        11.64070
| 29>    C       -3.37319         4.22292        10.93219
| 30>   Br       -1.51701         4.02228        13.14056
| 31>    C       -6.25812         3.25038         6.85021
| 32>    O       -6.86105         4.28166         6.61805
| 33>    C       -6.32051         1.97196         6.12360
| 34>    C       -7.10992         1.73877         5.01157
| 35>    C       -7.97076         2.65778         4.42879
| 36>    C       -8.73623         2.35519         3.31518
| 37>    C       -9.66109         3.19601         2.65934
| 38>    C      -10.28460         2.61604         1.59028
| 39>    C       -9.87502         1.29037         1.35072
| 40>    S       -8.67179         0.79963         2.52431
| 41>    C      -10.29741         0.40730         0.37181
| 42>    C      -11.27524         0.59038        -0.63226
| 43>    C      -11.45920        -0.50279        -1.42090
| 44>    C      -10.63623        -1.61690        -1.09557
| 45>    S       -9.60553        -1.18660         0.26501
| 46>    C      -10.69498        -2.84171        -1.69998
| 47>    C       -9.93509        -4.01843        -1.42361
| 48>    C       -8.74340        -4.00617        -0.67422
| 49>    C       -8.09559        -5.18244        -0.40640
| 50>    C       -8.60884        -6.40935        -0.86680
| 51>    C       -9.76834        -6.43703        -1.63575
| 52>    C      -10.40855        -5.25163        -1.91583
| 53>    C       -7.72371        -7.46256        -0.43720
| 54>    C       -6.65666        -6.89276         0.28508
| 55>    C       -6.83257        -5.39525         0.39885
| 56>    C       -5.64059        -4.62947        -0.19683
| 57>    C       -5.41372        -4.95481        -1.66897
| 58>    C       -7.13124        -4.93715         1.84657
| 59>    C       -6.03898        -5.20661         2.87230
| 60>    C       -5.63187        -7.68793         0.73672
| 61>    C       -5.66370        -9.07540         0.51448
| 62>    C       -6.75354        -9.62529        -0.17693
| 63>    C       -7.77234        -8.83315        -0.65882
| 64>    C       -4.56325        -9.87242         0.99938
| 65>    C       -4.41394       -11.20416         0.84260
| 66>    C       -3.31874       -11.91853         1.31388
| 67>    C       -2.37693       -12.58887         1.69741
| 68>    C       -1.34676       -13.35137         2.10298
| 69>    C       -0.38910       -14.00804         2.46815
| 70>    C        0.64281       -14.89390         2.81332
| 71>    C        1.76513       -14.55264         3.58631
| 72>    N        2.13326       -13.35448         4.14606
| 73>    C        1.28102       -12.19344         4.20808
| 74>    C        0.27885       -12.29904         5.35649
| 75>    C        3.32081       -13.53364         4.82942
| 76>    C        3.73385       -14.88012         4.68803
| 77>    C        2.74447       -15.53075         3.88004
| 78>    C        2.62477       -16.83207         3.41378
| 79>    C        1.51945       -17.16232         2.65112
| 80>    C        0.55106       -16.21516         2.36003
| 81>    C        4.89107       -15.34703         5.29658
| 82>    C        5.62570       -14.46802         6.06323
| 83>    C        5.22327       -13.14402         6.19996
| 84>    C        4.08707       -12.63658         5.58106
| 85>    C        3.79178       -11.20185         5.74017
| 86>    C        3.56325       -10.63105         6.91116
| 87>    H       -5.27341         4.93823         8.92579
| 88>    H       -3.48417         0.26187         8.80635
| 89>    H       -3.60372         5.24794        11.15880
| 90>    H       -7.06212         0.75828         4.55265
| 91>    H       -8.05913         3.64557         4.85652
| 92>    H       -9.84075         4.20074         2.99825
| 93>    H      -11.01907         3.10728         0.97718
| 94>    H      -11.81863         1.51238        -0.73531
| 95>    H      -12.16602        -0.55315        -2.23066
| 96>    H      -11.46045        -2.94557        -2.46068
| 97>    H       -8.32066        -3.07278        -0.34145
| 98>    H      -10.15955        -7.37212        -2.00789
| 99>    H      -11.31329        -5.26008        -2.50706
|100>    H       -4.74011        -4.88131         0.36390
|101>    H       -5.81936        -3.55876        -0.08172
|102>    H       -5.22470        -6.01806        -1.80252
|103>    H       -4.55544        -4.40359        -2.04649
|104>    H       -6.28384        -4.68519        -2.26392
|105>    H       -8.04970        -5.43271         2.17277
|106>    H       -7.32769        -3.86362         1.81979
|107>    H       -5.90584        -6.27302         3.03495
|108>    H       -6.32212        -4.74961         3.81739
|109>    H       -5.09196        -4.77015         2.56775
|110>    H       -4.78439        -7.26139         1.25250
|111>    H       -6.79681       -10.68973        -0.34899
|112>    H       -8.59373        -9.27164        -1.20615
|113>    H       -3.78902        -9.33083         1.52953
|114>    H       -5.15355       -11.79619         0.31710
|115>    H        0.75104       -12.10360         3.25669
|116>    H        1.89985       -11.30821         4.34631
|117>    H       -0.35019       -13.17761         5.23309
|118>    H       -0.35653       -11.41808         5.37610
|119>    H        0.80472       -12.37338         6.30597
|120>    H        3.38075       -17.56678         3.64455
|121>    H        1.40261       -18.16812         2.27618
|122>    H       -0.30831       -16.49016         1.76571
|123>    H        5.19675       -16.37485         5.17440
|124>    H        6.52481       -14.80076         6.55984
|125>    H        5.82248       -12.46802         6.79263
|126>    H        3.83444       -10.60142         4.83796
|127>    H        3.52872       -11.20963         7.81983
|128>    H        3.38990        -9.57272         7.00827
|129> *
|130>
|131>                          ****END OF INPUT****

CARTESIAN COORDINATES (ANGSTROEM)
---------------------------------
  C     -5.437490    1.031490    6.756530
  C     -5.208300   -0.278330    6.394300
  C     -4.327260   -1.142520    7.071570
  N     -3.625140   -1.902900    7.571930
  C     -5.802340   -0.959220    5.314390
  N     -6.227510   -1.604490    4.462300
  C     -4.804140    1.708810    7.888330
  C     -5.290480    3.036780    7.949690
  C     -4.883720    3.932460    8.906210
  C     -3.948460    3.497270    9.852450
  C     -3.468760    2.169980    9.784070
  C     -3.881590    1.262870    8.814350
  S     -2.320440    1.839630   11.047400
  C     -2.500390    3.469350   11.640700
  C     -3.373190    4.222920   10.932190
  Br    -1.517010    4.022280   13.140560
  C     -6.258120    3.250380    6.850210
  O     -6.861050    4.281660    6.618050
  C     -6.320510    1.971960    6.123600
  C     -7.109920    1.738770    5.011570
  C     -7.970760    2.657780    4.428790
  C     -8.736230    2.355190    3.315180
  C     -9.661090    3.196010    2.659340
  C    -10.284600    2.616040    1.590280
  C     -9.875020    1.290370    1.350720
  S     -8.671790    0.799630    2.524310
  C    -10.297410    0.407300    0.371810
  C    -11.275240    0.590380   -0.632260
  C    -11.459200   -0.502790   -1.420900
  C    -10.636230   -1.616900   -1.095570
  S     -9.605530   -1.186600    0.265010
  C    -10.694980   -2.841710   -1.699980
  C     -9.935090   -4.018430   -1.423610
  C     -8.743400   -4.006170   -0.674220
  C     -8.095590   -5.182440   -0.406400
  C     -8.608840   -6.409350   -0.866800
  C     -9.768340   -6.437030   -1.635750
  C    -10.408550   -5.251630   -1.915830
  C     -7.723710   -7.462560   -0.437200
  C     -6.656660   -6.892760    0.285080
  C     -6.832570   -5.395250    0.398850
  C     -5.640590   -4.629470   -0.196830
  C     -5.413720   -4.954810   -1.668970
  C     -7.131240   -4.937150    1.846570
  C     -6.038980   -5.206610    2.872300
  C     -5.631870   -7.687930    0.736720
  C     -5.663700   -9.075400    0.514480
  C     -6.753540   -9.625290   -0.176930
  C     -7.772340   -8.833150   -0.658820
  C     -4.563250   -9.872420    0.999380
  C     -4.413940  -11.204160    0.842600
  C     -3.318740  -11.918530    1.313880
  C     -2.376930  -12.588870    1.697410
  C     -1.346760  -13.351370    2.102980
  C     -0.389100  -14.008040    2.468150
  C      0.642810  -14.893900    2.813320
  C      1.765130  -14.552640    3.586310
  N      2.133260  -13.354480    4.146060
  C      1.281020  -12.193440    4.208080
  C      0.278850  -12.299040    5.356490
  C      3.320810  -13.533640    4.829420
  C      3.733850  -14.880120    4.688030
  C      2.744470  -15.530750    3.880040
  C      2.624770  -16.832070    3.413780
  C      1.519450  -17.162320    2.651120
  C      0.551060  -16.215160    2.360030
  C      4.891070  -15.347030    5.296580
  C      5.625700  -14.468020    6.063230
  C      5.223270  -13.144020    6.199960
  C      4.087070  -12.636580    5.581060
  C      3.791780  -11.201850    5.740170
  C      3.563250  -10.631050    6.911160
  H     -5.273410    4.938230    8.925790
  H     -3.484170    0.261870    8.806350
  H     -3.603720    5.247940   11.158800
  H     -7.062120    0.758280    4.552650
  H     -8.059130    3.645570    4.856520
  H     -9.840750    4.200740    2.998250
  H    -11.019070    3.107280    0.977180
  H    -11.818630    1.512380   -0.735310
  H    -12.166020   -0.553150   -2.230660
  H    -11.460450   -2.945570   -2.460680
  H     -8.320660   -3.072780   -0.341450
  H    -10.159550   -7.372120   -2.007890
  H    -11.313290   -5.260080   -2.507060
  H     -4.740110   -4.881310    0.363900
  H     -5.819360   -3.558760   -0.081720
  H     -5.224700   -6.018060   -1.802520
  H     -4.555440   -4.403590   -2.046490
  H     -6.283840   -4.685190   -2.263920
  H     -8.049700   -5.432710    2.172770
  H     -7.327690   -3.863620    1.819790
  H     -5.905840   -6.273020    3.034950
  H     -6.322120   -4.749610    3.817390
  H     -5.091960   -4.770150    2.567750
  H     -4.784390   -7.261390    1.252500
  H     -6.796810  -10.689730   -0.348990
  H     -8.593730   -9.271640   -1.206150
  H     -3.789020   -9.330830    1.529530
  H     -5.153550  -11.796190    0.317100
  H      0.751040  -12.103600    3.256690
  H      1.899850  -11.308210    4.346310
  H     -0.350190  -13.177610    5.233090
  H     -0.356530  -11.418080    5.376100
  H      0.804720  -12.373380    6.305970
  H      3.380750  -17.566780    3.644550
  H      1.402610  -18.168120    2.276180
  H     -0.308310  -16.490160    1.765710
  H      5.196750  -16.374850    5.174400
  H      6.524810  -14.800760    6.559840
  H      5.822480  -12.468020    6.792630
  H      3.834440  -10.601420    4.837960
  H      3.528720  -11.209630    7.819830
  H      3.389900   -9.572720    7.008270

 Total Charge           Charge          ....    0
 Multiplicity           Mult            ....    1
 Number of Electrons    NEL             ....  538
 Basis Dimension        Dim             .... 1248

ORBITAL ENERGIES
----------------

  NO   OCC          E(Eh)            E(eV)
   0   2.0000    -482.876003    -13139.7240
   1   2.0000     -88.963907     -2420.8310
   2   2.0000     -88.963402     -2420.8173
   3   2.0000     -88.956999     -2420.6430
   4   2.0000     -62.553720     -1702.1733
   5   2.0000     -56.387659     -1534.3862
   6   2.0000     -56.384967     -1534.3130
   7   2.0000     -56.384927     -1534.3119
   8   2.0000     -19.197423      -522.3884
   9   2.0000     -14.443913      -393.0389
  10   2.0000     -14.402229      -391.9046
  11   2.0000     -14.396736      -391.7551
  12   2.0000     -10.347632      -281.5734
  13   2.0000     -10.347012      -281.5565
  14   2.0000     -10.335642      -281.2471
  15   2.0000     -10.325360      -280.9673
  16   2.0000     -10.322427      -280.8875
  17   2.0000     -10.321577      -280.8644
  18   2.0000     -10.319566      -280.8097
  19   2.0000     -10.319339      -280.8035
  20   2.0000     -10.311492      -280.5900
  21   2.0000     -10.307857      -280.4910
  22   2.0000     -10.306467      -280.4532
  23   2.0000     -10.305343      -280.4226
  24   2.0000     -10.305322      -280.4221
  25   2.0000     -10.303164      -280.3634
  26   2.0000     -10.301980      -280.3311
  27   2.0000     -10.301494      -280.3179
  28   2.0000     -10.296732      -280.1883
  29   2.0000     -10.295757      -280.1618
  30   2.0000     -10.293820      -280.1091
  31   2.0000     -10.293489      -280.1001
  32   2.0000     -10.292038      -280.0606
  33   2.0000     -10.290801      -280.0269
  34   2.0000     -10.290567      -280.0206
  35   2.0000     -10.290151      -280.0092
  36   2.0000     -10.286867      -279.9199
  37   2.0000     -10.285997      -279.8962
  38   2.0000     -10.285865      -279.8926
  39   2.0000     -10.285442      -279.8811
  40   2.0000     -10.282315      -279.7960
  41   2.0000     -10.281328      -279.7692
  42   2.0000     -10.280809      -279.7550
  43   2.0000     -10.280154      -279.7372
  44   2.0000     -10.278986      -279.7054
  45   2.0000     -10.278037      -279.6796
  46   2.0000     -10.277648      -279.6690
  47   2.0000     -10.276324      -279.6330
  48   2.0000     -10.275911      -279.6217
  49   2.0000     -10.275708      -279.6162
  50   2.0000     -10.274974      -279.5963
  51   2.0000     -10.273881      -279.5665
  52   2.0000     -10.273534      -279.5571
  53   2.0000     -10.273485      -279.5557
  54   2.0000     -10.273178      -279.5474
  55   2.0000     -10.272955      -279.5413
  56   2.0000     -10.272489      -279.5286
  57   2.0000     -10.271310      -279.4966
  58   2.0000     -10.270743      -279.4811
  59   2.0000     -10.270633      -279.4781
  60   2.0000     -10.269628      -279.4508
  61   2.0000     -10.267664      -279.3973
  62   2.0000     -10.266822      -279.3744
  63   2.0000     -10.266690      -279.3708
  64   2.0000     -10.260427      -279.2004
  65   2.0000     -10.259600      -279.1779
  66   2.0000     -10.259436      -279.1734
  67   2.0000     -10.258625      -279.1514
  68   2.0000     -10.256691      -279.0988
  69   2.0000     -10.256478      -279.0929
  70   2.0000     -10.256421      -279.0914
  71   2.0000     -10.255552      -279.0678
  72   2.0000     -10.251175      -278.9487
  73   2.0000     -10.247777      -278.8562
  74   2.0000     -10.245793      -278.8022
  75   2.0000     -10.238537      -278.6048
  76   2.0000      -8.783140      -239.0014
  77   2.0000      -8.059776      -219.3176
  78   2.0000      -8.059381      -219.3069
  79   2.0000      -8.053073      -219.1353
  80   2.0000      -6.619394      -180.1229
  81   2.0000      -6.604878      -179.7279
  82   2.0000      -6.604727      -179.7238
  83   2.0000      -6.029490      -164.0708
  84   2.0000      -6.029077      -164.0595
  85   2.0000      -6.025313      -163.9571
  86   2.0000      -6.024816      -163.9436
  87   2.0000      -6.022668      -163.8851
  88   2.0000      -6.020830      -163.8351
  89   2.0000      -6.020595      -163.8287
  90   2.0000      -6.018612      -163.7748
  91   2.0000      -6.014262      -163.6564
  92   2.0000      -2.735255       -74.4301
  93   2.0000      -2.731188       -74.3194
  94   2.0000      -2.731099       -74.3170
  95   2.0000      -2.719552       -74.0028
  96   2.0000      -2.719537       -74.0024
  97   2.0000      -1.110390       -30.2152
  98   2.0000      -1.074568       -29.2405
  99   2.0000      -1.012012       -27.5382
 100   2.0000      -1.007985       -27.4287
 101   2.0000      -0.998465       -27.1696
 102   2.0000      -0.992131       -26.9973
 103   2.0000      -0.987455       -26.8700
 104   2.0000      -0.978325       -26.6216
 105   2.0000      -0.972893       -26.4738
 106   2.0000      -0.952605       -25.9217
 107   2.0000      -0.941933       -25.6313
 108   2.0000      -0.937067       -25.4989
 109   2.0000      -0.929429       -25.2910
 110   2.0000      -0.926651       -25.2155
 111   2.0000      -0.908037       -24.7089
 112   2.0000      -0.899022       -24.4636
 113   2.0000      -0.894926       -24.3522
 114   2.0000      -0.893685       -24.3184
 115   2.0000      -0.891793       -24.2669
 116   2.0000      -0.876641       -23.8546
 117   2.0000      -0.871542       -23.7159
 118   2.0000      -0.870031       -23.6747
 119   2.0000      -0.862792       -23.4778
 120   2.0000      -0.860916       -23.4267
 121   2.0000      -0.856111       -23.2960
 122   2.0000      -0.845481       -23.0067
 123   2.0000      -0.839425       -22.8419
 124   2.0000      -0.835368       -22.7315
 125   2.0000      -0.834062       -22.6960
 126   2.0000      -0.833032       -22.6679
 127   2.0000      -0.829345       -22.5676
 128   2.0000      -0.821049       -22.3419
 129   2.0000      -0.816303       -22.2127
 130   2.0000      -0.814387       -22.1606
 131   2.0000      -0.802730       -21.8434
 132   2.0000      -0.791051       -21.5256
 133   2.0000      -0.787179       -21.4202
 134   2.0000      -0.779823       -21.2201
 135   2.0000      -0.763210       -20.7680
 136   2.0000      -0.760433       -20.6924
 137   2.0000      -0.743849       -20.2412
 138   2.0000      -0.739437       -20.1211
 139   2.0000      -0.733942       -19.9716
 140   2.0000      -0.718128       -19.5413
 141   2.0000      -0.715378       -19.4664
 142   2.0000      -0.702306       -19.1107
 143   2.0000      -0.698687       -19.0122
 144   2.0000      -0.696045       -18.9403
 145   2.0000      -0.686950       -18.6929
 146   2.0000      -0.685305       -18.6481
 147   2.0000      -0.682192       -18.5634
 148   2.0000      -0.676057       -18.3964
 149   2.0000      -0.675315       -18.3762
 150   2.0000      -0.673350       -18.3228
 151   2.0000      -0.667498       -18.1635
 152   2.0000      -0.660057       -17.9611
 153   2.0000      -0.656124       -17.8541
 154   2.0000      -0.649625       -17.6772
 155   2.0000      -0.646382       -17.5889
 156   2.0000      -0.643561       -17.5122
 157   2.0000      -0.632258       -17.2046
 158   2.0000      -0.630025       -17.1438
 159   2.0000      -0.622850       -16.9486
 160   2.0000      -0.617587       -16.8054
 161   2.0000      -0.614769       -16.7287
 162   2.0000      -0.608275       -16.5520
 163   2.0000      -0.597287       -16.2530
 164   2.0000      -0.595760       -16.2115
 165   2.0000      -0.591482       -16.0951
 166   2.0000      -0.589166       -16.0320
 167   2.0000      -0.585196       -15.9240
 168   2.0000      -0.580971       -15.8090
 169   2.0000      -0.575756       -15.6671
 170   2.0000      -0.572542       -15.5797
 171   2.0000      -0.561360       -15.2754
 172   2.0000      -0.555673       -15.1206
 173   2.0000      -0.550773       -14.9873
 174   2.0000      -0.546562       -14.8727
 175   2.0000      -0.543720       -14.7954
 176   2.0000      -0.540723       -14.7138
 177   2.0000      -0.537138       -14.6163
 178   2.0000      -0.534252       -14.5377
 179   2.0000      -0.530634       -14.4393
 180   2.0000      -0.530014       -14.4224
 181   2.0000      -0.528431       -14.3793
 182   2.0000      -0.527852       -14.3636
 183   2.0000      -0.523418       -14.2429
 184   2.0000      -0.522277       -14.2119
 185   2.0000      -0.520487       -14.1632
 186   2.0000      -0.519549       -14.1376
 187   2.0000      -0.517909       -14.0930
 188   2.0000      -0.514703       -14.0058
 189   2.0000      -0.513142       -13.9633
 190   2.0000      -0.512294       -13.9402
 191   2.0000      -0.509984       -13.8774
 192   2.0000      -0.508584       -13.8393
 193   2.0000      -0.501227       -13.6391
 194   2.0000      -0.499067       -13.5803
 195   2.0000      -0.498803       -13.5731
 196   2.0000      -0.497259       -13.5311
 197   2.0000      -0.495456       -13.4820
 198   2.0000      -0.494850       -13.4656
 199   2.0000      -0.492311       -13.3965
 200   2.0000      -0.486079       -13.2269
 201   2.0000      -0.481885       -13.1128
 202   2.0000      -0.480941       -13.0871
 203   2.0000      -0.478587       -13.0230
 204   2.0000      -0.476872       -12.9763
 205   2.0000      -0.476033       -12.9535
 206   2.0000      -0.474328       -12.9071
 207   2.0000      -0.469034       -12.7631
 208   2.0000      -0.464548       -12.6410
 209   2.0000      -0.463977       -12.6255
 210   2.0000      -0.457389       -12.4462
 211   2.0000      -0.457187       -12.4407
 212   2.0000      -0.454621       -12.3709
 213   2.0000      -0.450656       -12.2630
 214   2.0000      -0.449386       -12.2284
 215   2.0000      -0.446309       -12.1447
 216   2.0000      -0.444970       -12.1083
 217   2.0000      -0.444409       -12.0930
 218   2.0000      -0.440462       -11.9856
 219   2.0000      -0.440055       -11.9745
 220   2.0000      -0.438826       -11.9411
 221   2.0000      -0.436895       -11.8885
 222   2.0000      -0.436323       -11.8729
 223   2.0000      -0.434047       -11.8110
 224   2.0000      -0.431307       -11.7365
 225   2.0000      -0.429143       -11.6776
 226   2.0000      -0.428238       -11.6529
 227   2.0000      -0.427472       -11.6321
 228   2.0000      -0.426066       -11.5938
 229   2.0000      -0.424635       -11.5549
 230   2.0000      -0.423602       -11.5268
 231   2.0000      -0.420890       -11.4530
 232   2.0000      -0.417275       -11.3546
 233   2.0000      -0.412843       -11.2340
 234   2.0000      -0.411741       -11.2040
 235   2.0000      -0.410134       -11.1603
 236   2.0000      -0.408546       -11.1171
 237   2.0000      -0.406517       -11.0619
 238   2.0000      -0.404963       -11.0196
 239   2.0000      -0.401804       -10.9336
 240   2.0000      -0.396176       -10.7805
 241   2.0000      -0.393823       -10.7165
 242   2.0000      -0.391972       -10.6661
 243   2.0000      -0.388084       -10.5603
 244   2.0000      -0.386143       -10.5075
 245   2.0000      -0.383315       -10.4305
 246   2.0000      -0.379916       -10.3380
 247   2.0000      -0.376791       -10.2530
 248   2.0000      -0.372586       -10.1386
 249   2.0000      -0.365658        -9.9501
 250   2.0000      -0.362469        -9.8633
 251   2.0000      -0.353157        -9.6099
 252   2.0000      -0.349614        -9.5135
 253   2.0000      -0.344663        -9.3788
 254   2.0000      -0.335728        -9.1356
 255   2.0000      -0.330630        -8.9969
 256   2.0000      -0.326498        -8.8845
 257   2.0000      -0.318440        -8.6652
 258   2.0000      -0.318081        -8.6554
 259   2.0000      -0.316879        -8.6227
 260   2.0000      -0.305216        -8.3054
 261   2.0000      -0.301826        -8.2131
 262   2.0000      -0.299663        -8.1542
 263   2.0000      -0.287557        -7.8248
 264   2.0000      -0.279998        -7.6191
 265   2.0000      -0.270405        -7.3581
 266   2.0000      -0.262195        -7.1347
 267   2.0000      -0.239233        -6.5099
 268   2.0000      -0.224242        -6.1019
 269   0.0000      -0.106880        -2.9084
 270   0.0000      -0.058919        -1.6033
 271   0.0000      -0.046611        -1.2684
 272   0.0000      -0.032563        -0.8861
 273   0.0000      -0.007093        -0.1930

MULLIKEN ATOMIC CHARGES
-----------------------
   0 C :    0.335601
   1 C :   -0.370904
   2 C :   -0.191040
   3 N :    0.133350
   4 C :   -0.191145
   5 N :    0.129170
   6 C :    0.012706
   7 C :   -0.010181
   8 C :   -0.078069
   9 C :    0.118697
  10 C :   -0.094907
  11 C :   -0.024655
  12 S :    0.177554
  13 C :   -0.123091
  14 C :    0.036641
  15 Br:    0.012945
  16 C :    0.135893
  17 O :   -0.167078
  18 C :   -0.092168
  19 C :   -0.042432
  20 C :   -0.023821
  21 C :    0.007907
  22 C :    0.023038
  23 C :    0.045822
  24 C :   -0.055901
  25 S :    0.100215
  26 C :   -0.019604
  27 C :    0.025979
  28 C :    0.051154
  29 C :   -0.026181
  30 S :    0.089763
  31 C :   -0.011911
  32 C :    0.097429
  33 C :   -0.088163
  34 C :    0.010003
  35 C :    0.102398
  36 C :   -0.044172
  37 C :   -0.008378
  38 C :    0.094607
  39 C :    0.033195
  40 C :   -0.139840
  41 C :    0.049888
  42 C :    0.023462
  43 C :    0.071080
  44 C :    0.036189
  45 C :   -0.103317
  46 C :    0.111794
  47 C :   -0.004481
  48 C :   -0.041612
  49 C :    0.011675
  50 C :   -0.105171
  51 C :   -0.021285
  52 C :    0.016213
  53 C :   -0.022688
  54 C :   -0.042717
  55 C :   -0.040120
  56 C :    0.116022
  57 N :   -0.178072
  58 C :    0.111471
  59 C :    0.014844
  60 C :    0.106128
  61 C :    0.062791
  62 C :    0.055727
  63 C :   -0.041290
  64 C :    0.027982
  65 C :   -0.012239
  66 C :   -0.048854
  67 C :    0.032453
  68 C :   -0.035292
  69 C :   -0.007391
  70 C :   -0.080731
  71 C :   -0.007020
  72 H :   -0.016648
  73 H :   -0.011250
  74 H :   -0.006697
  75 H :    0.015387
  76 H :    0.014283
  77 H :   -0.001913
  78 H :   -0.005388
  79 H :   -0.007652
  80 H :   -0.001194
  81 H :   -0.008421
  82 H :   -0.012149
  83 H :   -0.031843
  84 H :   -0.025504
  85 H :    0.010075
  86 H :    0.007350
  87 H :    0.020176
  88 H :    0.010983
  89 H :    0.016339
  90 H :    0.000876
  91 H :    0.010776
  92 H :    0.012058
  93 H :    0.027208
  94 H :    0.003885
  95 H :   -0.031011
  96 H :   -0.028296
  97 H :   -0.035742
  98 H :   -0.005933
  99 H :    0.028257
 100 H :    0.038762
 101 H :    0.007180
 102 H :    0.028087
 103 H :    0.019820
 104 H :    0.018625
 105 H :   -0.031227
 106 H :   -0.021605
 107 H :   -0.023302
 108 H :   -0.036756
 109 H :   -0.025989
 110 H :   -0.028141
 111 H :    0.033033
 112 H :    0.023054
 113 H :    0.024583
Sum of atomic charges:   -0.0000000

LOEWDIN ATOMIC CHARGES
----------------------
   0 C :    0.074765
   1 C :   -0.162625
   2 C :   -0.019199
   3 N :   -0.073198
   4 C :   -0.016709
   5 N :   -0.076838
   6 C :   -0.018153
   7 C :   -0.047952
   8 C :    0.016418
   9 C :   -0.036291
  10 C :   -0.146274
  11 C :   -0.013990
  12 S :    0.425740
  13 C :   -0.275098
  14 C :   -0.071055
  15 Br:    0.128414
  16 C :    0.081480
  17 O :   -0.161029
  18 C :   -0.113592
  19 C :    0.049055
  20 C :   -0.077527
  21 C :   -0.101221
  22 C :   -0.046343
  23 C :   -0.005768
  24 C :   -0.198778
  25 S :    0.410555
  26 C :   -0.144708
  27 C :   -0.045644
  28 C :   -0.003469
  29 C :   -0.159596
  30 S :    0.412929
  31 C :   -0.005513
  32 C :   -0.039980
  33 C :   -0.019897
  34 C :    0.011469
  35 C :   -0.002500
  36 C :   -0.020648
  37 C :   -0.007244
  38 C :   -0.019211
  39 C :    0.008755
  40 C :   -0.035324
  41 C :   -0.013372
  42 C :   -0.057570
  43 C :   -0.007918
  44 C :   -0.056688
  45 C :   -0.015154
  46 C :   -0.024427
  47 C :   -0.011218
  48 C :   -0.015102
  49 C :    0.010498
  50 C :   -0.045252
  51 C :   -0.008160
  52 C :   -0.055373
  53 C :   -0.063762
  54 C :    0.000731
  55 C :   -0.077539
  56 C :    0.046063
  57 N :    0.027550
  58 C :    0.038120
  59 C :   -0.058702
  60 C :    0.033742
  61 C :   -0.042465
  62 C :   -0.041866
  63 C :   -0.002882
  64 C :   -0.047780
  65 C :    0.005184
  66 C :   -0.014840
  67 C :   -0.045588
  68 C :   -0.016581
  69 C :   -0.055531
  70 C :   -0.022086
  71 C :   -0.041592
  72 H :    0.038428
  73 H :    0.039694
  74 H :    0.037338
  75 H :    0.030140
  76 H :    0.038071
  77 H :    0.038033
  78 H :    0.035311
  79 H :    0.034387
  80 H :    0.037659
  81 H :    0.038153
  82 H :    0.010994
  83 H :    0.028471
  84 H :    0.027213
  85 H :    0.021949
  86 H :    0.023359
  87 H :    0.025064
  88 H :    0.024763
  89 H :    0.022968
  90 H :    0.024854
  91 H :    0.025138
  92 H :    0.020218
  93 H :    0.034331
  94 H :    0.021372
  95 H :    0.026832
  96 H :    0.026249
  97 H :    0.027148
  98 H :    0.034711
  99 H :    0.041466
 100 H :    0.033705
 101 H :    0.027085
 102 H :    0.028009
 103 H :    0.030155
 104 H :    0.025657
 105 H :    0.028308
 106 H :    0.027203
 107 H :    0.033795
 108 H :    0.025951
 109 H :    0.025131
 110 H :    0.027105
 111 H :    0.029986
 112 H :    0.024505
 113 H :    0.024445

  Mayer bond orders larger than 0.100000
B(  0-C ,  1-C ) :   1.5655 B(  0-C ,  6-C ) :   0.9864 B(  0-C , 18-C ) :   1.1275
B(  1-C ,  2-C ) :   1.1527 B(  1-C ,  4-C ) :   1.1573 B(  2-C ,  3-N ) :   2.9605
B(  4-C ,  5-N ) :   2.9536 B(  6-C ,  7-C ) :   1.2771 B(  6-C , 11-C ) :   1.4217
B(  7-C ,  8-C ) :   1.4340 B(  7-C , 16-C ) :   0.9327 B(  8-C ,  9-C ) :   1.2373
B(  8-C , 72-H ) :   1.0156 B(  9-C , 10-C ) :   1.3176 B(  9-C , 14-C ) :   1.1605
B( 10-C , 11-C ) :   1.3201 B( 10-C , 12-S ) :   1.0822 B( 11-C , 73-H ) :   0.9787
B( 12-S , 13-C ) :   1.0850 B( 13-C , 14-C ) :   1.6213 B( 13-C , 15-Br) :   1.0121
B( 14-C , 74-H ) :   0.9998 B( 16-C , 17-O ) :   2.1865 B( 16-C , 18-C ) :   0.9711
B( 18-C , 19-C ) :   1.4564 B( 19-C , 20-C ) :   1.2826 B( 19-C , 75-H ) :   0.9409
B( 20-C , 21-C ) :   1.3928 B( 20-C , 76-H ) :   0.9803 B( 21-C , 22-C ) :   1.1907
B( 21-C , 25-S ) :   1.0943 B( 22-C , 23-C ) :   1.5291 B( 22-C , 77-H ) :   1.0016
B( 23-C , 24-C ) :   1.2239 B( 23-C , 78-H ) :   0.9957 B( 24-C , 25-S ) :   1.0421
B( 24-C , 26-C ) :   1.4616 B( 26-C , 27-C ) :   1.1886 B( 26-C , 30-S ) :   1.0858
B( 27-C , 28-C ) :   1.5882 B( 27-C , 79-H ) :   0.9939 B( 28-C , 29-C ) :   1.1391
B( 28-C , 80-H ) :   0.9990 B( 29-C , 30-S ) :   1.0159 B( 29-C , 31-C ) :   1.5911
B( 31-C , 32-C ) :   1.1062 B( 31-C , 81-H ) :   0.9717 B( 32-C , 33-C ) :   1.2723
B( 32-C , 37-C ) :   1.3041 B( 33-C , 34-C ) :   1.4438 B( 33-C , 82-H ) :   0.9700
B( 34-C , 35-C ) :   1.3621 B( 34-C , 40-C ) :   0.9253 B( 35-C , 36-C ) :   1.3225
B( 35-C , 38-C ) :   1.0090 B( 36-C , 37-C ) :   1.4006 B( 36-C , 83-H ) :   0.9914
B( 37-C , 84-H ) :   0.9923 B( 38-C , 39-C ) :   1.3809 B( 38-C , 48-C ) :   1.3177
B( 39-C , 40-C ) :   0.9155 B( 39-C , 45-C ) :   1.3891 B( 40-C , 41-C ) :   1.0297
B( 40-C , 43-C ) :   1.0136 B( 41-C , 42-C ) :   1.1014 B( 41-C , 85-H ) :   0.9384
B( 41-C , 86-H ) :   0.9409 B( 42-C , 87-H ) :   0.9653 B( 42-C , 88-H ) :   0.9649
B( 42-C , 89-H ) :   0.9630 B( 43-C , 44-C ) :   1.1207 B( 43-C , 90-H ) :   0.9389
B( 43-C , 91-H ) :   0.9347 B( 44-C , 92-H ) :   0.9600 B( 44-C , 93-H ) :   0.9560
B( 44-C , 94-H ) :   0.9620 B( 45-C , 46-C ) :   1.2867 B( 45-C , 95-H ) :   1.0059
B( 46-C , 47-C ) :   1.3386 B( 46-C , 49-C ) :   1.0749 B( 47-C , 48-C ) :   1.4099
B( 47-C , 96-H ) :   0.9827 B( 48-C , 97-H ) :   0.9890 B( 49-C , 50-C ) :   1.7228
B( 49-C , 98-H ) :   0.9860 B( 50-C , 51-C ) :   1.0060 B( 50-C , 99-H ) :   0.9448
B( 51-C , 52-C ) :   2.1516 B( 51-C , 54-C ) :   0.1850 B( 52-C , 53-C ) :   0.8194
B( 53-C , 54-C ) :   2.2254 B( 54-C , 55-C ) :   0.8834 B( 55-C , 56-C ) :   1.3019
B( 55-C , 65-C ) :   1.3976 B( 56-C , 57-N ) :   1.1693 B( 56-C , 62-C ) :   1.2760
B( 57-N , 58-C ) :   0.9547 B( 57-N , 60-C ) :   1.1218 B( 58-C , 59-C ) :   1.1120
B( 58-C ,100-H ) :   0.9340 B( 58-C ,101-H ) :   0.9312 B( 59-C ,102-H ) :   0.9657
B( 59-C ,103-H ) :   0.9666 B( 59-C ,104-H ) :   0.9629 B( 60-C , 61-C ) :   1.2918
B( 60-C , 69-C ) :   1.3220 B( 61-C , 62-C ) :   1.0720 B( 61-C , 66-C ) :   1.3331
B( 62-C , 63-C ) :   1.3467 B( 63-C , 64-C ) :   1.3652 B( 63-C ,105-H ) :   0.9987
B( 64-C , 65-C ) :   1.3434 B( 64-C ,106-H ) :   0.9850 B( 65-C ,107-H ) :   0.9989
B( 66-C , 67-C ) :   1.3946 B( 66-C ,108-H ) :   0.9994 B( 67-C , 68-C ) :   1.3238
B( 67-C ,109-H ) :   0.9874 B( 68-C , 69-C ) :   1.4332 B( 68-C ,110-H ) :   0.9931
B( 69-C , 70-C ) :   0.9762 B( 70-C , 71-C ) :   2.0093 B( 70-C ,111-H ) :   0.9484
B( 71-C ,112-H ) :   0.9572 B( 71-C ,113-H ) :   0.9562

-----------------------------------------------------------------------------
         ABSORPTION SPECTRUM VIA TRANSITION ELECTRIC DIPOLE MOMENTS
-----------------------------------------------------------------------------
State   Energy  Wavelength   fosc         T2         TX        TY        TZ
        (cm-1)    (nm)                  (au**2)     (au)      (au)      (au)
-----------------------------------------------------------------------------
   0   11708.7    854.1   1.067234398  30.00719   1.61141   3.41599   3.96756
   1   19941.4    501.5   0.782864925  12.92429   2.46767  -2.08006   1.58374
   2   21720.0    460.4   0.438211458   6.64200   1.29019  -2.21574   0.26057
   3   23836.8    419.5   0.062360293   0.86126   0.41903   0.63003   0.53734
   4   24667.2    405.4   0.790799782  10.55414  -1.63869   2.79198  -0.27141
   5   25655.4    389.8   0.552448278   7.08905  -1.87192   0.80916  -1.71180
   6   26649.8    375.2   0.756005614   9.33912  -2.40387   1.50218  -1.14192
   7   27255.2    366.9   0.000007944   0.00010  -0.00654  -0.00038   0.00728
   8   28106.0    355.8   0.013569223   0.15894  -0.03820  -0.38198   0.10758
   9   28677.6    348.7   0.001517397   0.01742   0.00398  -0.12057  -0.05354
  10   29312.2    341.2   0.002056946   0.02310   0.06191   0.12224   0.06578
  11   30158.1    331.6   0.009219275   0.10064  -0.05714  -0.27734  -0.14302
  12   30788.8    324.8   0.076164601   0.81440  -0.63433   0.33759  -0.54595
  13   31261.1    319.9   0.044957079   0.47344   0.34507   0.07645   0.59036
  14   31399.3    318.5   0.013668957   0.14331   0.04506  -0.33366   0.17307
  15   32074.9    311.8   0.077853034   0.79907   0.50971   0.23369   0.69617
  16   32353.4    309.1   0.014476035   0.14730  -0.07842  -0.26865  -0.26263
  17   32369.9    308.9   0.496195238   5.04647   0.63625   1.48751   1.55852
  18   32916.1    303.8   0.068096616   0.68107  -0.61938   0.36875  -0.40183
  19   33119.4    301.9   0.102559406   1.01946   0.61865  -0.74565   0.28415
  20   33444.8    299.0   0.014678077   0.14448  -0.21795   0.09174  -0.29760
  21   34232.5    292.1   0.112115991   1.07821  -0.65531  -0.32634  -0.73640
  22   34802.9    287.3   0.043648704   0.41289  -0.33841   0.54551  -0.02798
  23   34931.4    286.3   0.013606928   0.12824  -0.17108   0.29701  -0.10372
  24   35321.0    283.1   0.006833027   0.06369   0.19981  -0.14506   0.05215
  25   35424.1    282.3   0.008511450   0.07910   0.19348   0.06007   0.19509
  26   35767.1    279.6   0.067543546   0.62169   0.53484  -0.56065   0.14598
  27   35952.6    278.1   0.077644535   0.71098   0.00989   0.71946   0.43961
  28   36293.3    275.5   0.160585719   1.45665  -0.15695   1.16289   0.28233
  29   36588.6    273.3   0.002011467   0.01810  -0.06884  -0.10133  -0.05560
  30   37144.2    269.2   0.171746136   1.52220   0.35656   1.01902   0.59722
  31   37515.5    266.6   0.037062974   0.32524   0.21328  -0.52714   0.04333
  32   37827.1    264.4   0.062660537   0.54534   0.55001  -0.15948   0.46626
  33   38155.0    262.1   0.110931770   0.95715   0.33498  -0.91919   0.00478
  34   38578.3    259.2   0.025678163   0.21913   0.26070   0.02207   0.38817
  35   38997.7    256.4   0.028835464   0.24342  -0.27887  -0.35280  -0.20295
  36   39090.5    255.8   0.027595552   0.23240   0.19030  -0.43821  -0.06448
  37   39584.4    252.6   0.038793584   0.32263  -0.01433   0.54309   0.16579
  38   39697.7    251.9   0.013916360   0.11541  -0.07339  -0.27204  -0.18978
  39   40314.9    248.0   0.036662189   0.29938  -0.03094   0.51203   0.19039

FINAL SINGLE POINT ENERGY     -6468.119678325718

DIPOLE MOMENT
-------------
                                X             Y             Z
Electronic contribution:     11.86563     172.14293     142.58724
Nuclear contribution   :    -14.43193    -170.95202    -145.13762
                        -----------------------------------------
Total Dipole Moment    :     -2.56631       1.19091      -2.55037
                        -----------------------------------------
Magnitude (a.u.)       :      3.80902
Magnitude (Debye)      :      9.68175

Rotational constants in cm-1:     0.000552     0.000282     0.000189
Rotational constants in MHz :    16.534518     8.457320     5.655465

                             ****ORCA TERMINATED NORMALLY****
TOTAL RUN TIME: 0 days 0 hours 10 minutes 6 seconds 33 msec
