                         Program Version 4.2.0 -  RELEASE  -
|  1> # ORCA input file
|  2> # SCF done       -177.251464910975          0.000643240190
|  3> ! CAM-B3LYP def2-SVP def2/J RIJCOSX Grid4 TightSCF
|  4> %maxcore 5000
|  5> %tddft
|  6>     Mode sTDDFT
|  7>     Ethresh 5.0
|  8>     maxcore 5000
|  9> end
| 10>
| 11> %pal
| 12>   nprocs 6
| 13>   end
| 14> * xyz 0 1
| 15>    C      -12.50274       -10.76460        -4.10498
| 16>    C      -11.45577       -10.64204        -3.21004
| 17>    C      -10.18949       -11.22345        -3.38730
| 18>    N       -9.13408       -11.67800        -3.45176
| 19>    C      -11.46070        -9.90622        -2.01303
| 20>    N      -11.32529        -9.29157        -1.04824
| 21>    C      -12.40004       -11.40706        -5.41242
| 22>    C      -13.65936       -11.33366        -6.05428
| 23>    C      -13.86917       -11.81761        -7.32047
| 24>    C      -12.78135       -12.39432        -7.98932
| 25>    C      -11.52834       -12.45199        -7.34120
| 26>    C      -11.31530       -11.96768        -6.05627
| 27>    S      -10.31774       -13.18490        -8.35161
| 28>    C      -11.50016       -13.40308        -9.61506
| 29>    C      -12.73548       -12.95134        -9.29837
| 30>   Br      -10.98128       -14.20638       -11.23044
| 31>    C      -14.61778       -10.64047        -5.15855
| 32>    O      -15.79608       -10.44166        -5.37303
| 33>    C      -13.83754       -10.26788        -3.96626
| 34>    C      -14.30026        -9.49825        -2.91268
| 35>    C      -15.53756        -8.89066        -2.77932
| 36>    C      -15.76538        -8.00060        -1.73359
| 37>    C      -16.86400        -7.15508        -1.49296
| 38>    C      -16.67536        -6.26619        -0.46081
| 39>    C      -15.41709        -6.37617         0.14576
| 40>    S      -14.52197        -7.70368        -0.54692
| 41>    C      -14.72208        -5.56501         1.04462
| 42>    C      -15.08630        -4.46255         1.83573
| 43>    C      -14.02674        -3.88549         2.49023
| 44>    C      -12.77620        -4.47470         2.20424
| 45>    S      -13.01293        -5.85548         1.15798
| 46>    C      -11.51058        -4.10565         2.62717
| 47>    C      -10.33589        -4.61540         2.06131
| 48>    S      -10.37762        -5.35582         0.41269
| 49>    C       -8.68518        -5.81722         0.43291
| 50>    C       -8.14446        -5.32510         1.61021
| 51>    C       -9.02914        -4.66458         2.47857
| 52>    C       -7.87344        -4.51347         3.45089
| 53>    N       -7.02882        -5.10566         2.39388
| 54>    C       -8.17840        -6.63257        -0.59448
| 55>    C       -9.01128        -6.96096        -1.68722
| 56>    C       -8.62160        -7.87597        -2.73241
| 57>    N       -9.49381        -8.11562        -3.71918
| 58>    C      -10.67724        -7.54313        -3.71100
| 59>    C      -11.06553        -6.65266        -2.66529
| 60>    N      -10.20925        -6.37947        -1.70638
| 61>    C      -12.33995        -6.04504        -2.67003
| 62>    N      -13.38312        -5.57083        -2.71877
| 63>    C      -11.55817        -7.82840        -4.78094
| 64>    N      -12.27699        -8.06498        -5.64265
| 65>    C       -7.35644        -8.52114        -2.72446
| 66>    C       -6.50989        -8.16668        -1.63631
| 67>    C       -6.90502        -7.24258        -0.59409
| 68>    N       -5.96044        -7.07710         0.32678
| 69>    S       -4.68222        -7.97627        -0.07765
| 70>    N       -5.27455        -8.61901        -1.42479
| 71>    C       -6.96611        -9.48631        -3.70112
| 72>    C       -5.83836       -10.31559        -3.63837
| 73>    C       -5.83815       -11.17970        -4.75698
| 74>    C       -4.97863       -12.18790        -5.14115
| 75>    C       -5.28211       -12.88763        -6.31586
| 76>    C       -4.63362       -13.93667        -6.95987
| 77>    C       -5.36859       -14.28974        -8.12823
| 78>    C       -6.47760       -13.45564        -8.20795
| 79>    C       -6.46260       -12.56276        -7.10180
| 80>    C       -7.31455       -11.55307        -6.72624
| 81>    C       -7.01129       -10.85234        -5.54708
| 82>    C       -7.67974        -9.82738        -4.89909
| 83>    C       -5.04503       -15.32373        -9.08033
| 84>    C       -3.97659       -16.11556        -9.02857
| 85>    H      -14.83763       -11.74496        -7.78997
| 86>    H      -10.33860       -12.03323        -5.60621
| 87>    H      -13.58184       -13.00530        -9.95861
| 88>    H      -13.59125        -9.30193        -2.11635
| 89>    H      -16.30336        -9.04887        -3.52355
| 90>    H      -17.74602        -7.18765        -2.10773
| 91>    H      -17.39069        -5.51751        -0.16905
| 92>    H      -16.10349        -4.12158         1.91539
| 93>    H      -14.11227        -3.02578         3.13203
| 94>    H      -11.42489        -3.38474         3.43046
| 95>    H       -7.95727        -5.11603         4.35590
| 96>    H       -7.58356        -3.49219         3.69793
| 97>    H       -6.27130        -5.75833         2.51649
| 98>    H       -5.10714       -10.30981        -2.85370
| 99>    H       -4.10248       -12.43656        -4.55902
|100>    H       -3.72579       -14.40641        -6.62873
|101>    H       -7.22831       -13.47655        -8.97658
|102>    H       -8.19251       -11.30435        -7.30587
|103>    H       -8.57585        -9.34731        -5.24022
|104>    H       -5.75370       -15.43385        -9.89169
|105>    H       -3.24503       -16.04366        -8.24210
|106>    H       -3.79782       -16.86866        -9.77629
|107> *
|108>
|109>                          ****END OF INPUT****

CARTESIAN COORDINATES (ANGSTROEM)
---------------------------------
  C    -12.502740  -10.764600   -4.104980
  C    -11.455770  -10.642040   -3.210040
  C    -10.189490  -11.223450   -3.387300
  N     -9.134080  -11.678000   -3.451760
  C    -11.460700   -9.906220   -2.013030
  N    -11.325290   -9.291570   -1.048240
  C    -12.400040  -11.407060   -5.412420
  C    -13.659360  -11.333660   -6.054280
  C    -13.869170  -11.817610   -7.320470
  C    -12.781350  -12.394320   -7.989320
  C    -11.528340  -12.451990   -7.341200
  C    -11.315300  -11.967680   -6.056270
  S    -10.317740  -13.184900   -8.351610
  C    -11.500160  -13.403080   -9.615060
  C    -12.735480  -12.951340   -9.298370
  Br   -10.981280  -14.206380  -11.230440
  C    -14.617780  -10.640470   -5.158550
  O    -15.796080  -10.441660   -5.373030
  C    -13.837540  -10.267880   -3.966260
  C    -14.300260   -9.498250   -2.912680
  C    -15.537560   -8.890660   -2.779320
  C    -15.765380   -8.000600   -1.733590
  C    -16.864000   -7.155080   -1.492960
  C    -16.675360   -6.266190   -0.460810
  C    -15.417090   -6.376170    0.145760
  S    -14.521970   -7.703680   -0.546920
  C    -14.722080   -5.565010    1.044620
  C    -15.086300   -4.462550    1.835730
  C    -14.026740   -3.885490    2.490230
  C    -12.776200   -4.474700    2.204240
  S    -13.012930   -5.855480    1.157980
  C    -11.510580   -4.105650    2.627170
  C    -10.335890   -4.615400    2.061310
  S    -10.377620   -5.355820    0.412690
  C     -8.685180   -5.817220    0.432910
  C     -8.144460   -5.325100    1.610210
  C     -9.029140   -4.664580    2.478570
  C     -7.873440   -4.513470    3.450890
  N     -7.028820   -5.105660    2.393880
  C     -8.178400   -6.632570   -0.594480
  C     -9.011280   -6.960960   -1.687220
  C     -8.621600   -7.875970   -2.732410
  N     -9.493810   -8.115620   -3.719180
  C    -10.677240   -7.543130   -3.711000
  C    -11.065530   -6.652660   -2.665290
  N    -10.209250   -6.379470   -1.706380
  C    -12.339950   -6.045040   -2.670030
  N    -13.383120   -5.570830   -2.718770
  C    -11.558170   -7.828400   -4.780940
  N    -12.276990   -8.064980   -5.642650
  C     -7.356440   -8.521140   -2.724460
  C     -6.509890   -8.166680   -1.636310
  C     -6.905020   -7.242580   -0.594090
  N     -5.960440   -7.077100    0.326780
  S     -4.682220   -7.976270   -0.077650
  N     -5.274550   -8.619010   -1.424790
  C     -6.966110   -9.486310   -3.701120
  C     -5.838360  -10.315590   -3.638370
  C     -5.838150  -11.179700   -4.756980
  C     -4.978630  -12.187900   -5.141150
  C     -5.282110  -12.887630   -6.315860
  C     -4.633620  -13.936670   -6.959870
  C     -5.368590  -14.289740   -8.128230
  C     -6.477600  -13.455640   -8.207950
  C     -6.462600  -12.562760   -7.101800
  C     -7.314550  -11.553070   -6.726240
  C     -7.011290  -10.852340   -5.547080
  C     -7.679740   -9.827380   -4.899090
  C     -5.045030  -15.323730   -9.080330
  C     -3.976590  -16.115560   -9.028570
  H    -14.837630  -11.744960   -7.789970
  H    -10.338600  -12.033230   -5.606210
  H    -13.581840  -13.005300   -9.958610
  H    -13.591250   -9.301930   -2.116350
  H    -16.303360   -9.048870   -3.523550
  H    -17.746020   -7.187650   -2.107730
  H    -17.390690   -5.517510   -0.169050
  H    -16.103490   -4.121580    1.915390
  H    -14.112270   -3.025780    3.132030
  H    -11.424890   -3.384740    3.430460
  H     -7.957270   -5.116030    4.355900
  H     -7.583560   -3.492190    3.697930
  H     -6.271300   -5.758330    2.516490
  H     -5.107140  -10.309810   -2.853700
  H     -4.102480  -12.436560   -4.559020
  H     -3.725790  -14.406410   -6.628730
  H     -7.228310  -13.476550   -8.976580
  H     -8.192510  -11.304350   -7.305870
  H     -8.575850   -9.347310   -5.240220
  H     -5.753700  -15.433850   -9.891690
  H     -3.245030  -16.043660   -8.242100
  H     -3.797820  -16.868660   -9.776290

 Total Charge           Charge          ....    0
 Multiplicity           Mult            ....    1
 Number of Electrons    NEL             ....  532
 Basis Dimension        Dim             .... 1128

ORBITAL ENERGIES
----------------

  NO   OCC          E(Eh)            E(eV)
   0   2.0000    -482.875064    -13139.6985
   1   2.0000     -89.034328     -2422.7472
   2   2.0000     -88.962881     -2420.8031
   3   2.0000     -88.951666     -2420.4979
   4   2.0000     -88.944356     -2420.2990
   5   2.0000     -88.943034     -2420.2630
   6   2.0000     -62.552728     -1702.1463
   7   2.0000     -56.386651     -1534.3588
   8   2.0000     -56.383983     -1534.2862
   9   2.0000     -56.383936     -1534.2849
  10   2.0000     -19.190025      -522.1871
  11   2.0000     -14.448550      -393.1650
  12   2.0000     -14.448514      -393.1641
  13   2.0000     -14.446642      -393.1131
  14   2.0000     -14.446364      -393.1055
  15   2.0000     -14.427337      -392.5878
  16   2.0000     -14.418866      -392.3573
  17   2.0000     -14.417962      -392.3327
  18   2.0000     -14.400946      -391.8697
  19   2.0000     -14.393724      -391.6731
  20   2.0000     -10.365671      -282.0643
  21   2.0000     -10.364805      -282.0407
  22   2.0000     -10.344484      -281.4877
  23   2.0000     -10.339664      -281.3566
  24   2.0000     -10.335558      -281.2448
  25   2.0000     -10.333269      -281.1825
  26   2.0000     -10.332797      -281.1697
  27   2.0000     -10.330549      -281.1085
  28   2.0000     -10.324346      -280.9397
  29   2.0000     -10.322848      -280.8990
  30   2.0000     -10.316792      -280.7342
  31   2.0000     -10.315573      -280.7010
  32   2.0000     -10.313802      -280.6528
  33   2.0000     -10.313425      -280.6426
  34   2.0000     -10.313200      -280.6365
  35   2.0000     -10.312495      -280.6173
  36   2.0000     -10.312287      -280.6116
  37   2.0000     -10.309681      -280.5407
  38   2.0000     -10.307815      -280.4899
  39   2.0000     -10.306632      -280.4577
  40   2.0000     -10.305129      -280.4168
  41   2.0000     -10.305053      -280.4147
  42   2.0000     -10.304853      -280.4093
  43   2.0000     -10.304278      -280.3937
  44   2.0000     -10.302483      -280.3448
  45   2.0000     -10.299805      -280.2719
  46   2.0000     -10.299446      -280.2622
  47   2.0000     -10.296122      -280.1717
  48   2.0000     -10.295023      -280.1418
  49   2.0000     -10.294652      -280.1317
  50   2.0000     -10.291410      -280.0435
  51   2.0000     -10.289152      -279.9821
  52   2.0000     -10.285934      -279.8945
  53   2.0000     -10.285808      -279.8911
  54   2.0000     -10.285133      -279.8727
  55   2.0000     -10.283485      -279.8279
  56   2.0000     -10.280335      -279.7421
  57   2.0000     -10.280319      -279.7417
  58   2.0000     -10.277561      -279.6667
  59   2.0000     -10.274486      -279.5830
  60   2.0000     -10.273772      -279.5636
  61   2.0000     -10.273659      -279.5605
  62   2.0000     -10.269992      -279.4607
  63   2.0000     -10.269494      -279.4471
  64   2.0000     -10.265983      -279.3516
  65   2.0000     -10.265284      -279.3326
  66   2.0000     -10.264165      -279.3021
  67   2.0000     -10.261867      -279.2396
  68   2.0000     -10.259974      -279.1881
  69   2.0000     -10.258057      -279.1359
  70   2.0000     -10.256759      -279.1006
  71   2.0000     -10.256521      -279.0941
  72   2.0000     -10.252085      -278.9734
  73   2.0000     -10.250938      -278.9422
  74   2.0000      -8.782143      -238.9743
  75   2.0000      -8.125867      -221.1161
  76   2.0000      -8.058351      -219.2789
  77   2.0000      -8.047885      -218.9941
  78   2.0000      -8.040366      -218.7895
  79   2.0000      -8.035652      -218.6612
  80   2.0000      -6.618327      -180.0938
  81   2.0000      -6.603876      -179.7006
  82   2.0000      -6.603812      -179.6989
  83   2.0000      -6.097113      -165.9109
  84   2.0000      -6.089314      -165.6987
  85   2.0000      -6.088298      -165.6710
  86   2.0000      -6.028071      -164.0322
  87   2.0000      -6.023791      -163.9157
  88   2.0000      -6.019652      -163.8031
  89   2.0000      -6.017520      -163.7450
  90   2.0000      -6.013168      -163.6266
  91   2.0000      -6.009936      -163.5387
  92   2.0000      -6.008994      -163.5130
  93   2.0000      -6.005881      -163.4283
  94   2.0000      -6.005804      -163.4262
  95   2.0000      -6.001639      -163.3129
  96   2.0000      -6.000903      -163.2929
  97   2.0000      -5.996596      -163.1757
  98   2.0000      -2.734229       -74.4022
  99   2.0000      -2.730140       -74.2909
 100   2.0000      -2.730076       -74.2891
 101   2.0000      -2.718599       -73.9768
 102   2.0000      -2.718579       -73.9763
 103   2.0000      -1.132409       -30.8144
 104   2.0000      -1.107594       -30.1392
 105   2.0000      -1.102951       -30.0128
 106   2.0000      -1.069731       -29.1088
 107   2.0000      -1.035586       -28.1797
 108   2.0000      -1.005817       -27.3697
 109   2.0000      -1.004819       -27.3425
 110   2.0000      -1.002613       -27.2825
 111   2.0000      -0.997406       -27.1408
 112   2.0000      -0.994142       -27.0520
 113   2.0000      -0.988659       -26.9028
 114   2.0000      -0.980850       -26.6903
 115   2.0000      -0.979888       -26.6641
 116   2.0000      -0.976757       -26.5789
 117   2.0000      -0.969324       -26.3766
 118   2.0000      -0.967901       -26.3379
 119   2.0000      -0.953690       -25.9512
 120   2.0000      -0.946066       -25.7438
 121   2.0000      -0.924797       -25.1650
 122   2.0000      -0.905777       -24.6474
 123   2.0000      -0.896824       -24.4038
 124   2.0000      -0.895584       -24.3701
 125   2.0000      -0.889831       -24.2135
 126   2.0000      -0.885991       -24.1091
 127   2.0000      -0.872067       -23.7302
 128   2.0000      -0.867828       -23.6148
 129   2.0000      -0.860906       -23.4265
 130   2.0000      -0.856243       -23.2995
 131   2.0000      -0.855815       -23.2879
 132   2.0000      -0.843554       -22.9543
 133   2.0000      -0.832209       -22.6456
 134   2.0000      -0.824782       -22.4435
 135   2.0000      -0.822308       -22.3761
 136   2.0000      -0.815825       -22.1997
 137   2.0000      -0.811634       -22.0857
 138   2.0000      -0.799247       -21.7486
 139   2.0000      -0.793740       -21.5988
 140   2.0000      -0.788662       -21.4606
 141   2.0000      -0.779795       -21.2193
 142   2.0000      -0.772278       -21.0147
 143   2.0000      -0.764599       -20.8058
 144   2.0000      -0.745778       -20.2937
 145   2.0000      -0.739072       -20.1112
 146   2.0000      -0.737281       -20.0624
 147   2.0000      -0.728580       -19.8257
 148   2.0000      -0.721071       -19.6213
 149   2.0000      -0.710305       -19.3284
 150   2.0000      -0.694257       -18.8917
 151   2.0000      -0.692281       -18.8379
 152   2.0000      -0.690101       -18.7786
 153   2.0000      -0.683234       -18.5917
 154   2.0000      -0.675525       -18.3820
 155   2.0000      -0.670205       -18.2372
 156   2.0000      -0.662456       -18.0263
 157   2.0000      -0.658291       -17.9130
 158   2.0000      -0.651597       -17.7308
 159   2.0000      -0.646227       -17.5847
 160   2.0000      -0.644485       -17.5373
 161   2.0000      -0.640094       -17.4178
 162   2.0000      -0.629716       -17.1354
 163   2.0000      -0.626049       -17.0357
 164   2.0000      -0.623787       -16.9741
 165   2.0000      -0.615665       -16.7531
 166   2.0000      -0.612242       -16.6599
 167   2.0000      -0.608274       -16.5520
 168   2.0000      -0.607523       -16.5315
 169   2.0000      -0.603533       -16.4230
 170   2.0000      -0.600650       -16.3445
 171   2.0000      -0.589055       -16.0290
 172   2.0000      -0.579424       -15.7669
 173   2.0000      -0.577841       -15.7239
 174   2.0000      -0.574826       -15.6418
 175   2.0000      -0.571207       -15.5433
 176   2.0000      -0.570250       -15.5173
 177   2.0000      -0.563423       -15.3315
 178   2.0000      -0.558478       -15.1970
 179   2.0000      -0.555527       -15.1167
 180   2.0000      -0.549492       -14.9524
 181   2.0000      -0.543967       -14.8021
 182   2.0000      -0.542450       -14.7608
 183   2.0000      -0.538776       -14.6608
 184   2.0000      -0.529014       -14.3952
 185   2.0000      -0.524895       -14.2831
 186   2.0000      -0.521750       -14.1975
 187   2.0000      -0.519298       -14.1308
 188   2.0000      -0.518066       -14.0973
 189   2.0000      -0.512691       -13.9510
 190   2.0000      -0.511766       -13.9258
 191   2.0000      -0.507088       -13.7986
 192   2.0000      -0.505053       -13.7432
 193   2.0000      -0.503985       -13.7141
 194   2.0000      -0.502293       -13.6681
 195   2.0000      -0.495803       -13.4915
 196   2.0000      -0.493805       -13.4371
 197   2.0000      -0.492411       -13.3992
 198   2.0000      -0.490416       -13.3449
 199   2.0000      -0.487137       -13.2557
 200   2.0000      -0.484340       -13.1796
 201   2.0000      -0.481688       -13.1074
 202   2.0000      -0.477130       -12.9834
 203   2.0000      -0.476194       -12.9579
 204   2.0000      -0.475041       -12.9265
 205   2.0000      -0.473708       -12.8902
 206   2.0000      -0.471068       -12.8184
 207   2.0000      -0.469873       -12.7859
 208   2.0000      -0.467885       -12.7318
 209   2.0000      -0.465994       -12.6803
 210   2.0000      -0.464795       -12.6477
 211   2.0000      -0.458600       -12.4791
 212   2.0000      -0.457003       -12.4357
 213   2.0000      -0.454464       -12.3666
 214   2.0000      -0.452702       -12.3186
 215   2.0000      -0.449753       -12.2384
 216   2.0000      -0.447179       -12.1684
 217   2.0000      -0.444623       -12.0988
 218   2.0000      -0.442810       -12.0495
 219   2.0000      -0.441555       -12.0153
 220   2.0000      -0.438333       -11.9276
 221   2.0000      -0.436070       -11.8661
 222   2.0000      -0.435467       -11.8497
 223   2.0000      -0.433935       -11.8080
 224   2.0000      -0.429799       -11.6954
 225   2.0000      -0.428407       -11.6575
 226   2.0000      -0.426555       -11.6071
 227   2.0000      -0.423619       -11.5273
 228   2.0000      -0.423040       -11.5115
 229   2.0000      -0.421275       -11.4635
 230   2.0000      -0.416556       -11.3351
 231   2.0000      -0.413950       -11.2642
 232   2.0000      -0.413807       -11.2603
 233   2.0000      -0.411785       -11.2052
 234   2.0000      -0.408408       -11.1133
 235   2.0000      -0.406089       -11.0502
 236   2.0000      -0.405127       -11.0241
 237   2.0000      -0.399243       -10.8639
 238   2.0000      -0.398441       -10.8421
 239   2.0000      -0.393257       -10.7011
 240   2.0000      -0.390802       -10.6343
 241   2.0000      -0.390227       -10.6186
 242   2.0000      -0.379170       -10.3178
 243   2.0000      -0.374542       -10.1918
 244   2.0000      -0.372086       -10.1250
 245   2.0000      -0.369249       -10.0478
 246   2.0000      -0.367444        -9.9986
 247   2.0000      -0.364800        -9.9267
 248   2.0000      -0.358225        -9.7478
 249   2.0000      -0.356902        -9.7118
 250   2.0000      -0.346962        -9.4413
 251   2.0000      -0.340973        -9.2783
 252   2.0000      -0.336752        -9.1635
 253   2.0000      -0.333577        -9.0771
 254   2.0000      -0.321825        -8.7573
 255   2.0000      -0.316274        -8.6063
 256   2.0000      -0.310965        -8.4618
 257   2.0000      -0.309708        -8.4276
 258   2.0000      -0.298192        -8.1142
 259   2.0000      -0.288246        -7.8436
 260   2.0000      -0.283761        -7.7215
 261   2.0000      -0.277530        -7.5520
 262   2.0000      -0.256649        -6.9838
 263   2.0000      -0.254747        -6.9320
 264   2.0000      -0.226292        -6.1577
 265   2.0000      -0.207126        -5.6362
 266   0.0000      -0.119592        -3.2543
 267   0.0000      -0.093395        -2.5414
 268   0.0000      -0.085523        -2.3272
 269   0.0000      -0.055452        -1.5089
 270   0.0000      -0.037938        -1.0324

MULLIKEN ATOMIC CHARGES
-----------------------
   0 C :    0.346695
   1 C :   -0.418841
   2 C :   -0.170302
   3 N :    0.129237
   4 C :   -0.187677
   5 N :    0.110836
   6 C :    0.023050
   7 C :    0.000263
   8 C :   -0.083236
   9 C :    0.119289
  10 C :   -0.080912
  11 C :   -0.037251
  12 S :    0.155598
  13 C :   -0.121180
  14 C :    0.037502
  15 Br:    0.010104
  16 C :    0.143474
  17 O :   -0.157760
  18 C :   -0.066896
  19 C :   -0.073826
  20 C :    0.012978
  21 C :    0.008886
  22 C :    0.022462
  23 C :    0.053074
  24 C :   -0.031086
  25 S :    0.068084
  26 C :   -0.021896
  27 C :    0.032455
  28 C :    0.046811
  29 C :   -0.057795
  30 S :    0.119164
  31 C :    0.050417
  32 C :   -0.169320
  33 S :    0.134602
  34 C :   -0.333290
  35 C :    0.187620
  36 C :   -0.062914
  37 C :    0.244708
  38 N :   -0.160057
  39 C :    0.220774
  40 C :   -0.031383
  41 C :   -0.073367
  42 N :    0.033567
  43 C :   -0.147705
  44 C :   -0.068707
  45 N :   -0.005443
  46 C :   -0.258874
  47 N :    0.247431
  48 C :   -0.225044
  49 N :    0.230410
  50 C :    0.228257
  51 C :    0.004674
  52 C :   -0.055623
  53 N :   -0.308031
  54 S :    0.521557
  55 N :   -0.289485
  56 C :   -0.097253
  57 C :   -0.013773
  58 C :    0.083243
  59 C :   -0.003246
  60 C :    0.051311
  61 C :   -0.026865
  62 C :    0.064787
  63 C :   -0.032252
  64 C :    0.059282
  65 C :   -0.000933
  66 C :    0.084937
  67 C :   -0.003387
  68 C :    0.010483
  69 C :   -0.027032
  70 H :   -0.017193
  71 H :   -0.020924
  72 H :   -0.006134
  73 H :    0.018019
  74 H :    0.011296
  75 H :   -0.003996
  76 H :   -0.008663
  77 H :   -0.007853
  78 H :   -0.004811
  79 H :   -0.001875
  80 H :    0.034965
  81 H :    0.026270
  82 H :    0.119392
  83 H :   -0.013960
  84 H :   -0.027431
  85 H :   -0.029226
  86 H :   -0.030472
  87 H :   -0.032659
  88 H :   -0.006477
  89 H :   -0.019389
  90 H :    0.007027
  91 H :    0.018710
Sum of atomic charges:    0.0000000

LOEWDIN ATOMIC CHARGES
----------------------
   0 C :    0.075971
   1 C :   -0.181944
   2 C :   -0.014864
   3 N :   -0.071892
   4 C :   -0.024412
   5 N :   -0.091639
   6 C :   -0.011290
   7 C :   -0.039307
   8 C :    0.018155
   9 C :   -0.036480
  10 C :   -0.145902
  11 C :   -0.020682
  12 S :    0.423477
  13 C :   -0.278159
  14 C :   -0.066783
  15 Br:    0.125061
  16 C :    0.085982
  17 O :   -0.154654
  18 C :   -0.109204
  19 C :    0.036646
  20 C :   -0.063590
  21 C :   -0.098670
  22 C :   -0.046865
  23 C :   -0.005717
  24 C :   -0.189335
  25 S :    0.429465
  26 C :   -0.151156
  27 C :   -0.039069
  28 C :   -0.016452
  29 C :   -0.157856
  30 S :    0.429980
  31 C :   -0.037134
  32 C :   -0.171712
  33 S :    0.450065
  34 C :   -0.187336
  35 C :    0.015627
  36 C :   -0.079172
  37 C :    0.074417
  38 N :   -0.032477
  39 C :   -0.053161
  40 C :   -0.003453
  41 C :   -0.009212
  42 N :    0.011389
  43 C :   -0.036030
  44 C :   -0.027177
  45 N :   -0.011533
  46 C :   -0.037772
  47 N :   -0.022302
  48 C :   -0.032886
  49 N :   -0.021920
  50 C :   -0.008847
  51 C :   -0.035780
  52 C :   -0.036312
  53 N :   -0.290797
  54 S :    0.646412
  55 N :   -0.270456
  56 C :   -0.059525
  57 C :    0.059807
  58 C :   -0.058337
  59 C :    0.080289
  60 C :   -0.060766
  61 C :    0.035345
  62 C :   -0.058433
  63 C :    0.013194
  64 C :   -0.058915
  65 C :    0.073997
  66 C :   -0.064905
  67 C :    0.073918
  68 C :   -0.020433
  69 C :   -0.055937
  70 H :    0.038537
  71 H :    0.037276
  72 H :    0.037869
  73 H :    0.023522
  74 H :    0.039217
  75 H :    0.036381
  76 H :    0.034981
  77 H :    0.034309
  78 H :    0.035610
  79 H :    0.040025
  80 H :    0.030730
  81 H :    0.029590
  82 H :    0.062426
  83 H :    0.023191
  84 H :    0.034288
  85 H :    0.023111
  86 H :    0.018644
  87 H :    0.027237
  88 H :    0.022884
  89 H :    0.028926
  90 H :    0.017262
  91 H :    0.023430

  Mayer bond orders larger than 0.100000
B(  0-C ,  1-C ) :   1.5042 B(  0-C ,  6-C ) :   0.9849 B(  0-C , 18-C ) :   1.1747
B(  1-C ,  2-C ) :   1.1756 B(  1-C ,  4-C ) :   1.1675 B(  2-C ,  3-N ) :   2.8861
B(  4-C ,  5-N ) :   2.8872 B(  6-C ,  7-C ) :   1.2836 B(  6-C , 11-C ) :   1.4206
B(  7-C ,  8-C ) :   1.4360 B(  7-C , 16-C ) :   0.9229 B(  8-C ,  9-C ) :   1.2329
B(  8-C , 70-H ) :   1.0157 B(  9-C , 10-C ) :   1.3276 B(  9-C , 14-C ) :   1.1575
B( 10-C , 11-C ) :   1.3163 B( 10-C , 12-S ) :   1.0760 B( 11-C , 71-H ) :   0.9799
B( 12-S , 13-C ) :   1.0802 B( 13-C , 14-C ) :   1.6239 B( 13-C , 15-Br) :   1.0134
B( 14-C , 72-H ) :   1.0005 B( 16-C , 17-O ) :   2.2169 B( 16-C , 18-C ) :   0.9592
B( 18-C , 19-C ) :   1.4181 B( 19-C , 20-C ) :   1.3344 B( 19-C , 73-H ) :   0.9324
B( 20-C , 21-C ) :   1.3494 B( 20-C , 74-H ) :   0.9851 B( 21-C , 22-C ) :   1.2292
B( 21-C , 25-S ) :   1.0995 B( 22-C , 23-C ) :   1.4867 B( 22-C , 75-H ) :   0.9980
B( 23-C , 24-C ) :   1.2730 B( 23-C , 76-H ) :   0.9954 B( 24-C , 25-S ) :   1.0626
B( 24-C , 26-C ) :   1.3740 B( 26-C , 27-C ) :   1.2322 B( 26-C , 30-S ) :   1.0963
B( 27-C , 28-C ) :   1.5337 B( 27-C , 77-H ) :   0.9983 B( 28-C , 29-C ) :   1.1864
B( 28-C , 78-H ) :   0.9975 B( 29-C , 30-S ) :   1.0536 B( 29-C , 31-C ) :   1.4875
B( 31-C , 32-C ) :   1.2352 B( 31-C , 79-H ) :   0.9773 B( 32-C , 33-S ) :   0.9811
B( 32-C , 36-C ) :   1.4587 B( 33-S , 34-C ) :   1.0842 B( 34-C , 35-C ) :   1.3927
B( 34-C , 39-C ) :   1.2600 B( 35-C , 36-C ) :   1.2550 B( 35-C , 38-N ) :   1.1655
B( 36-C , 37-C ) :   1.0193 B( 37-C , 38-N ) :   1.0242 B( 37-C , 80-H ) :   0.9310
B( 37-C , 81-H ) :   0.9174 B( 38-N , 82-H ) :   0.9251 B( 39-C , 40-C ) :   1.2297
B( 39-C , 50-C ) :   0.1165 B( 39-C , 52-C ) :   1.1589 B( 40-C , 41-C ) :   1.1065
B( 40-C , 45-N ) :   1.3896 B( 41-C , 42-N ) :   1.4422 B( 41-C , 50-C ) :   1.2396
B( 42-N , 43-C ) :   1.7008 B( 43-C , 44-C ) :   1.2204 B( 43-C , 48-C ) :   1.1810
B( 44-C , 45-N ) :   1.6431 B( 44-C , 46-C ) :   1.1932 B( 46-C , 47-N ) :   2.9975
B( 48-C , 49-N ) :   2.9987 B( 50-C , 51-C ) :   1.1693 B( 50-C , 56-C ) :   1.1242
B( 51-C , 52-C ) :   1.0957 B( 51-C , 55-N ) :   1.5247 B( 52-C , 53-N ) :   1.5420
B( 53-N , 54-S ) :   1.2427 B( 53-N , 55-N ) :   0.1439 B( 54-S , 55-N ) :   1.2759
B( 56-C , 57-C ) :   1.4113 B( 56-C , 67-C ) :   1.1560 B( 57-C , 58-C ) :   1.1284
B( 57-C , 83-H ) :   0.9978 B( 58-C , 59-C ) :   1.3745 B( 58-C , 66-C ) :   1.1318
B( 59-C , 60-C ) :   1.1780 B( 59-C , 84-H ) :   1.0041 B( 60-C , 61-C ) :   1.3798
B( 60-C , 64-C ) :   1.1245 B( 61-C , 62-C ) :   1.1995 B( 61-C , 85-H ) :   1.0079
B( 62-C , 63-C ) :   1.4411 B( 62-C , 68-C ) :   1.0848 B( 63-C , 64-C ) :   1.1338
B( 63-C , 86-H ) :   1.0150 B( 64-C , 65-C ) :   1.4104 B( 65-C , 66-C ) :   1.1586
B( 65-C , 87-H ) :   1.0002 B( 66-C , 67-C ) :   1.3482 B( 67-C , 88-H ) :   1.0068
B( 68-C , 69-C ) :   1.9335 B( 68-C , 89-H ) :   0.9663 B( 69-C , 90-H ) :   0.9525
B( 69-C , 91-H ) :   0.9494

-----------------------------------------------------------------------------
         ABSORPTION SPECTRUM VIA TRANSITION ELECTRIC DIPOLE MOMENTS
-----------------------------------------------------------------------------
State   Energy  Wavelength   fosc         T2         TX        TY        TZ
        (cm-1)    (nm)                  (au**2)     (au)      (au)      (au)
-----------------------------------------------------------------------------
   0    3824.8   2614.5   0.074519506   6.41416  -2.36199   0.42439   0.80935
   1    8030.2   1245.3   0.030229801   1.23933   0.02269   0.81543   0.75755
   2    8760.3   1141.5   0.069840418   2.62460   0.70063  -1.04186  -1.02383
   3   10416.7    960.0   0.572156612  18.08265  -0.41093  -3.05463  -2.92968
   4   14493.2    690.0   0.081569131   1.85284   0.16672  -0.95023  -0.96026
   5   15036.1    665.1   0.114790612   2.51332  -0.70748   1.03510   0.97024
   6   15623.7    640.1   0.301336710   6.34956  -1.41579   1.37526   1.56645
   7   16766.0    596.4   0.026224171   0.51493   0.67219  -0.09152   0.23392
   8   17998.1    555.6   0.142467474   2.60594   1.05326  -0.52353  -1.10566
   9   19140.1    522.5   0.026542143   0.45653  -0.66986   0.05298   0.07076
  10   19881.6    503.0   0.002238694   0.03707   0.05157  -0.17692   0.05576
  11   20520.4    487.3   0.045698818   0.73315  -0.77144   0.27476  -0.25009
  12   21297.8    469.5   0.033721353   0.52125  -0.60452   0.33482  -0.20907
  13   21407.0    467.1   0.042613039   0.65533   0.45353  -0.49559  -0.45171
  14   21640.5    462.1   0.039326776   0.59827   0.10472  -0.48070  -0.59685
  15   21690.3    461.0   0.200103462   3.03714   1.38886  -0.84774  -0.62414
  16   22239.9    449.6   0.082256879   1.21763   0.55876   0.63148   0.71179
  17   22469.7    445.0   0.084881353   1.24363  -0.47132   0.91686   0.42527
  18   23013.7    434.5   0.121410892   1.73679   0.86151   0.52301   0.84915
  19   23219.3    430.7   0.073007452   1.03513  -0.05278  -0.34141  -0.95697
  20   23946.4    417.6   0.481074530   6.61375  -1.48606   1.61670   1.33852
  21   24863.1    402.2   0.225803622   2.98987  -1.53503   0.67055   0.42886
  22   24989.0    400.2   0.077616447   1.02254  -0.07299  -0.61552  -0.79897
  23   25452.5    392.9   0.040816027   0.52793  -0.67433   0.21458   0.16484
  24   25748.1    388.4   0.010430001   0.13336  -0.29855   0.14922   0.14817
  25   25886.5    386.3   0.005936538   0.07550  -0.19817  -0.15985  -0.10331
  26   26150.2    382.4   0.177481163   2.23436   0.26255  -0.87983  -1.17954
  27   27020.2    370.1   0.003189111   0.03886   0.10800   0.16489  -0.00183
  28   27268.9    366.7   0.032616079   0.39377  -0.32411  -0.22982  -0.48570
  29   27589.6    362.5   0.021908867   0.26143  -0.20912   0.42586   0.19063
  30   27857.2    359.0   0.039915651   0.47172   0.28936   0.00597   0.62286
  31   28202.1    354.6   0.110214923   1.28657  -0.06015   0.83314   0.76736
  32   29179.0    342.7   0.248618777   2.80504   0.48966   0.97226   1.27278
  33   29280.1    341.5   0.021065369   0.23685  -0.19648  -0.10884  -0.43174
  34   29661.1    337.1   0.158811692   1.76267   1.15280  -0.47571  -0.45544
  35   29848.3    335.0   0.066774174   0.73649  -0.37044  -0.28155  -0.72110
  36   30109.5    332.1   0.081009511   0.88574   0.19864   0.60684   0.69140
  37   30466.3    328.2   0.327090274   3.53446  -1.76431   0.42029  -0.49501
  38   30586.2    326.9   0.191688342   2.06322   0.24589  -1.11324  -0.87376
  39   30952.0    323.1   0.192011484   2.04228  -0.94897   0.93867   0.51052
  40   31075.6    321.8   0.024902064   0.26381  -0.10993   0.38896   0.31691
  41   31229.7    320.2   0.124218178   1.30946   0.94225   0.36680   0.53581
  42   31487.7    317.6   0.327617508   3.42532  -0.55239  -0.90114  -1.51926
  43   31747.5    315.0   0.007194333   0.07460   0.11334  -0.23402  -0.08360
  44   32086.1    311.7   0.031301503   0.32116   0.50627  -0.02406   0.25352
  45   32294.3    309.7   0.004013920   0.04092   0.03468   0.12654   0.15396
  46   32333.4    309.3   0.067111512   0.68332   0.25911   0.48544   0.61686
  47   32478.9    307.9   0.019825837   0.20096   0.22255   0.35726   0.15425
  48   32618.4    306.6   0.028115647   0.28377  -0.40496  -0.15679  -0.30853
  49   32882.1    304.1   0.577996670   5.78683   0.35231  -1.33741  -1.96826
  50   32997.8    303.1   0.021530260   0.21480  -0.37073   0.23266   0.15240
  51   33009.0    302.9   0.044627953   0.44509   0.38157  -0.39196  -0.38193
  52   33198.3    301.2   0.050087124   0.49669   0.41862   0.02951   0.56620
  53   33361.3    299.7   0.026439476   0.26091  -0.49639  -0.07125   0.09709
  54   33657.5    297.1   0.151605780   1.48289  -1.11804   0.43307  -0.21293
  55   33942.7    294.6   0.009016673   0.08745  -0.01931   0.29228   0.04066
  56   34096.6    293.3   0.057279607   0.55305   0.39673  -0.38755  -0.49544
  57   34448.2    290.3   0.003202356   0.03060   0.04322   0.16847  -0.01884
  58   34583.0    289.2   0.029776888   0.28346  -0.33897   0.40676   0.05578
  59   34826.1    287.1   0.036183561   0.34204   0.01065  -0.33571  -0.47878
  60   35013.0    285.6   0.059842205   0.56267   0.26394  -0.33074  -0.61937
  61   35253.9    283.7   0.051468111   0.48063   0.11584  -0.32428  -0.60171
  62   35471.4    281.9   0.210604046   1.95463  -1.04889  -0.15715  -0.91091
  63   35774.4    279.5   0.046611996   0.42894   0.46677  -0.44695  -0.10633
  64   36024.3    277.6   0.022705546   0.20750   0.30042  -0.28171  -0.19465
  65   36224.6    276.1   0.067750101   0.61572   0.38642  -0.43690  -0.52490
  66   36438.7    274.4   0.022202279   0.20059   0.32831  -0.21403   0.21679
  67   36574.3    273.4   0.055487844   0.49946   0.54879  -0.31532   0.31442
  68   36894.9    271.0   0.058241517   0.51969  -0.51348   0.41811   0.28498
  69   37019.4    270.1   0.027046826   0.24053  -0.45043  -0.03213  -0.19133
  70   37045.5    269.9   0.020869162   0.18546   0.38004   0.04210   0.19813
  71   37147.6    269.2   0.138612564   1.22842   0.74076   0.16960   0.80681
  72   37263.3    268.4   0.024268698   0.21441  -0.40045   0.22844   0.04319
  73   37506.2    266.6   0.024949529   0.21900   0.38782  -0.24258   0.09872
  74   37873.0    264.0   0.006983643   0.06071   0.08413  -0.22731  -0.04425
  75   37998.6    263.2   0.012787756   0.11079  -0.17899  -0.15221  -0.23576
  76   38161.2    262.0   0.001854091   0.01600   0.01442  -0.12540   0.00783
  77   38308.5    261.0   0.049393278   0.42447   0.50521   0.00127   0.41138
  78   38646.4    258.8   0.022473849   0.19144  -0.28926  -0.02386  -0.32742
  79   38771.8    257.9   0.048156974   0.40890   0.29710   0.16508   0.54165
  80   38991.7    256.5   0.037900532   0.32000  -0.43075  -0.04712  -0.36363
  81   39079.7    255.9   0.020582257   0.17339  -0.35037   0.08034  -0.21017
  82   39166.9    255.3   0.005158834   0.04336  -0.01926   0.19949   0.05653
  83   39244.5    254.8   0.062309748   0.52270  -0.17705  -0.44477  -0.54179
  84   39418.6    253.7   0.063980758   0.53435  -0.44163  -0.08531  -0.57622
  85   39518.2    253.0   0.044153279   0.36782  -0.13555  -0.32116  -0.49630
  86   39754.9    251.5   0.204834598   1.69624  -1.27932   0.22353  -0.09802
  87   39907.2    250.6   0.051799031   0.42731   0.48769  -0.39737  -0.17767
  88   40122.4    249.2   0.035997781   0.29537  -0.12633   0.46270   0.25558
  89   40254.6    248.4   0.035499405   0.29032   0.10639   0.12849   0.51234

FINAL SINGLE POINT ENERGY     -7199.645868891320

DIPOLE MOMENT
-------------
                                X             Y             Z
Electronic contribution:    -14.58207     -36.55306     -70.45149
Nuclear contribution   :     15.91565      38.34999      73.26068
                        -----------------------------------------
Total Dipole Moment    :      1.33358       1.79693       2.80919
                        -----------------------------------------
Magnitude (a.u.)       :      3.59151
Magnitude (Debye)      :      9.12889

Rotational constants in cm-1:     0.001368     0.000589     0.000427
Rotational constants in MHz :    41.001815    17.649995    12.803294

                             ****ORCA TERMINATED NORMALLY****
TOTAL RUN TIME: 0 days 0 hours 13 minutes 13 seconds 466 msec
