                         Program Version 4.2.0 -  RELEASE  -
|  1> # ORCA input file
|  2> # SCF done       -198.323592428982          0.000836329686
|  3> ! CAM-B3LYP def2-SVP def2/J RIJCOSX Grid4 TightSCF
|  4> %maxcore 5000
|  5> %tddft
|  6>     Mode sTDDFT
|  7>     Ethresh 5.0
|  8>     maxcore 5000
|  9> end
| 10>
| 11> %pal
| 12>   nprocs 6
| 13>   end
| 14> * xyz 0 1
| 15>    C       -4.95980        -0.67354        -4.10064
| 16>    C       -4.99093         0.39764        -4.96386
| 17>    C       -4.33431         0.43042        -6.21028
| 18>    N       -3.82580         0.50319        -7.23654
| 19>    C       -5.62136         1.61405        -4.65748
| 20>    N       -6.08755         2.63491        -4.40440
| 21>    C       -4.17125        -1.89056        -4.25986
| 22>    C       -4.24772        -2.64833        -3.06022
| 23>    C       -3.59214        -3.84411        -2.90039
| 24>    C       -2.83118        -4.32042        -3.97470
| 25>    C       -2.76523        -3.56063        -5.16719
| 26>    C       -3.42322        -2.34623        -5.32745
| 27>    S       -1.77850        -4.33733        -6.36618
| 28>    C       -1.46973        -5.65413        -5.26598
| 29>    C       -2.07478        -5.52004        -4.06078
| 30>   Br       -0.38155        -7.08000        -5.81138
| 31>    C       -5.12200        -1.94502        -2.10859
| 32>    O       -5.43093        -2.27941        -0.97314
| 33>    C       -5.60261        -0.75391        -2.81529
| 34>    C       -6.58727         0.05381        -2.30299
| 35>    N       -7.03882        -0.10458        -1.05338
| 36>    C       -8.00586         0.62517        -0.42204
| 37>    S       -8.79974        -0.09274         0.94633
| 38>    C       -9.82411         1.29791         1.05998
| 39>    N      -10.77913         1.33315         2.08895
| 40>    O      -11.50115         2.30861         2.15191
| 41>    O      -10.80845         0.37648         2.84083
| 42>    C       -9.56266         2.24996         0.11271
| 43>    C       -8.50156         1.89521        -0.74616
| 44>    C       -7.96014         2.74643        -1.77100
| 45>    C       -8.64544         3.70275        -2.43081
| 46>    N       -8.07616         4.42364        -3.42926
| 47>    C       -8.67539         5.38466        -4.16523
| 48>    S      -10.29602         5.94207        -3.93340
| 49>    C      -10.19641         7.09655        -5.24149
| 50>    C       -8.93518         7.03775        -5.83074
| 51>    C       -8.06846         6.06809        -5.22085
| 52>    N       -6.80789         5.86530        -5.64406
| 53>    C       -6.42442         6.60036        -6.65239
| 54>    C       -7.27610         7.55269        -7.26748
| 55>    N       -8.50057         7.77771        -6.87571
| 56>    C      -11.31818         7.89632        -5.57033
| 57>    C      -11.29117         8.83599        -6.54008
| 58>    N      -12.36476         9.60871        -6.93402
| 59>    C      -13.69056         9.39363        -6.75467
| 60>    S      -14.71143        10.79357        -6.58865
| 61>    C      -16.10353         9.76117        -6.45999
| 62>    N      -17.35235        10.37081        -6.29960
| 63>    O      -18.32443         9.64876        -6.18084
| 64>    O      -17.36572        11.59060        -6.28254
| 65>    C      -15.79907         8.43472        -6.55350
| 66>    C      -14.42101         8.18733        -6.74200
| 67>    C      -13.86200         6.90280        -7.01599
| 68>    C      -14.56849         5.75586        -7.17570
| 69>    C      -13.93135         4.52406        -7.45042
| 70>    C      -14.51711         3.36148        -7.85726
| 71>    C      -15.84261         3.08637        -8.36561
| 72>    C      -16.65531         3.96074        -9.04159
| 73>    C      -17.91397         3.60949        -9.57186
| 74>    N      -18.94917         3.37537       -10.00896
| 75>    C      -16.28247         5.27376        -9.39770
| 76>    N      -16.00765         6.32758        -9.76102
| 77>    C      -16.05882         1.64655        -8.25677
| 78>    C      -14.83380         1.02934        -7.89632
| 79>    C      -13.80512         2.06976        -7.69394
| 80>    O      -12.63903         1.91362        -7.40373
| 81>    C      -14.70601        -0.33212        -7.76564
| 82>    C      -15.83931        -1.12025        -7.99268
| 83>    C      -17.06033        -0.49281        -8.33717
| 84>    C      -17.18977         0.88394        -8.47521
| 85>    S      -18.33311        -1.65244        -8.56610
| 86>    C      -17.22275        -2.94766        -8.20625
| 87>    C      -15.96373        -2.53504        -7.92603
| 88>   Br      -17.82909        -4.72207        -8.23591
| 89>    H       -3.66300        -4.39796        -1.97750
| 90>    H       -3.34675        -1.80356        -6.25518
| 91>    H       -1.99211        -6.23803        -3.26540
| 92>    H       -7.06235         0.80573        -2.91359
| 93>    H       -6.64314        -0.92446        -0.56864
| 94>    H      -10.09748         3.18071         0.06882
| 95>    H       -6.92143         2.60573        -2.03077
| 96>    H       -9.68401         3.92062        -2.22285
| 97>    H       -7.15316         4.13107        -3.76509
| 98>    H       -5.41465         6.44921        -7.00564
| 99>    H       -6.92652         8.14064        -8.10505
|100>    H      -12.22071         7.72102        -5.00082
|101>    H      -10.36660         9.04926        -7.05503
|102>    H      -12.12482        10.53279        -7.27071
|103>    H      -16.55904         7.67713        -6.51094
|104>    H      -12.79459         6.86050        -7.17679
|105>    H      -15.64345         5.75791        -7.08024
|106>    H      -12.86682         4.45984        -7.24900
|107>    H      -13.76019        -0.77714        -7.49909
|108>    H      -18.14117         1.31786        -8.73472
|109>    H      -15.15480        -3.19962        -7.68319
|110> *
|111>
|112>                          ****END OF INPUT****

CARTESIAN COORDINATES (ANGSTROEM)
---------------------------------
  C     -4.959800   -0.673540   -4.100640
  C     -4.990930    0.397640   -4.963860
  C     -4.334310    0.430420   -6.210280
  N     -3.825800    0.503190   -7.236540
  C     -5.621360    1.614050   -4.657480
  N     -6.087550    2.634910   -4.404400
  C     -4.171250   -1.890560   -4.259860
  C     -4.247720   -2.648330   -3.060220
  C     -3.592140   -3.844110   -2.900390
  C     -2.831180   -4.320420   -3.974700
  C     -2.765230   -3.560630   -5.167190
  C     -3.423220   -2.346230   -5.327450
  S     -1.778500   -4.337330   -6.366180
  C     -1.469730   -5.654130   -5.265980
  C     -2.074780   -5.520040   -4.060780
  Br    -0.381550   -7.080000   -5.811380
  C     -5.122000   -1.945020   -2.108590
  O     -5.430930   -2.279410   -0.973140
  C     -5.602610   -0.753910   -2.815290
  C     -6.587270    0.053810   -2.302990
  N     -7.038820   -0.104580   -1.053380
  C     -8.005860    0.625170   -0.422040
  S     -8.799740   -0.092740    0.946330
  C     -9.824110    1.297910    1.059980
  N    -10.779130    1.333150    2.088950
  O    -11.501150    2.308610    2.151910
  O    -10.808450    0.376480    2.840830
  C     -9.562660    2.249960    0.112710
  C     -8.501560    1.895210   -0.746160
  C     -7.960140    2.746430   -1.771000
  C     -8.645440    3.702750   -2.430810
  N     -8.076160    4.423640   -3.429260
  C     -8.675390    5.384660   -4.165230
  S    -10.296020    5.942070   -3.933400
  C    -10.196410    7.096550   -5.241490
  C     -8.935180    7.037750   -5.830740
  C     -8.068460    6.068090   -5.220850
  N     -6.807890    5.865300   -5.644060
  C     -6.424420    6.600360   -6.652390
  C     -7.276100    7.552690   -7.267480
  N     -8.500570    7.777710   -6.875710
  C    -11.318180    7.896320   -5.570330
  C    -11.291170    8.835990   -6.540080
  N    -12.364760    9.608710   -6.934020
  C    -13.690560    9.393630   -6.754670
  S    -14.711430   10.793570   -6.588650
  C    -16.103530    9.761170   -6.459990
  N    -17.352350   10.370810   -6.299600
  O    -18.324430    9.648760   -6.180840
  O    -17.365720   11.590600   -6.282540
  C    -15.799070    8.434720   -6.553500
  C    -14.421010    8.187330   -6.742000
  C    -13.862000    6.902800   -7.015990
  C    -14.568490    5.755860   -7.175700
  C    -13.931350    4.524060   -7.450420
  C    -14.517110    3.361480   -7.857260
  C    -15.842610    3.086370   -8.365610
  C    -16.655310    3.960740   -9.041590
  C    -17.913970    3.609490   -9.571860
  N    -18.949170    3.375370  -10.008960
  C    -16.282470    5.273760   -9.397700
  N    -16.007650    6.327580   -9.761020
  C    -16.058820    1.646550   -8.256770
  C    -14.833800    1.029340   -7.896320
  C    -13.805120    2.069760   -7.693940
  O    -12.639030    1.913620   -7.403730
  C    -14.706010   -0.332120   -7.765640
  C    -15.839310   -1.120250   -7.992680
  C    -17.060330   -0.492810   -8.337170
  C    -17.189770    0.883940   -8.475210
  S    -18.333110   -1.652440   -8.566100
  C    -17.222750   -2.947660   -8.206250
  C    -15.963730   -2.535040   -7.926030
  Br   -17.829090   -4.722070   -8.235910
  H     -3.663000   -4.397960   -1.977500
  H     -3.346750   -1.803560   -6.255180
  H     -1.992110   -6.238030   -3.265400
  H     -7.062350    0.805730   -2.913590
  H     -6.643140   -0.924460   -0.568640
  H    -10.097480    3.180710    0.068820
  H     -6.921430    2.605730   -2.030770
  H     -9.684010    3.920620   -2.222850
  H     -7.153160    4.131070   -3.765090
  H     -5.414650    6.449210   -7.005640
  H     -6.926520    8.140640   -8.105050
  H    -12.220710    7.721020   -5.000820
  H    -10.366600    9.049260   -7.055030
  H    -12.124820   10.532790   -7.270710
  H    -16.559040    7.677130   -6.510940
  H    -12.794590    6.860500   -7.176790
  H    -15.643450    5.757910   -7.080240
  H    -12.866820    4.459840   -7.249000
  H    -13.760190   -0.777140   -7.499090
  H    -18.141170    1.317860   -8.734720
  H    -15.154800   -3.199620   -7.683190

 Total Charge           Charge          ....    0
 Multiplicity           Mult            ....    1
 Number of Electrons    NEL             ....  596
 Basis Dimension        Dim             .... 1197

ORBITAL ENERGIES
----------------

  NO   OCC          E(Eh)            E(eV)
   0   2.0000    -482.894347    -13140.2232
   1   2.0000    -482.884335    -13139.9508
   2   2.0000     -88.994228     -2421.6561
   3   2.0000     -88.986850     -2421.4553
   4   2.0000     -88.982827     -2421.3458
   5   2.0000     -88.980418     -2421.2803
   6   2.0000     -88.973918     -2421.1034
   7   2.0000     -62.572083     -1702.6729
   8   2.0000     -62.562090     -1702.4010
   9   2.0000     -56.406048     -1534.8866
  10   2.0000     -56.403304     -1534.8119
  11   2.0000     -56.403276     -1534.8112
  12   2.0000     -56.396037     -1534.6142
  13   2.0000     -56.393325     -1534.5404
  14   2.0000     -56.393288     -1534.5394
  15   2.0000     -19.246540      -523.7250
  16   2.0000     -19.246041      -523.7114
  17   2.0000     -19.239924      -523.5450
  18   2.0000     -19.232012      -523.3296
  19   2.0000     -19.231377      -523.3124
  20   2.0000     -19.210777      -522.7518
  21   2.0000     -14.658015      -398.8649
  22   2.0000     -14.643449      -398.4685
  23   2.0000     -14.507437      -394.7674
  24   2.0000     -14.478175      -393.9712
  25   2.0000     -14.466051      -393.6413
  26   2.0000     -14.442817      -393.0090
  27   2.0000     -14.432821      -392.7370
  28   2.0000     -14.429410      -392.6442
  29   2.0000     -14.424966      -392.5233
  30   2.0000     -14.412092      -392.1729
  31   2.0000     -14.409766      -392.1097
  32   2.0000     -10.387372      -282.6548
  33   2.0000     -10.377444      -282.3846
  34   2.0000     -10.373966      -282.2900
  35   2.0000     -10.372650      -282.2542
  36   2.0000     -10.369289      -282.1627
  37   2.0000     -10.361824      -281.9596
  38   2.0000     -10.359305      -281.8910
  39   2.0000     -10.357119      -281.8315
  40   2.0000     -10.356470      -281.8139
  41   2.0000     -10.354652      -281.7644
  42   2.0000     -10.352632      -281.7094
  43   2.0000     -10.349652      -281.6283
  44   2.0000     -10.339700      -281.3575
  45   2.0000     -10.338612      -281.3279
  46   2.0000     -10.338490      -281.3246
  47   2.0000     -10.337980      -281.3107
  48   2.0000     -10.337207      -281.2897
  49   2.0000     -10.328699      -281.0582
  50   2.0000     -10.323867      -280.9267
  51   2.0000     -10.323765      -280.9239
  52   2.0000     -10.321472      -280.8615
  53   2.0000     -10.319457      -280.8067
  54   2.0000     -10.319028      -280.7950
  55   2.0000     -10.316921      -280.7377
  56   2.0000     -10.316852      -280.7358
  57   2.0000     -10.316432      -280.7244
  58   2.0000     -10.315065      -280.6872
  59   2.0000     -10.314791      -280.6797
  60   2.0000     -10.314713      -280.6776
  61   2.0000     -10.314008      -280.6584
  62   2.0000     -10.312486      -280.6170
  63   2.0000     -10.311371      -280.5867
  64   2.0000     -10.310990      -280.5763
  65   2.0000     -10.307646      -280.4853
  66   2.0000     -10.307613      -280.4844
  67   2.0000     -10.307134      -280.4714
  68   2.0000     -10.306065      -280.4423
  69   2.0000     -10.305487      -280.4266
  70   2.0000     -10.305424      -280.4248
  71   2.0000     -10.304944      -280.4118
  72   2.0000     -10.303771      -280.3799
  73   2.0000     -10.303188      -280.3640
  74   2.0000     -10.299415      -280.2613
  75   2.0000     -10.299184      -280.2550
  76   2.0000     -10.295307      -280.1495
  77   2.0000     -10.290242      -280.0117
  78   2.0000     -10.289367      -279.9879
  79   2.0000     -10.287399      -279.9344
  80   2.0000     -10.286850      -279.9194
  81   2.0000     -10.286793      -279.9179
  82   2.0000      -8.801536      -239.5020
  83   2.0000      -8.791549      -239.2302
  84   2.0000      -8.090007      -220.1403
  85   2.0000      -8.082771      -219.9434
  86   2.0000      -8.077809      -219.8084
  87   2.0000      -8.076507      -219.7729
  88   2.0000      -8.069910      -219.5934
  89   2.0000      -6.637912      -180.6268
  90   2.0000      -6.627859      -180.3532
  91   2.0000      -6.623238      -180.2275
  92   2.0000      -6.623018      -180.2215
  93   2.0000      -6.613264      -179.9561
  94   2.0000      -6.613094      -179.9514
  95   2.0000      -6.059651      -164.8915
  96   2.0000      -6.055280      -164.7725
  97   2.0000      -6.052433      -164.6951
  98   2.0000      -6.051401      -164.6670
  99   2.0000      -6.048152      -164.5786
 100   2.0000      -6.046983      -164.5468
 101   2.0000      -6.046211      -164.5258
 102   2.0000      -6.044064      -164.4674
 103   2.0000      -6.043042      -164.4395
 104   2.0000      -6.041812      -164.4061
 105   2.0000      -6.040107      -164.3597
 106   2.0000      -6.039619      -164.3464
 107   2.0000      -6.037770      -164.2961
 108   2.0000      -6.035317      -164.2293
 109   2.0000      -6.031126      -164.1153
 110   2.0000      -2.753729       -74.9328
 111   2.0000      -2.749661       -74.8221
 112   2.0000      -2.749519       -74.8182
 113   2.0000      -2.743690       -74.6596
 114   2.0000      -2.739664       -74.5500
 115   2.0000      -2.739498       -74.5455
 116   2.0000      -2.737837       -74.5003
 117   2.0000      -2.737830       -74.5001
 118   2.0000      -2.727916       -74.2304
 119   2.0000      -2.727894       -74.2298
 120   2.0000      -1.328334       -36.1458
 121   2.0000      -1.312673       -35.7196
 122   2.0000      -1.154681       -31.4205
 123   2.0000      -1.147662       -31.2295
 124   2.0000      -1.132024       -30.8040
 125   2.0000      -1.125007       -30.6130
 126   2.0000      -1.109774       -30.1985
 127   2.0000      -1.090632       -29.6776
 128   2.0000      -1.081738       -29.4356
 129   2.0000      -1.070493       -29.1296
 130   2.0000      -1.038805       -28.2673
 131   2.0000      -1.029903       -28.0251
 132   2.0000      -1.020356       -27.7653
 133   2.0000      -1.017374       -27.6842
 134   2.0000      -1.011885       -27.5348
 135   2.0000      -1.009961       -27.4824
 136   2.0000      -1.007106       -27.4048
 137   2.0000      -1.002123       -27.2691
 138   2.0000      -0.999552       -27.1992
 139   2.0000      -0.989860       -26.9355
 140   2.0000      -0.986130       -26.8340
 141   2.0000      -0.978461       -26.6253
 142   2.0000      -0.954529       -25.9741
 143   2.0000      -0.942512       -25.6470
 144   2.0000      -0.926020       -25.1983
 145   2.0000      -0.923481       -25.1292
 146   2.0000      -0.921609       -25.0782
 147   2.0000      -0.912143       -24.8207
 148   2.0000      -0.905916       -24.6512
 149   2.0000      -0.899121       -24.4663
 150   2.0000      -0.898686       -24.4545
 151   2.0000      -0.892472       -24.2854
 152   2.0000      -0.888216       -24.1696
 153   2.0000      -0.883791       -24.0492
 154   2.0000      -0.873594       -23.7717
 155   2.0000      -0.862294       -23.4642
 156   2.0000      -0.856716       -23.3124
 157   2.0000      -0.854819       -23.2608
 158   2.0000      -0.845779       -23.0148
 159   2.0000      -0.841594       -22.9009
 160   2.0000      -0.828189       -22.5362
 161   2.0000      -0.822872       -22.3915
 162   2.0000      -0.806180       -21.9373
 163   2.0000      -0.796099       -21.6629
 164   2.0000      -0.788393       -21.4533
 165   2.0000      -0.778603       -21.1869
 166   2.0000      -0.775046       -21.0901
 167   2.0000      -0.765991       -20.8437
 168   2.0000      -0.759976       -20.6800
 169   2.0000      -0.754668       -20.5356
 170   2.0000      -0.742506       -20.2046
 171   2.0000      -0.733228       -19.9522
 172   2.0000      -0.728159       -19.8142
 173   2.0000      -0.716644       -19.5009
 174   2.0000      -0.708928       -19.2909
 175   2.0000      -0.705309       -19.1924
 176   2.0000      -0.702937       -19.1279
 177   2.0000      -0.695516       -18.9259
 178   2.0000      -0.685223       -18.6459
 179   2.0000      -0.683781       -18.6066
 180   2.0000      -0.675517       -18.3818
 181   2.0000      -0.673336       -18.3224
 182   2.0000      -0.662936       -18.0394
 183   2.0000      -0.657990       -17.9048
 184   2.0000      -0.654797       -17.8179
 185   2.0000      -0.646309       -17.5870
 186   2.0000      -0.644366       -17.5341
 187   2.0000      -0.643205       -17.5025
 188   2.0000      -0.639355       -17.3977
 189   2.0000      -0.634068       -17.2539
 190   2.0000      -0.633662       -17.2428
 191   2.0000      -0.631312       -17.1789
 192   2.0000      -0.626027       -17.0351
 193   2.0000      -0.624552       -16.9949
 194   2.0000      -0.620671       -16.8893
 195   2.0000      -0.619621       -16.8608
 196   2.0000      -0.616018       -16.7627
 197   2.0000      -0.611250       -16.6330
 198   2.0000      -0.599458       -16.3121
 199   2.0000      -0.596372       -16.2281
 200   2.0000      -0.594841       -16.1864
 201   2.0000      -0.592899       -16.1336
 202   2.0000      -0.590210       -16.0604
 203   2.0000      -0.582927       -15.8622
 204   2.0000      -0.578115       -15.7313
 205   2.0000      -0.576693       -15.6926
 206   2.0000      -0.569074       -15.4853
 207   2.0000      -0.567075       -15.4309
 208   2.0000      -0.564347       -15.3567
 209   2.0000      -0.563559       -15.3352
 210   2.0000      -0.557997       -15.1839
 211   2.0000      -0.554600       -15.0914
 212   2.0000      -0.552685       -15.0393
 213   2.0000      -0.548914       -14.9367
 214   2.0000      -0.546462       -14.8700
 215   2.0000      -0.543941       -14.8014
 216   2.0000      -0.540277       -14.7017
 217   2.0000      -0.536270       -14.5926
 218   2.0000      -0.535555       -14.5732
 219   2.0000      -0.533215       -14.5095
 220   2.0000      -0.532387       -14.4870
 221   2.0000      -0.529405       -14.4058
 222   2.0000      -0.527884       -14.3644
 223   2.0000      -0.520742       -14.1701
 224   2.0000      -0.518435       -14.1073
 225   2.0000      -0.512370       -13.9423
 226   2.0000      -0.510613       -13.8945
 227   2.0000      -0.508835       -13.8461
 228   2.0000      -0.508542       -13.8381
 229   2.0000      -0.505396       -13.7525
 230   2.0000      -0.502730       -13.6800
 231   2.0000      -0.501571       -13.6484
 232   2.0000      -0.499876       -13.6023
 233   2.0000      -0.499036       -13.5795
 234   2.0000      -0.491947       -13.3866
 235   2.0000      -0.491187       -13.3659
 236   2.0000      -0.489938       -13.3319
 237   2.0000      -0.487188       -13.2571
 238   2.0000      -0.482495       -13.1294
 239   2.0000      -0.477359       -12.9896
 240   2.0000      -0.476301       -12.9608
 241   2.0000      -0.474674       -12.9165
 242   2.0000      -0.470975       -12.8159
 243   2.0000      -0.467360       -12.7175
 244   2.0000      -0.462546       -12.5865
 245   2.0000      -0.461643       -12.5619
 246   2.0000      -0.459723       -12.5097
 247   2.0000      -0.457270       -12.4430
 248   2.0000      -0.455869       -12.4048
 249   2.0000      -0.454389       -12.3646
 250   2.0000      -0.451960       -12.2985
 251   2.0000      -0.447479       -12.1765
 252   2.0000      -0.446219       -12.1422
 253   2.0000      -0.444803       -12.1037
 254   2.0000      -0.444524       -12.0961
 255   2.0000      -0.443488       -12.0679
 256   2.0000      -0.442146       -12.0314
 257   2.0000      -0.439382       -11.9562
 258   2.0000      -0.436461       -11.8767
 259   2.0000      -0.434514       -11.8237
 260   2.0000      -0.430210       -11.7066
 261   2.0000      -0.426464       -11.6047
 262   2.0000      -0.424201       -11.5431
 263   2.0000      -0.423258       -11.5174
 264   2.0000      -0.421687       -11.4747
 265   2.0000      -0.416812       -11.3420
 266   2.0000      -0.406045       -11.0491
 267   2.0000      -0.399619       -10.8742
 268   2.0000      -0.396839       -10.7986
 269   2.0000      -0.396057       -10.7773
 270   2.0000      -0.393370       -10.7041
 271   2.0000      -0.388912       -10.5828
 272   2.0000      -0.385584       -10.4923
 273   2.0000      -0.383768       -10.4429
 274   2.0000      -0.383173       -10.4267
 275   2.0000      -0.380619       -10.3572
 276   2.0000      -0.379584       -10.3290
 277   2.0000      -0.374594       -10.1932
 278   2.0000      -0.373881       -10.1738
 279   2.0000      -0.373176       -10.1546
 280   2.0000      -0.367728       -10.0064
 281   2.0000      -0.364788        -9.9264
 282   2.0000      -0.360812        -9.8182
 283   2.0000      -0.358959        -9.7678
 284   2.0000      -0.349550        -9.5117
 285   2.0000      -0.346255        -9.4221
 286   2.0000      -0.335820        -9.1381
 287   2.0000      -0.332264        -9.0414
 288   2.0000      -0.329357        -8.9623
 289   2.0000      -0.327418        -8.9095
 290   2.0000      -0.323427        -8.8009
 291   2.0000      -0.313315        -8.5257
 292   2.0000      -0.308208        -8.3868
 293   2.0000      -0.305171        -8.3041
 294   2.0000      -0.292331        -7.9547
 295   2.0000      -0.285884        -7.7793
 296   2.0000      -0.270463        -7.3597
 297   2.0000      -0.223643        -6.0856
 298   0.0000      -0.097814        -2.6617
 299   0.0000      -0.089305        -2.4301
 300   0.0000      -0.076429        -2.0797
 301   0.0000      -0.065953        -1.7947
 302   0.0000      -0.056075        -1.5259

MULLIKEN ATOMIC CHARGES
-----------------------
   0 C :    0.323831
   1 C :   -0.353550
   2 C :   -0.181591
   3 N :    0.151459
   4 C :   -0.160096
   5 N :    0.121331
   6 C :    0.006448
   7 C :   -0.011724
   8 C :   -0.067529
   9 C :    0.118035
  10 C :   -0.093061
  11 C :   -0.018066
  12 S :    0.194282
  13 C :   -0.125117
  14 C :    0.038210
  15 Br:    0.031430
  16 C :    0.174555
  17 O :   -0.204281
  18 C :   -0.145033
  19 C :    0.015941
  20 N :    0.008539
  21 C :   -0.128650
  22 S :    0.194696
  23 C :   -0.004713
  24 N :    0.277942
  25 O :   -0.243343
  26 O :   -0.256864
  27 C :   -0.008375
  28 C :    0.116764
  29 C :   -0.080573
  30 C :    0.070406
  31 N :   -0.010196
  32 C :   -0.175657
  33 S :    0.128848
  34 C :   -0.197848
  35 C :    0.058389
  36 C :    0.047871
  37 N :   -0.002896
  38 C :    0.008666
  39 C :    0.031597
  40 N :   -0.032079
  41 C :   -0.010281
  42 C :    0.031152
  43 N :   -0.019339
  44 C :   -0.106541
  45 S :    0.165526
  46 C :   -0.008013
  47 N :    0.279670
  48 O :   -0.248022
  49 O :   -0.267377
  50 C :    0.012316
  51 C :    0.111010
  52 C :   -0.022516
  53 C :    0.009821
  54 C :    0.020477
  55 C :   -0.114237
  56 C :    0.277112
  57 C :   -0.338967
  58 C :   -0.177401
  59 N :    0.150866
  60 C :   -0.219314
  61 N :    0.172170
  62 C :    0.005408
  63 C :   -0.006329
  64 C :    0.142022
  65 O :   -0.150379
  66 C :   -0.072062
  67 C :    0.114583
  68 C :   -0.090483
  69 C :   -0.020913
  70 S :    0.186871
  71 C :   -0.125062
  72 C :    0.039517
  73 Br:    0.021699
  74 H :   -0.006956
  75 H :   -0.003266
  76 H :    0.000210
  77 H :    0.060887
  78 H :    0.165393
  79 H :    0.010291
  80 H :    0.009306
  81 H :    0.015704
  82 H :    0.152224
  83 H :    0.012686
  84 H :    0.010570
  85 H :   -0.006255
  86 H :    0.021425
  87 H :    0.145052
  88 H :    0.013522
  89 H :    0.027927
  90 H :    0.016355
  91 H :    0.015510
  92 H :   -0.013142
  93 H :   -0.003261
  94 H :   -0.005161
Sum of atomic charges:   -0.0000000

LOEWDIN ATOMIC CHARGES
----------------------
   0 C :    0.089054
   1 C :   -0.163018
   2 C :   -0.022825
   3 N :   -0.053697
   4 C :    0.021723
   5 N :   -0.061650
   6 C :   -0.021061
   7 C :   -0.050401
   8 C :    0.024894
   9 C :   -0.032018
  10 C :   -0.145039
  11 C :   -0.005304
  12 S :    0.439661
  13 C :   -0.270291
  14 C :   -0.069534
  15 Br:    0.142476
  16 C :    0.092932
  17 O :   -0.171171
  18 C :   -0.154847
  19 C :    0.117202
  20 N :    0.080268
  21 C :   -0.131848
  22 S :    0.468546
  23 C :   -0.199720
  24 N :    0.273304
  25 O :   -0.209569
  26 O :   -0.222384
  27 C :   -0.004870
  28 C :   -0.072809
  29 C :   -0.105885
  30 C :    0.042242
  31 N :    0.054269
  32 C :   -0.126292
  33 S :    0.453683
  34 C :   -0.212261
  35 C :   -0.045188
  36 C :   -0.088103
  37 N :   -0.028815
  38 C :   -0.013185
  39 C :    0.011440
  40 N :   -0.046107
  41 C :   -0.082637
  42 C :    0.003035
  43 N :    0.030067
  44 C :   -0.084128
  45 S :    0.446861
  46 C :   -0.207407
  47 N :    0.274049
  48 O :   -0.214411
  49 O :   -0.232601
  50 C :    0.017685
  51 C :   -0.114615
  52 C :    0.038079
  53 C :   -0.039490
  54 C :    0.071318
  55 C :   -0.102691
  56 C :    0.070139
  57 C :   -0.141978
  58 C :   -0.019719
  59 N :   -0.052439
  60 C :   -0.023922
  61 N :   -0.050656
  62 C :   -0.017836
  63 C :   -0.052453
  64 C :    0.081829
  65 O :   -0.151717
  66 C :    0.020518
  67 C :   -0.034480
  68 C :   -0.143697
  69 C :   -0.012260
  70 S :    0.432845
  71 C :   -0.272786
  72 C :   -0.070904
  73 Br:    0.135231
  74 H :    0.042619
  75 H :    0.042451
  76 H :    0.040031
  77 H :    0.045161
  78 H :    0.087813
  79 H :    0.044508
  80 H :    0.028991
  81 H :    0.022825
  82 H :    0.080437
  83 H :    0.026203
  84 H :    0.026278
  85 H :    0.029323
  86 H :    0.026855
  87 H :    0.094050
  88 H :    0.046192
  89 H :    0.040835
  90 H :    0.029483
  91 H :    0.044436
  92 H :    0.039793
  93 H :    0.041004
  94 H :    0.038079

  Mayer bond orders larger than 0.100000
B(  0-C ,  1-C ) :   1.5905 B(  0-C ,  6-C ) :   1.0101 B(  0-C , 18-C ) :   1.1235
B(  1-C ,  2-C ) :   1.1361 B(  1-C ,  4-C ) :   1.1695 B(  2-C ,  3-N ) :   2.9769
B(  4-C ,  5-N ) :   2.9088 B(  5-N , 82-H ) :   0.1111 B(  6-C ,  7-C ) :   1.2702
B(  6-C , 11-C ) :   1.4264 B(  7-C ,  8-C ) :   1.4302 B(  7-C , 16-C ) :   0.9709
B(  8-C ,  9-C ) :   1.2387 B(  8-C , 74-H ) :   1.0177 B(  9-C , 10-C ) :   1.3096
B(  9-C , 14-C ) :   1.1673 B( 10-C , 11-C ) :   1.3175 B( 10-C , 12-S ) :   1.0908
B( 11-C , 75-H ) :   0.9814 B( 12-S , 13-C ) :   1.0903 B( 13-C , 14-C ) :   1.6141
B( 13-C , 15-Br) :   1.0230 B( 14-C , 76-H ) :   0.9999 B( 16-C , 17-O ) :   2.0795
B( 16-C , 18-C ) :   0.9936 B( 17-O , 78-H ) :   0.1317 B( 18-C , 19-C ) :   1.4204
B( 19-C , 20-N ) :   1.3721 B( 19-C , 77-H ) :   0.9370 B( 20-N , 21-C ) :   1.1351
B( 20-N , 78-H ) :   0.8416 B( 21-C , 22-S ) :   1.1295 B( 21-C , 28-C ) :   1.4036
B( 22-S , 23-C ) :   1.1033 B( 23-C , 24-N ) :   0.9596 B( 23-C , 27-C ) :   1.4910
B( 24-N , 25-O ) :   1.5411 B( 24-N , 26-O ) :   1.5181 B( 25-O , 26-O ) :   0.2641
B( 27-C , 28-C ) :   1.2283 B( 27-C , 79-H ) :   1.0009 B( 28-C , 29-C ) :   1.0804
B( 29-C , 30-C ) :   1.6766 B( 29-C , 80-H ) :   0.9532 B( 30-C , 31-N ) :   1.1617
B( 30-C , 81-H ) :   0.9691 B( 31-N , 32-C ) :   1.2533 B( 31-N , 82-H ) :   0.8597
B( 32-C , 33-S ) :   1.1684 B( 32-C , 34-C ) :   0.1177 B( 32-C , 36-C ) :   1.2926
B( 33-S , 34-C ) :   1.0871 B( 34-C , 35-C ) :   1.3837 B( 34-C , 41-C ) :   1.1864
B( 35-C , 36-C ) :   1.2144 B( 35-C , 40-N ) :   1.3674 B( 36-C , 37-N ) :   1.4079
B( 37-N , 38-C ) :   1.6944 B( 38-C , 39-C ) :   1.1757 B( 38-C , 83-H ) :   0.9742
B( 39-C , 40-N ) :   1.7045 B( 39-C , 84-H ) :   0.9736 B( 41-C , 42-C ) :   1.7124
B( 41-C , 85-H ) :   0.9371 B( 42-C , 43-N ) :   1.0742 B( 42-C , 86-H ) :   0.9404
B( 43-N , 44-C ) :   1.2378 B( 43-N , 87-H ) :   0.9127 B( 44-C , 45-S ) :   1.1499
B( 44-C , 51-C ) :   1.3241 B( 45-S , 46-C ) :   1.0603 B( 46-C , 47-N ) :   0.9703
B( 46-C , 50-C ) :   1.5214 B( 47-N , 48-O ) :   1.5338 B( 47-N , 49-O ) :   1.5077
B( 48-O , 49-O ) :   0.2582 B( 50-C , 51-C ) :   1.2095 B( 50-C , 88-H ) :   0.9961
B( 51-C , 52-C ) :   1.0927 B( 52-C , 53-C ) :   1.6455 B( 52-C , 89-H ) :   0.9823
B( 53-C , 54-C ) :   1.1434 B( 53-C , 90-H ) :   0.9550 B( 54-C , 55-C ) :   1.5841
B( 54-C , 91-H ) :   0.9586 B( 55-C , 56-C ) :   1.0510 B( 55-C , 64-C ) :   0.9484
B( 56-C , 57-C ) :   1.6344 B( 56-C , 62-C ) :   1.0130 B( 57-C , 58-C ) :   1.1317
B( 57-C , 60-C ) :   1.1623 B( 58-C , 59-N ) :   2.9843 B( 60-C , 61-N ) :   3.0146
B( 62-C , 63-C ) :   1.2747 B( 62-C , 69-C ) :   1.4161 B( 63-C , 64-C ) :   0.9232
B( 63-C , 66-C ) :   1.4277 B( 64-C , 65-O ) :   2.2623 B( 66-C , 67-C ) :   1.2502
B( 66-C , 92-H ) :   1.0155 B( 67-C , 68-C ) :   1.3088 B( 67-C , 72-C ) :   1.1635
B( 68-C , 69-C ) :   1.3262 B( 68-C , 70-S ) :   1.0855 B( 69-C , 93-H ) :   0.9821
B( 70-S , 71-C ) :   1.0869 B( 71-C , 72-C ) :   1.6197 B( 71-C , 73-Br) :   1.0175
B( 72-C , 94-H ) :   0.9994

-----------------------------------------------------------------------------
         ABSORPTION SPECTRUM VIA TRANSITION ELECTRIC DIPOLE MOMENTS
-----------------------------------------------------------------------------
State   Energy  Wavelength   fosc         T2         TX        TY        TZ
        (cm-1)    (nm)                  (au**2)     (au)      (au)      (au)
-----------------------------------------------------------------------------
   0   13288.2    752.5   0.326796062   8.09629   2.44513  -1.02784   1.03015
   1   14442.6    692.4   0.151267498   3.44807   0.44026   1.54568   0.93012
   2   17054.4    586.4   0.278449105   5.37508   0.93919  -1.81609   1.09307
   3   19506.7    512.6   0.039265678   0.66268   0.46405  -0.63870  -0.19850
   4   22350.1    447.4   0.196163812   2.88944  -1.02583   1.32812   0.27062
   5   23166.8    431.7   0.314709193   4.47217  -1.01128  -1.32312  -1.30340
   6   23362.0    428.0   0.472519882   6.65863   1.95984  -1.21348  -1.15978
   7   23627.7    423.2   0.358615550   4.99670   0.79179   2.07799  -0.22747
   8   24434.2    409.3   0.047627345   0.64170  -0.41210  -0.43858   0.52870
   9   27399.6    365.0   0.029782626   0.35784   0.44619  -0.37293  -0.14027
  10   27760.4    360.2   0.122686810   1.45495   0.11186  -1.19695   0.09876
  11   28218.3    354.4   0.362990629   4.23486  -1.20376  -0.56679   1.56990
  12   28786.5    347.4   0.039132155   0.44753   0.01418  -0.30296   0.59627
  13   29141.2    343.2   0.712930544   8.05408   1.80617  -2.10403  -0.60406
  14   29440.2    339.7   0.000553254   0.00619   0.04168   0.01037  -0.06590
  15   29600.4    337.8   0.142533162   1.58524   0.40368   1.17946   0.17650
  16   29800.1    335.6   0.008645972   0.09552  -0.24024   0.19439   0.00350
  17   30591.9    326.9   0.047663363   0.51293  -0.04203  -0.38226  -0.60418
  18   30859.2    324.1   0.203082966   2.16653   0.33277  -1.06724  -0.95750
  19   31208.3    320.4   0.192013991   2.02553   0.02965  -1.38271   0.33580
  20   31397.7    318.5   0.348551283   3.65463   0.36957  -1.69110   0.81132
  21   31635.1    316.1   0.129964879   1.35248  -0.90325   0.71106   0.17614
  22   32335.7    309.3   0.009572998   0.09746   0.21230   0.14231   0.17927
  23   32696.3    305.8   0.045347844   0.45660   0.30049  -0.51133   0.32379
  24   32845.9    304.5   0.406944502   4.07878  -0.34089   1.98132  -0.19222
  25   33029.0    302.8   0.212592285   2.11899  -0.67132  -0.48352   1.19772
  26   33453.7    298.9   0.057807985   0.56888  -0.44986  -0.56213  -0.22476
  27   33770.1    296.1   0.449688422   4.38384  -0.28219   2.01824  -0.48056
  28   33869.2    295.3   0.102457505   0.99590  -0.23954  -0.79773   0.54967
  29   33982.2    294.3   0.203468097   1.97115  -0.43601   1.32311  -0.17448
  30   34061.3    293.6   0.251538128   2.43118  -0.16209   1.25255  -0.91434
  31   34296.2    291.6   0.084408698   0.81025   0.69806  -0.54686  -0.15460
  32   34628.5    288.8   0.003575688   0.03399   0.08218   0.09774  -0.13300
  33   35071.8    285.1   0.004914657   0.04613  -0.17758  -0.02378   0.11845
  34   35301.3    283.3   0.034511549   0.32185   0.43356  -0.23382  -0.28143
  35   35947.4    278.2   0.179901791   1.64757  -0.53914   1.07607  -0.44605
  36   36249.9    275.9   0.065100798   0.59123  -0.16590   0.61046  -0.43708
  37   36824.5    271.6   0.093909084   0.83955  -0.66353   0.26336   0.57438
  38   37088.4    269.6   0.035761435   0.31743  -0.13966  -0.39275   0.37905
  39   37215.6    268.7   0.010135636   0.08966  -0.09658  -0.27598  -0.06458
  40   37357.4    267.7   0.023479873   0.20692   0.01282   0.44651   0.08592
  41   37468.5    266.9   0.010943630   0.09615   0.24123  -0.15262   0.12112
  42   37637.7    265.7   0.027555411   0.24102  -0.01287  -0.35590   0.33792
  43   37891.0    263.9   0.000620527   0.00539   0.06410  -0.02738  -0.02308
  44   38084.7    262.6   0.015483836   0.13385   0.13857   0.25544  -0.22224
  45   38178.4    261.9   0.002678153   0.02309  -0.11126  -0.09980  -0.02749
  46   38301.4    261.1   0.003915330   0.03365  -0.17368   0.05761   0.01304
  47   38378.4    260.6   0.013890729   0.11916   0.08286  -0.26119   0.20993
  48   38657.0    258.7   0.008261449   0.07036   0.10625  -0.22248  -0.09782
  49   38791.9    257.8   0.035345454   0.29996   0.48490   0.25455  -0.00624
  50   38875.6    257.2   0.050745575   0.42973   0.34504   0.40213  -0.38597
  51   39016.1    256.3   0.078254344   0.66030   0.51346  -0.31153  -0.54736
  52   39152.0    255.4   0.067927396   0.57117   0.59276  -0.19246  -0.42752
  53   39322.5    254.3   0.154309660   1.29190   0.51447  -0.22495  -0.98824
  54   39574.1    252.7   0.024742749   0.20583  -0.39867  -0.04184   0.21247
  55   39626.4    252.4   0.006597545   0.05481  -0.08826  -0.18215   0.11766
  56   40069.8    249.6   0.013415116   0.11022   0.22719  -0.11224  -0.21448
  57   40176.8    248.9   0.021125282   0.17310  -0.28132  -0.28041   0.12381
  58   40309.4    248.1   0.006491299   0.05302  -0.06231   0.00899  -0.22148

FINAL SINGLE POINT ENERGY    -10105.863803045026

DIPOLE MOMENT
-------------
                                X             Y             Z
Electronic contribution:     20.06968    -172.14940     -33.40575
Nuclear contribution   :    -14.94714     169.35316      34.16281
                        -----------------------------------------
Total Dipole Moment    :      5.12254      -2.79624       0.75706
                        -----------------------------------------
Magnitude (a.u.)       :      5.88494
Magnitude (Debye)      :     14.95833

Rotational constants in cm-1:     0.000585     0.000282     0.000229
Rotational constants in MHz :    17.523270     8.443905     6.878790

                             ****ORCA TERMINATED NORMALLY****
TOTAL RUN TIME: 0 days 0 hours 9 minutes 10 seconds 733 msec
