                         Program Version 4.2.0 -  RELEASE  -
|  1> # ORCA input file
|  2> # SCF done       -206.661283235271          0.000623693117
|  3> ! CAM-B3LYP def2-SVP def2/J RIJCOSX Grid4 TightSCF
|  4> %maxcore 5000
|  5> %tddft
|  6>     Mode sTDDFT
|  7>     Ethresh 5.0
|  8>     maxcore 5000
|  9> end
| 10>
| 11> %pal
| 12>   nprocs 6
| 13>   end
| 14> * xyz 0 1
| 15>    C      -13.94476        -1.36905        -7.98525
| 16>    C      -12.73147        -0.98365        -8.51014
| 17>    C      -11.86137        -1.85410        -9.18882
| 18>    N      -11.10793        -2.53788        -9.72425
| 19>    C      -12.18565         0.30506        -8.35400
| 20>    N      -11.68077         1.33201        -8.25003
| 21>    C      -14.51927        -2.70933        -8.06290
| 22>    C      -15.66650        -2.74933        -7.23524
| 23>    C      -16.44853        -3.86925        -7.10906
| 24>    C      -16.07278        -5.00992        -7.83036
| 25>    C      -14.92463        -4.95979        -8.65366
| 26>    C      -14.13744        -3.82016        -8.78719
| 27>    S      -14.63548        -6.48208        -9.44343
| 28>    C      -16.04213        -7.15605        -8.66303
| 29>    C      -16.69670        -6.28794        -7.85667
| 30>   Br      -16.51296        -8.94442        -8.98776
| 31>    C      -15.84717        -1.43000        -6.58923
| 32>    O      -16.72809        -1.12544        -5.80864
| 33>    C      -14.79159        -0.56872        -7.14780
| 34>    C      -14.80273         0.81700        -7.06585
| 35>    C      -15.38159         1.58893        -6.06324
| 36>    C      -15.52826         1.24060        -4.72916
| 37>    C      -16.08760         2.06161        -3.72025
| 38>    C      -15.93724         1.57450        -2.45422
| 39>    C      -15.22698         0.35685        -2.40529
| 40>    S      -14.83295        -0.18438        -4.01643
| 41>    C      -14.79650        -0.36264        -1.30082
| 42>    C      -15.03595        -0.11854         0.07220
| 43>    C      -14.39350        -0.99381         0.89372
| 44>    C      -13.61601        -1.96829         0.21082
| 45>    S      -13.77592        -1.75495        -1.51142
| 46>    C      -12.73853        -2.85374         0.79690
| 47>    C      -11.95502        -3.79321         0.10788
| 48>    N      -10.76683        -4.29423         0.60967
| 49>    C      -10.12102        -3.87086         1.82885
| 50>    C       -9.53059        -2.46882         1.70664
| 51>    C      -10.12550        -5.15327        -0.29642
| 52>    O       -9.08097        -5.72628        -0.05109
| 53>    C      -11.01824        -5.20446        -1.43112
| 54>    C      -12.14458        -4.38814        -1.14305
| 55>    C      -13.10527        -4.59813        -2.19474
| 56>    O      -14.27032        -4.26374        -2.31321
| 57>    N      -12.43645        -5.41847        -3.12740
| 58>    C      -13.11217        -5.87784        -4.31743
| 59>    C      -13.50983        -4.70751        -5.20924
| 60>    C      -11.20505        -5.79368        -2.67678
| 61>    C      -10.26317        -6.65033        -3.38493
| 62>    C       -9.77503        -6.28180        -4.65965
| 63>    O      -10.34077        -5.14984        -5.14566
| 64>    C      -10.03481        -4.56650        -6.40671
| 65>    C      -10.67936        -5.29123        -7.58092
| 66>    C       -8.75410        -7.03889        -5.24826
| 67>    O       -8.29190        -6.68767        -6.49496
| 68>    C       -6.89111        -6.52094        -6.68353
| 69>    C       -6.24240        -5.62320        -5.63697
| 70>    C       -8.24739        -8.17226        -4.57439
| 71>    O       -7.31830        -8.89506        -5.25307
| 72>    C       -6.58455        -9.90981        -4.59430
| 73>    C       -5.54427        -9.34892        -3.62990
| 74>    C       -8.71358        -8.49534        -3.30909
| 75>    C       -9.71682        -7.75006        -2.71179
| 76>    C      -10.19966        -8.10164        -1.38001
| 77>    C      -11.50018        -8.15109        -1.09003
| 78>    N      -12.07713        -8.27860         0.17446
| 79>    C      -11.41478        -8.00705         1.34392
| 80>    S      -12.00327        -6.72889         2.36494
| 81>    C      -10.67565        -6.99552         3.44707
| 82>    N      -10.57412        -6.16669         4.56289
| 83>    O       -9.68541        -6.38471         5.36523
| 84>    O      -11.38590        -5.25368         4.64238
| 85>    C       -9.84619        -8.00835         3.04236
| 86>    C      -10.26359        -8.60897         1.84177
| 87>    C       -9.65523        -9.77838         1.23046
| 88>    C       -8.45912       -10.26395         1.54023
| 89>    H      -17.31725        -3.87237        -6.47014
| 90>    H      -13.27799        -3.82618        -9.43647
| 91>    H      -17.58283        -6.53541        -7.30118
| 92>    H      -14.36452         1.36368        -7.89351
| 93>    H      -15.63607         2.61212        -6.31054
| 94>    H      -16.58240         2.98601        -3.96091
| 95>    H      -16.29165         2.06761        -1.56689
| 96>    H      -15.66361         0.68603         0.41025
| 97>    H      -14.44152        -0.96995         1.96822
| 98>    H      -12.59987        -2.77157         1.86654
| 99>    H       -9.31622        -4.59110         2.00501
|100>    H      -10.83109        -3.91677         2.66011
|101>    H       -8.79237        -2.44369         0.90857
|102>    H       -9.04681        -2.19380         2.63948
|103>    H      -10.30684        -1.73952         1.48529
|104>    H      -14.01742        -6.41580        -4.00971
|105>    H      -12.45011        -6.56663        -4.84355
|106>    H      -12.63897        -4.10464        -5.44566
|107>    H      -14.23995        -4.08367        -4.70100
|108>    H      -13.94838        -5.08293        -6.12878
|109>    H       -8.95790        -4.48035        -6.55358
|110>    H      -10.45101        -3.55679        -6.32047
|111>    H      -10.54313        -4.69396        -8.47850
|112>    H      -11.74427        -5.42252        -7.40469
|113>    H      -10.21759        -6.26308        -7.72621
|114>    H       -6.82217        -6.06485        -7.67503
|115>    H       -6.39183        -7.49444        -6.70712
|116>    H       -6.72483        -4.64809        -5.61073
|117>    H       -5.19252        -5.48558        -5.88051
|118>    H       -6.31768        -6.06979        -4.64733
|119>    H       -6.08870       -10.44629        -5.40800
|120>    H       -7.25906       -10.60766        -4.08470
|121>    H       -4.85808        -8.69605        -4.16406
|122>    H       -4.97974       -10.16462        -3.18724
|123>    H       -6.01775        -8.77580        -2.83626
|124>    H       -8.32831        -9.34828        -2.77598
|125>    H       -9.44311        -8.23327        -0.62310
|126>    H      -12.23994        -8.08194        -1.87530
|127>    H      -13.05354        -8.01328         0.19022
|128>    H       -8.98467        -8.30399         3.61176
|129>    H      -10.26593       -10.26884         0.48446
|130>    H       -7.81482        -9.79489         2.26322
|131>    H       -8.07805       -11.15130         1.06587
|132> *
|133>
|134>                          ****END OF INPUT****

CARTESIAN COORDINATES (ANGSTROEM)
---------------------------------
  C    -13.944760   -1.369050   -7.985250
  C    -12.731470   -0.983650   -8.510140
  C    -11.861370   -1.854100   -9.188820
  N    -11.107930   -2.537880   -9.724250
  C    -12.185650    0.305060   -8.354000
  N    -11.680770    1.332010   -8.250030
  C    -14.519270   -2.709330   -8.062900
  C    -15.666500   -2.749330   -7.235240
  C    -16.448530   -3.869250   -7.109060
  C    -16.072780   -5.009920   -7.830360
  C    -14.924630   -4.959790   -8.653660
  C    -14.137440   -3.820160   -8.787190
  S    -14.635480   -6.482080   -9.443430
  C    -16.042130   -7.156050   -8.663030
  C    -16.696700   -6.287940   -7.856670
  Br   -16.512960   -8.944420   -8.987760
  C    -15.847170   -1.430000   -6.589230
  O    -16.728090   -1.125440   -5.808640
  C    -14.791590   -0.568720   -7.147800
  C    -14.802730    0.817000   -7.065850
  C    -15.381590    1.588930   -6.063240
  C    -15.528260    1.240600   -4.729160
  C    -16.087600    2.061610   -3.720250
  C    -15.937240    1.574500   -2.454220
  C    -15.226980    0.356850   -2.405290
  S    -14.832950   -0.184380   -4.016430
  C    -14.796500   -0.362640   -1.300820
  C    -15.035950   -0.118540    0.072200
  C    -14.393500   -0.993810    0.893720
  C    -13.616010   -1.968290    0.210820
  S    -13.775920   -1.754950   -1.511420
  C    -12.738530   -2.853740    0.796900
  C    -11.955020   -3.793210    0.107880
  N    -10.766830   -4.294230    0.609670
  C    -10.121020   -3.870860    1.828850
  C     -9.530590   -2.468820    1.706640
  C    -10.125500   -5.153270   -0.296420
  O     -9.080970   -5.726280   -0.051090
  C    -11.018240   -5.204460   -1.431120
  C    -12.144580   -4.388140   -1.143050
  C    -13.105270   -4.598130   -2.194740
  O    -14.270320   -4.263740   -2.313210
  N    -12.436450   -5.418470   -3.127400
  C    -13.112170   -5.877840   -4.317430
  C    -13.509830   -4.707510   -5.209240
  C    -11.205050   -5.793680   -2.676780
  C    -10.263170   -6.650330   -3.384930
  C     -9.775030   -6.281800   -4.659650
  O    -10.340770   -5.149840   -5.145660
  C    -10.034810   -4.566500   -6.406710
  C    -10.679360   -5.291230   -7.580920
  C     -8.754100   -7.038890   -5.248260
  O     -8.291900   -6.687670   -6.494960
  C     -6.891110   -6.520940   -6.683530
  C     -6.242400   -5.623200   -5.636970
  C     -8.247390   -8.172260   -4.574390
  O     -7.318300   -8.895060   -5.253070
  C     -6.584550   -9.909810   -4.594300
  C     -5.544270   -9.348920   -3.629900
  C     -8.713580   -8.495340   -3.309090
  C     -9.716820   -7.750060   -2.711790
  C    -10.199660   -8.101640   -1.380010
  C    -11.500180   -8.151090   -1.090030
  N    -12.077130   -8.278600    0.174460
  C    -11.414780   -8.007050    1.343920
  S    -12.003270   -6.728890    2.364940
  C    -10.675650   -6.995520    3.447070
  N    -10.574120   -6.166690    4.562890
  O     -9.685410   -6.384710    5.365230
  O    -11.385900   -5.253680    4.642380
  C     -9.846190   -8.008350    3.042360
  C    -10.263590   -8.608970    1.841770
  C     -9.655230   -9.778380    1.230460
  C     -8.459120  -10.263950    1.540230
  H    -17.317250   -3.872370   -6.470140
  H    -13.277990   -3.826180   -9.436470
  H    -17.582830   -6.535410   -7.301180
  H    -14.364520    1.363680   -7.893510
  H    -15.636070    2.612120   -6.310540
  H    -16.582400    2.986010   -3.960910
  H    -16.291650    2.067610   -1.566890
  H    -15.663610    0.686030    0.410250
  H    -14.441520   -0.969950    1.968220
  H    -12.599870   -2.771570    1.866540
  H     -9.316220   -4.591100    2.005010
  H    -10.831090   -3.916770    2.660110
  H     -8.792370   -2.443690    0.908570
  H     -9.046810   -2.193800    2.639480
  H    -10.306840   -1.739520    1.485290
  H    -14.017420   -6.415800   -4.009710
  H    -12.450110   -6.566630   -4.843550
  H    -12.638970   -4.104640   -5.445660
  H    -14.239950   -4.083670   -4.701000
  H    -13.948380   -5.082930   -6.128780
  H     -8.957900   -4.480350   -6.553580
  H    -10.451010   -3.556790   -6.320470
  H    -10.543130   -4.693960   -8.478500
  H    -11.744270   -5.422520   -7.404690
  H    -10.217590   -6.263080   -7.726210
  H     -6.822170   -6.064850   -7.675030
  H     -6.391830   -7.494440   -6.707120
  H     -6.724830   -4.648090   -5.610730
  H     -5.192520   -5.485580   -5.880510
  H     -6.317680   -6.069790   -4.647330
  H     -6.088700  -10.446290   -5.408000
  H     -7.259060  -10.607660   -4.084700
  H     -4.858080   -8.696050   -4.164060
  H     -4.979740  -10.164620   -3.187240
  H     -6.017750   -8.775800   -2.836260
  H     -8.328310   -9.348280   -2.775980
  H     -9.443110   -8.233270   -0.623100
  H    -12.239940   -8.081940   -1.875300
  H    -13.053540   -8.013280    0.190220
  H     -8.984670   -8.303990    3.611760
  H    -10.265930  -10.268840    0.484460
  H     -7.814820   -9.794890    2.263220
  H     -8.078050  -11.151300    1.065870

 Total Charge           Charge          ....    0
 Multiplicity           Mult            ....    1
 Number of Electrons    NEL             ....  578
 Basis Dimension        Dim             .... 1285

ORBITAL ENERGIES
----------------

  NO   OCC          E(Eh)            E(eV)
   0   2.0000    -482.879726    -13139.8254
   1   2.0000     -88.976306     -2421.1684
   2   2.0000     -88.967654     -2420.9329
   3   2.0000     -88.955756     -2420.6092
   4   2.0000     -88.954679     -2420.5799
   5   2.0000     -62.557404     -1702.2735
   6   2.0000     -56.391339     -1534.4864
   7   2.0000     -56.388658     -1534.4134
   8   2.0000     -56.388613     -1534.4122
   9   2.0000     -19.250429      -523.8308
  10   2.0000     -19.241877      -523.5981
  11   2.0000     -19.237558      -523.4806
  12   2.0000     -19.237331      -523.4744
  13   2.0000     -19.228539      -523.2351
  14   2.0000     -19.196513      -522.3637
  15   2.0000     -19.190153      -522.1906
  16   2.0000     -19.173862      -521.7473
  17   2.0000     -14.648080      -398.5945
  18   2.0000     -14.460880      -393.5005
  19   2.0000     -14.450427      -393.2161
  20   2.0000     -14.441372      -392.9697
  21   2.0000     -14.404356      -391.9625
  22   2.0000     -14.397897      -391.7867
  23   2.0000     -10.369182      -282.1598
  24   2.0000     -10.358830      -281.8781
  25   2.0000     -10.354638      -281.7640
  26   2.0000     -10.350677      -281.6562
  27   2.0000     -10.346151      -281.5331
  28   2.0000     -10.340886      -281.3898
  29   2.0000     -10.338730      -281.3311
  30   2.0000     -10.338150      -281.3154
  31   2.0000     -10.337862      -281.3075
  32   2.0000     -10.330109      -281.0966
  33   2.0000     -10.329995      -281.0934
  34   2.0000     -10.329868      -281.0900
  35   2.0000     -10.323897      -280.9275
  36   2.0000     -10.323526      -280.9174
  37   2.0000     -10.322867      -280.8995
  38   2.0000     -10.322770      -280.8969
  39   2.0000     -10.321824      -280.8711
  40   2.0000     -10.317968      -280.7662
  41   2.0000     -10.315101      -280.6882
  42   2.0000     -10.313789      -280.6525
  43   2.0000     -10.308921      -280.5200
  44   2.0000     -10.308496      -280.5084
  45   2.0000     -10.308263      -280.5021
  46   2.0000     -10.303035      -280.3598
  47   2.0000     -10.301800      -280.3262
  48   2.0000     -10.301574      -280.3201
  49   2.0000     -10.300130      -280.2808
  50   2.0000     -10.299264      -280.2572
  51   2.0000     -10.299198      -280.2554
  52   2.0000     -10.298424      -280.2344
  53   2.0000     -10.296917      -280.1934
  54   2.0000     -10.296812      -280.1905
  55   2.0000     -10.295928      -280.1665
  56   2.0000     -10.294519      -280.1281
  57   2.0000     -10.293980      -280.1134
  58   2.0000     -10.290995      -280.0322
  59   2.0000     -10.289486      -279.9912
  60   2.0000     -10.289150      -279.9820
  61   2.0000     -10.287818      -279.9458
  62   2.0000     -10.284745      -279.8621
  63   2.0000     -10.282307      -279.7958
  64   2.0000     -10.278656      -279.6964
  65   2.0000     -10.278628      -279.6957
  66   2.0000     -10.277623      -279.6683
  67   2.0000     -10.274994      -279.5968
  68   2.0000     -10.269959      -279.4598
  69   2.0000     -10.266963      -279.3783
  70   2.0000     -10.263114      -279.2735
  71   2.0000     -10.261630      -279.2332
  72   2.0000     -10.257526      -279.1215
  73   2.0000     -10.255370      -279.0628
  74   2.0000     -10.254716      -279.0450
  75   2.0000     -10.249720      -278.9091
  76   2.0000     -10.241740      -278.6919
  77   2.0000     -10.237014      -278.5633
  78   2.0000      -8.786795      -239.1009
  79   2.0000      -8.071571      -219.6386
  80   2.0000      -8.063465      -219.4180
  81   2.0000      -8.051484      -219.0920
  82   2.0000      -8.050210      -219.0573
  83   2.0000      -6.623025      -180.2217
  84   2.0000      -6.608538      -179.8275
  85   2.0000      -6.608399      -179.8237
  86   2.0000      -6.041131      -164.3875
  87   2.0000      -6.036863      -164.2714
  88   2.0000      -6.033164      -164.1707
  89   2.0000      -6.033156      -164.1705
  90   2.0000      -6.028897      -164.0546
  91   2.0000      -6.024711      -163.9407
  92   2.0000      -6.021091      -163.8422
  93   2.0000      -6.019738      -163.8054
  94   2.0000      -6.016792      -163.7252
  95   2.0000      -6.015601      -163.6928
  96   2.0000      -6.012735      -163.6148
  97   2.0000      -6.011642      -163.5851
  98   2.0000      -2.738934       -74.5302
  99   2.0000      -2.734837       -74.4187
 100   2.0000      -2.734700       -74.4150
 101   2.0000      -2.723203       -74.1021
 102   2.0000      -2.723199       -74.1020
 103   2.0000      -1.316769       -35.8311
 104   2.0000      -1.160663       -31.5833
 105   2.0000      -1.146657       -31.2021
 106   2.0000      -1.135466       -30.8976
 107   2.0000      -1.129276       -30.7292
 108   2.0000      -1.121046       -30.5052
 109   2.0000      -1.114267       -30.3207
 110   2.0000      -1.111318       -30.2405
 111   2.0000      -1.067030       -29.0354
 112   2.0000      -1.057826       -28.7849
 113   2.0000      -1.045319       -28.4446
 114   2.0000      -1.011191       -27.5159
 115   2.0000      -1.007862       -27.4253
 116   2.0000      -1.000458       -27.2238
 117   2.0000      -0.994728       -27.0679
 118   2.0000      -0.984797       -26.7977
 119   2.0000      -0.980232       -26.6735
 120   2.0000      -0.975171       -26.5358
 121   2.0000      -0.955746       -26.0072
 122   2.0000      -0.931891       -25.3580
 123   2.0000      -0.920191       -25.0397
 124   2.0000      -0.909266       -24.7424
 125   2.0000      -0.906926       -24.6787
 126   2.0000      -0.897025       -24.4093
 127   2.0000      -0.893311       -24.3082
 128   2.0000      -0.889415       -24.2022
 129   2.0000      -0.876328       -23.8461
 130   2.0000      -0.874800       -23.8045
 131   2.0000      -0.869292       -23.6546
 132   2.0000      -0.867177       -23.5971
 133   2.0000      -0.861544       -23.4438
 134   2.0000      -0.858495       -23.3608
 135   2.0000      -0.847073       -23.0500
 136   2.0000      -0.839281       -22.8380
 137   2.0000      -0.836094       -22.7513
 138   2.0000      -0.832217       -22.6458
 139   2.0000      -0.829349       -22.5677
 140   2.0000      -0.823601       -22.4113
 141   2.0000      -0.818344       -22.2683
 142   2.0000      -0.809655       -22.0318
 143   2.0000      -0.807116       -21.9627
 144   2.0000      -0.800999       -21.7963
 145   2.0000      -0.784145       -21.3377
 146   2.0000      -0.777041       -21.1444
 147   2.0000      -0.772158       -21.0115
 148   2.0000      -0.750078       -20.4106
 149   2.0000      -0.748507       -20.3679
 150   2.0000      -0.742595       -20.2070
 151   2.0000      -0.736446       -20.0397
 152   2.0000      -0.733142       -19.9498
 153   2.0000      -0.718218       -19.5437
 154   2.0000      -0.715370       -19.4662
 155   2.0000      -0.702021       -19.1029
 156   2.0000      -0.698240       -19.0001
 157   2.0000      -0.694378       -18.8950
 158   2.0000      -0.684623       -18.6295
 159   2.0000      -0.680836       -18.5265
 160   2.0000      -0.676159       -18.3992
 161   2.0000      -0.671736       -18.2789
 162   2.0000      -0.663532       -18.0556
 163   2.0000      -0.662300       -18.0221
 164   2.0000      -0.660105       -17.9624
 165   2.0000      -0.649572       -17.6757
 166   2.0000      -0.647500       -17.6194
 167   2.0000      -0.644566       -17.5395
 168   2.0000      -0.641683       -17.4611
 169   2.0000      -0.632095       -17.2002
 170   2.0000      -0.628526       -17.1031
 171   2.0000      -0.626376       -17.0446
 172   2.0000      -0.624681       -16.9984
 173   2.0000      -0.619364       -16.8537
 174   2.0000      -0.617648       -16.8071
 175   2.0000      -0.612297       -16.6614
 176   2.0000      -0.608200       -16.5500
 177   2.0000      -0.606287       -16.4979
 178   2.0000      -0.599890       -16.3238
 179   2.0000      -0.597896       -16.2696
 180   2.0000      -0.590198       -16.0601
 181   2.0000      -0.584461       -15.9040
 182   2.0000      -0.583291       -15.8722
 183   2.0000      -0.581094       -15.8124
 184   2.0000      -0.576163       -15.6782
 185   2.0000      -0.571815       -15.5599
 186   2.0000      -0.568952       -15.4820
 187   2.0000      -0.564142       -15.3511
 188   2.0000      -0.562414       -15.3041
 189   2.0000      -0.559502       -15.2248
 190   2.0000      -0.552861       -15.0441
 191   2.0000      -0.545534       -14.8447
 192   2.0000      -0.543991       -14.8027
 193   2.0000      -0.541524       -14.7356
 194   2.0000      -0.540525       -14.7084
 195   2.0000      -0.536596       -14.6015
 196   2.0000      -0.534446       -14.5430
 197   2.0000      -0.531991       -14.4762
 198   2.0000      -0.530165       -14.4265
 199   2.0000      -0.528715       -14.3871
 200   2.0000      -0.526251       -14.3200
 201   2.0000      -0.525854       -14.3092
 202   2.0000      -0.524399       -14.2696
 203   2.0000      -0.519754       -14.1432
 204   2.0000      -0.516303       -14.0493
 205   2.0000      -0.514415       -13.9980
 206   2.0000      -0.512232       -13.9386
 207   2.0000      -0.508771       -13.8444
 208   2.0000      -0.507137       -13.7999
 209   2.0000      -0.505102       -13.7445
 210   2.0000      -0.503259       -13.6944
 211   2.0000      -0.501347       -13.6424
 212   2.0000      -0.498947       -13.5770
 213   2.0000      -0.497098       -13.5267
 214   2.0000      -0.494939       -13.4680
 215   2.0000      -0.494579       -13.4582
 216   2.0000      -0.490930       -13.3589
 217   2.0000      -0.486650       -13.2424
 218   2.0000      -0.485249       -13.2043
 219   2.0000      -0.482840       -13.1388
 220   2.0000      -0.481439       -13.1006
 221   2.0000      -0.479867       -13.0579
 222   2.0000      -0.474054       -12.8997
 223   2.0000      -0.471061       -12.8182
 224   2.0000      -0.469425       -12.7737
 225   2.0000      -0.467753       -12.7282
 226   2.0000      -0.466984       -12.7073
 227   2.0000      -0.465498       -12.6669
 228   2.0000      -0.462542       -12.5864
 229   2.0000      -0.460333       -12.5263
 230   2.0000      -0.457169       -12.4402
 231   2.0000      -0.456477       -12.4214
 232   2.0000      -0.454922       -12.3791
 233   2.0000      -0.454036       -12.3550
 234   2.0000      -0.453254       -12.3337
 235   2.0000      -0.448401       -12.2016
 236   2.0000      -0.448090       -12.1931
 237   2.0000      -0.446786       -12.1577
 238   2.0000      -0.445945       -12.1348
 239   2.0000      -0.442361       -12.0372
 240   2.0000      -0.441214       -12.0061
 241   2.0000      -0.437762       -11.9121
 242   2.0000      -0.435910       -11.8617
 243   2.0000      -0.434069       -11.8116
 244   2.0000      -0.431765       -11.7489
 245   2.0000      -0.428139       -11.6503
 246   2.0000      -0.427737       -11.6393
 247   2.0000      -0.425992       -11.5918
 248   2.0000      -0.425773       -11.5859
 249   2.0000      -0.422412       -11.4944
 250   2.0000      -0.419568       -11.4170
 251   2.0000      -0.415628       -11.3098
 252   2.0000      -0.414261       -11.2726
 253   2.0000      -0.411998       -11.2110
 254   2.0000      -0.409613       -11.1461
 255   2.0000      -0.406682       -11.0664
 256   2.0000      -0.404874       -11.0172
 257   2.0000      -0.401107       -10.9147
 258   2.0000      -0.400128       -10.8880
 259   2.0000      -0.396018       -10.7762
 260   2.0000      -0.391001       -10.6397
 261   2.0000      -0.389154       -10.5894
 262   2.0000      -0.387574       -10.5464
 263   2.0000      -0.386201       -10.5091
 264   2.0000      -0.384570       -10.4647
 265   2.0000      -0.377408       -10.2698
 266   2.0000      -0.376569       -10.2470
 267   2.0000      -0.375056       -10.2058
 268   2.0000      -0.369221       -10.0470
 269   2.0000      -0.364952        -9.9309
 270   2.0000      -0.361058        -9.8249
 271   2.0000      -0.353344        -9.6150
 272   2.0000      -0.349546        -9.5116
 273   2.0000      -0.342768        -9.3272
 274   2.0000      -0.336286        -9.1508
 275   2.0000      -0.333815        -9.0836
 276   2.0000      -0.328203        -8.9309
 277   2.0000      -0.321271        -8.7422
 278   2.0000      -0.312835        -8.5127
 279   2.0000      -0.309621        -8.4252
 280   2.0000      -0.304637        -8.2896
 281   2.0000      -0.303038        -8.2461
 282   2.0000      -0.293584        -7.9888
 283   2.0000      -0.288973        -7.8634
 284   2.0000      -0.284793        -7.7496
 285   2.0000      -0.282904        -7.6982
 286   2.0000      -0.263187        -7.1617
 287   2.0000      -0.250339        -6.8121
 288   2.0000      -0.222481        -6.0540
 289   0.0000      -0.110859        -3.0166
 290   0.0000      -0.062549        -1.7021
 291   0.0000      -0.055245        -1.5033
 292   0.0000      -0.042396        -1.1536
 293   0.0000      -0.017707        -0.4818

MULLIKEN ATOMIC CHARGES
-----------------------
   0 C :    0.287392
   1 C :   -0.353384
   2 C :   -0.170163
   3 N :    0.129892
   4 C :   -0.212885
   5 N :    0.152225
   6 C :    0.020545
   7 C :   -0.002960
   8 C :   -0.084798
   9 C :    0.117031
  10 C :   -0.103955
  11 C :   -0.031626
  12 S :    0.177943
  13 C :   -0.124150
  14 C :    0.034871
  15 Br:    0.012659
  16 C :    0.133394
  17 O :   -0.155690
  18 C :   -0.154948
  19 C :    0.011816
  20 C :    0.003451
  21 C :    0.011128
  22 C :    0.027309
  23 C :    0.046132
  24 C :   -0.061195
  25 S :    0.146522
  26 C :   -0.031505
  27 C :    0.032405
  28 C :    0.041554
  29 C :   -0.030756
  30 S :    0.167512
  31 C :   -0.036996
  32 C :    0.110555
  33 N :   -0.264495
  34 C :    0.064971
  35 C :    0.016208
  36 C :    0.133424
  37 O :   -0.212263
  38 C :    0.001984
  39 C :   -0.064641
  40 C :    0.120763
  41 O :   -0.196550
  42 N :   -0.233022
  43 C :    0.156729
  44 C :   -0.024846
  45 C :    0.019102
  46 C :   -0.079976
  47 C :    0.171730
  48 O :   -0.316755
  49 C :    0.189851
  50 C :   -0.027550
  51 C :    0.052887
  52 O :   -0.344751
  53 C :    0.187324
  54 C :   -0.020177
  55 C :    0.242633
  56 O :   -0.313017
  57 C :    0.162116
  58 C :   -0.023837
  59 C :   -0.196147
  60 C :    0.115723
  61 C :   -0.067175
  62 C :    0.070299
  63 N :   -0.053182
  64 C :   -0.149479
  65 S :    0.166600
  66 C :   -0.032337
  67 N :    0.284178
  68 O :   -0.245732
  69 O :   -0.273386
  70 C :    0.019095
  71 C :    0.115816
  72 C :   -0.019575
  73 C :   -0.016968
  74 H :   -0.013745
  75 H :   -0.009281
  76 H :   -0.006587
  77 H :    0.032618
  78 H :   -0.004873
  79 H :   -0.006049
  80 H :   -0.007072
  81 H :   -0.007458
  82 H :    0.001294
  83 H :    0.000108
  84 H :    0.045481
  85 H :    0.031490
  86 H :    0.026303
  87 H :    0.022762
  88 H :    0.013370
  89 H :    0.011119
  90 H :    0.026051
  91 H :    0.018204
  92 H :    0.039791
  93 H :    0.027767
  94 H :    0.011014
  95 H :    0.021699
  96 H :    0.033679
  97 H :   -0.003332
  98 H :    0.028614
  99 H :    0.014013
 100 H :    0.021963
 101 H :    0.019937
 102 H :    0.020471
 103 H :    0.029969
 104 H :    0.025431
 105 H :    0.019082
 106 H :    0.026698
 107 H :    0.023270
 108 H :    0.036049
 109 H :   -0.047119
 110 H :    0.047875
 111 H :    0.013505
 112 H :    0.135539
 113 H :    0.004041
 114 H :    0.008786
 115 H :    0.018793
 116 H :    0.023832
Sum of atomic charges:   -0.0000000

LOEWDIN ATOMIC CHARGES
----------------------
   0 C :    0.076207
   1 C :   -0.159541
   2 C :   -0.011358
   3 N :   -0.073364
   4 C :   -0.025583
   5 N :   -0.063293
   6 C :   -0.018754
   7 C :   -0.041715
   8 C :    0.017674
   9 C :   -0.039259
  10 C :   -0.152147
  11 C :   -0.015405
  12 S :    0.424996
  13 C :   -0.276365
  14 C :   -0.070499
  15 Br:    0.127800
  16 C :    0.060007
  17 O :   -0.160205
  18 C :   -0.132141
  19 C :    0.048699
  20 C :   -0.076814
  21 C :   -0.092463
  22 C :   -0.038148
  23 C :   -0.012143
  24 C :   -0.185849
  25 S :    0.459781
  26 C :   -0.145457
  27 C :   -0.038117
  28 C :   -0.010545
  29 C :   -0.140356
  30 S :    0.478027
  31 C :   -0.051691
  32 C :    0.043564
  33 N :   -0.003096
  34 C :    0.023976
  35 C :   -0.060386
  36 C :    0.068652
  37 O :   -0.212667
  38 C :   -0.132931
  39 C :   -0.122141
  40 C :    0.059392
  41 O :   -0.197226
  42 N :    0.016718
  43 C :    0.041968
  44 C :   -0.066142
  45 C :    0.105091
  46 C :   -0.087810
  47 C :    0.062669
  48 O :   -0.093769
  49 C :    0.085374
  50 C :   -0.078460
  51 C :   -0.017723
  52 O :   -0.113655
  53 C :    0.077690
  54 C :   -0.073038
  55 C :    0.054644
  56 O :   -0.087202
  57 C :    0.081407
  58 C :   -0.071607
  59 C :   -0.086273
  60 C :    0.014143
  61 C :   -0.067170
  62 C :    0.027695
  63 N :   -0.002178
  64 C :   -0.104045
  65 S :    0.458803
  66 C :   -0.210611
  67 N :    0.277483
  68 O :   -0.211927
  69 O :   -0.242343
  70 C :    0.013602
  71 C :   -0.086914
  72 C :   -0.019424
  73 C :   -0.042824
  74 H :    0.039599
  75 H :    0.038983
  76 H :    0.037688
  77 H :    0.044887
  78 H :    0.037457
  79 H :    0.035787
  80 H :    0.034638
  81 H :    0.034140
  82 H :    0.038237
  83 H :    0.042094
  84 H :    0.033849
  85 H :    0.012981
  86 H :    0.030416
  87 H :    0.030843
  88 H :    0.021003
  89 H :    0.023624
  90 H :    0.028844
  91 H :    0.024568
  92 H :    0.026728
  93 H :    0.026749
  94 H :    0.013772
  95 H :    0.020729
  96 H :    0.034014
  97 H :    0.018767
  98 H :    0.024617
  99 H :    0.020893
 100 H :    0.009491
 101 H :    0.027059
 102 H :    0.032643
 103 H :    0.027884
 104 H :    0.027345
 105 H :    0.013589
 106 H :    0.029696
 107 H :    0.033322
 108 H :    0.029966
 109 H :    0.027695
 110 H :    0.038383
 111 H :    0.027763
 112 H :    0.088112
 113 H :    0.043787
 114 H :    0.035096
 115 H :    0.022501
 116 H :    0.026472

  Mayer bond orders larger than 0.100000
B(  0-C ,  1-C ) :   1.5994 B(  0-C ,  6-C ) :   0.9887 B(  0-C , 18-C ) :   1.1273
B(  1-C ,  2-C ) :   1.1601 B(  1-C ,  4-C ) :   1.1443 B(  2-C ,  3-N ) :   2.9163
B(  4-C ,  5-N ) :   3.0079 B(  6-C ,  7-C ) :   1.2753 B(  6-C , 11-C ) :   1.4230
B(  7-C ,  8-C ) :   1.4366 B(  7-C , 16-C ) :   0.9259 B(  8-C ,  9-C ) :   1.2305
B(  8-C , 74-H ) :   1.0166 B(  9-C , 10-C ) :   1.3182 B(  9-C , 14-C ) :   1.1603
B( 10-C , 11-C ) :   1.3141 B( 10-C , 12-S ) :   1.0788 B( 11-C , 75-H ) :   0.9828
B( 12-S , 13-C ) :   1.0850 B( 13-C , 14-C ) :   1.6181 B( 13-C , 15-Br) :   1.0126
B( 14-C , 76-H ) :   1.0021 B( 16-C , 17-O ) :   2.2066 B( 16-C , 18-C ) :   0.9897
B( 18-C , 19-C ) :   1.4151 B( 19-C , 20-C ) :   1.3569 B( 19-C , 77-H ) :   0.9483
B( 20-C , 21-C ) :   1.4337 B( 20-C , 78-H ) :   0.9547 B( 21-C , 22-C ) :   1.1940
B( 21-C , 25-S ) :   1.1206 B( 22-C , 23-C ) :   1.5469 B( 22-C , 79-H ) :   0.9977
B( 23-C , 24-C ) :   1.2092 B( 23-C , 80-H ) :   0.9944 B( 24-C , 25-S ) :   1.0733
B( 24-C , 26-C ) :   1.4519 B( 26-C , 27-C ) :   1.1801 B( 26-C , 30-S ) :   1.1170
B( 27-C , 28-C ) :   1.5887 B( 27-C , 81-H ) :   0.9943 B( 28-C , 29-C ) :   1.1422
B( 28-C , 82-H ) :   0.9978 B( 29-C , 30-S ) :   1.0843 B( 29-C , 31-C ) :   1.5189
B( 31-C , 32-C ) :   1.1982 B( 31-C , 83-H ) :   0.9501 B( 32-C , 33-N ) :   1.1405
B( 32-C , 39-C ) :   1.3150 B( 33-N , 34-C ) :   0.9449 B( 33-N , 36-C ) :   1.0516
B( 34-C , 35-C ) :   1.1209 B( 34-C , 84-H ) :   0.9245 B( 34-C , 85-H ) :   0.9381
B( 35-C , 86-H ) :   0.9630 B( 35-C , 87-H ) :   0.9669 B( 35-C , 88-H ) :   0.9651
B( 36-C , 37-O ) :   2.0937 B( 36-C , 38-C ) :   0.9897 B( 38-C , 39-C ) :   1.2543
B( 38-C , 45-C ) :   1.3732 B( 39-C , 40-C ) :   0.9852 B( 40-C , 41-O ) :   2.0768
B( 40-C , 42-N ) :   1.0209 B( 42-N , 43-C ) :   0.9354 B( 42-N , 45-C ) :   1.2474
B( 43-C , 44-C ) :   1.1187 B( 43-C , 89-H ) :   0.9388 B( 43-C , 90-H ) :   0.9428
B( 44-C , 91-H ) :   0.9624 B( 44-C , 92-H ) :   0.9504 B( 44-C , 93-H ) :   0.9603
B( 45-C , 46-C ) :   0.9634 B( 46-C , 47-C ) :   1.3194 B( 46-C , 60-C ) :   1.4294
B( 47-C , 48-O ) :   1.2282 B( 47-C , 51-C ) :   1.3547 B( 48-O , 49-C ) :   0.8994
B( 49-C , 50-C ) :   1.1186 B( 49-C , 94-H ) :   0.9513 B( 49-C , 95-H ) :   0.9505
B( 50-C , 96-H ) :   0.9490 B( 50-C , 97-H ) :   0.9588 B( 50-C , 98-H ) :   0.9552
B( 51-C , 52-O ) :   1.1112 B( 51-C , 55-C ) :   1.3101 B( 52-O , 53-C ) :   0.9336
B( 53-C , 54-C ) :   1.1066 B( 53-C , 99-H ) :   0.9564 B( 53-C ,100-H ) :   0.9493
B( 54-C ,101-H ) :   0.9664 B( 54-C ,102-H ) :   0.9604 B( 54-C ,103-H ) :   0.9590
B( 55-C , 56-O ) :   1.1467 B( 55-C , 59-C ) :   1.2569 B( 56-O , 57-C ) :   0.9417
B( 57-C , 58-C ) :   1.1085 B( 57-C ,104-H ) :   0.9574 B( 57-C ,105-H ) :   0.9504
B( 58-C ,106-H ) :   0.9643 B( 58-C ,107-H ) :   0.9613 B( 58-C ,108-H ) :   0.9660
B( 59-C , 60-C ) :   1.2891 B( 59-C ,109-H ) :   1.0194 B( 60-C , 61-C ) :   1.0462
B( 61-C , 62-C ) :   1.8087 B( 61-C ,110-H ) :   0.9251 B( 62-C , 63-N ) :   1.0875
B( 62-C ,111-H ) :   0.9528 B( 63-N , 64-C ) :   1.1886 B( 63-N ,112-H ) :   0.9157
B( 64-C , 65-S ) :   1.1463 B( 64-C , 71-C ) :   1.4267 B( 65-S , 66-C ) :   1.0978
B( 66-C , 67-N ) :   0.9749 B( 66-C , 70-C ) :   1.4795 B( 67-N , 68-O ) :   1.5386
B( 67-N , 69-O ) :   1.4798 B( 68-O , 69-O ) :   0.2478 B( 70-C , 71-C ) :   1.2358
B( 70-C ,113-H ) :   1.0003 B( 71-C , 72-C ) :   1.0731 B( 72-C , 73-C ) :   1.9472
B( 72-C ,114-H ) :   0.9647 B( 73-C ,115-H ) :   0.9510 B( 73-C ,116-H ) :   0.9512

-----------------------------------------------------------------------------
         ABSORPTION SPECTRUM VIA TRANSITION ELECTRIC DIPOLE MOMENTS
-----------------------------------------------------------------------------
State   Energy  Wavelength   fosc         T2         TX        TY        TZ
        (cm-1)    (nm)                  (au**2)     (au)      (au)      (au)
-----------------------------------------------------------------------------
   0    9151.0   1092.8   0.349098683  12.55901  -1.39254   2.13033  -2.46608
   1   15052.6    664.3   0.369304292   8.07698   0.02991  -0.53281  -2.79145
   2   19163.4    521.8   0.106661760   1.83236   0.65464  -1.11216  -0.40853
   3   19672.7    508.3   0.119791936   2.00466  -0.63711   0.77291   1.00068
   4   21312.9    469.2   0.004971682   0.07680   0.01584   0.00073  -0.27667
   5   21834.6    458.0   0.182999611   2.75919   1.08085  -1.13601  -0.54812
   6   22636.4    441.8   0.108535469   1.57848  -0.21964  -0.50058  -1.13122
   7   23205.9    430.9   0.196444423   2.78687   0.20989  -1.00598  -1.31561
   8   23931.9    417.9   0.107363353   1.47691   0.28740   1.09945   0.43071
   9   24184.6    413.5   0.019740511   0.26872  -0.31061  -0.24309  -0.33637
  10   24442.8    409.1   0.012216262   0.16454  -0.09897   0.26749   0.28843
  11   25561.4    391.2   0.059959763   0.77224  -0.49824   0.54927   0.47148
  12   26088.5    383.3   0.078835100   0.99482   0.95012  -0.21845   0.21064
  13   26640.1    375.4   0.032388727   0.40025   0.07922   0.46697  -0.41943
  14   27179.1    367.9   0.184147604   2.23052   0.17071   0.30554   1.45190
  15   27389.6    365.1   0.233397738   2.80534  -0.23127   1.01254   1.31401
  16   28551.0    350.3   0.085677027   0.98791   0.64463  -0.57045   0.49694
  17   28875.1    346.3   0.011919388   0.13590  -0.07286  -0.12686  -0.33837
  18   29272.9    341.6   0.081052907   0.91155   0.58243  -0.75647  -0.00848
  19   29703.7    336.7   0.071335997   0.79063  -0.09216   0.86283   0.19406
  20   30140.4    331.8   0.176432577   1.92711   0.95464  -0.75343   0.66941
  21   30199.2    331.1   0.060563745   0.66023  -0.27971   0.67650  -0.35261
  22   30697.6    325.8   0.015747408   0.16888   0.32119   0.21001  -0.14703
  23   30974.8    322.8   0.014951016   0.15891  -0.10077  -0.20279   0.32806
  24   31460.5    317.9   0.358975949   3.75643   0.56980   1.85238   0.02116
  25   32556.4    307.2   0.268357130   2.71364  -0.37183  -1.53335   0.47351
  26   32613.9    306.6   0.021013385   0.21211  -0.15394  -0.43390   0.01231
  27   33042.5    302.6   0.012148413   0.12104   0.21746   0.25509   0.09314
  28   33148.2    301.7   0.041551622   0.41267  -0.34397  -0.38992  -0.37725
  29   33684.4    296.9   0.150444350   1.47036   0.69978  -0.27371   0.95171
  30   33765.0    296.2   0.041616511   0.40577  -0.12174  -0.47028  -0.41204
  31   33977.4    294.3   0.098230369   0.95177  -0.40054   0.46474   0.75852
  32   34716.5    288.0   0.035665295   0.33821  -0.31344  -0.48565   0.06406
  33   34816.5    287.2   0.113056686   1.06902  -0.92909  -0.38623   0.23799
  34   35042.8    285.4   0.000429082   0.00403   0.04489  -0.00892   0.04400
  35   35317.5    283.1   0.064832417   0.60434   0.30950   0.41219  -0.58193
  36   35850.0    278.9   0.011875130   0.10905  -0.00090  -0.29355  -0.15126
  37   35854.5    278.9   0.083185582   0.76380  -0.71798  -0.46563   0.17746
  38   35977.8    277.9   0.052363412   0.47915  -0.36178   0.14091   0.57306
  39   36310.8    275.4   0.017467658   0.15837  -0.02336   0.34544   0.19620
  40   36484.6    274.1   0.002513616   0.02268  -0.08560  -0.04553   0.11524
  41   36495.2    274.0   0.038563926   0.34787   0.55959  -0.09031  -0.16303
  42   36621.4    273.1   0.008360993   0.07516   0.08178   0.03822   0.25887
  43   36873.3    271.2   0.023288225   0.20792  -0.42322   0.02709   0.16754
  44   36911.0    270.9   0.005093391   0.04543   0.06063   0.05201   0.19760
  45   37395.2    267.4   0.030232255   0.26615   0.50162   0.10401   0.06089
  46   37697.6    265.3   0.176196164   1.53871   1.07684  -0.40788  -0.46126
  47   38336.3    260.8   0.031316590   0.26893  -0.45421   0.15618  -0.19553
  48   38433.6    260.2   0.016934625   0.14506   0.10393   0.14539   0.33633
  49   38619.1    258.9   0.028072489   0.23931  -0.27012   0.29610   0.28047
  50   38983.1    256.5   0.170948112   1.44366   0.23873   0.75683  -0.90215
  51   39237.2    254.9   0.044839865   0.37622   0.18843   0.27233  -0.51628
  52   39491.5    253.2   0.006491239   0.05411  -0.20241  -0.05118   0.10260
  53   39512.6    253.1   0.013278541   0.11063  -0.27746  -0.10828   0.14808
  54   39748.7    251.6   0.004140414   0.03429   0.05294  -0.15748   0.08179
  55   40046.0    249.7   0.014864483   0.12220  -0.13138   0.27681  -0.16826
  56   40233.6    248.5   0.052559399   0.43007  -0.15072   0.62964  -0.10439
  57   40278.3    248.3   0.003207858   0.02622   0.09246  -0.09914  -0.08854

FINAL SINGLE POINT ENERGY     -7214.264352154735

DIPOLE MOMENT
-------------
                                X             Y             Z
Electronic contribution:   -107.83092     -21.28114     -66.58484
Nuclear contribution   :    107.18305      19.64710      67.64750
                        -----------------------------------------
Total Dipole Moment    :     -0.64787      -1.63404       1.06266
                        -----------------------------------------
Magnitude (a.u.)       :      2.05404
Magnitude (Debye)      :      5.22096

Rotational constants in cm-1:     0.000917     0.000610     0.000474
Rotational constants in MHz :    27.476658    18.278094    14.224015

                             ****ORCA TERMINATED NORMALLY****
TOTAL RUN TIME: 0 days 0 hours 14 minutes 33 seconds 786 msec
