                         Program Version 4.2.0 -  RELEASE  -
|  1> # ORCA input file
|  2> # SCF done       -189.799726445647          0.000617536969
|  3> ! CAM-B3LYP def2-SVP def2/J RIJCOSX Grid4 TightSCF
|  4> %maxcore 5000
|  5> %tddft
|  6>     Mode sTDDFT
|  7>     Ethresh 5.0
|  8>     maxcore 5000
|  9> end
| 10>
| 11> %pal
| 12>   nprocs 6
| 13>   end
| 14> * xyz 0 1
| 15>    C        7.93129        -0.33894         0.07006
| 16>    C        8.79091        -1.28843        -0.32024
| 17>    C       10.19920        -1.36409        -0.04873
| 18>    C       10.81262        -2.44363        -0.57814
| 19>    C        9.94736        -3.31128        -1.30619
| 20>    S        8.31154        -2.69054        -1.29272
| 21>    C       10.27706        -4.49215        -1.92256
| 22>    C       11.54320        -5.13465        -1.95419
| 23>    C       11.53040        -6.35162        -2.54795
| 24>    C       10.24704        -6.75609        -3.02264
| 25>    S        9.07903        -5.46578        -2.75236
| 26>    C        9.89763        -7.99276        -3.45376
| 27>    C        8.57346        -8.39464        -3.93612
| 28>    C        8.05019        -7.87896        -5.13388
| 29>    C        6.80506        -8.38278        -5.62611
| 30>    C        6.27603        -7.84615        -6.82815
| 31>    C        6.94129        -6.88059        -7.51768
| 32>    C        8.18443        -6.40691        -7.05066
| 33>    C        8.72500        -6.89453        -5.90030
| 34>    C        6.15624        -9.40740        -4.94391
| 35>    C        6.66470        -9.92469        -3.75653
| 36>    C        7.86801        -9.37493        -3.22258
| 37>    C        8.31920        -9.83186        -1.94837
| 38>    C        7.68749       -10.87925        -1.33077
| 39>    C        6.54533       -11.47055        -1.90195
| 40>    C        6.02857       -10.98619        -3.06447
| 41>    C        9.42816        -9.15918        -1.26680
| 42>    S       10.94134        -9.97006        -1.11754
| 43>    C       11.57967        -8.78672        -0.01065
| 44>    C       10.62871        -7.76751         0.19912
| 45>    C        9.37778        -8.02183        -0.44444
| 46>    C        8.28335        -7.14646        -0.21907
| 47>    C        6.92490        -7.40490        -0.78621
| 48>    C        8.50138        -6.03475         0.56213
| 49>    C        9.76466        -5.71936         1.07783
| 50>    C       10.82238        -6.57224         0.90750
| 51>    C       12.86523        -8.98455         0.50713
| 52>    C       13.41924        -8.53102         1.68034
| 53>    C       12.80736        -8.06615         2.86201
| 54>    C       13.62575        -7.43097         3.84926
| 55>    C       13.09900        -6.95538         5.09828
| 56>    N       13.84867        -6.15038         5.86172
| 57>    C       15.11194        -5.97453         5.56758
| 58>    C       15.69262        -6.63670         4.44062
| 59>    N       14.92642        -7.27696         3.58591
| 60>    C       17.08538        -6.56216         4.20654
| 61>    N       18.21723        -6.47600         4.04746
| 62>    C       15.88914        -5.11789         6.38505
| 63>    N       16.54314        -4.45351         7.05101
| 64>    C       11.77409        -7.24144         5.50762
| 65>    C       10.95946        -7.87352         4.54254
| 66>    C       11.45816        -8.28349         3.25091
| 67>    N       10.52425        -8.93113         2.55656
| 68>    S        9.16728        -8.99531         3.41334
| 69>    N        9.68857        -8.22606         4.72434
| 70>    C       11.26401        -6.86859         6.77312
| 71>    C       12.00902        -6.74913         7.91625
| 72>    C       11.60088        -6.10163         9.14187
| 73>    C       10.49207        -5.30898         9.30980
| 74>    C        9.57271        -4.98129         8.29259
| 75>    N        8.79570        -4.64080         7.51776
| 76>    C       10.14024        -4.68944        10.52548
| 77>    N        9.79432        -4.17124        11.49025
| 78>    C       12.63223        -6.34528        10.14391
| 79>    C       13.66158        -7.11887         9.55462
| 80>    C       13.29979        -7.43801         8.16007
| 81>    O       13.88981        -8.21058         7.43133
| 82>    C       14.79097        -7.49504        10.23875
| 83>    C       14.91385        -7.08359        11.57011
| 84>    C       13.87708        -6.31789        12.15344
| 85>    C       12.73269        -5.94004        11.46141
| 86>    S       14.22744        -5.92611        13.80961
| 87>    C       15.74245        -6.78152        13.69550
| 88>    C       15.97609        -7.33360        12.48172
| 89>   Br       16.86931        -6.86889        15.19138
| 90>    H        8.26595         0.49493         0.66154
| 91>    H        6.88936        -0.37674        -0.19025
| 92>    H       10.68577        -0.60213         0.53377
| 93>    H       11.86118        -2.65875        -0.47402
| 94>    H       12.41686        -4.68252        -1.52061
| 95>    H       12.38730        -6.99425        -2.64865
| 96>    H       10.68589        -8.72482        -3.58005
| 97>    H        5.33034        -8.22877        -7.18379
| 98>    H        6.53150        -6.47680        -8.43137
| 99>    H        8.70791        -5.65285        -7.61927
|100>    H        9.68152        -6.53196        -5.55625
|101>    H        5.24074        -9.81505        -5.34814
|102>    H        8.04844       -11.23233        -0.37560
|103>    H        6.07039       -12.29204        -1.38748
|104>    H        5.12725       -11.40507        -3.48655
|105>    H        6.93212        -7.29980        -1.86987
|106>    H        6.21086        -6.69275        -0.38083
|107>    H        6.59026        -8.41315        -0.55051
|108>    H        7.68084        -5.35954         0.75385
|109>    H        9.89367        -4.80010         1.62984
|110>    H       11.79672        -6.33787         1.30488
|111>    H       13.51507        -9.59196        -0.11455
|112>    H       14.49892        -8.58468         1.75154
|113>    H       10.19625        -6.69313         6.80826
|114>    H       15.55951        -8.08246         9.76130
|115>    H       11.96922        -5.35893        11.95131
|116>    H       16.85987        -7.89374        12.23638
|117> *
|118>
|119>                          ****END OF INPUT****

CARTESIAN COORDINATES (ANGSTROEM)
---------------------------------
  C      7.931290   -0.338940    0.070060
  C      8.790910   -1.288430   -0.320240
  C     10.199200   -1.364090   -0.048730
  C     10.812620   -2.443630   -0.578140
  C      9.947360   -3.311280   -1.306190
  S      8.311540   -2.690540   -1.292720
  C     10.277060   -4.492150   -1.922560
  C     11.543200   -5.134650   -1.954190
  C     11.530400   -6.351620   -2.547950
  C     10.247040   -6.756090   -3.022640
  S      9.079030   -5.465780   -2.752360
  C      9.897630   -7.992760   -3.453760
  C      8.573460   -8.394640   -3.936120
  C      8.050190   -7.878960   -5.133880
  C      6.805060   -8.382780   -5.626110
  C      6.276030   -7.846150   -6.828150
  C      6.941290   -6.880590   -7.517680
  C      8.184430   -6.406910   -7.050660
  C      8.725000   -6.894530   -5.900300
  C      6.156240   -9.407400   -4.943910
  C      6.664700   -9.924690   -3.756530
  C      7.868010   -9.374930   -3.222580
  C      8.319200   -9.831860   -1.948370
  C      7.687490  -10.879250   -1.330770
  C      6.545330  -11.470550   -1.901950
  C      6.028570  -10.986190   -3.064470
  C      9.428160   -9.159180   -1.266800
  S     10.941340   -9.970060   -1.117540
  C     11.579670   -8.786720   -0.010650
  C     10.628710   -7.767510    0.199120
  C      9.377780   -8.021830   -0.444440
  C      8.283350   -7.146460   -0.219070
  C      6.924900   -7.404900   -0.786210
  C      8.501380   -6.034750    0.562130
  C      9.764660   -5.719360    1.077830
  C     10.822380   -6.572240    0.907500
  C     12.865230   -8.984550    0.507130
  C     13.419240   -8.531020    1.680340
  C     12.807360   -8.066150    2.862010
  C     13.625750   -7.430970    3.849260
  C     13.099000   -6.955380    5.098280
  N     13.848670   -6.150380    5.861720
  C     15.111940   -5.974530    5.567580
  C     15.692620   -6.636700    4.440620
  N     14.926420   -7.276960    3.585910
  C     17.085380   -6.562160    4.206540
  N     18.217230   -6.476000    4.047460
  C     15.889140   -5.117890    6.385050
  N     16.543140   -4.453510    7.051010
  C     11.774090   -7.241440    5.507620
  C     10.959460   -7.873520    4.542540
  C     11.458160   -8.283490    3.250910
  N     10.524250   -8.931130    2.556560
  S      9.167280   -8.995310    3.413340
  N      9.688570   -8.226060    4.724340
  C     11.264010   -6.868590    6.773120
  C     12.009020   -6.749130    7.916250
  C     11.600880   -6.101630    9.141870
  C     10.492070   -5.308980    9.309800
  C      9.572710   -4.981290    8.292590
  N      8.795700   -4.640800    7.517760
  C     10.140240   -4.689440   10.525480
  N      9.794320   -4.171240   11.490250
  C     12.632230   -6.345280   10.143910
  C     13.661580   -7.118870    9.554620
  C     13.299790   -7.438010    8.160070
  O     13.889810   -8.210580    7.431330
  C     14.790970   -7.495040   10.238750
  C     14.913850   -7.083590   11.570110
  C     13.877080   -6.317890   12.153440
  C     12.732690   -5.940040   11.461410
  S     14.227440   -5.926110   13.809610
  C     15.742450   -6.781520   13.695500
  C     15.976090   -7.333600   12.481720
  Br    16.869310   -6.868890   15.191380
  H      8.265950    0.494930    0.661540
  H      6.889360   -0.376740   -0.190250
  H     10.685770   -0.602130    0.533770
  H     11.861180   -2.658750   -0.474020
  H     12.416860   -4.682520   -1.520610
  H     12.387300   -6.994250   -2.648650
  H     10.685890   -8.724820   -3.580050
  H      5.330340   -8.228770   -7.183790
  H      6.531500   -6.476800   -8.431370
  H      8.707910   -5.652850   -7.619270
  H      9.681520   -6.531960   -5.556250
  H      5.240740   -9.815050   -5.348140
  H      8.048440  -11.232330   -0.375600
  H      6.070390  -12.292040   -1.387480
  H      5.127250  -11.405070   -3.486550
  H      6.932120   -7.299800   -1.869870
  H      6.210860   -6.692750   -0.380830
  H      6.590260   -8.413150   -0.550510
  H      7.680840   -5.359540    0.753850
  H      9.893670   -4.800100    1.629840
  H     11.796720   -6.337870    1.304880
  H     13.515070   -9.591960   -0.114550
  H     14.498920   -8.584680    1.751540
  H     10.196250   -6.693130    6.808260
  H     15.559510   -8.082460    9.761300
  H     11.969220   -5.358930   11.951310
  H     16.859870   -7.893740   12.236380

 Total Charge           Charge          ....    0
 Multiplicity           Mult            ....    1
 Number of Electrons    NEL             ....  566
 Basis Dimension        Dim             .... 1223

ORBITAL ENERGIES
----------------

  NO   OCC          E(Eh)            E(eV)
   0   2.0000    -482.876484    -13139.7371
   1   2.0000     -89.034379     -2422.7486
   2   2.0000     -88.978154     -2421.2187
   3   2.0000     -88.964933     -2420.8589
   4   2.0000     -88.953155     -2420.5384
   5   2.0000     -88.949006     -2420.4255
   6   2.0000     -62.554214     -1702.1867
   7   2.0000     -56.388151     -1534.3996
   8   2.0000     -56.385456     -1534.3262
   9   2.0000     -56.385420     -1534.3253
  10   2.0000     -19.202705      -522.5322
  11   2.0000     -14.451229      -393.2379
  12   2.0000     -14.445896      -393.0928
  13   2.0000     -14.445261      -393.0755
  14   2.0000     -14.439054      -392.9066
  15   2.0000     -14.420595      -392.4043
  16   2.0000     -14.417455      -392.3189
  17   2.0000     -14.402785      -391.9197
  18   2.0000     -14.401876      -391.8950
  19   2.0000     -10.369122      -282.1582
  20   2.0000     -10.364868      -282.0424
  21   2.0000     -10.354219      -281.7526
  22   2.0000     -10.348456      -281.5958
  23   2.0000     -10.339709      -281.3578
  24   2.0000     -10.337868      -281.3077
  25   2.0000     -10.337203      -281.2896
  26   2.0000     -10.333403      -281.1862
  27   2.0000     -10.332696      -281.1670
  28   2.0000     -10.327775      -281.0330
  29   2.0000     -10.326787      -281.0062
  30   2.0000     -10.320531      -280.8359
  31   2.0000     -10.317839      -280.7627
  32   2.0000     -10.316667      -280.7308
  33   2.0000     -10.316598      -280.7289
  34   2.0000     -10.315279      -280.6930
  35   2.0000     -10.314370      -280.6683
  36   2.0000     -10.314136      -280.6619
  37   2.0000     -10.312068      -280.6056
  38   2.0000     -10.311234      -280.5829
  39   2.0000     -10.306339      -280.4498
  40   2.0000     -10.306137      -280.4443
  41   2.0000     -10.305345      -280.4227
  42   2.0000     -10.304391      -280.3967
  43   2.0000     -10.301243      -280.3111
  44   2.0000     -10.298286      -280.2306
  45   2.0000     -10.296450      -280.1807
  46   2.0000     -10.296374      -280.1786
  47   2.0000     -10.296108      -280.1713
  48   2.0000     -10.296018      -280.1689
  49   2.0000     -10.295785      -280.1625
  50   2.0000     -10.295118      -280.1444
  51   2.0000     -10.294779      -280.1352
  52   2.0000     -10.294625      -280.1310
  53   2.0000     -10.293719      -280.1063
  54   2.0000     -10.292949      -280.0854
  55   2.0000     -10.292865      -280.0831
  56   2.0000     -10.292393      -280.0702
  57   2.0000     -10.292370      -280.0696
  58   2.0000     -10.291961      -280.0585
  59   2.0000     -10.291753      -280.0528
  60   2.0000     -10.290973      -280.0316
  61   2.0000     -10.289473      -279.9908
  62   2.0000     -10.289233      -279.9843
  63   2.0000     -10.289130      -279.9815
  64   2.0000     -10.287018      -279.9240
  65   2.0000     -10.286354      -279.9059
  66   2.0000     -10.285621      -279.8860
  67   2.0000     -10.285105      -279.8719
  68   2.0000     -10.283387      -279.8252
  69   2.0000     -10.283316      -279.8233
  70   2.0000     -10.279774      -279.7269
  71   2.0000     -10.279673      -279.7241
  72   2.0000     -10.279612      -279.7225
  73   2.0000     -10.278729      -279.6984
  74   2.0000     -10.278330      -279.6876
  75   2.0000     -10.278157      -279.6829
  76   2.0000     -10.276304      -279.6325
  77   2.0000     -10.273189      -279.5477
  78   2.0000     -10.266199      -279.3575
  79   2.0000      -8.783655      -239.0154
  80   2.0000      -8.125606      -221.1090
  81   2.0000      -8.073329      -219.6865
  82   2.0000      -8.060972      -219.3502
  83   2.0000      -8.048108      -219.0002
  84   2.0000      -8.045562      -218.9309
  85   2.0000      -6.619905      -180.1368
  86   2.0000      -6.605408      -179.7423
  87   2.0000      -6.605230      -179.7375
  88   2.0000      -6.096695      -165.8995
  89   2.0000      -6.088959      -165.6890
  90   2.0000      -6.088341      -165.6722
  91   2.0000      -6.042382      -164.4216
  92   2.0000      -6.038213      -164.3081
  93   2.0000      -6.035983      -164.2475
  94   2.0000      -6.030677      -164.1031
  95   2.0000      -6.026389      -163.9864
  96   2.0000      -6.022172      -163.8716
  97   2.0000      -6.017912      -163.7557
  98   2.0000      -6.015350      -163.6860
  99   2.0000      -6.013954      -163.6480
 100   2.0000      -6.011466      -163.5803
 101   2.0000      -6.009005      -163.5133
 102   2.0000      -6.006137      -163.4353
 103   2.0000      -2.735817       -74.4454
 104   2.0000      -2.731704       -74.3334
 105   2.0000      -2.731570       -74.3298
 106   2.0000      -2.720055       -74.0165
 107   2.0000      -2.720036       -74.0159
 108   2.0000      -1.131475       -30.7890
 109   2.0000      -1.119820       -30.4719
 110   2.0000      -1.106805       -30.1177
 111   2.0000      -1.034121       -28.1399
 112   2.0000      -1.016571       -27.6623
 113   2.0000      -1.010960       -27.5096
 114   2.0000      -1.003503       -27.3067
 115   2.0000      -1.001028       -27.2394
 116   2.0000      -1.000836       -27.2341
 117   2.0000      -0.994322       -27.0569
 118   2.0000      -0.992979       -27.0203
 119   2.0000      -0.985428       -26.8149
 120   2.0000      -0.980988       -26.6940
 121   2.0000      -0.977675       -26.6039
 122   2.0000      -0.977259       -26.5926
 123   2.0000      -0.968018       -26.3411
 124   2.0000      -0.959744       -26.1160
 125   2.0000      -0.942861       -25.6566
 126   2.0000      -0.931257       -25.3408
 127   2.0000      -0.921624       -25.0787
 128   2.0000      -0.915766       -24.9192
 129   2.0000      -0.904605       -24.6155
 130   2.0000      -0.897401       -24.4195
 131   2.0000      -0.896782       -24.4027
 132   2.0000      -0.891152       -24.2495
 133   2.0000      -0.883812       -24.0498
 134   2.0000      -0.876836       -23.8599
 135   2.0000      -0.874212       -23.7885
 136   2.0000      -0.863901       -23.5079
 137   2.0000      -0.858988       -23.3742
 138   2.0000      -0.854315       -23.2471
 139   2.0000      -0.848743       -23.0955
 140   2.0000      -0.841072       -22.8867
 141   2.0000      -0.839724       -22.8501
 142   2.0000      -0.834801       -22.7161
 143   2.0000      -0.828195       -22.5363
 144   2.0000      -0.818921       -22.2840
 145   2.0000      -0.816470       -22.2173
 146   2.0000      -0.812722       -22.1153
 147   2.0000      -0.801804       -21.8182
 148   2.0000      -0.788090       -21.4450
 149   2.0000      -0.781845       -21.2751
 150   2.0000      -0.774078       -21.0637
 151   2.0000      -0.762232       -20.7414
 152   2.0000      -0.747472       -20.3397
 153   2.0000      -0.744964       -20.2715
 154   2.0000      -0.735624       -20.0174
 155   2.0000      -0.728013       -19.8103
 156   2.0000      -0.722050       -19.6480
 157   2.0000      -0.717974       -19.5371
 158   2.0000      -0.706185       -19.2163
 159   2.0000      -0.700788       -19.0694
 160   2.0000      -0.697211       -18.9721
 161   2.0000      -0.693529       -18.8719
 162   2.0000      -0.689487       -18.7619
 163   2.0000      -0.684153       -18.6168
 164   2.0000      -0.676828       -18.4174
 165   2.0000      -0.674916       -18.3654
 166   2.0000      -0.673874       -18.3370
 167   2.0000      -0.654633       -17.8135
 168   2.0000      -0.652517       -17.7559
 169   2.0000      -0.645794       -17.5729
 170   2.0000      -0.643066       -17.4987
 171   2.0000      -0.641420       -17.4539
 172   2.0000      -0.633085       -17.2271
 173   2.0000      -0.628662       -17.1068
 174   2.0000      -0.624616       -16.9967
 175   2.0000      -0.621996       -16.9254
 176   2.0000      -0.614967       -16.7341
 177   2.0000      -0.613096       -16.6832
 178   2.0000      -0.611179       -16.6310
 179   2.0000      -0.607184       -16.5223
 180   2.0000      -0.600419       -16.3382
 181   2.0000      -0.596831       -16.2406
 182   2.0000      -0.586338       -15.9551
 183   2.0000      -0.583209       -15.8699
 184   2.0000      -0.578967       -15.7545
 185   2.0000      -0.570319       -15.5192
 186   2.0000      -0.567746       -15.4491
 187   2.0000      -0.563577       -15.3357
 188   2.0000      -0.561044       -15.2668
 189   2.0000      -0.559449       -15.2234
 190   2.0000      -0.557635       -15.1740
 191   2.0000      -0.554480       -15.0882
 192   2.0000      -0.552794       -15.0423
 193   2.0000      -0.548763       -14.9326
 194   2.0000      -0.543916       -14.8007
 195   2.0000      -0.539145       -14.6709
 196   2.0000      -0.536126       -14.5887
 197   2.0000      -0.532780       -14.4977
 198   2.0000      -0.530882       -14.4460
 199   2.0000      -0.526029       -14.3140
 200   2.0000      -0.523286       -14.2393
 201   2.0000      -0.520989       -14.1768
 202   2.0000      -0.519092       -14.1252
 203   2.0000      -0.517560       -14.0835
 204   2.0000      -0.510714       -13.8972
 205   2.0000      -0.509846       -13.8736
 206   2.0000      -0.505107       -13.7447
 207   2.0000      -0.503837       -13.7101
 208   2.0000      -0.503261       -13.6944
 209   2.0000      -0.502099       -13.6628
 210   2.0000      -0.499681       -13.5970
 211   2.0000      -0.497235       -13.5305
 212   2.0000      -0.496923       -13.5220
 213   2.0000      -0.494282       -13.4501
 214   2.0000      -0.493537       -13.4298
 215   2.0000      -0.491590       -13.3769
 216   2.0000      -0.486549       -13.2397
 217   2.0000      -0.484474       -13.1832
 218   2.0000      -0.483073       -13.1451
 219   2.0000      -0.480659       -13.0794
 220   2.0000      -0.478890       -13.0313
 221   2.0000      -0.471909       -12.8413
 222   2.0000      -0.470020       -12.7899
 223   2.0000      -0.468943       -12.7606
 224   2.0000      -0.468359       -12.7447
 225   2.0000      -0.465469       -12.6660
 226   2.0000      -0.463545       -12.6137
 227   2.0000      -0.462177       -12.5765
 228   2.0000      -0.461713       -12.5639
 229   2.0000      -0.458112       -12.4659
 230   2.0000      -0.447601       -12.1798
 231   2.0000      -0.446594       -12.1524
 232   2.0000      -0.444002       -12.0819
 233   2.0000      -0.443357       -12.0644
 234   2.0000      -0.442335       -12.0366
 235   2.0000      -0.437869       -11.9150
 236   2.0000      -0.437639       -11.9088
 237   2.0000      -0.436887       -11.8883
 238   2.0000      -0.436068       -11.8660
 239   2.0000      -0.435035       -11.8379
 240   2.0000      -0.433049       -11.7839
 241   2.0000      -0.431858       -11.7515
 242   2.0000      -0.430871       -11.7246
 243   2.0000      -0.427969       -11.6456
 244   2.0000      -0.427639       -11.6367
 245   2.0000      -0.426257       -11.5990
 246   2.0000      -0.424383       -11.5480
 247   2.0000      -0.421888       -11.4801
 248   2.0000      -0.414789       -11.2870
 249   2.0000      -0.412835       -11.2338
 250   2.0000      -0.412533       -11.2256
 251   2.0000      -0.410779       -11.1779
 252   2.0000      -0.409716       -11.1489
 253   2.0000      -0.405959       -11.0467
 254   2.0000      -0.401707       -10.9310
 255   2.0000      -0.399896       -10.8817
 256   2.0000      -0.399197       -10.8627
 257   2.0000      -0.396282       -10.7834
 258   2.0000      -0.393805       -10.7160
 259   2.0000      -0.391282       -10.6473
 260   2.0000      -0.382748       -10.4151
 261   2.0000      -0.380887       -10.3645
 262   2.0000      -0.376104       -10.2343
 263   2.0000      -0.368916       -10.0387
 264   2.0000      -0.365950        -9.9580
 265   2.0000      -0.361538        -9.8380
 266   2.0000      -0.354571        -9.6484
 267   2.0000      -0.348035        -9.4705
 268   2.0000      -0.345214        -9.3938
 269   2.0000      -0.340029        -9.2527
 270   2.0000      -0.339007        -9.2249
 271   2.0000      -0.329103        -8.9554
 272   2.0000      -0.325716        -8.8632
 273   2.0000      -0.321844        -8.7578
 274   2.0000      -0.319264        -8.6876
 275   2.0000      -0.316990        -8.6257
 276   2.0000      -0.309967        -8.4346
 277   2.0000      -0.303837        -8.2678
 278   2.0000      -0.286706        -7.8017
 279   2.0000      -0.281412        -7.6576
 280   2.0000      -0.266408        -7.2493
 281   2.0000      -0.249358        -6.7854
 282   2.0000      -0.222185        -6.0460
 283   0.0000      -0.124427        -3.3858
 284   0.0000      -0.071610        -1.9486
 285   0.0000      -0.069422        -1.8891
 286   0.0000      -0.054162        -1.4738
 287   0.0000      -0.048551        -1.3211

MULLIKEN ATOMIC CHARGES
-----------------------
   0 C :   -0.021412
   1 C :   -0.068948
   2 C :    0.055654
   3 C :    0.026133
   4 C :   -0.056118
   5 S :    0.079030
   6 C :   -0.072265
   7 C :    0.047950
   8 C :    0.062580
   9 C :   -0.067912
  10 S :    0.089351
  11 C :   -0.012350
  12 C :   -0.063771
  13 C :    0.090197
  14 C :    0.088686
  15 C :   -0.011869
  16 C :    0.034341
  17 C :    0.026618
  18 C :   -0.033207
  19 C :   -0.093403
  20 C :    0.077615
  21 C :    0.133296
  22 C :   -0.041672
  23 C :   -0.001297
  24 C :    0.027907
  25 C :    0.005406
  26 C :   -0.266127
  27 S :    0.177488
  28 C :   -0.133370
  29 C :    0.160979
  30 C :    0.166925
  31 C :   -0.101759
  32 C :    0.163686
  33 C :   -0.061812
  34 C :    0.042225
  35 C :   -0.007559
  36 C :    0.052636
  37 C :   -0.101580
  38 C :    0.089075
  39 C :   -0.055326
  40 C :   -0.045886
  41 N :    0.028611
  42 C :   -0.117708
  43 C :   -0.135837
  44 N :    0.053156
  45 C :   -0.208666
  46 N :    0.215817
  47 C :   -0.206424
  48 N :    0.230196
  49 C :    0.075704
  50 C :    0.017228
  51 C :    0.006482
  52 N :   -0.278003
  53 S :    0.532882
  54 N :   -0.275768
  55 C :   -0.072888
  56 C :   -0.063943
  57 C :    0.304861
  58 C :   -0.350039
  59 C :   -0.200988
  60 N :    0.151129
  61 C :   -0.184803
  62 N :    0.142433
  63 C :    0.020134
  64 C :   -0.012284
  65 C :    0.151220
  66 O :   -0.169346
  67 C :   -0.071461
  68 C :    0.118630
  69 C :   -0.088380
  70 C :   -0.027567
  71 S :    0.182103
  72 C :   -0.123282
  73 C :    0.039914
  74 Br:    0.018340
  75 H :    0.027334
  76 H :    0.026242
  77 H :   -0.003677
  78 H :   -0.007738
  79 H :   -0.013816
  80 H :   -0.012806
  81 H :    0.013598
  82 H :   -0.026637
  83 H :   -0.011271
  84 H :   -0.011178
  85 H :   -0.011650
  86 H :   -0.037090
  87 H :   -0.021663
  88 H :   -0.008129
  89 H :   -0.021637
  90 H :    0.029834
  91 H :    0.007105
  92 H :    0.021082
  93 H :   -0.024648
  94 H :   -0.007187
  95 H :   -0.023594
  96 H :    0.004648
  97 H :    0.017059
  98 H :    0.038528
  99 H :   -0.012923
 100 H :   -0.007678
 101 H :   -0.003696
Sum of atomic charges:    0.0000000

LOEWDIN ATOMIC CHARGES
----------------------
   0 C :   -0.064447
   1 C :   -0.141701
   2 C :   -0.023485
   3 C :   -0.028872
   4 C :   -0.171534
   5 S :    0.355458
   6 C :   -0.180154
   7 C :   -0.021729
   8 C :   -0.032481
   9 C :   -0.139359
  10 S :    0.399420
  11 C :   -0.047322
  12 C :   -0.028336
  13 C :   -0.011537
  14 C :   -0.014208
  15 C :   -0.012191
  16 C :   -0.020860
  17 C :   -0.018415
  18 C :   -0.016056
  19 C :   -0.002512
  20 C :   -0.019964
  21 C :   -0.009069
  22 C :   -0.047153
  23 C :   -0.011562
  24 C :   -0.027789
  25 C :   -0.000203
  26 C :   -0.115595
  27 S :    0.489232
  28 C :   -0.183536
  29 C :   -0.021268
  30 C :   -0.049162
  31 C :   -0.003626
  32 C :   -0.047352
  33 C :   -0.037648
  34 C :   -0.004098
  35 C :   -0.027648
  36 C :   -0.009483
  37 C :   -0.045638
  38 C :   -0.005407
  39 C :   -0.012031
  40 C :    0.025593
  41 N :    0.006024
  42 C :   -0.020562
  43 C :   -0.040635
  44 N :    0.000731
  45 C :   -0.036816
  46 N :   -0.020128
  47 C :   -0.033345
  48 N :   -0.011880
  49 C :   -0.072207
  50 C :   -0.025574
  51 C :   -0.054612
  52 N :   -0.253883
  53 S :    0.664883
  54 N :   -0.291091
  55 C :    0.079608
  56 C :   -0.086881
  57 C :    0.075783
  58 C :   -0.143932
  59 C :   -0.022161
  60 N :   -0.058805
  61 C :   -0.018019
  62 N :   -0.061018
  63 C :   -0.018434
  64 C :   -0.047059
  65 C :    0.083419
  66 O :   -0.161245
  67 C :    0.022049
  68 C :   -0.032600
  69 C :   -0.143614
  70 C :   -0.011680
  71 S :    0.429154
  72 C :   -0.273130
  73 C :   -0.069135
  74 Br:    0.132994
  75 H :    0.032175
  76 H :    0.028520
  77 H :    0.036826
  78 H :    0.033759
  79 H :    0.031920
  80 H :    0.032681
  81 H :    0.029252
  82 H :    0.028371
  83 H :    0.030265
  84 H :    0.030848
  85 H :    0.029673
  86 H :    0.028482
  87 H :    0.029831
  88 H :    0.032565
  89 H :    0.031067
  90 H :    0.032238
  91 H :    0.032298
  92 H :    0.036110
  93 H :    0.026579
  94 H :    0.033761
  95 H :    0.028652
  96 H :    0.035460
  97 H :    0.039929
  98 H :    0.047089
  99 H :    0.040054
 100 H :    0.040338
 101 H :    0.038784

  Mayer bond orders larger than 0.100000
B(  0-C ,  1-C ) :   1.8694 B(  0-C , 75-H ) :   0.9502 B(  0-C , 76-H ) :   0.9420
B(  1-C ,  2-C ) :   1.0757 B(  1-C ,  5-S ) :   1.0025 B(  2-C ,  3-C ) :   1.6618
B(  2-C , 77-H ) :   0.9942 B(  3-C ,  4-C ) :   1.1430 B(  3-C , 78-H ) :   0.9946
B(  4-C ,  5-S ) :   1.0499 B(  4-C ,  6-C ) :   1.5581 B(  6-C ,  7-C ) :   1.1645
B(  6-C , 10-S ) :   1.0401 B(  7-C ,  8-C ) :   1.6174 B(  7-C , 79-H ) :   0.9923
B(  8-C ,  9-C ) :   1.1157 B(  8-C , 80-H ) :   1.0006 B(  9-C , 10-S ) :   1.0560
B(  9-C , 11-C ) :   1.6983 B( 11-C , 12-C ) :   0.9914 B( 11-C , 26-C ) :   0.1094
B( 11-C , 81-H ) :   0.9178 B( 12-C , 13-C ) :   1.3514 B( 12-C , 19-C ) :   0.1016
B( 12-C , 21-C ) :   1.3382 B( 13-C , 14-C ) :   1.1847 B( 13-C , 18-C ) :   1.2006
B( 14-C , 15-C ) :   1.1838 B( 14-C , 19-C ) :   1.3073 B( 15-C , 16-C ) :   1.5491
B( 15-C , 82-H ) :   0.9970 B( 16-C , 17-C ) :   1.2023 B( 16-C , 83-H ) :   0.9890
B( 17-C , 18-C ) :   1.5541 B( 17-C , 84-H ) :   0.9858 B( 18-C , 85-H ) :   0.9860
B( 19-C , 20-C ) :   1.2950 B( 19-C , 86-H ) :   1.0079 B( 20-C , 21-C ) :   1.1945
B( 20-C , 25-C ) :   1.1850 B( 21-C , 22-C ) :   1.2101 B( 22-C , 23-C ) :   1.5821
B( 22-C , 26-C ) :   0.9278 B( 23-C , 24-C ) :   1.1873 B( 23-C , 87-H ) :   0.9966
B( 24-C , 25-C ) :   1.5313 B( 24-C , 88-H ) :   0.9879 B( 25-C , 89-H ) :   0.9974
B( 26-C , 27-S ) :   1.2241 B( 26-C , 30-C ) :   1.3412 B( 27-S , 28-C ) :   1.0861
B( 28-C , 29-C ) :   1.2533 B( 28-C , 36-C ) :   1.2762 B( 29-C , 30-C ) :   1.2388
B( 29-C , 35-C ) :   1.2796 B( 30-C , 31-C ) :   1.2208 B( 31-C , 32-C ) :   1.1007
B( 31-C , 33-C ) :   1.4912 B( 32-C , 90-H ) :   0.9271 B( 32-C , 91-H ) :   0.9388
B( 32-C , 92-H ) :   0.9311 B( 33-C , 34-C ) :   1.2200 B( 33-C , 93-H ) :   0.9936
B( 34-C , 35-C ) :   1.4663 B( 34-C , 94-H ) :   0.9899 B( 35-C , 95-H ) :   0.9770
B( 36-C , 37-C ) :   1.5054 B( 36-C , 96-H ) :   0.9429 B( 37-C , 38-C ) :   1.3204
B( 37-C , 97-H ) :   0.9348 B( 38-C , 39-C ) :   1.1655 B( 38-C , 49-C ) :   0.1000
B( 38-C , 51-C ) :   1.1567 B( 39-C , 40-C ) :   1.1357 B( 39-C , 44-N ) :   1.5050
B( 40-C , 41-N ) :   1.4305 B( 40-C , 49-C ) :   1.2183 B( 41-N , 42-C ) :   1.6926
B( 42-C , 43-C ) :   1.2208 B( 42-C , 47-C ) :   1.1501 B( 43-C , 44-N ) :   1.6917
B( 43-C , 45-C ) :   1.1542 B( 45-C , 46-N ) :   3.0452 B( 47-C , 48-N ) :   3.0535
B( 49-C , 50-C ) :   1.1676 B( 49-C , 55-C ) :   1.2192 B( 50-C , 51-C ) :   1.1221
B( 50-C , 54-N ) :   1.5596 B( 51-C , 52-N ) :   1.5133 B( 52-N , 53-S ) :   1.2881
B( 52-N , 54-N ) :   0.1435 B( 53-S , 54-N ) :   1.2540 B( 55-C , 56-C ) :   1.5331
B( 55-C , 98-H ) :   0.9386 B( 56-C , 57-C ) :   1.0924 B( 56-C , 65-C ) :   0.9517
B( 57-C , 58-C ) :   1.6200 B( 57-C , 63-C ) :   0.9985 B( 58-C , 59-C ) :   1.1470
B( 58-C , 61-C ) :   1.1420 B( 59-C , 60-N ) :   2.9843 B( 61-C , 62-N ) :   2.9685
B( 63-C , 64-C ) :   1.2751 B( 63-C , 70-C ) :   1.4116 B( 64-C , 65-C ) :   0.9446
B( 64-C , 67-C ) :   1.4240 B( 65-C , 66-O ) :   2.1940 B( 67-C , 68-C ) :   1.2437
B( 67-C , 99-H ) :   1.0163 B( 68-C , 69-C ) :   1.3106 B( 68-C , 73-C ) :   1.1621
B( 69-C , 70-C ) :   1.3256 B( 69-C , 71-S ) :   1.0850 B( 70-C ,100-H ) :   0.9800
B( 71-S , 72-C ) :   1.0849 B( 72-C , 73-C ) :   1.6208 B( 72-C , 74-Br) :   1.0163
B( 73-C ,101-H ) :   0.9994

-----------------------------------------------------------------------------
         ABSORPTION SPECTRUM VIA TRANSITION ELECTRIC DIPOLE MOMENTS
-----------------------------------------------------------------------------
State   Energy  Wavelength   fosc         T2         TX        TY        TZ
        (cm-1)    (nm)                  (au**2)     (au)      (au)      (au)
-----------------------------------------------------------------------------
   0    6345.4   1576.0   0.349690576  18.14277  -1.46122   0.77557  -3.92506
   1   12559.5    796.2   0.149230384   3.91165   0.05646   1.37099   1.42438
   2   17010.7    587.9   0.038644556   0.74790  -0.84344   0.04393   0.18596
   3   17949.1    557.1   0.274091819   5.02723   0.62732  -2.14917   0.12151
   4   18948.5    527.7   0.403345528   7.00773   0.67530  -1.02730  -2.34443
   5   19071.9    524.3   0.021704372   0.37465   0.48323   0.24403  -0.28564
   6   20638.6    484.5   0.046570251   0.74286   0.77345  -0.27334   0.26441
   7   21395.4    467.4   0.015046528   0.23152  -0.02176  -0.42804  -0.21870
   8   21544.5    464.2   0.017165768   0.26230  -0.14122   0.48416   0.08912
   9   22124.7    452.0   0.033471735   0.49805   0.52775  -0.25976   0.38995
  10   23559.8    424.5   0.076195464   1.06471   0.39483   0.63064   0.71493
  11   23925.7    418.0   0.464773727   6.39519   0.80203   1.80926   1.57433
  12   24206.1    413.1   0.061003093   0.82966  -0.07079  -0.00835  -0.90807
  13   24667.2    405.4   0.005177749   0.06910  -0.22228  -0.03575   0.13571
  14   25401.2    393.7   0.071339630   0.92460   0.14701   0.89605   0.31634
  15   25493.4    392.3   0.044705525   0.57731   0.32027   0.55897   0.40286
  16   25745.7    388.4   0.041737375   0.53370   0.36304  -0.39305  -0.49740
  17   26040.4    384.0   0.020787390   0.26280  -0.26782   0.40396   0.16701
  18   26832.7    372.7   0.006105227   0.07491   0.22915  -0.11289   0.09824
  19   26907.5    371.6   0.052774234   0.64569  -0.44188  -0.27271  -0.61324
  20   27328.9    365.9   0.001523048   0.01835   0.01034   0.03030   0.13161
  21   28202.1    354.6   0.031316094   0.36556  -0.24825   0.26815  -0.48170
  22   28651.2    349.0   0.141083061   1.62109   0.76815  -0.59585  -0.82219
  23   29311.4    341.2   0.002524957   0.02836   0.10789   0.05203  -0.11838
  24   29577.7    338.1   0.064783103   0.72106   0.00932   0.84779   0.04712
  25   29689.1    336.8   0.312167117   3.46151  -1.70462  -0.40952  -0.62296
  26   29819.6    335.3   0.039176006   0.43251   0.20023  -0.29880  -0.55057
  27   30349.6    329.5   0.475104279   5.15361  -1.91850  -0.02478  -1.21340
  28   30544.4    327.4   0.141869156   1.52909   0.63814  -0.90298   0.55363
  29   30704.0    325.7   0.043199226   0.46319  -0.44017  -0.03027  -0.51819
  30   30841.9    324.2   0.033810120   0.36089   0.27792   0.33070  -0.41748
  31   31095.5    321.6   0.020144103   0.21327   0.19992   0.09728   0.40476
  32   31212.6    320.4   0.023167623   0.24436  -0.12344  -0.39220  -0.27440
  33   31727.2    315.2   0.058545156   0.60748   0.74880   0.14440  -0.16103
  34   31966.0    312.8   0.007465020   0.07688   0.13574  -0.21892  -0.10261
  35   32431.1    308.3   0.041719166   0.42350  -0.22451   0.40641   0.45598
  36   32521.3    307.5   0.097871536   0.99075  -0.54045  -0.63509  -0.54345
  37   32761.5    305.2   0.018810709   0.18902  -0.24758  -0.22444  -0.27812
  38   32857.6    304.3   0.081557082   0.81715  -0.70683  -0.55591   0.09220
  39   33240.5    300.8   0.003789491   0.03753   0.17480   0.03024  -0.07784
  40   33378.4    299.6   0.015524117   0.15311  -0.03053   0.36774   0.13019
  41   33591.8    297.7   0.045491208   0.44583   0.18903  -0.12732   0.62761
  42   33656.7    297.1   0.022492302   0.22001  -0.13126  -0.19327  -0.40672
  43   34173.0    292.6   0.145435941   1.40109  -1.08777  -0.00208  -0.46673
  44   34497.8    289.9   0.043409912   0.41426   0.09056  -0.55191  -0.31852
  45   34594.5    289.1   0.013975732   0.13300   0.19047   0.29863  -0.08685
  46   34792.2    287.4   0.310142856   2.93464   1.53670  -0.70209   0.28329
  47   35025.0    285.5   0.101734154   0.95623   0.68693   0.20861   0.66396
  48   35279.9    283.4   0.033391488   0.31159   0.32547  -0.25114  -0.37761
  49   35505.7    281.6   0.024111541   0.22356   0.37225  -0.24426  -0.15917
  50   36099.7    277.0   0.016577189   0.15118   0.22307  -0.23816  -0.21141
  51   36300.5    275.5   0.000201314   0.00183  -0.02155  -0.02907   0.02273
  52   36681.0    272.6   0.024264467   0.21777  -0.07534  -0.27866  -0.36667
  53   36816.4    271.6   0.001327004   0.01187   0.07787  -0.02575   0.07168
  54   36907.6    270.9   0.019064072   0.17005   0.01422  -0.38558  -0.14551
  55   36917.7    270.9   0.033391873   0.29777   0.49660  -0.18767  -0.12626
  56   37387.3    267.5   0.024266347   0.21368   0.09121  -0.33587   0.30422
  57   37488.0    266.8   0.208216430   1.82851  -1.04037  -0.22559  -0.83382
  58   37591.8    266.0   0.013182549   0.11545  -0.12924   0.24244  -0.19991
  59   37708.8    265.2   0.011567648   0.10099   0.25018   0.02776   0.19398
  60   37828.1    264.4   0.022987329   0.20006  -0.28753  -0.33870  -0.05166
  61   37954.5    263.5   0.004388361   0.03806   0.14341   0.12651   0.03865
  62   38426.5    260.2   0.012572963   0.10772  -0.17627  -0.26181  -0.08999
  63   38658.0    258.7   0.195454286   1.66449  -0.85679   0.74025   0.61841
  64   38955.4    256.7   0.024700751   0.20875   0.02968  -0.18689  -0.41586
  65   39281.4    254.6   0.050017978   0.41919   0.05420  -0.32213   0.55901
  66   39513.2    253.1   0.026037450   0.21694   0.40992  -0.21258   0.06091
  67   39551.5    252.8   0.094414204   0.78587   0.48258  -0.25326  -0.69917
  68   39736.2    251.7   0.026039132   0.21573  -0.08073   0.17764  -0.42150
  69   39769.6    251.4   0.019465232   0.16113   0.07608   0.26588   0.29095
  70   39881.4    250.7   0.028394492   0.23439   0.01875  -0.41778  -0.24392
  71   40067.4    249.6   0.009002198   0.07397  -0.14948  -0.10532  -0.20132
  72   40225.0    248.6   0.044467348   0.36393   0.59570   0.01384  -0.09426
  73   40297.7    248.2   0.084166480   0.68760  -0.16318   0.04662  -0.81166

FINAL SINGLE POINT ENERGY     -7376.427957584378

DIPOLE MOMENT
-------------
                                X             Y             Z
Electronic contribution:     92.92581      -5.78939     194.06906
Nuclear contribution   :    -95.09791       4.00039    -199.03964
                        -----------------------------------------
Total Dipole Moment    :     -2.17211      -1.78899      -4.97058
                        -----------------------------------------
Magnitude (a.u.)       :      5.71185
Magnitude (Debye)      :     14.51836

Rotational constants in cm-1:     0.001845     0.000302     0.000297
Rotational constants in MHz :    55.313176     9.052797     8.896217

                             ****ORCA TERMINATED NORMALLY****
TOTAL RUN TIME: 0 days 0 hours 13 minutes 13 seconds 45 msec
