                         Program Version 4.2.0 -  RELEASE  -
|  1> # ORCA input file
|  2> # SCF done       -180.789993264312          0.000543915209
|  3> ! CAM-B3LYP def2-SVP def2/J RIJCOSX Grid4 TightSCF
|  4> %maxcore 5000
|  5> %tddft
|  6>     Mode sTDDFT
|  7>     Ethresh 5.0
|  8>     maxcore 5000
|  9> end
| 10>
| 11> %pal
| 12>   nprocs 6
| 13>   end
| 14> * xyz 0 1
| 15>    C       12.83782       -18.26284        -2.36093
| 16>    C       11.98303       -17.23393        -2.26949
| 17>    C       10.61099       -17.19182        -2.68476
| 18>    C       10.00103       -16.00403        -2.46998
| 19>    C       10.83364       -15.01808        -1.87267
| 20>    S       12.43224       -15.66293        -1.58580
| 21>    C       10.49010       -13.71996        -1.55414
| 22>    C        9.24201       -13.08356        -1.75343
| 23>    C        9.20927       -11.78020        -1.36020
| 24>    C       10.42635       -11.30238        -0.82435
| 25>    S       11.61884       -12.60020        -0.83216
| 26>    C       10.83640       -10.08064        -0.33701
| 27>    C       10.22109        -8.82126        -0.21793
| 28>    C       11.03016        -7.76225         0.31179
| 29>    C       10.56627        -6.40022         0.41495
| 30>    N       11.36347        -5.46723         0.97126
| 31>    C       12.56542        -5.79791         1.36837
| 32>    C       13.04671        -7.13583         1.21364
| 33>    N       12.26878        -8.06814         0.70858
| 34>    C       14.35962        -7.47518         1.61461
| 35>    N       15.43033        -7.71286         1.94884
| 36>    C       13.39201        -4.81080         1.96152
| 37>    N       14.09301        -4.03567         2.43102
| 38>    C        9.28111        -6.01326        -0.00717
| 39>    C        8.45466        -7.05666        -0.46699
| 40>    C        8.90402        -8.43071        -0.57875
| 41>    N        7.94311        -9.21207        -1.06210
| 42>    S        6.62529        -8.33520        -1.36007
| 43>    N        7.19618        -6.91273        -0.89046
| 44>    C        8.82804        -4.63209        -0.00412
| 45>    C        7.48451        -4.33973         0.27399
| 46>    C        7.04318        -3.04273         0.20098
| 47>    C        7.91917        -2.01154        -0.18687
| 48>    C        9.25740        -2.28691        -0.43366
| 49>    C        9.70282        -3.58850        -0.33243
| 50>    C        7.15939        -0.79118        -0.32933
| 51>    C        5.81182        -1.06833        -0.03586
| 52>    C        5.65240        -2.49908         0.43255
| 53>    C        4.58485        -3.26527        -0.35982
| 54>    C        4.86761        -3.26977        -1.85758
| 55>    C        5.31144        -2.43920         1.94098
| 56>    C        5.32297        -3.77532         2.67145
| 57>    C        4.85608        -0.09476        -0.16897
| 58>    C        5.21954         1.19239        -0.60451
| 59>    C        6.57262         1.45863        -0.86665
| 60>    C        7.53762         0.48308        -0.73404
| 61>    C        4.17526         2.16283        -0.78719
| 62>    C        4.31732         3.45903        -1.14864
| 63>    C        3.22901         4.33982        -1.36257
| 64>    S        3.51282         6.01300        -1.80102
| 65>    C        1.81330         6.39997        -1.93095
| 66>    C        1.06588         5.25744        -1.63447
| 67>    C        1.86395         4.12469        -1.31800
| 68>    S        0.83469         2.77160        -0.97515
| 69>    C       -0.53742         3.82943        -1.28084
| 70>    N       -0.27475         5.03608        -1.59822
| 71>    C        1.38964         7.68734        -2.29110
| 72>    C        0.06765         8.01428        -2.45434
| 73>    C       -0.45962         9.26117        -2.81295
| 74>    C        0.17420        10.46610        -3.02643
| 75>    C       -0.49273        11.66214        -3.39607
| 76>    C        0.31480        12.74772        -3.53510
| 77>    C        1.68007        12.47960        -3.28012
| 78>    S        1.89042        10.78806        -2.86821
| 79>    C        2.73837        13.35823        -3.32109
| 80>    C        2.69583        14.74368        -3.63990
| 81>    C        3.89566        15.36442        -3.59060
| 82>    C        4.98936        14.51121        -3.22520
| 83>    S        4.38046        12.86990        -2.95650
| 84>    C        6.28088        14.84330        -3.09102
| 85>    H       12.52486       -19.20041        -2.78547
| 86>    H       13.85343       -18.18626        -2.01846
| 87>    H       10.14382       -18.05360        -3.12704
| 88>    H        8.97634       -15.79513        -2.72076
| 89>    H        8.40246       -13.60069        -2.18271
| 90>    H        8.35221       -11.13769        -1.43385
| 91>    H       11.86187       -10.06315         0.01598
| 92>    H        6.81327        -5.14232         0.53044
| 93>    H        9.93697        -1.50056        -0.72625
| 94>    H       10.73332        -3.81546        -0.55405
| 95>    H        3.61082        -2.80792        -0.17221
| 96>    H        4.54719        -4.29591        -0.00594
| 97>    H        4.91764        -2.25380        -2.24364
| 98>    H        5.81434        -3.76396        -2.06312
| 99>    H        4.07974        -3.80151        -2.38645
|100>    H        4.32425        -1.98191         2.04168
|101>    H        6.03348        -1.77320         2.42092
|102>    H        4.61537        -4.47429         2.23334
|103>    H        5.04288        -3.61960         3.71131
|104>    H        6.31525        -4.21753         2.65119
|105>    H        3.81718        -0.30378         0.04391
|106>    H        6.86508         2.44389        -1.19494
|107>    H        8.57166         0.70475        -0.95237
|108>    H        3.17203         1.78940        -0.62265
|109>    H        5.29549         3.89150        -1.30030
|110>    H       -1.53292         3.44091        -1.19418
|111>    H        2.16870         8.41741        -2.45219
|112>    H       -0.65050         7.22048        -2.29945
|113>    H       -1.53531         9.29660        -2.93841
|114>    H       -1.55813        11.67822        -3.54706
|115>    H       -0.03180        13.72808        -3.80824
|116>    H        1.77139        15.23083        -3.89499
|117>    H        4.05900        16.40689        -3.79890
|118>    H        6.60848        15.85324        -3.26366
|119>    H        7.02463        14.12031        -2.81069
|120> *
|121>
|122>                          ****END OF INPUT****

CARTESIAN COORDINATES (ANGSTROEM)
---------------------------------
  C     12.837820  -18.262840   -2.360930
  C     11.983030  -17.233930   -2.269490
  C     10.610990  -17.191820   -2.684760
  C     10.001030  -16.004030   -2.469980
  C     10.833640  -15.018080   -1.872670
  S     12.432240  -15.662930   -1.585800
  C     10.490100  -13.719960   -1.554140
  C      9.242010  -13.083560   -1.753430
  C      9.209270  -11.780200   -1.360200
  C     10.426350  -11.302380   -0.824350
  S     11.618840  -12.600200   -0.832160
  C     10.836400  -10.080640   -0.337010
  C     10.221090   -8.821260   -0.217930
  C     11.030160   -7.762250    0.311790
  C     10.566270   -6.400220    0.414950
  N     11.363470   -5.467230    0.971260
  C     12.565420   -5.797910    1.368370
  C     13.046710   -7.135830    1.213640
  N     12.268780   -8.068140    0.708580
  C     14.359620   -7.475180    1.614610
  N     15.430330   -7.712860    1.948840
  C     13.392010   -4.810800    1.961520
  N     14.093010   -4.035670    2.431020
  C      9.281110   -6.013260   -0.007170
  C      8.454660   -7.056660   -0.466990
  C      8.904020   -8.430710   -0.578750
  N      7.943110   -9.212070   -1.062100
  S      6.625290   -8.335200   -1.360070
  N      7.196180   -6.912730   -0.890460
  C      8.828040   -4.632090   -0.004120
  C      7.484510   -4.339730    0.273990
  C      7.043180   -3.042730    0.200980
  C      7.919170   -2.011540   -0.186870
  C      9.257400   -2.286910   -0.433660
  C      9.702820   -3.588500   -0.332430
  C      7.159390   -0.791180   -0.329330
  C      5.811820   -1.068330   -0.035860
  C      5.652400   -2.499080    0.432550
  C      4.584850   -3.265270   -0.359820
  C      4.867610   -3.269770   -1.857580
  C      5.311440   -2.439200    1.940980
  C      5.322970   -3.775320    2.671450
  C      4.856080   -0.094760   -0.168970
  C      5.219540    1.192390   -0.604510
  C      6.572620    1.458630   -0.866650
  C      7.537620    0.483080   -0.734040
  C      4.175260    2.162830   -0.787190
  C      4.317320    3.459030   -1.148640
  C      3.229010    4.339820   -1.362570
  S      3.512820    6.013000   -1.801020
  C      1.813300    6.399970   -1.930950
  C      1.065880    5.257440   -1.634470
  C      1.863950    4.124690   -1.318000
  S      0.834690    2.771600   -0.975150
  C     -0.537420    3.829430   -1.280840
  N     -0.274750    5.036080   -1.598220
  C      1.389640    7.687340   -2.291100
  C      0.067650    8.014280   -2.454340
  C     -0.459620    9.261170   -2.812950
  C      0.174200   10.466100   -3.026430
  C     -0.492730   11.662140   -3.396070
  C      0.314800   12.747720   -3.535100
  C      1.680070   12.479600   -3.280120
  S      1.890420   10.788060   -2.868210
  C      2.738370   13.358230   -3.321090
  C      2.695830   14.743680   -3.639900
  C      3.895660   15.364420   -3.590600
  C      4.989360   14.511210   -3.225200
  S      4.380460   12.869900   -2.956500
  C      6.280880   14.843300   -3.091020
  H     12.524860  -19.200410   -2.785470
  H     13.853430  -18.186260   -2.018460
  H     10.143820  -18.053600   -3.127040
  H      8.976340  -15.795130   -2.720760
  H      8.402460  -13.600690   -2.182710
  H      8.352210  -11.137690   -1.433850
  H     11.861870  -10.063150    0.015980
  H      6.813270   -5.142320    0.530440
  H      9.936970   -1.500560   -0.726250
  H     10.733320   -3.815460   -0.554050
  H      3.610820   -2.807920   -0.172210
  H      4.547190   -4.295910   -0.005940
  H      4.917640   -2.253800   -2.243640
  H      5.814340   -3.763960   -2.063120
  H      4.079740   -3.801510   -2.386450
  H      4.324250   -1.981910    2.041680
  H      6.033480   -1.773200    2.420920
  H      4.615370   -4.474290    2.233340
  H      5.042880   -3.619600    3.711310
  H      6.315250   -4.217530    2.651190
  H      3.817180   -0.303780    0.043910
  H      6.865080    2.443890   -1.194940
  H      8.571660    0.704750   -0.952370
  H      3.172030    1.789400   -0.622650
  H      5.295490    3.891500   -1.300300
  H     -1.532920    3.440910   -1.194180
  H      2.168700    8.417410   -2.452190
  H     -0.650500    7.220480   -2.299450
  H     -1.535310    9.296600   -2.938410
  H     -1.558130   11.678220   -3.547060
  H     -0.031800   13.728080   -3.808240
  H      1.771390   15.230830   -3.894990
  H      4.059000   16.406890   -3.798900
  H      6.608480   15.853240   -3.263660
  H      7.024630   14.120310   -2.810690

 Total Charge           Charge          ....    0
 Multiplicity           Mult            ....    1
 Number of Electrons    NEL             ....  532
 Basis Dimension        Dim             .... 1183

ORBITAL ENERGIES
----------------

  NO   OCC          E(Eh)            E(eV)
   0   2.0000     -89.037785     -2422.8413
   1   2.0000     -88.956534     -2420.6304
   2   2.0000     -88.953678     -2420.5526
   3   2.0000     -88.953102     -2420.5370
   4   2.0000     -88.951720     -2420.4994
   5   2.0000     -88.939148     -2420.1573
   6   2.0000     -88.933922     -2420.0151
   7   2.0000     -14.450440      -393.2165
   8   2.0000     -14.450061      -393.2062
   9   2.0000     -14.445460      -393.0810
  10   2.0000     -14.444677      -393.0596
  11   2.0000     -14.418538      -392.3484
  12   2.0000     -14.416124      -392.2827
  13   2.0000     -14.411638      -392.1606
  14   2.0000     -10.368080      -282.1298
  15   2.0000     -10.364550      -282.0337
  16   2.0000     -10.338906      -281.3359
  17   2.0000     -10.335904      -281.2542
  18   2.0000     -10.334287      -281.2102
  19   2.0000     -10.334225      -281.2086
  20   2.0000     -10.332295      -281.1560
  21   2.0000     -10.328141      -281.0430
  22   2.0000     -10.321531      -280.8631
  23   2.0000     -10.320010      -280.8217
  24   2.0000     -10.317488      -280.7531
  25   2.0000     -10.312622      -280.6207
  26   2.0000     -10.312024      -280.6044
  27   2.0000     -10.310483      -280.5625
  28   2.0000     -10.305293      -280.4213
  29   2.0000     -10.302161      -280.3361
  30   2.0000     -10.302129      -280.3352
  31   2.0000     -10.301953      -280.3304
  32   2.0000     -10.300139      -280.2810
  33   2.0000     -10.299993      -280.2771
  34   2.0000     -10.299072      -280.2520
  35   2.0000     -10.297805      -280.2175
  36   2.0000     -10.297426      -280.2072
  37   2.0000     -10.296505      -280.1821
  38   2.0000     -10.295550      -280.1562
  39   2.0000     -10.295401      -280.1521
  40   2.0000     -10.286930      -279.9216
  41   2.0000     -10.285113      -279.8721
  42   2.0000     -10.283106      -279.8176
  43   2.0000     -10.280456      -279.7454
  44   2.0000     -10.278549      -279.6935
  45   2.0000     -10.277990      -279.6783
  46   2.0000     -10.276329      -279.6331
  47   2.0000     -10.275554      -279.6120
  48   2.0000     -10.274497      -279.5833
  49   2.0000     -10.270936      -279.4864
  50   2.0000     -10.270738      -279.4810
  51   2.0000     -10.269359      -279.4435
  52   2.0000     -10.267765      -279.4001
  53   2.0000     -10.267059      -279.3809
  54   2.0000     -10.265850      -279.3480
  55   2.0000     -10.264113      -279.3007
  56   2.0000     -10.263674      -279.2888
  57   2.0000     -10.261633      -279.2332
  58   2.0000     -10.261553      -279.2310
  59   2.0000     -10.261461      -279.2285
  60   2.0000     -10.260864      -279.2123
  61   2.0000     -10.260217      -279.1947
  62   2.0000     -10.260052      -279.1902
  63   2.0000     -10.259845      -279.1846
  64   2.0000     -10.259369      -279.1716
  65   2.0000     -10.257949      -279.1330
  66   2.0000     -10.256875      -279.1037
  67   2.0000     -10.256108      -279.0829
  68   2.0000     -10.245522      -278.7948
  69   2.0000     -10.239966      -278.6436
  70   2.0000      -8.129168      -221.2059
  71   2.0000      -8.052116      -219.1092
  72   2.0000      -8.050334      -219.0607
  73   2.0000      -8.048187      -219.0023
  74   2.0000      -8.048132      -219.0008
  75   2.0000      -8.034880      -218.6402
  76   2.0000      -8.030619      -218.5242
  77   2.0000      -6.100310      -165.9979
  78   2.0000      -6.092523      -165.7860
  79   2.0000      -6.091836      -165.7673
  80   2.0000      -6.021660      -163.8577
  81   2.0000      -6.020075      -163.8146
  82   2.0000      -6.017771      -163.7519
  83   2.0000      -6.017550      -163.7459
  84   2.0000      -6.017440      -163.7429
  85   2.0000      -6.016163      -163.7081
  86   2.0000      -6.013771      -163.6430
  87   2.0000      -6.013637      -163.6394
  88   2.0000      -6.013507      -163.6358
  89   2.0000      -6.011009      -163.5679
  90   2.0000      -6.010267      -163.5477
  91   2.0000      -6.009160      -163.5176
  92   2.0000      -6.004603      -163.3936
  93   2.0000      -6.000568      -163.2838
  94   2.0000      -6.000443      -163.2804
  95   2.0000      -5.996513      -163.1734
  96   2.0000      -5.995902      -163.1568
  97   2.0000      -5.991166      -163.0279
  98   2.0000      -1.135076       -30.8870
  99   2.0000      -1.106783       -30.1171
 100   2.0000      -1.063200       -28.9311
 101   2.0000      -1.033357       -28.1191
 102   2.0000      -1.003967       -27.3193
 103   2.0000      -1.001756       -27.2592
 104   2.0000      -0.992972       -27.0201
 105   2.0000      -0.989517       -26.9261
 106   2.0000      -0.986253       -26.8373
 107   2.0000      -0.980556       -26.6823
 108   2.0000      -0.978241       -26.6193
 109   2.0000      -0.969426       -26.3794
 110   2.0000      -0.965862       -26.2824
 111   2.0000      -0.963183       -26.2095
 112   2.0000      -0.935784       -25.4640
 113   2.0000      -0.914767       -24.8921
 114   2.0000      -0.907050       -24.6821
 115   2.0000      -0.900011       -24.4906
 116   2.0000      -0.895748       -24.3745
 117   2.0000      -0.886740       -24.1294
 118   2.0000      -0.883638       -24.0450
 119   2.0000      -0.877844       -23.8873
 120   2.0000      -0.865650       -23.5555
 121   2.0000      -0.858871       -23.3711
 122   2.0000      -0.855429       -23.2774
 123   2.0000      -0.845928       -23.0189
 124   2.0000      -0.839642       -22.8478
 125   2.0000      -0.832622       -22.6568
 126   2.0000      -0.830053       -22.5869
 127   2.0000      -0.826892       -22.5009
 128   2.0000      -0.825023       -22.4500
 129   2.0000      -0.823217       -22.4009
 130   2.0000      -0.822961       -22.3939
 131   2.0000      -0.816232       -22.2108
 132   2.0000      -0.814574       -22.1657
 133   2.0000      -0.803905       -21.8754
 134   2.0000      -0.794379       -21.6161
 135   2.0000      -0.787046       -21.4166
 136   2.0000      -0.773047       -21.0357
 137   2.0000      -0.757077       -20.6011
 138   2.0000      -0.755308       -20.5530
 139   2.0000      -0.741469       -20.1764
 140   2.0000      -0.726582       -19.7713
 141   2.0000      -0.725030       -19.7291
 142   2.0000      -0.713501       -19.4154
 143   2.0000      -0.704031       -19.1577
 144   2.0000      -0.697085       -18.9686
 145   2.0000      -0.694635       -18.9020
 146   2.0000      -0.690927       -18.8011
 147   2.0000      -0.687534       -18.7087
 148   2.0000      -0.683804       -18.6072
 149   2.0000      -0.678913       -18.4742
 150   2.0000      -0.678388       -18.4599
 151   2.0000      -0.664266       -18.0756
 152   2.0000      -0.661398       -17.9976
 153   2.0000      -0.657754       -17.8984
 154   2.0000      -0.647043       -17.6069
 155   2.0000      -0.643893       -17.5212
 156   2.0000      -0.638473       -17.3737
 157   2.0000      -0.630079       -17.1453
 158   2.0000      -0.629488       -17.1292
 159   2.0000      -0.628926       -17.1139
 160   2.0000      -0.623731       -16.9726
 161   2.0000      -0.614970       -16.7342
 162   2.0000      -0.612681       -16.6719
 163   2.0000      -0.609787       -16.5932
 164   2.0000      -0.605772       -16.4839
 165   2.0000      -0.600246       -16.3335
 166   2.0000      -0.593311       -16.1448
 167   2.0000      -0.586340       -15.9551
 168   2.0000      -0.583849       -15.8873
 169   2.0000      -0.576015       -15.6742
 170   2.0000      -0.569391       -15.4939
 171   2.0000      -0.567231       -15.4351
 172   2.0000      -0.563275       -15.3275
 173   2.0000      -0.554240       -15.0816
 174   2.0000      -0.550353       -14.9759
 175   2.0000      -0.548658       -14.9298
 176   2.0000      -0.543582       -14.7916
 177   2.0000      -0.541375       -14.7316
 178   2.0000      -0.537324       -14.6213
 179   2.0000      -0.532805       -14.4984
 180   2.0000      -0.530884       -14.4461
 181   2.0000      -0.525629       -14.3031
 182   2.0000      -0.524886       -14.2829
 183   2.0000      -0.522837       -14.2271
 184   2.0000      -0.519238       -14.1292
 185   2.0000      -0.516259       -14.0481
 186   2.0000      -0.516176       -14.0459
 187   2.0000      -0.512998       -13.9594
 188   2.0000      -0.510000       -13.8778
 189   2.0000      -0.509501       -13.8642
 190   2.0000      -0.508261       -13.8305
 191   2.0000      -0.505680       -13.7603
 192   2.0000      -0.504870       -13.7382
 193   2.0000      -0.498333       -13.5603
 194   2.0000      -0.495020       -13.4702
 195   2.0000      -0.493666       -13.4333
 196   2.0000      -0.489514       -13.3204
 197   2.0000      -0.488770       -13.3001
 198   2.0000      -0.485683       -13.2161
 199   2.0000      -0.483101       -13.1458
 200   2.0000      -0.479346       -13.0437
 201   2.0000      -0.478097       -13.0097
 202   2.0000      -0.475029       -12.9262
 203   2.0000      -0.472748       -12.8641
 204   2.0000      -0.468604       -12.7514
 205   2.0000      -0.466205       -12.6861
 206   2.0000      -0.463870       -12.6225
 207   2.0000      -0.461121       -12.5477
 208   2.0000      -0.460316       -12.5258
 209   2.0000      -0.456370       -12.4185
 210   2.0000      -0.454512       -12.3679
 211   2.0000      -0.451551       -12.2873
 212   2.0000      -0.448218       -12.1966
 213   2.0000      -0.445395       -12.1198
 214   2.0000      -0.444987       -12.1087
 215   2.0000      -0.442841       -12.0503
 216   2.0000      -0.442158       -12.0317
 217   2.0000      -0.438973       -11.9451
 218   2.0000      -0.436821       -11.8865
 219   2.0000      -0.435381       -11.8473
 220   2.0000      -0.433296       -11.7906
 221   2.0000      -0.431724       -11.7478
 222   2.0000      -0.431054       -11.7296
 223   2.0000      -0.429211       -11.6794
 224   2.0000      -0.428026       -11.6472
 225   2.0000      -0.425398       -11.5757
 226   2.0000      -0.422529       -11.4976
 227   2.0000      -0.420038       -11.4298
 228   2.0000      -0.417798       -11.3689
 229   2.0000      -0.415038       -11.2937
 230   2.0000      -0.414212       -11.2713
 231   2.0000      -0.410770       -11.1776
 232   2.0000      -0.409830       -11.1520
 233   2.0000      -0.408747       -11.1226
 234   2.0000      -0.406959       -11.0739
 235   2.0000      -0.406233       -11.0542
 236   2.0000      -0.403788       -10.9876
 237   2.0000      -0.399780       -10.8786
 238   2.0000      -0.393972       -10.7205
 239   2.0000      -0.392731       -10.6868
 240   2.0000      -0.389057       -10.5868
 241   2.0000      -0.388448       -10.5702
 242   2.0000      -0.385806       -10.4983
 243   2.0000      -0.380478       -10.3533
 244   2.0000      -0.374773       -10.1981
 245   2.0000      -0.368063       -10.0155
 246   2.0000      -0.366782        -9.9807
 247   2.0000      -0.351702        -9.5703
 248   2.0000      -0.349723        -9.5165
 249   2.0000      -0.346967        -9.4415
 250   2.0000      -0.346052        -9.4166
 251   2.0000      -0.344013        -9.3611
 252   2.0000      -0.339373        -9.2348
 253   2.0000      -0.334006        -9.0888
 254   2.0000      -0.331985        -9.0338
 255   2.0000      -0.327377        -8.9084
 256   2.0000      -0.318987        -8.6801
 257   2.0000      -0.312057        -8.4915
 258   2.0000      -0.306616        -8.3435
 259   2.0000      -0.304777        -8.2934
 260   2.0000      -0.303595        -8.2612
 261   2.0000      -0.291540        -7.9332
 262   2.0000      -0.270583        -7.3629
 263   2.0000      -0.242707        -6.6044
 264   2.0000      -0.218415        -5.9434
 265   2.0000      -0.199201        -5.4205
 266   0.0000      -0.118043        -3.2121
 267   0.0000      -0.073471        -1.9992
 268   0.0000      -0.061741        -1.6801
 269   0.0000      -0.038421        -1.0455
 270   0.0000      -0.028304        -0.7702

MULLIKEN ATOMIC CHARGES
-----------------------
   0 C :   -0.014235
   1 C :   -0.072850
   2 C :    0.061959
   3 C :    0.028783
   4 C :   -0.055910
   5 S :    0.104813
   6 C :   -0.042235
   7 C :    0.016184
   8 C :    0.043332
   9 C :   -0.051861
  10 S :    0.107230
  11 C :   -0.051781
  12 C :    0.105285
  13 C :   -0.054540
  14 C :   -0.074991
  15 N :    0.045506
  16 C :   -0.138534
  17 C :   -0.146379
  18 N :    0.049134
  19 C :   -0.210844
  20 N :    0.228600
  21 C :   -0.208736
  22 N :    0.232027
  23 C :    0.095819
  24 C :   -0.008322
  25 C :    0.033994
  26 N :   -0.302145
  27 S :    0.528426
  28 N :   -0.287678
  29 C :    0.008053
  30 C :   -0.056057
  31 C :   -0.002386
  32 C :    0.118488
  33 C :   -0.071221
  34 C :    0.033370
  35 C :    0.100420
  36 C :    0.025510
  37 C :   -0.133949
  38 C :    0.054877
  39 C :    0.028909
  40 C :    0.087318
  41 C :    0.030875
  42 C :   -0.113768
  43 C :    0.134076
  44 C :   -0.017126
  45 C :   -0.042985
  46 C :   -0.033085
  47 C :    0.084891
  48 C :   -0.199469
  49 S :    0.144006
  50 C :   -0.150394
  51 C :    0.064841
  52 C :   -0.007900
  53 S :    0.073108
  54 C :    0.025772
  55 N :   -0.047273
  56 C :    0.027144
  57 C :    0.006311
  58 C :   -0.004571
  59 C :   -0.021954
  60 C :    0.033786
  61 C :    0.023274
  62 C :   -0.035266
  63 S :    0.059571
  64 C :   -0.064543
  65 C :    0.030702
  66 C :    0.051156
  67 C :   -0.067565
  68 S :    0.081528
  69 C :   -0.026986
  70 H :    0.027755
  71 H :    0.031432
  72 H :   -0.004642
  73 H :   -0.005682
  74 H :   -0.015224
  75 H :   -0.012890
  76 H :    0.005128
  77 H :   -0.030222
  78 H :   -0.035684
  79 H :   -0.028248
  80 H :   -0.006363
  81 H :    0.002406
  82 H :    0.018702
  83 H :    0.022143
  84 H :    0.001913
  85 H :   -0.007566
  86 H :    0.004962
  87 H :   -0.000194
  88 H :    0.010464
  89 H :    0.021551
  90 H :   -0.042071
  91 H :   -0.032858
  92 H :   -0.036229
  93 H :   -0.032076
  94 H :   -0.027468
  95 H :    0.039226
  96 H :   -0.024449
  97 H :   -0.001697
  98 H :   -0.017722
  99 H :   -0.014175
 100 H :   -0.017938
 101 H :   -0.012571
 102 H :   -0.012337
 103 H :    0.019019
 104 H :    0.022066
Sum of atomic charges:   -0.0000000

LOEWDIN ATOMIC CHARGES
----------------------
   0 C :   -0.054273
   1 C :   -0.142016
   2 C :   -0.018908
   3 C :   -0.027200
   4 C :   -0.159280
   5 S :    0.372893
   6 C :   -0.189049
   7 C :   -0.019803
   8 C :   -0.041734
   9 C :   -0.114131
  10 S :    0.394477
  11 C :   -0.059076
  12 C :   -0.020398
  13 C :   -0.009325
  14 C :   -0.007431
  15 N :    0.001916
  16 C :   -0.029938
  17 C :   -0.043160
  18 N :    0.002728
  19 C :   -0.038133
  20 N :   -0.017242
  21 C :   -0.034157
  22 N :   -0.011306
  23 C :   -0.031950
  24 C :   -0.035727
  25 C :   -0.038577
  26 N :   -0.267913
  27 S :    0.653405
  28 N :   -0.280804
  29 C :   -0.022458
  30 C :   -0.006812
  31 C :   -0.003554
  32 C :   -0.007396
  33 C :   -0.026126
  34 C :    0.001424
  35 C :   -0.020603
  36 C :    0.007012
  37 C :   -0.034257
  38 C :   -0.016177
  39 C :   -0.056499
  40 C :   -0.008306
  41 C :   -0.059492
  42 C :   -0.023399
  43 C :   -0.021704
  44 C :   -0.016957
  45 C :   -0.015225
  46 C :   -0.027273
  47 C :   -0.042994
  48 C :   -0.195156
  49 S :    0.447893
  50 C :   -0.166551
  51 C :   -0.070149
  52 C :   -0.201969
  53 S :    0.376209
  54 C :   -0.100447
  55 N :   -0.079263
  56 C :   -0.055989
  57 C :   -0.024275
  58 C :   -0.063411
  59 C :   -0.143525
  60 C :   -0.031603
  61 C :   -0.041061
  62 C :   -0.181262
  63 S :    0.383891
  64 C :   -0.176089
  65 C :   -0.026479
  66 C :   -0.031797
  67 C :   -0.139559
  68 S :    0.352216
  69 C :   -0.076927
  70 H :    0.032352
  71 H :    0.030697
  72 H :    0.036433
  73 H :    0.034633
  74 H :    0.031465
  75 H :    0.022270
  76 H :    0.033989
  77 H :    0.021675
  78 H :    0.026889
  79 H :    0.024585
  80 H :    0.018384
  81 H :    0.019285
  82 H :    0.024598
  83 H :    0.026361
  84 H :    0.021091
  85 H :    0.018844
  86 H :    0.027178
  87 H :    0.018273
  88 H :    0.026676
  89 H :    0.024962
  90 H :    0.022691
  91 H :    0.024203
  92 H :    0.027021
  93 H :    0.013604
  94 H :    0.026107
  95 H :    0.018913
  96 H :    0.010083
  97 H :    0.032484
  98 H :    0.034143
  99 H :    0.032677
 100 H :    0.029811
 101 H :    0.032170
 102 H :    0.033003
 103 H :    0.028282
 104 H :    0.026380

  Mayer bond orders larger than 0.100000
B(  0-C ,  1-C ) :   1.8569 B(  0-C , 70-H ) :   0.9515 B(  0-C , 71-H ) :   0.9416
B(  1-C ,  2-C ) :   1.0834 B(  1-C ,  5-S ) :   1.0068 B(  2-C ,  3-C ) :   1.6522
B(  2-C , 72-H ) :   0.9925 B(  3-C ,  4-C ) :   1.1631 B(  3-C , 73-H ) :   0.9920
B(  4-C ,  5-S ) :   1.0692 B(  4-C ,  6-C ) :   1.4998 B(  6-C ,  7-C ) :   1.1948
B(  6-C , 10-S ) :   1.0479 B(  7-C ,  8-C ) :   1.5590 B(  7-C , 74-H ) :   0.9934
B(  8-C ,  9-C ) :   1.1943 B(  8-C , 75-H ) :   0.9654 B(  9-C , 10-S ) :   1.0809
B(  9-C , 11-C ) :   1.4355 B( 11-C , 12-C ) :   1.3414 B( 11-C , 76-H ) :   0.9122
B( 12-C , 13-C ) :   1.2009 B( 12-C , 23-C ) :   0.1160 B( 12-C , 25-C ) :   1.1394
B( 13-C , 14-C ) :   1.0940 B( 13-C , 18-N ) :   1.4761 B( 14-C , 15-N ) :   1.4204
B( 14-C , 23-C ) :   1.3019 B( 15-N , 16-C ) :   1.7430 B( 16-C , 17-C ) :   1.2123
B( 16-C , 21-C ) :   1.1508 B( 17-C , 18-N ) :   1.7111 B( 17-C , 19-C ) :   1.1563
B( 19-C , 20-N ) :   3.0440 B( 21-C , 22-N ) :   3.0520 B( 23-C , 24-C ) :   1.2388
B( 23-C , 29-C ) :   1.0041 B( 24-C , 25-C ) :   1.1026 B( 24-C , 28-N ) :   1.5049
B( 25-C , 26-N ) :   1.5056 B( 26-N , 27-S ) :   1.2560 B( 26-N , 28-N ) :   0.1467
B( 26-N , 75-H ) :   0.1046 B( 27-S , 28-N ) :   1.2702 B( 29-C , 30-C ) :   1.3054
B( 29-C , 34-C ) :   1.3636 B( 30-C , 31-C ) :   1.4147 B( 30-C , 77-H ) :   0.9849
B( 31-C , 32-C ) :   1.3740 B( 31-C , 37-C ) :   0.9127 B( 32-C , 33-C ) :   1.3298
B( 32-C , 35-C ) :   1.0008 B( 33-C , 34-C ) :   1.3940 B( 33-C , 78-H ) :   0.9911
B( 34-C , 79-H ) :   0.9797 B( 35-C , 36-C ) :   1.3709 B( 35-C , 45-C ) :   1.3239
B( 36-C , 37-C ) :   0.9245 B( 36-C , 42-C ) :   1.3819 B( 37-C , 38-C ) :   1.0406
B( 37-C , 40-C ) :   1.0141 B( 38-C , 39-C ) :   1.1059 B( 38-C , 80-H ) :   0.9386
B( 38-C , 81-H ) :   0.9349 B( 39-C , 82-H ) :   0.9639 B( 39-C , 83-H ) :   0.9628
B( 39-C , 84-H ) :   0.9642 B( 40-C , 41-C ) :   1.1143 B( 40-C , 85-H ) :   0.9374
B( 40-C , 86-H ) :   0.9374 B( 41-C , 87-H ) :   0.9628 B( 41-C , 88-H ) :   0.9593
B( 41-C , 89-H ) :   0.9608 B( 42-C , 43-C ) :   1.2774 B( 42-C , 90-H ) :   1.0117
B( 43-C , 44-C ) :   1.3369 B( 43-C , 46-C ) :   1.0975 B( 44-C , 45-C ) :   1.4061
B( 44-C , 91-H ) :   0.9840 B( 45-C , 92-H ) :   0.9895 B( 46-C , 47-C ) :   1.6508
B( 46-C , 93-H ) :   0.9774 B( 47-C , 48-C ) :   1.1499 B( 47-C , 94-H ) :   0.9544
B( 48-C , 49-S ) :   1.1097 B( 48-C , 50-C ) :   0.1050 B( 48-C , 52-C ) :   1.4963
B( 49-S , 50-C ) :   1.1243 B( 50-C , 51-C ) :   1.3790 B( 50-C , 56-C ) :   1.2184
B( 51-C , 52-C ) :   1.2686 B( 51-C , 55-N ) :   1.2962 B( 52-C , 53-S ) :   1.0524
B( 53-S , 54-C ) :   1.0806 B( 53-S , 55-N ) :   0.1054 B( 54-C , 55-N ) :   1.7791
B( 54-C , 95-H ) :   0.9635 B( 56-C , 57-C ) :   1.5723 B( 56-C , 96-H ) :   0.9295
B( 57-C , 58-C ) :   1.2319 B( 57-C , 97-H ) :   0.9525 B( 58-C , 59-C ) :   1.5407
B( 58-C , 98-H ) :   0.9635 B( 59-C , 60-C ) :   1.1540 B( 59-C , 63-S ) :   1.0420
B( 60-C , 61-C ) :   1.5915 B( 60-C , 99-H ) :   0.9985 B( 61-C , 62-C ) :   1.1784
B( 61-C ,100-H ) :   0.9924 B( 62-C , 63-S ) :   1.0331 B( 62-C , 64-C ) :   1.5439
B( 64-C , 65-C ) :   1.1558 B( 64-C , 68-S ) :   1.0466 B( 65-C , 66-C ) :   1.6571
B( 65-C ,101-H ) :   0.9920 B( 66-C , 67-C ) :   1.0819 B( 66-C ,102-H ) :   0.9926
B( 67-C , 68-S ) :   1.0079 B( 67-C , 69-C ) :   1.8615 B( 69-C ,103-H ) :   0.9505
B( 69-C ,104-H ) :   0.9411

-----------------------------------------------------------------------------
         ABSORPTION SPECTRUM VIA TRANSITION ELECTRIC DIPOLE MOMENTS
-----------------------------------------------------------------------------
State   Energy  Wavelength   fosc         T2         TX        TY        TZ
        (cm-1)    (nm)                  (au**2)     (au)      (au)      (au)
-----------------------------------------------------------------------------
   0    7596.6   1316.4   0.790083893  34.23947   1.35842  -5.65271  -0.66407
   1   11422.3    875.5   0.062277000   1.79494  -0.53650   1.04816  -0.63912
   2   14500.9    689.6   1.437496144  32.63527   0.21385   5.60322  -1.09248
   3   17484.8    571.9   0.020522073   0.38640   0.51602   0.15579   0.30960
   4   19677.7    508.2   0.641359739  10.73007  -0.42805   3.12152   0.89608
   5   21734.9    460.1   0.086751557   1.31400  -0.88424   0.72945  -0.00448
   6   22075.9    453.0   0.045592360   0.67991  -0.39431   0.70999   0.14264
   7   23272.1    429.7   0.471823881   6.67451  -2.28609   1.11043  -0.46395
   8   23804.5    420.1   0.012917928   0.17865   0.31229   0.28388  -0.02322
   9   23995.0    416.8   0.149848818   2.05592  -0.99808   1.02440   0.10177
  10   24577.0    406.9   0.031340679   0.41981  -0.48054   0.43050   0.05967
  11   24770.6    403.7   0.431543187   5.73540   2.31651  -0.48547   0.36536
  12   25752.4    388.3   0.069972644   0.89451   0.27270   0.86376   0.27215
  13   26353.5    379.5   0.366083150   4.57317  -1.97942   0.74056  -0.32655
  14   27171.8    368.0   0.001262900   0.01530   0.08448  -0.00593  -0.09016
  15   27721.9    360.7   0.035722116   0.42422   0.49140   0.42078   0.07540
  16   28659.0    348.9   0.007426648   0.08531   0.05310  -0.28303  -0.04886
  17   29093.0    343.7   0.046242534   0.52327   0.53052  -0.48515   0.08029
  18   30347.6    329.5   0.035275170   0.38267  -0.41770   0.40617  -0.20789
  19   30512.7    327.7   0.067390532   0.72710   0.51319  -0.65638   0.18137
  20   30561.5    327.2   0.000682142   0.00735  -0.06216  -0.04447   0.03882
  21   31002.4    322.6   0.005097757   0.05413   0.10676   0.19854  -0.05760
  22   31289.3    319.6   0.059301685   0.62395   0.65608   0.28931   0.33136
  23   31704.9    315.4   0.204031845   2.11859  -1.29020  -0.46317  -0.48933
  24   31913.2    313.4   0.362383746   3.73830   1.77298   0.13918   0.75859
  25   32436.9    308.3   0.128772998   1.30696   0.65230   0.88631   0.30972
  26   32909.3    303.9   0.007049643   0.07052  -0.23317   0.10658  -0.06923
  27   33023.0    302.8   0.008532761   0.08506  -0.18741   0.22001  -0.03926
  28   33398.1    299.4   0.014451942   0.14246   0.17999   0.32690   0.05651
  29   33688.4    296.8   0.026339956   0.25740   0.40170   0.29962   0.07915
  30   33941.6    294.6   0.028203552   0.27356  -0.17644  -0.46038  -0.17459
  31   34081.3    293.4   0.016692404   0.16124  -0.30655  -0.01260  -0.25906
  32   34302.3    291.5   0.006173153   0.05925  -0.22522  -0.08667  -0.03180
  33   34381.5    290.9   0.043734501   0.41877   0.60129  -0.01820   0.23851
  34   34659.0    288.5   0.026992199   0.25639  -0.39444   0.11060  -0.29761
  35   34762.6    287.7   0.000338136   0.00320  -0.02177   0.05158  -0.00824
  36   35119.9    284.7   0.005820026   0.05456   0.22534   0.04685  -0.03977
  37   35668.5    280.4   0.059202900   0.54643   0.49539   0.53953  -0.09962
  38   35763.7    279.6   0.120443933   1.10871  -1.02613  -0.00517  -0.23610
  39   36330.3    275.3   0.016113033   0.14601  -0.05678  -0.28504  -0.24807
  40   36807.0    271.7   0.042088867   0.37645  -0.59970   0.00851  -0.12937
  41   37015.1    270.2   0.025155927   0.22374   0.46912   0.03640   0.04835
  42   37028.8    270.1   0.018948352   0.16846  -0.39446   0.02526  -0.11059
  43   37509.9    266.6   0.179249229   1.57321  -0.36347   1.20045   0.00308
  44   37666.7    265.5   0.006004405   0.05248   0.19503   0.04274  -0.11231
  45   38204.7    261.7   0.010496813   0.09045   0.16390   0.22869   0.10626
  46   38513.6    259.6   0.009763589   0.08346  -0.09674  -0.18914   0.19577
  47   38730.5    258.2   0.000484060   0.00411   0.04945   0.03958   0.01013
  48   38991.0    256.5   0.043587449   0.36802   0.59041  -0.12276   0.06607
  49   39122.9    255.6   0.020043777   0.16866  -0.38943  -0.05904  -0.11628
  50   39330.4    254.3   0.170466730   1.42688   1.15817   0.22213   0.19023
  51   39396.6    253.8   0.098828188   0.82584  -0.78014  -0.45255  -0.11146
  52   39596.4    252.5   0.169002053   1.40512   1.05469  -0.15741   0.51766
  53   39919.1    250.5   0.025249437   0.20823  -0.10573  -0.39246  -0.20744
  54   40101.4    249.4   0.013285272   0.10907   0.00214   0.31981   0.08236

FINAL SINGLE POINT ENERGY     -5321.376325415094

DIPOLE MOMENT
-------------
                                X             Y             Z
Electronic contribution:     34.16376     -27.17908       2.22279
Nuclear contribution   :    -37.50683      24.79671      -4.36779
                        -----------------------------------------
Total Dipole Moment    :     -3.34307      -2.38237      -2.14499
                        -----------------------------------------
Magnitude (a.u.)       :      4.63172
Magnitude (Debye)      :     11.77290

Rotational constants in cm-1:     0.002112     0.000163     0.000156
Rotational constants in MHz :    63.316058     4.887103     4.673416

                             ****ORCA TERMINATED NORMALLY****
TOTAL RUN TIME: 0 days 0 hours 10 minutes 17 seconds 145 msec
