                         Program Version 4.2.0 -  RELEASE  -
|  1> # ORCA input file
|  2> # SCF done       -163.680062290727          0.000657449364
|  3> ! CAM-B3LYP def2-SVP def2/J RIJCOSX Grid4 TightSCF
|  4> %maxcore 5000
|  5> %tddft
|  6>     Mode sTDDFT
|  7>     Ethresh 5.0
|  8>     maxcore 5000
|  9> end
| 10>
| 11> %pal
| 12>   nprocs 6
| 13>   end
| 14> * xyz 0 1
| 15>    C       -5.22661        -7.96667         6.70592
| 16>    S       -3.66589        -8.40335         6.15593
| 17>    C       -4.08634        -8.05449         4.50156
| 18>    C       -5.39453        -7.61383         4.42865
| 19>    C       -6.05420        -7.56224         5.69356
| 20>    C       -7.42266        -7.09653         5.83213
| 21>    C       -8.19065        -7.26610         6.90075
| 22>    O       -6.01537        -7.26673         3.25285
| 23>    C       -6.82676        -8.29144         2.70722
| 24>    C       -3.10824        -8.23875         3.48070
| 25>    C       -3.25702        -7.85597         2.19245
| 26>    C       -2.29411        -8.04299         1.15797
| 27>    C       -2.52987        -7.60659        -0.12397
| 28>    C       -1.64983        -7.74236        -1.19687
| 29>    C       -0.34474        -8.38494        -1.02556
| 30>    C        0.10334        -8.89071         0.14334
| 31>    S       -0.79489        -8.85591         1.60499
| 32>    C        0.26762        -8.33487        -2.30750
| 33>    C       -0.58041        -7.70658        -3.22106
| 34>    C       -0.00577        -7.66241        -4.51209
| 35>    C        1.22615        -8.23501        -4.53941
| 36>    S        1.74660        -8.85474        -3.01120
| 37>    C       -1.79306        -7.32347        -2.53597
| 38>    C       -2.92873        -6.66645        -3.04911
| 39>    C       -3.08456        -6.14755        -4.29861
| 40>    C       -4.26408        -5.51694        -4.73777
| 41>    S       -5.70770        -5.38443        -3.74560
| 42>    C       -6.63716        -4.54471        -4.96432
| 43>    C       -5.84486        -4.36784        -6.11289
| 44>    C       -4.53227        -4.91776        -5.95894
| 45>    N       -3.84244        -4.71452        -7.11339
| 46>    C       -4.67408        -4.05942        -7.98855
| 47>    N       -4.21503        -3.72028        -9.26335
| 48>    O       -3.06640        -4.05170        -9.53836
| 49>    O       -4.96838        -3.12400       -10.01418
| 50>    C       -5.91028        -3.83077        -7.41453
| 51>    C       -7.97913        -4.19044        -4.72362
| 52>    C       -8.72481        -3.45316        -5.62148
| 53>    C      -10.06626        -3.12858        -5.47581
| 54>    C      -10.78544        -3.42345        -4.22735
| 55>    C      -10.25442        -4.11666        -3.19902
| 56>    S       -8.66570        -4.77491        -3.20414
| 57>    C      -12.06369        -2.81865        -4.38047
| 58>    C      -12.14848        -2.20598        -5.63204
| 59>    C      -13.40743        -1.60111        -5.84516
| 60>    C      -14.22657        -1.76288        -4.77420
| 61>    S      -13.51272        -2.65481        -3.47027
| 62>    C      -10.91809        -2.41375        -6.34496
| 63>    C      -10.66611        -1.97112        -7.66710
| 64>    C       -9.72815        -2.51263        -8.49048
| 65>    C       -9.31873        -2.05741        -9.76678
| 66>    S       -8.31487        -3.12242       -10.71198
| 67>    C       -8.23069        -1.99740       -12.01866
| 68>    C       -8.95969        -0.85134       -11.72880
| 69>    C       -9.57965        -0.87584       -10.45441
| 70>    C      -10.39648         0.19976        -9.90255
| 71>    C      -11.37957         0.79433       -10.56525
| 72>    O       -8.99615         0.17967       -12.62484
| 73>    C       -8.68444         1.47423       -12.14667
| 74>    C       -7.44492        -2.33153       -13.17327
| 75>    C       -7.45892        -1.68008       -14.33483
| 76>    H       -5.44005        -8.00634         7.75490
| 77>    H       -7.80395        -6.57512         4.96313
| 78>    H       -7.84767        -7.79116         7.77613
| 79>    H       -9.19725        -6.88690         6.93390
| 80>    H       -7.59279        -8.61704         3.41819
| 81>    H       -6.22030        -9.15604         2.41531
| 82>    H       -7.30240        -7.86453         1.82607
| 83>    H       -2.18826        -8.71252         3.79863
| 84>    H       -4.16628        -7.35340         1.89617
| 85>    H       -3.47950        -7.11780        -0.29603
| 86>    H        1.07017        -9.35820         0.24313
| 87>    H       -0.46223        -7.24384        -5.38999
| 88>    H        1.88194        -8.33842        -5.38183
| 89>    H       -3.76479        -6.55599        -2.36919
| 90>    H       -2.27917        -6.19214        -5.01574
| 91>    H       -2.89558        -4.97094        -7.34079
| 92>    H       -6.71755        -3.34301        -7.92085
| 93>    H       -8.19803        -3.07831        -6.48140
| 94>    H      -10.80035        -4.32455        -2.29233
| 95>    H      -13.69409        -1.07641        -6.73861
| 96>    H      -15.23298        -1.41142        -4.65593
| 97>    H      -11.30816        -1.18417        -8.03688
| 98>    H       -9.25373        -3.43463        -8.18233
| 99>    H      -10.15956         0.49311        -8.88633
|100>    H      -11.64583         0.49643       -11.56606
|101>    H      -11.95863         1.59029       -10.12774
|102>    H       -8.21058         1.99848       -12.97742
|103>    H       -7.99118         1.43286       -11.30384
|104>    H       -9.58466         2.01538       -11.84329
|105>    H       -6.80154        -3.19135       -13.03817
|106>    H       -8.10111        -0.83447       -14.50123
|107>    H       -6.82142        -1.98381       -15.14694
|108> *
|109>
|110>                          ****END OF INPUT****

CARTESIAN COORDINATES (ANGSTROEM)
---------------------------------
  C     -5.226610   -7.966670    6.705920
  S     -3.665890   -8.403350    6.155930
  C     -4.086340   -8.054490    4.501560
  C     -5.394530   -7.613830    4.428650
  C     -6.054200   -7.562240    5.693560
  C     -7.422660   -7.096530    5.832130
  C     -8.190650   -7.266100    6.900750
  O     -6.015370   -7.266730    3.252850
  C     -6.826760   -8.291440    2.707220
  C     -3.108240   -8.238750    3.480700
  C     -3.257020   -7.855970    2.192450
  C     -2.294110   -8.042990    1.157970
  C     -2.529870   -7.606590   -0.123970
  C     -1.649830   -7.742360   -1.196870
  C     -0.344740   -8.384940   -1.025560
  C      0.103340   -8.890710    0.143340
  S     -0.794890   -8.855910    1.604990
  C      0.267620   -8.334870   -2.307500
  C     -0.580410   -7.706580   -3.221060
  C     -0.005770   -7.662410   -4.512090
  C      1.226150   -8.235010   -4.539410
  S      1.746600   -8.854740   -3.011200
  C     -1.793060   -7.323470   -2.535970
  C     -2.928730   -6.666450   -3.049110
  C     -3.084560   -6.147550   -4.298610
  C     -4.264080   -5.516940   -4.737770
  S     -5.707700   -5.384430   -3.745600
  C     -6.637160   -4.544710   -4.964320
  C     -5.844860   -4.367840   -6.112890
  C     -4.532270   -4.917760   -5.958940
  N     -3.842440   -4.714520   -7.113390
  C     -4.674080   -4.059420   -7.988550
  N     -4.215030   -3.720280   -9.263350
  O     -3.066400   -4.051700   -9.538360
  O     -4.968380   -3.124000  -10.014180
  C     -5.910280   -3.830770   -7.414530
  C     -7.979130   -4.190440   -4.723620
  C     -8.724810   -3.453160   -5.621480
  C    -10.066260   -3.128580   -5.475810
  C    -10.785440   -3.423450   -4.227350
  C    -10.254420   -4.116660   -3.199020
  S     -8.665700   -4.774910   -3.204140
  C    -12.063690   -2.818650   -4.380470
  C    -12.148480   -2.205980   -5.632040
  C    -13.407430   -1.601110   -5.845160
  C    -14.226570   -1.762880   -4.774200
  S    -13.512720   -2.654810   -3.470270
  C    -10.918090   -2.413750   -6.344960
  C    -10.666110   -1.971120   -7.667100
  C     -9.728150   -2.512630   -8.490480
  C     -9.318730   -2.057410   -9.766780
  S     -8.314870   -3.122420  -10.711980
  C     -8.230690   -1.997400  -12.018660
  C     -8.959690   -0.851340  -11.728800
  C     -9.579650   -0.875840  -10.454410
  C    -10.396480    0.199760   -9.902550
  C    -11.379570    0.794330  -10.565250
  O     -8.996150    0.179670  -12.624840
  C     -8.684440    1.474230  -12.146670
  C     -7.444920   -2.331530  -13.173270
  C     -7.458920   -1.680080  -14.334830
  H     -5.440050   -8.006340    7.754900
  H     -7.803950   -6.575120    4.963130
  H     -7.847670   -7.791160    7.776130
  H     -9.197250   -6.886900    6.933900
  H     -7.592790   -8.617040    3.418190
  H     -6.220300   -9.156040    2.415310
  H     -7.302400   -7.864530    1.826070
  H     -2.188260   -8.712520    3.798630
  H     -4.166280   -7.353400    1.896170
  H     -3.479500   -7.117800   -0.296030
  H      1.070170   -9.358200    0.243130
  H     -0.462230   -7.243840   -5.389990
  H      1.881940   -8.338420   -5.381830
  H     -3.764790   -6.555990   -2.369190
  H     -2.279170   -6.192140   -5.015740
  H     -2.895580   -4.970940   -7.340790
  H     -6.717550   -3.343010   -7.920850
  H     -8.198030   -3.078310   -6.481400
  H    -10.800350   -4.324550   -2.292330
  H    -13.694090   -1.076410   -6.738610
  H    -15.232980   -1.411420   -4.655930
  H    -11.308160   -1.184170   -8.036880
  H     -9.253730   -3.434630   -8.182330
  H    -10.159560    0.493110   -8.886330
  H    -11.645830    0.496430  -11.566060
  H    -11.958630    1.590290  -10.127740
  H     -8.210580    1.998480  -12.977420
  H     -7.991180    1.432860  -11.303840
  H     -9.584660    2.015380  -11.843290
  H     -6.801540   -3.191350  -13.038170
  H     -8.101110   -0.834470  -14.501230
  H     -6.821420   -1.983810  -15.146940

 Total Charge           Charge          ....    0
 Multiplicity           Mult            ....    1
 Number of Electrons    NEL             ....  478
 Basis Dimension        Dim             .... 1042

ORBITAL ENERGIES
----------------

  NO   OCC          E(Eh)            E(eV)
   0   2.0000     -88.964759     -2420.8542
   1   2.0000     -88.964699     -2420.8525
   2   2.0000     -88.962158     -2420.7834
   3   2.0000     -88.955787     -2420.6100
   4   2.0000     -88.953034     -2420.5351
   5   2.0000     -88.949510     -2420.4392
   6   2.0000     -88.938214     -2420.1318
   7   2.0000     -19.240608      -523.5636
   8   2.0000     -19.238068      -523.4945
   9   2.0000     -19.237853      -523.4886
  10   2.0000     -19.226536      -523.1806
  11   2.0000     -14.647624      -398.5821
  12   2.0000     -14.472046      -393.8044
  13   2.0000     -10.354848      -281.7697
  14   2.0000     -10.324417      -280.9417
  15   2.0000     -10.320653      -280.8392
  16   2.0000     -10.320592      -280.8376
  17   2.0000     -10.319003      -280.7944
  18   2.0000     -10.318656      -280.7849
  19   2.0000     -10.316715      -280.7321
  20   2.0000     -10.314178      -280.6630
  21   2.0000     -10.314115      -280.6613
  22   2.0000     -10.312039      -280.6048
  23   2.0000     -10.304179      -280.3910
  24   2.0000     -10.303345      -280.3683
  25   2.0000     -10.296864      -280.1919
  26   2.0000     -10.293196      -280.0921
  27   2.0000     -10.292295      -280.0676
  28   2.0000     -10.292243      -280.0662
  29   2.0000     -10.290237      -280.0116
  30   2.0000     -10.289706      -279.9971
  31   2.0000     -10.288935      -279.9762
  32   2.0000     -10.288011      -279.9510
  33   2.0000     -10.287424      -279.9350
  34   2.0000     -10.286911      -279.9211
  35   2.0000     -10.284292      -279.8498
  36   2.0000     -10.284284      -279.8496
  37   2.0000     -10.282336      -279.7966
  38   2.0000     -10.279146      -279.7098
  39   2.0000     -10.277916      -279.6763
  40   2.0000     -10.277718      -279.6709
  41   2.0000     -10.277478      -279.6644
  42   2.0000     -10.277186      -279.6565
  43   2.0000     -10.277171      -279.6561
  44   2.0000     -10.274422      -279.5812
  45   2.0000     -10.274266      -279.5770
  46   2.0000     -10.273181      -279.5475
  47   2.0000     -10.272373      -279.5255
  48   2.0000     -10.270289      -279.4688
  49   2.0000     -10.270143      -279.4648
  50   2.0000     -10.270001      -279.4609
  51   2.0000     -10.269883      -279.4577
  52   2.0000     -10.267832      -279.4019
  53   2.0000     -10.267331      -279.3883
  54   2.0000     -10.266305      -279.3604
  55   2.0000     -10.265710      -279.3442
  56   2.0000     -10.264711      -279.3170
  57   2.0000     -10.264058      -279.2992
  58   2.0000     -10.258552      -279.1494
  59   2.0000     -10.258102      -279.1371
  60   2.0000     -10.240601      -278.6609
  61   2.0000      -8.060209      -219.3294
  62   2.0000      -8.060174      -219.3285
  63   2.0000      -8.056550      -219.2299
  64   2.0000      -8.051582      -219.0947
  65   2.0000      -8.048396      -219.0080
  66   2.0000      -8.044877      -218.9122
  67   2.0000      -8.033723      -218.6087
  68   2.0000      -6.029889      -164.0816
  69   2.0000      -6.029712      -164.0768
  70   2.0000      -6.025955      -163.9746
  71   2.0000      -6.025375      -163.9588
  72   2.0000      -6.025240      -163.9551
  73   2.0000      -6.022053      -163.8684
  74   2.0000      -6.021856      -163.8630
  75   2.0000      -6.021808      -163.8617
  76   2.0000      -6.020777      -163.8337
  77   2.0000      -6.018623      -163.7750
  78   2.0000      -6.017794      -163.7525
  79   2.0000      -6.016704      -163.7228
  80   2.0000      -6.014320      -163.6580
  81   2.0000      -6.013867      -163.6456
  82   2.0000      -6.013591      -163.6381
  83   2.0000      -6.010520      -163.5546
  84   2.0000      -6.010105      -163.5433
  85   2.0000      -6.006897      -163.4560
  86   2.0000      -6.002819      -163.3450
  87   2.0000      -5.999072      -163.2431
  88   2.0000      -5.995889      -163.1564
  89   2.0000      -1.315147       -35.7870
  90   2.0000      -1.141813       -31.0703
  91   2.0000      -1.134508       -30.8715
  92   2.0000      -1.127967       -30.6935
  93   2.0000      -1.096342       -29.8330
  94   2.0000      -0.999661       -27.2021
  95   2.0000      -0.998082       -27.1592
  96   2.0000      -0.983976       -26.7753
  97   2.0000      -0.979703       -26.6591
  98   2.0000      -0.968186       -26.3457
  99   2.0000      -0.965153       -26.2632
 100   2.0000      -0.956542       -26.0288
 101   2.0000      -0.925741       -25.1907
 102   2.0000      -0.919798       -25.0290
 103   2.0000      -0.911090       -24.7920
 104   2.0000      -0.903295       -24.5799
 105   2.0000      -0.892400       -24.2834
 106   2.0000      -0.888437       -24.1756
 107   2.0000      -0.882614       -24.0171
 108   2.0000      -0.879693       -23.9377
 109   2.0000      -0.866506       -23.5788
 110   2.0000      -0.864188       -23.5157
 111   2.0000      -0.857865       -23.3437
 112   2.0000      -0.846596       -23.0371
 113   2.0000      -0.837498       -22.7895
 114   2.0000      -0.831229       -22.6189
 115   2.0000      -0.826789       -22.4981
 116   2.0000      -0.818396       -22.2697
 117   2.0000      -0.812439       -22.1076
 118   2.0000      -0.808649       -22.0044
 119   2.0000      -0.794596       -21.6221
 120   2.0000      -0.789168       -21.4743
 121   2.0000      -0.784068       -21.3356
 122   2.0000      -0.776868       -21.1397
 123   2.0000      -0.772871       -21.0309
 124   2.0000      -0.763846       -20.7853
 125   2.0000      -0.758688       -20.6449
 126   2.0000      -0.742426       -20.2025
 127   2.0000      -0.726824       -19.7779
 128   2.0000      -0.716172       -19.4880
 129   2.0000      -0.714128       -19.4324
 130   2.0000      -0.703918       -19.1546
 131   2.0000      -0.697826       -18.9888
 132   2.0000      -0.692760       -18.8510
 133   2.0000      -0.683942       -18.6110
 134   2.0000      -0.672104       -18.2889
 135   2.0000      -0.665329       -18.1045
 136   2.0000      -0.656673       -17.8690
 137   2.0000      -0.656193       -17.8559
 138   2.0000      -0.648208       -17.6386
 139   2.0000      -0.645692       -17.5702
 140   2.0000      -0.640475       -17.4282
 141   2.0000      -0.630619       -17.1600
 142   2.0000      -0.629716       -17.1354
 143   2.0000      -0.629418       -17.1273
 144   2.0000      -0.625618       -17.0239
 145   2.0000      -0.622614       -16.9422
 146   2.0000      -0.620531       -16.8855
 147   2.0000      -0.615438       -16.7469
 148   2.0000      -0.607776       -16.5384
 149   2.0000      -0.595176       -16.1956
 150   2.0000      -0.590898       -16.0791
 151   2.0000      -0.584820       -15.9138
 152   2.0000      -0.583313       -15.8728
 153   2.0000      -0.578489       -15.7415
 154   2.0000      -0.578233       -15.7345
 155   2.0000      -0.566717       -15.4211
 156   2.0000      -0.562223       -15.2989
 157   2.0000      -0.560264       -15.2456
 158   2.0000      -0.558273       -15.1914
 159   2.0000      -0.552518       -15.0348
 160   2.0000      -0.549067       -14.9409
 161   2.0000      -0.547453       -14.8970
 162   2.0000      -0.543427       -14.7874
 163   2.0000      -0.539658       -14.6848
 164   2.0000      -0.535537       -14.5727
 165   2.0000      -0.531956       -14.4753
 166   2.0000      -0.530461       -14.4346
 167   2.0000      -0.524774       -14.2798
 168   2.0000      -0.524535       -14.2733
 169   2.0000      -0.522721       -14.2240
 170   2.0000      -0.520027       -14.1507
 171   2.0000      -0.518391       -14.1061
 172   2.0000      -0.513228       -13.9656
 173   2.0000      -0.508648       -13.8410
 174   2.0000      -0.507424       -13.8077
 175   2.0000      -0.505257       -13.7487
 176   2.0000      -0.504576       -13.7302
 177   2.0000      -0.502806       -13.6821
 178   2.0000      -0.499253       -13.5854
 179   2.0000      -0.496102       -13.4996
 180   2.0000      -0.493745       -13.4355
 181   2.0000      -0.484525       -13.1846
 182   2.0000      -0.477530       -12.9943
 183   2.0000      -0.472085       -12.8461
 184   2.0000      -0.469753       -12.7826
 185   2.0000      -0.467519       -12.7218
 186   2.0000      -0.465495       -12.6668
 187   2.0000      -0.463332       -12.6079
 188   2.0000      -0.460460       -12.5298
 189   2.0000      -0.459541       -12.5048
 190   2.0000      -0.456820       -12.4307
 191   2.0000      -0.452007       -12.2997
 192   2.0000      -0.449086       -12.2203
 193   2.0000      -0.446898       -12.1607
 194   2.0000      -0.444451       -12.0941
 195   2.0000      -0.440987       -11.9999
 196   2.0000      -0.440267       -11.9803
 197   2.0000      -0.435503       -11.8506
 198   2.0000      -0.432175       -11.7601
 199   2.0000      -0.430805       -11.7228
 200   2.0000      -0.424606       -11.5541
 201   2.0000      -0.423313       -11.5189
 202   2.0000      -0.422390       -11.4938
 203   2.0000      -0.419673       -11.4199
 204   2.0000      -0.417512       -11.3611
 205   2.0000      -0.416619       -11.3368
 206   2.0000      -0.414144       -11.2694
 207   2.0000      -0.410798       -11.1784
 208   2.0000      -0.408574       -11.1179
 209   2.0000      -0.406642       -11.0653
 210   2.0000      -0.405482       -11.0337
 211   2.0000      -0.404815       -11.0156
 212   2.0000      -0.397559       -10.8181
 213   2.0000      -0.395978       -10.7751
 214   2.0000      -0.394587       -10.7373
 215   2.0000      -0.385004       -10.4765
 216   2.0000      -0.382143       -10.3986
 217   2.0000      -0.376373       -10.2416
 218   2.0000      -0.373697       -10.1688
 219   2.0000      -0.369660       -10.0590
 220   2.0000      -0.365829        -9.9547
 221   2.0000      -0.361702        -9.8424
 222   2.0000      -0.354087        -9.6352
 223   2.0000      -0.350187        -9.5291
 224   2.0000      -0.346307        -9.4235
 225   2.0000      -0.340069        -9.2537
 226   2.0000      -0.329541        -8.9673
 227   2.0000      -0.325387        -8.8542
 228   2.0000      -0.317950        -8.6519
 229   2.0000      -0.308917        -8.4061
 230   2.0000      -0.295559        -8.0426
 231   2.0000      -0.287557        -7.8248
 232   2.0000      -0.285845        -7.7782
 233   2.0000      -0.283370        -7.7109
 234   2.0000      -0.273327        -7.4376
 235   2.0000      -0.264019        -7.1843
 236   2.0000      -0.249465        -6.7883
 237   2.0000      -0.223392        -6.0788
 238   2.0000      -0.195169        -5.3108
 239   0.0000      -0.082973        -2.2578
 240   0.0000      -0.052288        -1.4228
 241   0.0000      -0.039838        -1.0841
 242   0.0000      -0.023652        -0.6436
 243   0.0000      -0.015614        -0.4249

MULLIKEN ATOMIC CHARGES
-----------------------
   0 C :   -0.133383
   1 S :    0.126503
   2 C :   -0.125314
   3 C :    0.118292
   4 C :    0.071948
   5 C :   -0.013503
   6 C :   -0.011288
   7 O :   -0.348501
   8 C :    0.201389
   9 C :    0.035983
  10 C :   -0.036273
  11 C :   -0.019594
  12 C :   -0.055762
  13 C :    0.057339
  14 C :    0.065925
  15 C :   -0.120389
  16 S :    0.102638
  17 C :   -0.116816
  18 C :    0.051745
  19 C :   -0.005897
  20 C :   -0.069631
  21 S :    0.126327
  22 C :    0.115621
  23 C :   -0.050318
  24 C :   -0.021907
  25 C :   -0.131788
  26 S :    0.110514
  27 C :   -0.095091
  28 C :    0.112278
  29 C :    0.112100
  30 N :   -0.032197
  31 C :    0.122479
  32 N :    0.293956
  33 O :   -0.278159
  34 O :   -0.239904
  35 C :   -0.090315
  36 C :   -0.034047
  37 C :   -0.084157
  38 C :    0.048302
  39 C :    0.069665
  40 C :   -0.131431
  41 S :    0.111986
  42 C :   -0.112355
  43 C :    0.058991
  44 C :    0.009389
  45 C :   -0.070608
  46 S :    0.121017
  47 C :    0.072489
  48 C :   -0.054641
  49 C :    0.031756
  50 C :   -0.135246
  51 S :    0.139309
  52 C :   -0.140225
  53 C :    0.136388
  54 C :    0.044752
  55 C :   -0.078508
  56 C :   -0.008250
  57 O :   -0.334674
  58 C :    0.202674
  59 C :    0.024542
  60 C :   -0.019561
  61 H :    0.020777
  62 H :    0.001134
  63 H :    0.009756
  64 H :    0.023018
  65 H :    0.023124
  66 H :    0.020018
  67 H :    0.033272
  68 H :   -0.009631
  69 H :    0.007315
  70 H :   -0.023541
  71 H :    0.030612
  72 H :   -0.022450
  73 H :    0.023983
  74 H :   -0.029792
  75 H :   -0.051169
  76 H :    0.138640
  77 H :   -0.016824
  78 H :   -0.041927
  79 H :    0.030424
  80 H :   -0.017356
  81 H :    0.023361
  82 H :   -0.015868
  83 H :   -0.019477
  84 H :    0.018704
  85 H :    0.032568
  86 H :    0.019578
  87 H :    0.027426
  88 H :    0.019793
  89 H :    0.017284
  90 H :   -0.011138
  91 H :    0.028373
  92 H :    0.013447
Sum of atomic charges:   -0.0000000

LOEWDIN ATOMIC CHARGES
----------------------
   0 C :   -0.178252
   1 S :    0.445808
   2 C :   -0.197541
   3 C :    0.012112
   4 C :   -0.081749
   5 C :   -0.022803
   6 C :   -0.040951
   7 O :   -0.129475
   8 C :    0.081018
   9 C :   -0.052401
  10 C :   -0.043590
  11 C :   -0.161543
  12 C :   -0.023177
  13 C :   -0.024418
  14 C :   -0.052162
  15 C :   -0.140883
  16 S :    0.440930
  17 C :   -0.199268
  18 C :   -0.040108
  19 C :   -0.068303
  20 C :   -0.169176
  21 S :    0.422359
  22 C :   -0.049093
  23 C :   -0.026198
  24 C :   -0.061208
  25 C :   -0.197098
  26 S :    0.438184
  27 C :   -0.190112
  28 C :   -0.067541
  29 C :   -0.005150
  30 N :    0.067580
  31 C :   -0.004847
  32 N :    0.281590
  33 O :   -0.235158
  34 O :   -0.204591
  35 C :   -0.032805
  36 C :   -0.184795
  37 C :   -0.022619
  38 C :   -0.024704
  39 C :   -0.049448
  40 C :   -0.143100
  41 S :    0.422002
  42 C :   -0.203278
  43 C :   -0.040387
  44 C :   -0.063206
  45 C :   -0.167324
  46 S :    0.415736
  47 C :   -0.047433
  48 C :   -0.025066
  49 C :   -0.055027
  50 C :   -0.168449
  51 S :    0.450888
  52 C :   -0.197777
  53 C :    0.017259
  54 C :   -0.084883
  55 C :   -0.020833
  56 C :   -0.043911
  57 O :   -0.116097
  58 C :    0.080885
  59 C :   -0.044013
  60 C :   -0.044899
  61 H :    0.022433
  62 H :    0.031092
  63 H :    0.019727
  64 H :    0.025687
  65 H :    0.014763
  66 H :    0.014878
  67 H :    0.024288
  68 H :    0.018816
  69 H :    0.035306
  70 H :    0.035748
  71 H :    0.034367
  72 H :    0.024690
  73 H :    0.022833
  74 H :    0.018166
  75 H :    0.025212
  76 H :    0.092655
  77 H :    0.031944
  78 H :    0.035744
  79 H :    0.034201
  80 H :    0.030556
  81 H :    0.022042
  82 H :    0.030141
  83 H :    0.023508
  84 H :    0.031042
  85 H :    0.026698
  86 H :    0.022474
  87 H :    0.021764
  88 H :    0.017519
  89 H :    0.011341
  90 H :    0.028058
  91 H :    0.021987
  92 H :    0.020819

  Mayer bond orders larger than 0.100000
B(  0-C ,  1-S ) :   1.1647 B(  0-C ,  4-C ) :   1.5244 B(  0-C , 61-H ) :   0.9648
B(  1-S ,  2-C ) :   1.1288 B(  2-C ,  3-C ) :   1.4907 B(  2-C ,  9-C ) :   1.1286
B(  3-C ,  4-C ) :   1.2310 B(  3-C ,  7-O ) :   1.1252 B(  4-C ,  5-C ) :   1.0553
B(  5-C ,  6-C ) :   1.9553 B(  5-C , 62-H ) :   0.9628 B(  6-C , 63-H ) :   0.9535
B(  6-C , 64-H ) :   0.9497 B(  7-O ,  8-C ) :   0.9266 B(  8-C , 65-H ) :   0.9695
B(  8-C , 66-H ) :   0.9689 B(  8-C , 67-H ) :   0.9826 B(  9-C , 10-C ) :   1.6610
B(  9-C , 68-H ) :   0.9445 B( 10-C , 11-C ) :   1.1383 B( 10-C , 69-H ) :   0.9834
B( 11-C , 12-C ) :   1.5298 B( 11-C , 16-S ) :   1.0323 B( 12-C , 13-C ) :   1.2049
B( 12-C , 70-H ) :   0.9779 B( 13-C , 14-C ) :   1.0523 B( 13-C , 22-C ) :   1.3742
B( 14-C , 15-C ) :   1.6120 B( 14-C , 17-C ) :   1.1733 B( 15-C , 16-S ) :   1.1360
B( 15-C , 71-H ) :   0.9411 B( 17-C , 18-C ) :   1.4583 B( 17-C , 21-S ) :   1.0791
B( 18-C , 19-C ) :   1.2121 B( 18-C , 22-C ) :   1.0698 B( 19-C , 20-C ) :   1.5871
B( 19-C , 72-H ) :   0.9986 B( 20-C , 21-S ) :   1.1569 B( 20-C , 73-H ) :   0.9646
B( 22-C , 23-C ) :   1.1888 B( 23-C , 24-C ) :   1.5701 B( 23-C , 74-H ) :   0.9606
B( 24-C , 25-C ) :   1.1998 B( 24-C , 75-H ) :   0.9805 B( 25-C , 26-S ) :   1.0776
B( 25-C , 27-C ) :   0.1114 B( 25-C , 29-C ) :   1.3718 B( 26-S , 27-C ) :   1.1256
B( 27-C , 28-C ) :   1.3378 B( 27-C , 36-C ) :   1.2091 B( 28-C , 29-C ) :   1.2355
B( 28-C , 35-C ) :   1.1475 B( 29-C , 30-N ) :   1.1816 B( 30-N , 31-C ) :   1.1758
B( 30-N , 76-H ) :   0.9095 B( 31-C , 32-N ) :   0.9395 B( 31-C , 35-C ) :   1.5086
B( 32-N , 33-O ) :   1.4555 B( 32-N , 34-O ) :   1.5249 B( 33-O , 34-O ) :   0.2659
B( 35-C , 77-H ) :   1.0066 B( 36-C , 37-C ) :   1.5030 B( 36-C , 41-S ) :   1.0261
B( 37-C , 38-C ) :   1.2552 B( 37-C , 78-H ) :   0.9672 B( 38-C , 39-C ) :   1.0459
B( 38-C , 47-C ) :   1.3719 B( 39-C , 40-C ) :   1.6222 B( 39-C , 42-C ) :   1.1717
B( 40-C , 41-S ) :   1.1257 B( 40-C , 79-H ) :   0.9401 B( 42-C , 43-C ) :   1.4408
B( 42-C , 46-S ) :   1.0737 B( 43-C , 44-C ) :   1.2203 B( 43-C , 47-C ) :   1.0988
B( 44-C , 45-C ) :   1.5845 B( 44-C , 80-H ) :   0.9982 B( 45-C , 46-S ) :   1.1519
B( 45-C , 81-H ) :   0.9660 B( 47-C , 48-C ) :   1.1577 B( 48-C , 49-C ) :   1.6240
B( 48-C , 82-H ) :   0.9594 B( 49-C , 50-C ) :   1.1561 B( 49-C , 83-H ) :   0.9465
B( 50-C , 51-S ) :   1.1284 B( 50-C , 54-C ) :   1.4437 B( 51-S , 52-C ) :   1.1260
B( 52-C , 53-C ) :   1.4858 B( 52-C , 59-C ) :   1.0982 B( 53-C , 54-C ) :   1.2448
B( 53-C , 57-O ) :   1.1449 B( 54-C , 55-C ) :   1.0327 B( 55-C , 56-C ) :   1.9682
B( 55-C , 84-H ) :   0.9424 B( 56-C , 85-H ) :   0.9563 B( 56-C , 86-H ) :   0.9518
B( 57-O , 58-C ) :   0.9449 B( 58-C , 87-H ) :   0.9793 B( 58-C , 88-H ) :   0.9649
B( 58-C , 89-H ) :   0.9679 B( 59-C , 60-C ) :   1.9443 B( 59-C , 90-H ) :   0.9482
B( 60-C , 91-H ) :   0.9468 B( 60-C , 92-H ) :   0.9454

-----------------------------------------------------------------------------
         ABSORPTION SPECTRUM VIA TRANSITION ELECTRIC DIPOLE MOMENTS
-----------------------------------------------------------------------------
State   Energy  Wavelength   fosc         T2         TX        TY        TZ
        (cm-1)    (nm)                  (au**2)     (au)      (au)      (au)
-----------------------------------------------------------------------------
   0   10118.2    988.3   0.691078914  22.48544  -3.22139   2.03922  -2.81952
   1   15960.8    626.5   0.178694252   3.68581   0.78868  -0.74945   1.58181
   2   17363.0    575.9   0.482576361   9.14991   0.39751  -1.02409   2.81835
   3   18220.8    548.8   0.052152964   0.94230  -0.28924  -0.12442   0.91824
   4   21008.6    476.0   0.123601346   1.93688  -1.17378   0.60285  -0.44238
   5   22178.5    450.9   0.431893978   6.41093  -1.13799  -0.29013   2.24315
   6   22873.6    437.2   0.048137418   0.69282  -0.73056   0.38337  -0.11018
   7   24556.8    407.2   0.018770874   0.25165  -0.37364   0.32971   0.05766
   8   25418.8    393.4   0.048612077   0.62960   0.70108  -0.37081   0.02422
   9   26417.9    378.5   0.572606691   7.13565  -1.24486  -0.22229   2.35299
  10   27027.6    370.0   0.425438952   5.18210   1.41502   0.10891  -1.77988
  11   27387.8    365.1   0.271785352   3.26696   1.63542  -0.75661  -0.14111
  12   28538.4    350.4   0.013692589   0.15795  -0.05474   0.31696  -0.23344
  13   28977.6    345.1   0.065238950   0.74117  -0.54746   0.49655  -0.44147
  14   29743.0    336.2   0.213279755   2.36070   1.37883  -0.66824   0.11391
  15   30529.8    327.5   0.040252628   0.43406   0.19425   0.08022  -0.62441
  16   30995.2    322.6   0.012943233   0.13747  -0.26921   0.02969   0.25321
  17   31369.7    318.8   0.428530839   4.49726   0.49611   0.40249  -2.02216
  18   31581.7    316.6   0.382491185   3.98713  -1.30527   0.08330   1.50880
  19   32569.3    307.0   0.044535613   0.45017  -0.10870  -0.19681   0.63215
  20   32742.2    305.4   0.215442866   2.16621  -0.08552  -0.64781   1.31880
  21   32874.2    304.2   0.039103546   0.39159   0.00786  -0.24746   0.57471
  22   33378.0    299.6   0.052039275   0.51327   0.21188   0.15990  -0.66544
  23   33758.3    296.2   0.091871903   0.89594  -0.44141   0.47327  -0.69073
  24   34378.9    290.9   0.057090211   0.54669   0.68499  -0.13354  -0.24423
  25   34553.2    289.4   0.053989700   0.51440  -0.16865   0.19303  -0.66985
  26   35084.2    285.0   0.245705808   2.30558   0.57734   0.18949  -1.39153
  27   35376.5    282.7   0.042920658   0.39942  -0.28203   0.27593  -0.49370
  28   35700.8    280.1   0.250187715   2.30708   0.52863   0.10429  -1.42013
  29   36090.7    277.1   0.430101230   3.92329   0.78712   0.14656  -1.81170
  30   36164.2    276.5   0.059730950   0.54375   0.30106  -0.55787  -0.37669
  31   36581.4    273.4   0.269203445   2.42268  -1.36150   0.53891   0.52780
  32   36963.7    270.5   0.025888043   0.23057   0.29282  -0.07549  -0.37300
  33   37359.7    267.7   0.013161261   0.11598   0.09199   0.23276  -0.23095
  34   37574.3    266.1   0.019807707   0.17355   0.02472  -0.06737   0.41036
  35   37866.8    264.1   0.004255816   0.03700   0.16080   0.03698  -0.09886
  36   38706.1    258.4   0.015579788   0.13251  -0.14287  -0.14439   0.30208
  37   38898.0    257.1   0.105767264   0.89516   0.50195  -0.07247  -0.79872
  38   39256.5    254.7   0.115983076   0.97266   0.74114  -0.06930  -0.64697
  39   39557.2    252.8   0.037514724   0.31221  -0.23228   0.23010  -0.45311
  40   39745.5    251.6   0.018139496   0.15025   0.30890  -0.09568   0.21371
  41   39843.1    251.0   0.088338498   0.72991  -0.43681   0.54441  -0.49267
  42   39865.6    250.8   0.042866146   0.35399  -0.23118  -0.24242   0.49171
  43   40073.9    249.5   0.016838679   0.13833  -0.32513   0.15830   0.08698
  44   40284.2    248.2   0.051331193   0.41949  -0.06125  -0.15294   0.62638

FINAL SINGLE POINT ENERGY     -5042.123963951066

DIPOLE MOMENT
-------------
                                X             Y             Z
Electronic contribution:     26.88046     -22.22625      14.53393
Nuclear contribution   :    -27.10377      21.58950     -12.11327
                        -----------------------------------------
Total Dipole Moment    :     -0.22331      -0.63674       2.42065
                        -----------------------------------------
Magnitude (a.u.)       :      2.51294
Magnitude (Debye)      :      6.38739

Rotational constants in cm-1:     0.001300     0.000442     0.000334
Rotational constants in MHz :    38.979740    13.252377    10.020874

                             ****ORCA TERMINATED NORMALLY****
TOTAL RUN TIME: 0 days 0 hours 8 minutes 30 seconds 613 msec
