                         Program Version 4.2.0 -  RELEASE  -
|  1> # ORCA input file
|  2> # SCF done       -186.293361558690          0.000277846723
|  3> ! CAM-B3LYP def2-SVP def2/J RIJCOSX Grid4 TightSCF
|  4> %maxcore 5000
|  5> %tddft
|  6>     Mode sTDDFT
|  7>     Ethresh 5.0
|  8>     maxcore 5000
|  9> end
| 10>
| 11> %pal
| 12>   nprocs 6
| 13>   end
| 14> * xyz 0 1
| 15>    C        4.10297        -2.53367        -3.93224
| 16>    S        3.10323        -3.90127        -3.73011
| 17>    C        2.45787        -3.31685        -2.22613
| 18>    C        3.02381        -2.08005        -1.90894
| 19>    C        3.96891        -1.63833        -2.89467
| 20>    C        4.63711        -0.40467        -2.72334
| 21>    C        4.37361         0.35092        -1.62010
| 22>    S        5.18316         1.91250        -1.34482
| 23>    C        3.43432        -0.07857        -0.63362
| 24>    O        3.17145         0.67357         0.46433
| 25>    C        2.77803        -1.27039        -0.78345
| 26>    C        1.50152        -4.05572        -1.48035
| 27>    C        1.02422        -5.26440        -1.84382
| 28>    C        0.07522        -6.07926        -1.12913
| 29>    C       -0.20156        -7.36396        -1.62630
| 30>    C       -1.08576        -8.17972        -0.96722
| 31>    C       -1.72461        -7.74179         0.20452
| 32>    C       -1.46720        -6.47256         0.70422
| 33>    C       -0.57448        -5.65729         0.03933
| 34>    C       -2.60309        -8.79353         0.66753
| 35>    C       -2.50559        -9.88435        -0.21548
| 36>    C       -1.48388        -9.60384        -1.29449
| 37>    C       -2.07913        -9.73060        -2.70398
| 38>    C       -3.25412        -8.78400        -2.92158
| 39>    C       -0.21468       -10.47213        -1.12851
| 40>    C       -0.41295       -11.97765        -1.24496
| 41>    C       -3.29331       -10.99430        -0.03790
| 42>    C       -4.16899       -11.06688         1.05733
| 43>    C       -4.23785        -9.97985         1.93792
| 44>    C       -3.47303        -8.84621         1.74579
| 45>    C       -4.96625       -12.25539         1.25501
| 46>    N       -5.58786       -12.53661         2.45464
| 47>    C       -6.23014       -13.73099         2.34377
| 48>    C       -7.01021       -14.66224         3.03151
| 49>    C       -7.26814       -15.69290         2.12762
| 50>    N       -6.66443       -15.39858         0.91938
| 51>    C       -6.02568       -14.20507         1.03125
| 52>    C       -5.23052       -13.27979         0.35068
| 53>    C       -7.99187       -16.90968         2.28576
| 54>    C       -8.66508       -17.28313         3.39259
| 55>    C       -9.39092       -18.51765         3.57398
| 56>    C      -10.23945       -18.64187         4.68681
| 57>    C      -10.94954       -19.79972         4.88293
| 58>    C      -10.82621       -20.87503         3.98699
| 59>    C       -9.98398       -20.77247         2.88976
| 60>    C       -9.28005       -19.60224         2.69289
| 61>    C      -11.67249       -21.95679         4.44309
| 62>    C      -12.32231       -21.54840         5.61984
| 63>    C      -11.92715       -20.13649         5.98568
| 64>    C      -11.26274       -20.08199         7.37306
| 65>    C      -10.06107       -21.01241         7.48819
| 66>    C      -13.14263       -19.19089         5.95948
| 67>    C      -13.85995       -19.18784         4.61512
| 68>    C      -13.18488       -22.39127         6.27602
| 69>    C      -13.40410       -23.68069         5.76934
| 70>    C      -12.77669       -24.06440         4.57894
| 71>    C      -11.91367       -23.21643         3.91443
| 72>    C      -14.28366       -24.59924         6.45565
| 73>    S      -15.30064       -25.66873         5.55923
| 74>    C      -16.02563       -26.33735         6.98278
| 75>    C      -15.47425       -25.75937         8.12497
| 76>    C      -14.47431       -24.77671         7.82354
| 77>    C      -13.76200       -24.17126         8.88142
| 78>    C      -14.07763       -24.47821        10.17250
| 79>    S      -13.20095       -23.74568        11.53897
| 80>    C      -15.11420       -25.40784        10.48212
| 81>    O      -15.44326       -25.69938        11.76553
| 82>    C      -15.78283       -26.04211         9.47137
| 83>    C      -17.03981       -27.34290         6.90866
| 84>    C      -17.51511       -27.87261         5.78117
| 85>    H        4.73393        -2.45670        -4.79481
| 86>    H        5.34705        -0.08227        -3.47099
| 87>    H        5.91542         1.87831        -2.45179
| 88>    H        3.69576         1.48434         0.45210
| 89>    H        2.07581        -1.56842        -0.02277
| 90>    H        1.17147        -3.58569        -0.56547
| 91>    H        1.39961        -5.69521        -2.76545
| 92>    H        0.29205        -7.69630        -2.52891
| 93>    H       -1.95743        -6.12568         1.60211
| 94>    H       -0.37826        -4.66999         0.42838
| 95>    H       -2.41639       -10.75625        -2.85987
| 96>    H       -1.29860        -9.51717        -3.43762
| 97>    H       -4.04837        -8.99197        -2.20780
| 98>    H       -3.65293        -8.90361        -3.92661
| 99>    H       -2.94259        -7.74955        -2.79479
|100>    H        0.21389       -10.25107        -0.14722
|101>    H        0.50735       -10.14893        -1.88211
|102>    H       -1.05049       -12.34791        -0.44701
|103>    H        0.55196       -12.47426        -1.16380
|104>    H       -0.84996       -12.24753        -2.20285
|105>    H       -3.24958       -11.81958        -0.72937
|106>    H       -4.92489       -10.00546         2.77177
|107>    H       -3.55882        -8.01041         2.42468
|108>    H       -5.50506       -11.98084         3.28712
|109>    H       -7.34579       -14.61814         4.04779
|110>    H       -6.71077       -15.98317         0.10297
|111>    H       -4.90601       -13.32767        -0.66908
|112>    H       -7.98357       -17.55916         1.41943
|113>    H       -8.69527       -16.60005         4.23074
|114>    H      -10.33110       -17.81306         5.37513
|115>    H       -9.87698       -21.59668         2.19973
|116>    H       -8.61580       -19.53077         1.84530
|117>    H      -12.00665       -20.34905         8.12793
|118>    H      -10.94530       -19.05577         7.56966
|119>    H      -10.35519       -22.04578         7.31527
|120>    H       -9.61995       -20.93837         8.48016
|121>    H       -9.30336       -20.74817         6.75414
|122>    H      -12.80248       -18.17911         6.19098
|123>    H      -13.84140       -19.49597         6.74184
|124>    H      -13.18770       -18.86619         3.82283
|125>    H      -14.70844       -18.50797         4.64505
|126>    H      -14.22438       -20.18361         4.37238
|127>    H      -13.72353       -22.06119         7.15158
|128>    H      -12.96758       -25.05427         4.18966
|129>    H      -11.43190       -23.53385         3.00175
|130>    H      -12.95255       -23.49278         8.65853
|131>    H      -12.36034       -23.03980        10.79157
|132>    H      -14.88791       -25.20041        12.37772
|133>    H      -16.54140       -26.76209         9.72948
|134>    H      -17.42501       -27.67465         7.86345
|135>    H      -17.14902       -27.56354         4.81596
|136>    H      -18.27888       -28.62914         5.79154
|137> *
|138>
|139>                          ****END OF INPUT****

CARTESIAN COORDINATES (ANGSTROEM)
---------------------------------
  C      4.102970   -2.533670   -3.932240
  S      3.103230   -3.901270   -3.730110
  C      2.457870   -3.316850   -2.226130
  C      3.023810   -2.080050   -1.908940
  C      3.968910   -1.638330   -2.894670
  C      4.637110   -0.404670   -2.723340
  C      4.373610    0.350920   -1.620100
  S      5.183160    1.912500   -1.344820
  C      3.434320   -0.078570   -0.633620
  O      3.171450    0.673570    0.464330
  C      2.778030   -1.270390   -0.783450
  C      1.501520   -4.055720   -1.480350
  C      1.024220   -5.264400   -1.843820
  C      0.075220   -6.079260   -1.129130
  C     -0.201560   -7.363960   -1.626300
  C     -1.085760   -8.179720   -0.967220
  C     -1.724610   -7.741790    0.204520
  C     -1.467200   -6.472560    0.704220
  C     -0.574480   -5.657290    0.039330
  C     -2.603090   -8.793530    0.667530
  C     -2.505590   -9.884350   -0.215480
  C     -1.483880   -9.603840   -1.294490
  C     -2.079130   -9.730600   -2.703980
  C     -3.254120   -8.784000   -2.921580
  C     -0.214680  -10.472130   -1.128510
  C     -0.412950  -11.977650   -1.244960
  C     -3.293310  -10.994300   -0.037900
  C     -4.168990  -11.066880    1.057330
  C     -4.237850   -9.979850    1.937920
  C     -3.473030   -8.846210    1.745790
  C     -4.966250  -12.255390    1.255010
  N     -5.587860  -12.536610    2.454640
  C     -6.230140  -13.730990    2.343770
  C     -7.010210  -14.662240    3.031510
  C     -7.268140  -15.692900    2.127620
  N     -6.664430  -15.398580    0.919380
  C     -6.025680  -14.205070    1.031250
  C     -5.230520  -13.279790    0.350680
  C     -7.991870  -16.909680    2.285760
  C     -8.665080  -17.283130    3.392590
  C     -9.390920  -18.517650    3.573980
  C    -10.239450  -18.641870    4.686810
  C    -10.949540  -19.799720    4.882930
  C    -10.826210  -20.875030    3.986990
  C     -9.983980  -20.772470    2.889760
  C     -9.280050  -19.602240    2.692890
  C    -11.672490  -21.956790    4.443090
  C    -12.322310  -21.548400    5.619840
  C    -11.927150  -20.136490    5.985680
  C    -11.262740  -20.081990    7.373060
  C    -10.061070  -21.012410    7.488190
  C    -13.142630  -19.190890    5.959480
  C    -13.859950  -19.187840    4.615120
  C    -13.184880  -22.391270    6.276020
  C    -13.404100  -23.680690    5.769340
  C    -12.776690  -24.064400    4.578940
  C    -11.913670  -23.216430    3.914430
  C    -14.283660  -24.599240    6.455650
  S    -15.300640  -25.668730    5.559230
  C    -16.025630  -26.337350    6.982780
  C    -15.474250  -25.759370    8.124970
  C    -14.474310  -24.776710    7.823540
  C    -13.762000  -24.171260    8.881420
  C    -14.077630  -24.478210   10.172500
  S    -13.200950  -23.745680   11.538970
  C    -15.114200  -25.407840   10.482120
  O    -15.443260  -25.699380   11.765530
  C    -15.782830  -26.042110    9.471370
  C    -17.039810  -27.342900    6.908660
  C    -17.515110  -27.872610    5.781170
  H      4.733930   -2.456700   -4.794810
  H      5.347050   -0.082270   -3.470990
  H      5.915420    1.878310   -2.451790
  H      3.695760    1.484340    0.452100
  H      2.075810   -1.568420   -0.022770
  H      1.171470   -3.585690   -0.565470
  H      1.399610   -5.695210   -2.765450
  H      0.292050   -7.696300   -2.528910
  H     -1.957430   -6.125680    1.602110
  H     -0.378260   -4.669990    0.428380
  H     -2.416390  -10.756250   -2.859870
  H     -1.298600   -9.517170   -3.437620
  H     -4.048370   -8.991970   -2.207800
  H     -3.652930   -8.903610   -3.926610
  H     -2.942590   -7.749550   -2.794790
  H      0.213890  -10.251070   -0.147220
  H      0.507350  -10.148930   -1.882110
  H     -1.050490  -12.347910   -0.447010
  H      0.551960  -12.474260   -1.163800
  H     -0.849960  -12.247530   -2.202850
  H     -3.249580  -11.819580   -0.729370
  H     -4.924890  -10.005460    2.771770
  H     -3.558820   -8.010410    2.424680
  H     -5.505060  -11.980840    3.287120
  H     -7.345790  -14.618140    4.047790
  H     -6.710770  -15.983170    0.102970
  H     -4.906010  -13.327670   -0.669080
  H     -7.983570  -17.559160    1.419430
  H     -8.695270  -16.600050    4.230740
  H    -10.331100  -17.813060    5.375130
  H     -9.876980  -21.596680    2.199730
  H     -8.615800  -19.530770    1.845300
  H    -12.006650  -20.349050    8.127930
  H    -10.945300  -19.055770    7.569660
  H    -10.355190  -22.045780    7.315270
  H     -9.619950  -20.938370    8.480160
  H     -9.303360  -20.748170    6.754140
  H    -12.802480  -18.179110    6.190980
  H    -13.841400  -19.495970    6.741840
  H    -13.187700  -18.866190    3.822830
  H    -14.708440  -18.507970    4.645050
  H    -14.224380  -20.183610    4.372380
  H    -13.723530  -22.061190    7.151580
  H    -12.967580  -25.054270    4.189660
  H    -11.431900  -23.533850    3.001750
  H    -12.952550  -23.492780    8.658530
  H    -12.360340  -23.039800   10.791570
  H    -14.887910  -25.200410   12.377720
  H    -16.541400  -26.762090    9.729480
  H    -17.425010  -27.674650    7.863450
  H    -17.149020  -27.563540    4.815960
  H    -18.278880  -28.629140    5.791540

 Total Charge           Charge          ....    0
 Multiplicity           Mult            ....    1
 Number of Electrons    NEL             ....  518
 Basis Dimension        Dim             .... 1256

ORBITAL ENERGIES
----------------

  NO   OCC          E(Eh)            E(eV)
   0   2.0000     -88.953273     -2420.5416
   1   2.0000     -88.949506     -2420.4391
   2   2.0000     -88.939718     -2420.1728
   3   2.0000     -88.937318     -2420.1075
   4   2.0000     -19.243232      -523.6350
   5   2.0000     -19.241370      -523.5843
   6   2.0000     -14.442639      -393.0042
   7   2.0000     -14.441733      -392.9795
   8   2.0000     -10.334071      -281.2044
   9   2.0000     -10.331864      -281.1443
  10   2.0000     -10.306881      -280.4645
  11   2.0000     -10.303748      -280.3792
  12   2.0000     -10.290767      -280.0260
  13   2.0000     -10.289347      -279.9874
  14   2.0000     -10.287808      -279.9455
  15   2.0000     -10.286991      -279.9233
  16   2.0000     -10.285678      -279.8875
  17   2.0000     -10.282316      -279.7960
  18   2.0000     -10.278391      -279.6892
  19   2.0000     -10.277861      -279.6748
  20   2.0000     -10.274336      -279.5789
  21   2.0000     -10.274229      -279.5760
  22   2.0000     -10.273715      -279.5620
  23   2.0000     -10.273478      -279.5556
  24   2.0000     -10.272339      -279.5246
  25   2.0000     -10.271974      -279.5146
  26   2.0000     -10.271953      -279.5141
  27   2.0000     -10.270626      -279.4780
  28   2.0000     -10.270001      -279.4609
  29   2.0000     -10.269921      -279.4588
  30   2.0000     -10.269625      -279.4507
  31   2.0000     -10.269047      -279.4350
  32   2.0000     -10.268949      -279.4323
  33   2.0000     -10.268032      -279.4073
  34   2.0000     -10.267038      -279.3803
  35   2.0000     -10.265652      -279.3426
  36   2.0000     -10.264774      -279.3187
  37   2.0000     -10.264295      -279.3057
  38   2.0000     -10.263711      -279.2898
  39   2.0000     -10.263618      -279.2872
  40   2.0000     -10.263520      -279.2846
  41   2.0000     -10.263192      -279.2757
  42   2.0000     -10.262012      -279.2435
  43   2.0000     -10.261581      -279.2318
  44   2.0000     -10.261115      -279.2191
  45   2.0000     -10.260566      -279.2042
  46   2.0000     -10.260397      -279.1996
  47   2.0000     -10.260249      -279.1956
  48   2.0000     -10.259861      -279.1850
  49   2.0000     -10.259648      -279.1792
  50   2.0000     -10.259557      -279.1767
  51   2.0000     -10.259113      -279.1647
  52   2.0000     -10.258972      -279.1608
  53   2.0000     -10.258812      -279.1565
  54   2.0000     -10.258639      -279.1517
  55   2.0000     -10.258604      -279.1508
  56   2.0000     -10.258486      -279.1476
  57   2.0000     -10.257846      -279.1302
  58   2.0000     -10.257784      -279.1285
  59   2.0000     -10.257588      -279.1232
  60   2.0000     -10.256549      -279.0949
  61   2.0000     -10.256138      -279.0837
  62   2.0000     -10.255922      -279.0778
  63   2.0000     -10.251735      -278.9639
  64   2.0000     -10.247698      -278.8540
  65   2.0000     -10.247448      -278.8472
  66   2.0000     -10.245245      -278.7873
  67   2.0000     -10.244619      -278.7702
  68   2.0000     -10.239934      -278.6428
  69   2.0000     -10.239417      -278.6287
  70   2.0000      -8.048502      -219.0109
  71   2.0000      -8.044561      -218.9036
  72   2.0000      -8.035344      -218.6528
  73   2.0000      -8.032893      -218.5861
  74   2.0000      -6.017413      -163.7421
  75   2.0000      -6.013439      -163.6340
  76   2.0000      -6.013275      -163.6295
  77   2.0000      -6.011540      -163.5823
  78   2.0000      -6.009476      -163.5262
  79   2.0000      -6.007491      -163.4721
  80   2.0000      -6.005742      -163.4246
  81   2.0000      -6.003277      -163.3575
  82   2.0000      -6.001636      -163.3128
  83   2.0000      -5.999183      -163.2461
  84   2.0000      -5.995348      -163.1417
  85   2.0000      -5.992923      -163.0757
  86   2.0000      -1.140961       -31.0471
  87   2.0000      -1.138975       -30.9931
  88   2.0000      -1.073224       -29.2039
  89   2.0000      -1.037361       -28.2280
  90   2.0000      -0.986908       -26.8551
  91   2.0000      -0.984479       -26.7890
  92   2.0000      -0.978504       -26.6265
  93   2.0000      -0.976704       -26.5775
  94   2.0000      -0.938867       -25.5479
  95   2.0000      -0.936255       -25.4768
  96   2.0000      -0.932092       -25.3635
  97   2.0000      -0.930289       -25.3144
  98   2.0000      -0.912242       -24.8234
  99   2.0000      -0.908909       -24.7327
 100   2.0000      -0.885786       -24.1035
 101   2.0000      -0.883492       -24.0410
 102   2.0000      -0.877970       -23.8908
 103   2.0000      -0.874087       -23.7851
 104   2.0000      -0.870915       -23.6988
 105   2.0000      -0.867221       -23.5983
 106   2.0000      -0.857972       -23.3466
 107   2.0000      -0.848248       -23.0820
 108   2.0000      -0.844699       -22.9854
 109   2.0000      -0.833017       -22.6676
 110   2.0000      -0.832270       -22.6472
 111   2.0000      -0.830541       -22.6002
 112   2.0000      -0.829050       -22.5596
 113   2.0000      -0.824648       -22.4398
 114   2.0000      -0.822842       -22.3907
 115   2.0000      -0.822193       -22.3730
 116   2.0000      -0.820839       -22.3362
 117   2.0000      -0.812812       -22.1177
 118   2.0000      -0.806089       -21.9348
 119   2.0000      -0.797033       -21.6884
 120   2.0000      -0.791575       -21.5398
 121   2.0000      -0.770663       -20.9708
 122   2.0000      -0.761543       -20.7226
 123   2.0000      -0.756024       -20.5724
 124   2.0000      -0.755116       -20.5477
 125   2.0000      -0.746813       -20.3218
 126   2.0000      -0.729230       -19.8434
 127   2.0000      -0.716609       -19.4999
 128   2.0000      -0.707153       -19.2426
 129   2.0000      -0.704453       -19.1691
 130   2.0000      -0.702407       -19.1135
 131   2.0000      -0.702139       -19.1062
 132   2.0000      -0.695935       -18.9373
 133   2.0000      -0.685995       -18.6669
 134   2.0000      -0.683915       -18.6103
 135   2.0000      -0.678534       -18.4639
 136   2.0000      -0.675213       -18.3735
 137   2.0000      -0.673735       -18.3333
 138   2.0000      -0.671233       -18.2652
 139   2.0000      -0.670030       -18.2324
 140   2.0000      -0.660885       -17.9836
 141   2.0000      -0.657724       -17.8976
 142   2.0000      -0.655431       -17.8352
 143   2.0000      -0.649944       -17.6859
 144   2.0000      -0.645976       -17.5779
 145   2.0000      -0.634726       -17.2718
 146   2.0000      -0.631621       -17.1873
 147   2.0000      -0.625749       -17.0275
 148   2.0000      -0.619803       -16.8657
 149   2.0000      -0.605122       -16.4662
 150   2.0000      -0.600111       -16.3299
 151   2.0000      -0.595676       -16.2092
 152   2.0000      -0.590804       -16.0766
 153   2.0000      -0.586109       -15.9488
 154   2.0000      -0.582894       -15.8613
 155   2.0000      -0.575762       -15.6673
 156   2.0000      -0.572750       -15.5853
 157   2.0000      -0.568870       -15.4797
 158   2.0000      -0.566417       -15.4130
 159   2.0000      -0.561855       -15.2889
 160   2.0000      -0.554723       -15.0948
 161   2.0000      -0.550527       -14.9806
 162   2.0000      -0.542032       -14.7495
 163   2.0000      -0.538705       -14.6589
 164   2.0000      -0.537694       -14.6314
 165   2.0000      -0.536098       -14.5880
 166   2.0000      -0.535763       -14.5789
 167   2.0000      -0.534111       -14.5339
 168   2.0000      -0.526302       -14.3214
 169   2.0000      -0.523962       -14.2577
 170   2.0000      -0.522504       -14.2180
 171   2.0000      -0.521063       -14.1789
 172   2.0000      -0.518021       -14.0961
 173   2.0000      -0.516221       -14.0471
 174   2.0000      -0.514114       -13.9898
 175   2.0000      -0.512813       -13.9543
 176   2.0000      -0.511752       -13.9255
 177   2.0000      -0.510241       -13.8844
 178   2.0000      -0.508702       -13.8425
 179   2.0000      -0.507976       -13.8227
 180   2.0000      -0.506257       -13.7760
 181   2.0000      -0.506009       -13.7692
 182   2.0000      -0.502338       -13.6693
 183   2.0000      -0.500099       -13.6084
 184   2.0000      -0.494297       -13.4505
 185   2.0000      -0.490593       -13.3497
 186   2.0000      -0.489373       -13.3165
 187   2.0000      -0.487572       -13.2675
 188   2.0000      -0.485701       -13.2166
 189   2.0000      -0.484441       -13.1823
 190   2.0000      -0.478159       -13.0114
 191   2.0000      -0.475992       -12.9524
 192   2.0000      -0.472586       -12.8597
 193   2.0000      -0.471617       -12.8333
 194   2.0000      -0.469472       -12.7750
 195   2.0000      -0.468733       -12.7549
 196   2.0000      -0.466581       -12.6963
 197   2.0000      -0.466490       -12.6938
 198   2.0000      -0.464021       -12.6266
 199   2.0000      -0.463524       -12.6131
 200   2.0000      -0.457441       -12.4476
 201   2.0000      -0.457093       -12.4381
 202   2.0000      -0.455196       -12.3865
 203   2.0000      -0.453487       -12.3400
 204   2.0000      -0.450758       -12.2657
 205   2.0000      -0.448481       -12.2038
 206   2.0000      -0.443018       -12.0551
 207   2.0000      -0.441935       -12.0257
 208   2.0000      -0.439668       -11.9640
 209   2.0000      -0.438241       -11.9251
 210   2.0000      -0.433317       -11.7911
 211   2.0000      -0.432810       -11.7773
 212   2.0000      -0.430794       -11.7225
 213   2.0000      -0.429259       -11.6807
 214   2.0000      -0.429102       -11.6765
 215   2.0000      -0.425231       -11.5711
 216   2.0000      -0.424037       -11.5386
 217   2.0000      -0.421717       -11.4755
 218   2.0000      -0.420666       -11.4469
 219   2.0000      -0.415298       -11.3008
 220   2.0000      -0.414848       -11.2886
 221   2.0000      -0.411823       -11.2063
 222   2.0000      -0.411366       -11.1939
 223   2.0000      -0.411014       -11.1843
 224   2.0000      -0.409238       -11.1359
 225   2.0000      -0.408267       -11.1095
 226   2.0000      -0.405023       -11.0212
 227   2.0000      -0.404297       -11.0015
 228   2.0000      -0.402533       -10.9535
 229   2.0000      -0.397399       -10.8138
 230   2.0000      -0.394884       -10.7454
 231   2.0000      -0.393441       -10.7061
 232   2.0000      -0.388936       -10.5835
 233   2.0000      -0.382885       -10.4188
 234   2.0000      -0.381110       -10.3705
 235   2.0000      -0.380571       -10.3559
 236   2.0000      -0.376884       -10.2555
 237   2.0000      -0.376558       -10.2467
 238   2.0000      -0.370605       -10.0847
 239   2.0000      -0.368556       -10.0289
 240   2.0000      -0.358055        -9.7432
 241   2.0000      -0.355321        -9.6688
 242   2.0000      -0.353411        -9.6168
 243   2.0000      -0.341177        -9.2839
 244   2.0000      -0.326313        -8.8794
 245   2.0000      -0.315228        -8.5778
 246   2.0000      -0.313133        -8.5208
 247   2.0000      -0.311282        -8.4704
 248   2.0000      -0.307575        -8.3695
 249   2.0000      -0.306549        -8.3416
 250   2.0000      -0.305030        -8.3003
 251   2.0000      -0.282672        -7.6919
 252   2.0000      -0.276876        -7.5342
 253   2.0000      -0.274649        -7.4736
 254   2.0000      -0.273054        -7.4302
 255   2.0000      -0.264259        -7.1908
 256   2.0000      -0.227681        -6.1955
 257   2.0000      -0.221753        -6.0342
 258   2.0000      -0.203352        -5.5335
 259   0.0000      -0.043161        -1.1745
 260   0.0000      -0.038800        -1.0558
 261   0.0000      -0.019112        -0.5201
 262   0.0000       0.000634         0.0173
 263   0.0000       0.021656         0.5893

MULLIKEN ATOMIC CHARGES
-----------------------
   0 C :   -0.131998
   1 S :    0.134377
   2 C :   -0.139514
   3 C :    0.148411
   4 C :    0.100178
   5 C :   -0.044561
   6 C :   -0.074032
   7 S :   -0.017669
   8 C :    0.130371
   9 O :   -0.175543
  10 C :   -0.102226
  11 C :    0.028888
  12 C :   -0.028245
  13 C :    0.131514
  14 C :   -0.114952
  15 C :    0.020587
  16 C :    0.106496
  17 C :   -0.048020
  18 C :   -0.015419
  19 C :    0.100530
  20 C :    0.033402
  21 C :   -0.129829
  22 C :    0.053844
  23 C :    0.026039
  24 C :    0.080099
  25 C :    0.032009
  26 C :   -0.124717
  27 C :    0.161800
  28 C :   -0.056821
  29 C :   -0.061547
  30 C :    0.064599
  31 N :   -0.039259
  32 C :    0.103610
  33 C :   -0.179755
  34 C :    0.100630
  35 N :   -0.037515
  36 C :    0.112771
  37 C :   -0.189407
  38 C :    0.030531
  39 C :   -0.031315
  40 C :    0.139501
  41 C :   -0.117336
  42 C :    0.018600
  43 C :    0.104632
  44 C :   -0.045902
  45 C :   -0.022891
  46 C :    0.117145
  47 C :    0.004196
  48 C :   -0.137817
  49 C :    0.069860
  50 C :    0.022581
  51 C :    0.069598
  52 C :    0.025791
  53 C :   -0.109329
  54 C :    0.084798
  55 C :   -0.014099
  56 C :   -0.051907
  57 C :   -0.143909
  58 S :    0.147013
  59 C :   -0.144537
  60 C :    0.132404
  61 C :    0.132237
  62 C :   -0.071641
  63 C :   -0.074847
  64 S :   -0.018942
  65 C :    0.129926
  66 O :   -0.175433
  67 C :   -0.111020
  68 C :    0.010570
  69 C :   -0.040706
  70 H :    0.010564
  71 H :   -0.040607
  72 H :    0.074038
  73 H :    0.179620
  74 H :   -0.032078
  75 H :   -0.018919
  76 H :   -0.026588
  77 H :   -0.045530
  78 H :   -0.041995
  79 H :   -0.037435
  80 H :    0.001652
  81 H :   -0.004291
  82 H :    0.021097
  83 H :    0.004953
  84 H :    0.022279
  85 H :    0.004139
  86 H :   -0.006629
  87 H :    0.023482
  88 H :    0.009271
  89 H :   -0.000737
  90 H :   -0.041966
  91 H :   -0.051605
  92 H :   -0.038653
  93 H :    0.118909
  94 H :   -0.044180
  95 H :    0.115230
  96 H :   -0.043725
  97 H :   -0.040720
  98 H :   -0.029794
  99 H :   -0.045991
 100 H :   -0.040497
 101 H :   -0.036650
 102 H :   -0.010853
 103 H :   -0.003586
 104 H :    0.021692
 105 H :    0.003846
 106 H :    0.025381
 107 H :   -0.003779
 108 H :   -0.002458
 109 H :    0.022752
 110 H :    0.007953
 111 H :    0.021710
 112 H :   -0.031400
 113 H :   -0.024814
 114 H :   -0.037036
 115 H :   -0.039986
 116 H :    0.075822
 117 H :    0.179268
 118 H :   -0.031932
 119 H :   -0.011121
 120 H :    0.015142
 121 H :    0.019879
Sum of atomic charges:    0.0000000

LOEWDIN ATOMIC CHARGES
----------------------
   0 C :   -0.202288
   1 S :    0.472580
   2 C :   -0.189861
   3 C :   -0.041385
   4 C :   -0.058543
   5 C :   -0.043727
   6 C :   -0.174805
   7 S :    0.205731
   8 C :    0.033301
   9 O :   -0.051276
  10 C :   -0.055774
  11 C :   -0.035383
  12 C :   -0.034324
  13 C :   -0.023462
  14 C :   -0.024599
  15 C :    0.003482
  16 C :   -0.021074
  17 C :   -0.019568
  18 C :   -0.018581
  19 C :   -0.023427
  20 C :    0.005359
  21 C :   -0.034150
  22 C :   -0.015538
  23 C :   -0.056535
  24 C :   -0.009365
  25 C :   -0.059731
  26 C :   -0.021212
  27 C :   -0.023269
  28 C :   -0.037259
  29 C :   -0.018813
  30 C :    0.001651
  31 N :    0.066771
  32 C :   -0.027099
  33 C :   -0.097315
  34 C :   -0.009741
  35 N :    0.068111
  36 C :   -0.028793
  37 C :   -0.104296
  38 C :   -0.030428
  39 C :   -0.032901
  40 C :   -0.018717
  41 C :   -0.027576
  42 C :    0.001968
  43 C :   -0.025615
  44 C :   -0.018257
  45 C :   -0.022107
  46 C :   -0.017744
  47 C :    0.002669
  48 C :   -0.035049
  49 C :   -0.012814
  50 C :   -0.058980
  51 C :   -0.011322
  52 C :   -0.057306
  53 C :   -0.025307
  54 C :   -0.039989
  55 C :   -0.025390
  56 C :   -0.018224
  57 C :   -0.171572
  58 S :    0.478932
  59 C :   -0.198490
  60 C :   -0.036923
  61 C :   -0.054930
  62 C :   -0.045654
  63 C :   -0.175997
  64 S :    0.204034
  65 C :    0.033772
  66 O :   -0.051149
  67 C :   -0.056708
  68 C :   -0.035879
  69 C :   -0.065119
  70 H :    0.020863
  71 H :    0.025349
  72 H :   -0.014920
  73 H :    0.072802
  74 H :    0.031754
  75 H :    0.029738
  76 H :    0.016964
  77 H :    0.021573
  78 H :    0.024817
  79 H :    0.023308
  80 H :    0.018141
  81 H :    0.019246
  82 H :    0.025836
  83 H :    0.022206
  84 H :    0.025703
  85 H :    0.026683
  86 H :    0.019010
  87 H :    0.025174
  88 H :    0.026501
  89 H :    0.018537
  90 H :    0.022750
  91 H :    0.016972
  92 H :    0.025515
  93 H :    0.083606
  94 H :    0.019959
  95 H :    0.085231
  96 H :    0.019780
  97 H :    0.021858
  98 H :    0.024441
  99 H :    0.021766
 100 H :    0.025217
 101 H :    0.022046
 102 H :    0.016133
 103 H :    0.019957
 104 H :    0.023665
 105 H :    0.021397
 106 H :    0.027872
 107 H :    0.019363
 108 H :    0.019368
 109 H :    0.026231
 110 H :    0.023530
 111 H :    0.025747
 112 H :    0.025725
 113 H :    0.021680
 114 H :    0.026513
 115 H :    0.025307
 116 H :   -0.014674
 117 H :    0.073104
 118 H :    0.031956
 119 H :    0.033156
 120 H :    0.014452
 121 H :    0.024068

  Mayer bond orders larger than 0.100000
B(  0-C ,  1-S ) :   1.1921 B(  0-C ,  2-C ) :   0.1089 B(  0-C ,  4-C ) :   1.4258
B(  0-C , 70-H ) :   0.9693 B(  1-S ,  2-C ) :   1.1460 B(  2-C ,  3-C ) :   1.3535
B(  2-C , 11-C ) :   1.1673 B(  3-C ,  4-C ) :   1.1956 B(  3-C , 10-C ) :   1.1666
B(  4-C ,  5-C ) :   1.1767 B(  5-C ,  6-C ) :   1.5672 B(  5-C , 71-H ) :   0.9894
B(  6-C ,  7-S ) :   0.9992 B(  6-C ,  8-C ) :   1.1728 B(  7-S , 72-H ) :   0.9542
B(  8-C ,  9-O ) :   1.2582 B(  8-C , 10-C ) :   1.5407 B(  9-O , 73-H ) :   0.9519
B( 10-C , 74-H ) :   0.9997 B( 11-C , 12-C ) :   1.6710 B( 11-C , 75-H ) :   0.9624
B( 12-C , 13-C ) :   1.0779 B( 12-C , 76-H ) :   0.9819 B( 13-C , 14-C ) :   1.2841
B( 13-C , 18-C ) :   1.3448 B( 14-C , 15-C ) :   1.3753 B( 14-C , 77-H ) :   1.0112
B( 15-C , 16-C ) :   1.3809 B( 15-C , 21-C ) :   0.9218 B( 16-C , 17-C ) :   1.3230
B( 16-C , 19-C ) :   0.9955 B( 17-C , 18-C ) :   1.4020 B( 17-C , 78-H ) :   0.9898
B( 18-C , 79-H ) :   0.9839 B( 19-C , 20-C ) :   1.3673 B( 19-C , 29-C ) :   1.3458
B( 20-C , 21-C ) :   0.9185 B( 20-C , 26-C ) :   1.3998 B( 21-C , 22-C ) :   1.0317
B( 21-C , 24-C ) :   1.0157 B( 22-C , 23-C ) :   1.1039 B( 22-C , 80-H ) :   0.9382
B( 22-C , 81-H ) :   0.9393 B( 23-C , 82-H ) :   0.9647 B( 23-C , 83-H ) :   0.9645
B( 23-C , 84-H ) :   0.9631 B( 24-C , 25-C ) :   1.1131 B( 24-C , 85-H ) :   0.9391
B( 24-C , 86-H ) :   0.9366 B( 25-C , 87-H ) :   0.9608 B( 25-C , 88-H ) :   0.9592
B( 25-C , 89-H ) :   0.9629 B( 26-C , 27-C ) :   1.3069 B( 26-C , 90-H ) :   0.9983
B( 27-C , 28-C ) :   1.3272 B( 27-C , 30-C ) :   1.0050 B( 28-C , 29-C ) :   1.3848
B( 28-C , 91-H ) :   0.9889 B( 29-C , 92-H ) :   0.9886 B( 30-C , 31-N ) :   1.2100
B( 30-C , 37-C ) :   1.4467 B( 31-N , 32-C ) :   1.1545 B( 31-N , 93-H ) :   0.9331
B( 32-C , 33-C ) :   1.2468 B( 32-C , 36-C ) :   1.3415 B( 33-C , 34-C ) :   1.4231
B( 33-C , 94-H ) :   1.0313 B( 34-C , 35-N ) :   1.1690 B( 34-C , 38-C ) :   1.0956
B( 35-N , 36-C ) :   1.1671 B( 35-N , 95-H ) :   0.9376 B( 36-C , 37-C ) :   1.2206
B( 37-C , 96-H ) :   1.0279 B( 38-C , 39-C ) :   1.6959 B( 38-C , 97-H ) :   0.9546
B( 39-C , 40-C ) :   1.0698 B( 39-C , 98-H ) :   0.9848 B( 40-C , 41-C ) :   1.2840
B( 40-C , 45-C ) :   1.3414 B( 41-C , 42-C ) :   1.3791 B( 41-C , 99-H ) :   1.0133
B( 42-C , 43-C ) :   1.3690 B( 42-C , 48-C ) :   0.9145 B( 43-C , 44-C ) :   1.3314
B( 43-C , 46-C ) :   0.9939 B( 44-C , 45-C ) :   1.3993 B( 44-C ,100-H ) :   0.9888
B( 45-C ,101-H ) :   0.9832 B( 46-C , 47-C ) :   1.3683 B( 46-C , 56-C ) :   1.3366
B( 47-C , 48-C ) :   0.9128 B( 47-C , 53-C ) :   1.3908 B( 48-C , 49-C ) :   1.0401
B( 48-C , 51-C ) :   1.0371 B( 49-C , 50-C ) :   1.1003 B( 49-C ,102-H ) :   0.9385
B( 49-C ,103-H ) :   0.9378 B( 50-C ,104-H ) :   0.9633 B( 50-C ,105-H ) :   0.9642
B( 50-C ,106-H ) :   0.9638 B( 51-C , 52-C ) :   1.1032 B( 51-C ,107-H ) :   0.9389
B( 51-C ,108-H ) :   0.9394 B( 52-C ,109-H ) :   0.9643 B( 52-C ,110-H ) :   0.9635
B( 52-C ,111-H ) :   0.9643 B( 53-C , 54-C ) :   1.3122 B( 53-C ,112-H ) :   1.0044
B( 54-C , 55-C ) :   1.3563 B( 54-C , 57-C ) :   1.0163 B( 55-C , 56-C ) :   1.3814
B( 55-C ,113-H ) :   0.9852 B( 56-C ,114-H ) :   0.9927 B( 57-C , 58-S ) :   1.1792
B( 57-C , 59-C ) :   0.1177 B( 57-C , 61-C ) :   1.4046 B( 58-S , 59-C ) :   1.1245
B( 59-C , 60-C ) :   1.3744 B( 59-C , 68-C ) :   1.1416 B( 60-C , 61-C ) :   1.1910
B( 60-C , 67-C ) :   1.1587 B( 61-C , 62-C ) :   1.1971 B( 62-C , 63-C ) :   1.5567
B( 62-C ,115-H ) :   0.9780 B( 63-C , 64-S ) :   1.0011 B( 63-C , 65-C ) :   1.1758
B( 64-S ,116-H ) :   0.9535 B( 65-C , 66-O ) :   1.2585 B( 65-C , 67-C ) :   1.5438
B( 66-O ,117-H ) :   0.9522 B( 67-C ,118-H ) :   1.0006 B( 68-C , 69-C ) :   1.9079
B( 68-C ,119-H ) :   0.9593 B( 69-C ,120-H ) :   0.9572 B( 69-C ,121-H ) :   0.9497

-----------------------------------------------------------------------------
         ABSORPTION SPECTRUM VIA TRANSITION ELECTRIC DIPOLE MOMENTS
-----------------------------------------------------------------------------
State   Energy  Wavelength   fosc         T2         TX        TY        TZ
        (cm-1)    (nm)                  (au**2)     (au)      (au)      (au)
-----------------------------------------------------------------------------
   0   21662.8    461.6   4.016528879  61.03955   4.63034   5.87853  -2.24552
   1   23878.4    418.8   0.000511200   0.00705   0.01963  -0.00347   0.08155
   2   25923.9    385.7   0.030338423   0.38527  -0.58289  -0.02534   0.21184
   3   27550.0    363.0   0.002926577   0.03497  -0.01851   0.01250   0.18567
   4   28967.3    345.2   0.287811663   3.27096   0.98350   1.47157  -0.37172
   5   30677.8    326.0   0.050889803   0.54611  -0.43070  -0.53467  -0.27339
   6   32078.4    311.7   0.032360079   0.33210  -0.19632  -0.29082  -0.45715
   7   33227.5    301.0   0.105102885   1.04134  -0.31784  -0.42592   0.87116
   8   34013.9    294.0   0.038809563   0.37563   0.13119   0.21256   0.55967
   9   34241.5    292.0   0.034930111   0.33583  -0.32214  -0.31593   0.36366
  10   34453.2    290.2   0.113464692   1.08419  -0.09213   0.15281  -1.02584
  11   34901.9    286.5   0.078018872   0.73591   0.14543   0.71458   0.45182
  12   35016.5    285.6   0.036722147   0.34525   0.20575   0.30926  -0.45528
  13   35784.5    279.5   0.347996392   3.20151  -0.61745  -1.55597  -0.63186
  14   36420.0    274.6   0.070368728   0.63609  -0.22278   0.25032   0.72374
  15   36716.9    272.4   0.027617136   0.24762  -0.09213   0.30280   0.38399
  16   37214.0    268.7   0.082777080   0.73228  -0.42673  -0.07066   0.73837
  17   37395.2    267.4   0.002390762   0.02105  -0.13787  -0.02678   0.03637
  18   37747.9    264.9   0.033066480   0.28838   0.13467  -0.29886  -0.42536
  19   38012.0    263.1   0.048462628   0.41972   0.34949   0.44201  -0.31970
  20   38653.5    258.7   0.075749874   0.64516  -0.57821  -0.50423  -0.23786
  21   39329.1    254.3   0.325526424   2.72488  -0.51014  -1.28515  -0.90168
  22   40169.4    248.9   0.107651124   0.88226  -0.39696   0.00840  -0.85124

FINAL SINGLE POINT ENERGY     -4242.759944862320

DIPOLE MOMENT
-------------
                                X             Y             Z
Electronic contribution:     15.66382      21.57803       7.16504
Nuclear contribution   :    -14.03834     -20.25958      -8.00395
                        -----------------------------------------
Total Dipole Moment    :      1.62548       1.31846      -0.83891
                        -----------------------------------------
Magnitude (a.u.)       :      2.25483
Magnitude (Debye)      :      5.73133

Rotational constants in cm-1:     0.003940     0.000121     0.000118
Rotational constants in MHz :   118.115400     3.612959     3.541918

                             ****ORCA TERMINATED NORMALLY****
TOTAL RUN TIME: 0 days 0 hours 11 minutes 17 seconds 481 msec
