                         Program Version 4.2.0 -  RELEASE  -
|  1> # ORCA input file
|  2> # SCF done       -164.997025015867          0.000595780452
|  3> ! CAM-B3LYP def2-SVP def2/J RIJCOSX Grid4 TightSCF
|  4> %maxcore 5000
|  5> %tddft
|  6>     Mode sTDDFT
|  7>     Ethresh 5.0
|  8>     maxcore 5000
|  9> end
| 10>
| 11> %pal
| 12>   nprocs 6
| 13>   end
| 14> * xyz 0 1
| 15>    C       -1.06675        -5.28279        -4.78659
| 16>    C       -2.26853        -5.15952        -4.09148
| 17>    C       -3.26219        -4.27387        -4.57490
| 18>    C       -3.06423        -3.52674        -5.72281
| 19>    C       -1.86469        -3.66675        -6.39309
| 20>    C       -0.87838        -4.53598        -5.92876
| 21>    S       -4.64582        -4.31708        -3.52772
| 22>    C       -3.77787        -5.51324        -2.53368
| 23>    N       -2.60234        -5.82319        -2.95602
| 24>    C       -4.37253        -6.05673        -1.36273
| 25>    S       -5.96702        -5.61132        -0.84562
| 26>    C       -5.85312        -6.65475         0.53865
| 27>    C       -4.63287        -7.30245         0.56962
| 28>    C       -3.80316        -6.96761        -0.49805
| 29>    C       -6.91913        -6.75940         1.47453
| 30>    C       -6.94004        -7.46198         2.66196
| 31>    C       -8.14272        -7.34265         3.35617
| 32>    C       -9.07169        -6.55124         2.71401
| 33>    S       -8.43231        -5.93999         1.21464
| 34>    C      -10.38572        -6.22367         3.13616
| 35>    S      -10.98913        -6.74128         4.68282
| 36>    C      -12.53087        -5.97800         4.39391
| 37>    C      -12.53980        -5.36361         3.15496
| 38>    C      -11.34356        -5.49793         2.45660
| 39>    C      -13.54159        -6.06084         5.38339
| 40>    C      -14.80548        -5.58455         5.25455
| 41>    C      -15.79794        -5.68288         6.25458
| 42>    S      -15.49658        -6.37401         7.84116
| 43>    C      -17.13271        -6.14199         8.39986
| 44>    C      -17.88811        -5.54860         7.38514
| 45>    C      -17.12632        -5.29543         6.20089
| 46>    N      -17.94947        -4.71641         5.28641
| 47>    C      -19.19583        -4.59973         5.85761
| 48>    N      -20.24141        -4.03051         5.11741
| 49>    O      -19.96831        -3.66593         3.98128
| 50>    O      -21.33525        -3.93597         5.63998
| 51>    C      -19.20237        -5.09749         7.14413
| 52>    C      -17.52093        -6.52462         9.69659
| 53>    S      -19.17463        -6.37429        10.23263
| 54>    C      -18.76593        -7.00613        11.80307
| 55>    C      -17.41876        -7.30663        11.87839
| 56>    C      -16.72483        -7.04347        10.70453
| 57>    C      -19.75197        -7.15528        12.80896
| 58>    C      -21.11244        -6.94470        12.70905
| 59>    C      -21.80000        -7.18535        13.89580
| 60>    C      -20.98082        -7.57846        14.93617
| 61>    S      -19.32167        -7.66102        14.41917
| 62>    C      -21.35251        -7.87404        16.27551
| 63>    S      -20.16346        -8.16690        17.50622
| 64>    C      -21.39308        -8.37816        18.72092
| 65>    C      -22.65013        -8.23419        18.16403
| 66>    C      -22.62919        -7.95102        16.80178
| 67>    C      -21.01257        -8.63442        20.06518
| 68>    C      -21.86800        -8.80849        21.09761
| 69>    C      -21.41421        -9.03150        22.42802
| 70>    N      -20.18860        -9.08031        22.81723
| 71>    C      -20.07071        -9.29438        24.15016
| 72>    C      -18.87446        -9.39037        24.86029
| 73>    C      -18.92188        -9.60809        26.21935
| 74>    C      -20.13929        -9.73264        26.88820
| 75>    C      -21.33846        -9.64108        26.20908
| 76>    C      -21.30053        -9.42158        24.84317
| 77>    S      -22.61775        -9.25805        23.72717
| 78>    H       -0.31202        -5.95815        -4.41698
| 79>    H       -3.82975        -2.85509        -6.07907
| 80>    H       -1.68935        -3.09351        -7.29088
| 81>    H        0.04815        -4.62307        -6.47620
| 82>    H       -4.35922        -7.99805         1.34157
| 83>    H       -2.81622        -7.36087        -0.65701
| 84>    H       -6.10473        -8.03802         3.01553
| 85>    H       -8.34464        -7.81633         4.30063
| 86>    H      -13.38923        -4.82779         2.77220
| 87>    H      -11.16372        -5.08652         1.47882
| 88>    H      -13.26922        -6.55589         6.30659
| 89>    H      -15.11218        -5.10253         4.33657
| 90>    H      -17.74553        -4.41076         4.34850
| 91>    H      -20.04597        -5.12334         7.80253
| 92>    H      -16.97093        -7.70846        12.76998
| 93>    H      -15.67138        -7.21355        10.57027
| 94>    H      -21.57979        -6.62650        11.79392
| 95>    H      -22.86288        -7.06796        14.00085
| 96>    H      -23.55663        -8.32842        18.73359
| 97>    H      -23.51441        -7.80922        16.20896
| 98>    H      -19.95252        -8.68347        20.27296
| 99>    H      -22.93806        -8.77927        20.95559
|100>    H      -17.93989        -9.29096        24.33184
|101>    H      -18.00219        -9.68299        26.78016
|102>    H      -20.14582        -9.90374        27.95409
|103>    H      -22.28195        -9.73721        26.72362
|104> *
|105>
|106>                          ****END OF INPUT****

CARTESIAN COORDINATES (ANGSTROEM)
---------------------------------
  C     -1.066750   -5.282790   -4.786590
  C     -2.268530   -5.159520   -4.091480
  C     -3.262190   -4.273870   -4.574900
  C     -3.064230   -3.526740   -5.722810
  C     -1.864690   -3.666750   -6.393090
  C     -0.878380   -4.535980   -5.928760
  S     -4.645820   -4.317080   -3.527720
  C     -3.777870   -5.513240   -2.533680
  N     -2.602340   -5.823190   -2.956020
  C     -4.372530   -6.056730   -1.362730
  S     -5.967020   -5.611320   -0.845620
  C     -5.853120   -6.654750    0.538650
  C     -4.632870   -7.302450    0.569620
  C     -3.803160   -6.967610   -0.498050
  C     -6.919130   -6.759400    1.474530
  C     -6.940040   -7.461980    2.661960
  C     -8.142720   -7.342650    3.356170
  C     -9.071690   -6.551240    2.714010
  S     -8.432310   -5.939990    1.214640
  C    -10.385720   -6.223670    3.136160
  S    -10.989130   -6.741280    4.682820
  C    -12.530870   -5.978000    4.393910
  C    -12.539800   -5.363610    3.154960
  C    -11.343560   -5.497930    2.456600
  C    -13.541590   -6.060840    5.383390
  C    -14.805480   -5.584550    5.254550
  C    -15.797940   -5.682880    6.254580
  S    -15.496580   -6.374010    7.841160
  C    -17.132710   -6.141990    8.399860
  C    -17.888110   -5.548600    7.385140
  C    -17.126320   -5.295430    6.200890
  N    -17.949470   -4.716410    5.286410
  C    -19.195830   -4.599730    5.857610
  N    -20.241410   -4.030510    5.117410
  O    -19.968310   -3.665930    3.981280
  O    -21.335250   -3.935970    5.639980
  C    -19.202370   -5.097490    7.144130
  C    -17.520930   -6.524620    9.696590
  S    -19.174630   -6.374290   10.232630
  C    -18.765930   -7.006130   11.803070
  C    -17.418760   -7.306630   11.878390
  C    -16.724830   -7.043470   10.704530
  C    -19.751970   -7.155280   12.808960
  C    -21.112440   -6.944700   12.709050
  C    -21.800000   -7.185350   13.895800
  C    -20.980820   -7.578460   14.936170
  S    -19.321670   -7.661020   14.419170
  C    -21.352510   -7.874040   16.275510
  S    -20.163460   -8.166900   17.506220
  C    -21.393080   -8.378160   18.720920
  C    -22.650130   -8.234190   18.164030
  C    -22.629190   -7.951020   16.801780
  C    -21.012570   -8.634420   20.065180
  C    -21.868000   -8.808490   21.097610
  C    -21.414210   -9.031500   22.428020
  N    -20.188600   -9.080310   22.817230
  C    -20.070710   -9.294380   24.150160
  C    -18.874460   -9.390370   24.860290
  C    -18.921880   -9.608090   26.219350
  C    -20.139290   -9.732640   26.888200
  C    -21.338460   -9.641080   26.209080
  C    -21.300530   -9.421580   24.843170
  S    -22.617750   -9.258050   23.727170
  H     -0.312020   -5.958150   -4.416980
  H     -3.829750   -2.855090   -6.079070
  H     -1.689350   -3.093510   -7.290880
  H      0.048150   -4.623070   -6.476200
  H     -4.359220   -7.998050    1.341570
  H     -2.816220   -7.360870   -0.657010
  H     -6.104730   -8.038020    3.015530
  H     -8.344640   -7.816330    4.300630
  H    -13.389230   -4.827790    2.772200
  H    -11.163720   -5.086520    1.478820
  H    -13.269220   -6.555890    6.306590
  H    -15.112180   -5.102530    4.336570
  H    -17.745530   -4.410760    4.348500
  H    -20.045970   -5.123340    7.802530
  H    -16.970930   -7.708460   12.769980
  H    -15.671380   -7.213550   10.570270
  H    -21.579790   -6.626500   11.793920
  H    -22.862880   -7.067960   14.000850
  H    -23.556630   -8.328420   18.733590
  H    -23.514410   -7.809220   16.208960
  H    -19.952520   -8.683470   20.272960
  H    -22.938060   -8.779270   20.955590
  H    -17.939890   -9.290960   24.331840
  H    -18.002190   -9.682990   26.780160
  H    -20.145820   -9.903740   27.954090
  H    -22.281950   -9.737210   26.723620

 Total Charge           Charge          ....    0
 Multiplicity           Mult            ....    1
 Number of Electrons    NEL             ....  502
 Basis Dimension        Dim             .... 1048

ORBITAL ENERGIES
----------------

  NO   OCC          E(Eh)            E(eV)
   0   2.0000     -88.969377     -2420.9798
   1   2.0000     -88.965664     -2420.8788
   2   2.0000     -88.962435     -2420.7909
   3   2.0000     -88.961033     -2420.7528
   4   2.0000     -88.960357     -2420.7344
   5   2.0000     -88.958679     -2420.6887
   6   2.0000     -88.956229     -2420.6221
   7   2.0000     -88.949305     -2420.4337
   8   2.0000     -88.946813     -2420.3658
   9   2.0000     -19.244553      -523.6709
  10   2.0000     -19.244248      -523.6626
  11   2.0000     -14.654382      -398.7660
  12   2.0000     -14.477861      -393.9626
  13   2.0000     -14.397554      -391.7774
  14   2.0000     -14.395347      -391.7173
  15   2.0000     -10.361918      -281.9621
  16   2.0000     -10.338649      -281.3289
  17   2.0000     -10.331930      -281.1461
  18   2.0000     -10.327270      -281.0193
  19   2.0000     -10.324000      -280.9303
  20   2.0000     -10.315387      -280.6959
  21   2.0000     -10.314747      -280.6785
  22   2.0000     -10.312437      -280.6157
  23   2.0000     -10.312175      -280.6085
  24   2.0000     -10.312141      -280.6076
  25   2.0000     -10.311953      -280.6025
  26   2.0000     -10.309923      -280.5473
  27   2.0000     -10.308390      -280.5056
  28   2.0000     -10.307933      -280.4931
  29   2.0000     -10.306202      -280.4460
  30   2.0000     -10.303582      -280.3747
  31   2.0000     -10.303183      -280.3639
  32   2.0000     -10.301249      -280.3112
  33   2.0000     -10.299283      -280.2577
  34   2.0000     -10.295463      -280.1538
  35   2.0000     -10.294847      -280.1370
  36   2.0000     -10.294142      -280.1178
  37   2.0000     -10.292951      -280.0854
  38   2.0000     -10.292305      -280.0678
  39   2.0000     -10.292105      -280.0624
  40   2.0000     -10.289509      -279.9918
  41   2.0000     -10.285525      -279.8834
  42   2.0000     -10.283877      -279.8385
  43   2.0000     -10.282235      -279.7938
  44   2.0000     -10.280882      -279.7570
  45   2.0000     -10.280320      -279.7417
  46   2.0000     -10.279628      -279.7229
  47   2.0000     -10.279494      -279.7192
  48   2.0000     -10.279126      -279.7092
  49   2.0000     -10.277597      -279.6676
  50   2.0000     -10.276472      -279.6370
  51   2.0000     -10.276242      -279.6308
  52   2.0000     -10.275864      -279.6205
  53   2.0000     -10.275213      -279.6028
  54   2.0000     -10.274435      -279.5816
  55   2.0000     -10.273262      -279.5497
  56   2.0000     -10.272609      -279.5319
  57   2.0000     -10.266598      -279.3683
  58   2.0000     -10.266142      -279.3559
  59   2.0000     -10.264653      -279.3154
  60   2.0000     -10.264224      -279.3037
  61   2.0000     -10.264203      -279.3032
  62   2.0000     -10.263701      -279.2895
  63   2.0000      -8.063945      -219.4311
  64   2.0000      -8.060880      -219.3477
  65   2.0000      -8.058096      -219.2719
  66   2.0000      -8.056809      -219.2369
  67   2.0000      -8.056219      -219.2209
  68   2.0000      -8.054384      -219.1709
  69   2.0000      -8.051936      -219.1043
  70   2.0000      -8.045610      -218.9322
  71   2.0000      -8.043097      -218.8638
  72   2.0000      -6.033344      -164.1756
  73   2.0000      -6.030326      -164.0935
  74   2.0000      -6.029275      -164.0649
  75   2.0000      -6.027464      -164.0156
  76   2.0000      -6.026219      -163.9818
  77   2.0000      -6.026083      -163.9781
  78   2.0000      -6.025930      -163.9739
  79   2.0000      -6.025406      -163.9596
  80   2.0000      -6.023741      -163.9143
  81   2.0000      -6.023373      -163.9043
  82   2.0000      -6.022721      -163.8866
  83   2.0000      -6.021992      -163.8667
  84   2.0000      -6.021368      -163.8498
  85   2.0000      -6.021191      -163.8449
  86   2.0000      -6.020003      -163.8126
  87   2.0000      -6.019673      -163.8036
  88   2.0000      -6.018905      -163.7827
  89   2.0000      -6.018413      -163.7693
  90   2.0000      -6.017215      -163.7368
  91   2.0000      -6.016284      -163.7114
  92   2.0000      -6.014977      -163.6758
  93   2.0000      -6.013980      -163.6487
  94   2.0000      -6.012333      -163.6039
  95   2.0000      -6.011167      -163.5722
  96   2.0000      -6.008680      -163.5045
  97   2.0000      -6.007063      -163.4605
  98   2.0000      -6.004693      -163.3960
  99   2.0000      -1.323583       -36.0165
 100   2.0000      -1.143214       -31.1084
 101   2.0000      -1.102813       -30.0091
 102   2.0000      -1.056575       -28.7509
 103   2.0000      -1.053487       -28.6668
 104   2.0000      -1.006050       -27.3760
 105   2.0000      -0.999995       -27.2113
 106   2.0000      -0.996396       -27.1133
 107   2.0000      -0.986715       -26.8499
 108   2.0000      -0.982674       -26.7399
 109   2.0000      -0.970651       -26.4128
 110   2.0000      -0.968404       -26.3516
 111   2.0000      -0.937988       -25.5239
 112   2.0000      -0.936776       -25.4910
 113   2.0000      -0.920687       -25.0532
 114   2.0000      -0.905018       -24.6268
 115   2.0000      -0.901647       -24.5351
 116   2.0000      -0.889238       -24.1974
 117   2.0000      -0.885440       -24.0940
 118   2.0000      -0.882493       -24.0139
 119   2.0000      -0.878889       -23.9158
 120   2.0000      -0.868518       -23.6336
 121   2.0000      -0.855077       -23.2678
 122   2.0000      -0.846782       -23.0421
 123   2.0000      -0.843752       -22.9597
 124   2.0000      -0.840177       -22.8624
 125   2.0000      -0.838637       -22.8205
 126   2.0000      -0.833897       -22.6915
 127   2.0000      -0.829769       -22.5792
 128   2.0000      -0.823616       -22.4117
 129   2.0000      -0.820374       -22.3235
 130   2.0000      -0.816450       -22.2167
 131   2.0000      -0.811749       -22.0888
 132   2.0000      -0.805329       -21.9141
 133   2.0000      -0.794901       -21.6304
 134   2.0000      -0.780989       -21.2518
 135   2.0000      -0.776339       -21.1253
 136   2.0000      -0.762826       -20.7576
 137   2.0000      -0.737085       -20.0571
 138   2.0000      -0.730090       -19.8668
 139   2.0000      -0.718451       -19.5501
 140   2.0000      -0.702721       -19.1220
 141   2.0000      -0.692106       -18.8332
 142   2.0000      -0.689017       -18.7491
 143   2.0000      -0.684738       -18.6327
 144   2.0000      -0.684232       -18.6189
 145   2.0000      -0.680113       -18.5068
 146   2.0000      -0.673400       -18.3241
 147   2.0000      -0.668710       -18.1965
 148   2.0000      -0.665434       -18.1074
 149   2.0000      -0.663282       -18.0488
 150   2.0000      -0.658173       -17.9098
 151   2.0000      -0.641041       -17.4436
 152   2.0000      -0.639057       -17.3896
 153   2.0000      -0.636872       -17.3302
 154   2.0000      -0.628154       -17.0929
 155   2.0000      -0.626617       -17.0511
 156   2.0000      -0.623543       -16.9675
 157   2.0000      -0.620603       -16.8875
 158   2.0000      -0.618124       -16.8200
 159   2.0000      -0.613078       -16.6827
 160   2.0000      -0.611627       -16.6432
 161   2.0000      -0.604109       -16.4386
 162   2.0000      -0.602998       -16.4084
 163   2.0000      -0.597355       -16.2549
 164   2.0000      -0.591107       -16.0848
 165   2.0000      -0.588479       -16.0133
 166   2.0000      -0.574367       -15.6293
 167   2.0000      -0.569295       -15.4913
 168   2.0000      -0.565286       -15.3822
 169   2.0000      -0.563092       -15.3225
 170   2.0000      -0.561896       -15.2900
 171   2.0000      -0.553438       -15.0598
 172   2.0000      -0.551359       -15.0032
 173   2.0000      -0.545036       -14.8312
 174   2.0000      -0.541593       -14.7375
 175   2.0000      -0.539130       -14.6705
 176   2.0000      -0.537008       -14.6127
 177   2.0000      -0.527487       -14.3537
 178   2.0000      -0.520114       -14.1530
 179   2.0000      -0.515193       -14.0191
 180   2.0000      -0.513893       -13.9837
 181   2.0000      -0.512339       -13.9415
 182   2.0000      -0.511981       -13.9317
 183   2.0000      -0.509135       -13.8543
 184   2.0000      -0.508766       -13.8442
 185   2.0000      -0.505272       -13.7491
 186   2.0000      -0.503638       -13.7047
 187   2.0000      -0.499360       -13.5883
 188   2.0000      -0.499219       -13.5844
 189   2.0000      -0.493738       -13.4353
 190   2.0000      -0.492427       -13.3996
 191   2.0000      -0.490501       -13.3472
 192   2.0000      -0.490054       -13.3350
 193   2.0000      -0.482686       -13.1346
 194   2.0000      -0.481475       -13.1016
 195   2.0000      -0.480302       -13.0697
 196   2.0000      -0.474514       -12.9122
 197   2.0000      -0.471288       -12.8244
 198   2.0000      -0.467771       -12.7287
 199   2.0000      -0.466693       -12.6994
 200   2.0000      -0.466202       -12.6860
 201   2.0000      -0.465312       -12.6618
 202   2.0000      -0.464873       -12.6498
 203   2.0000      -0.459088       -12.4924
 204   2.0000      -0.458793       -12.4844
 205   2.0000      -0.456987       -12.4352
 206   2.0000      -0.450212       -12.2509
 207   2.0000      -0.446821       -12.1586
 208   2.0000      -0.443575       -12.0703
 209   2.0000      -0.440820       -11.9953
 210   2.0000      -0.437330       -11.9004
 211   2.0000      -0.434800       -11.8315
 212   2.0000      -0.432867       -11.7789
 213   2.0000      -0.432794       -11.7769
 214   2.0000      -0.431700       -11.7472
 215   2.0000      -0.425031       -11.5657
 216   2.0000      -0.424067       -11.5395
 217   2.0000      -0.420038       -11.4298
 218   2.0000      -0.416616       -11.3367
 219   2.0000      -0.414559       -11.2807
 220   2.0000      -0.409781       -11.1507
 221   2.0000      -0.409240       -11.1360
 222   2.0000      -0.404786       -11.0148
 223   2.0000      -0.401856       -10.9350
 224   2.0000      -0.391632       -10.6568
 225   2.0000      -0.391086       -10.6420
 226   2.0000      -0.383661       -10.4400
 227   2.0000      -0.379313       -10.3216
 228   2.0000      -0.374143       -10.1810
 229   2.0000      -0.371170       -10.1001
 230   2.0000      -0.369804       -10.0629
 231   2.0000      -0.356202        -9.6927
 232   2.0000      -0.352952        -9.6043
 233   2.0000      -0.340363        -9.2617
 234   2.0000      -0.337711        -9.1896
 235   2.0000      -0.337279        -9.1778
 236   2.0000      -0.333204        -9.0669
 237   2.0000      -0.332251        -9.0410
 238   2.0000      -0.327873        -8.9219
 239   2.0000      -0.326260        -8.8780
 240   2.0000      -0.324246        -8.8232
 241   2.0000      -0.321153        -8.7390
 242   2.0000      -0.316226        -8.6049
 243   2.0000      -0.313202        -8.5227
 244   2.0000      -0.293294        -7.9809
 245   2.0000      -0.292075        -7.9478
 246   2.0000      -0.291050        -7.9199
 247   2.0000      -0.278736        -7.5848
 248   2.0000      -0.254393        -6.9224
 249   2.0000      -0.238784        -6.4976
 250   2.0000      -0.214628        -5.8403
 251   0.0000      -0.084904        -2.3104
 252   0.0000      -0.056289        -1.5317
 253   0.0000      -0.054500        -1.4830
 254   0.0000      -0.033231        -0.9043
 255   0.0000      -0.016687        -0.4541

MULLIKEN ATOMIC CHARGES
-----------------------
   0 C :   -0.028604
   1 C :    0.072736
   2 C :   -0.015532
   3 C :   -0.050426
   4 C :    0.029473
   5 C :    0.022218
   6 S :    0.086374
   7 C :   -0.090187
   8 N :   -0.034904
   9 C :   -0.041700
  10 S :    0.135062
  11 C :   -0.027742
  12 C :   -0.011779
  13 C :    0.024662
  14 C :   -0.036331
  15 C :    0.001158
  16 C :   -0.014272
  17 C :   -0.025268
  18 S :    0.123204
  19 C :   -0.048580
  20 S :    0.120849
  21 C :   -0.069362
  22 C :    0.008581
  23 C :   -0.009630
  24 C :    0.045760
  25 C :   -0.012596
  26 C :   -0.148805
  27 S :    0.129517
  28 C :   -0.064621
  29 C :    0.067219
  30 C :    0.128415
  31 N :   -0.039327
  32 C :    0.137556
  33 N :    0.289568
  34 O :   -0.273689
  35 O :   -0.241298
  36 C :   -0.089896
  37 C :   -0.065652
  38 S :    0.112248
  39 C :   -0.025704
  40 C :   -0.003007
  41 C :   -0.008922
  42 C :   -0.038932
  43 C :   -0.007436
  44 C :   -0.001884
  45 C :   -0.030479
  46 S :    0.126235
  47 C :   -0.045190
  48 S :    0.137377
  49 C :   -0.079802
  50 C :    0.022267
  51 C :   -0.002118
  52 C :    0.081692
  53 C :    0.042624
  54 C :   -0.114119
  55 N :   -0.037133
  56 C :    0.068660
  57 C :   -0.024616
  58 C :    0.020630
  59 C :    0.027183
  60 C :   -0.045757
  61 C :   -0.025392
  62 S :    0.083935
  63 H :   -0.025158
  64 H :   -0.020568
  65 H :   -0.013210
  66 H :   -0.014307
  67 H :   -0.017228
  68 H :   -0.002007
  69 H :   -0.018860
  70 H :   -0.012395
  71 H :   -0.022516
  72 H :   -0.011517
  73 H :   -0.014465
  74 H :   -0.024635
  75 H :    0.139853
  76 H :    0.000592
  77 H :   -0.007516
  78 H :   -0.006970
  79 H :   -0.010344
  80 H :   -0.015999
  81 H :   -0.015327
  82 H :   -0.018916
  83 H :    0.007996
  84 H :   -0.015588
  85 H :   -0.026779
  86 H :   -0.014648
  87 H :   -0.012178
  88 H :   -0.021819
Sum of atomic charges:   -0.0000000

LOEWDIN ATOMIC CHARGES
----------------------
   0 C :   -0.020656
   1 C :   -0.031886
   2 C :   -0.169829
   3 C :   -0.041993
   4 C :   -0.027335
   5 C :   -0.027988
   6 S :    0.361771
   7 C :   -0.121263
   8 N :   -0.100513
   9 C :   -0.211549
  10 S :    0.431632
  11 C :   -0.173996
  12 C :   -0.057489
  13 C :   -0.018300
  14 C :   -0.187610
  15 C :   -0.048051
  16 C :   -0.062800
  17 C :   -0.178546
  18 S :    0.429472
  19 C :   -0.187212
  20 S :    0.432335
  21 C :   -0.166353
  22 C :   -0.057838
  23 C :   -0.058007
  24 C :   -0.057270
  25 C :   -0.038459
  26 C :   -0.206807
  27 S :    0.454771
  28 C :   -0.174924
  29 C :   -0.076960
  30 C :    0.000035
  31 N :    0.063944
  32 C :   -0.003307
  33 N :    0.280500
  34 O :   -0.230453
  35 O :   -0.202158
  36 C :   -0.030350
  37 C :   -0.184926
  38 S :    0.440613
  39 C :   -0.176978
  40 C :   -0.058828
  41 C :   -0.053049
  42 C :   -0.183572
  43 C :   -0.057901
  44 C :   -0.050305
  45 C :   -0.182476
  46 S :    0.431775
  47 C :   -0.182858
  48 S :    0.438558
  49 C :   -0.176581
  50 C :   -0.042779
  51 C :   -0.052713
  52 C :    0.003551
  53 C :   -0.065875
  54 C :   -0.106072
  55 N :   -0.103398
  56 C :   -0.031518
  57 C :   -0.021121
  58 C :   -0.028364
  59 C :   -0.028112
  60 C :   -0.042306
  61 C :   -0.172136
  62 S :    0.364857
  63 H :    0.033483
  64 H :    0.029694
  65 H :    0.028511
  66 H :    0.028511
  67 H :    0.030172
  68 H :    0.038579
  69 H :    0.030362
  70 H :    0.027205
  71 H :    0.026866
  72 H :    0.027120
  73 H :    0.021239
  74 H :    0.029137
  75 H :    0.092990
  76 H :    0.034351
  77 H :    0.029071
  78 H :    0.028652
  79 H :    0.027970
  80 H :    0.030975
  81 H :    0.030521
  82 H :    0.029935
  83 H :    0.037492
  84 H :    0.026214
  85 H :    0.032903
  86 H :    0.028331
  87 H :    0.028471
  88 H :    0.029199

  Mayer bond orders larger than 0.100000
B(  0-C ,  1-C ) :   1.3290 B(  0-C ,  5-C ) :   1.4002 B(  0-C , 63-H ) :   1.0065
B(  1-C ,  2-C ) :   1.3057 B(  1-C ,  8-N ) :   1.2843 B(  2-C ,  3-C ) :   1.3579
B(  2-C ,  6-S ) :   1.0495 B(  3-C ,  4-C ) :   1.4211 B(  3-C , 64-H ) :   1.0019
B(  4-C ,  5-C ) :   1.3433 B(  4-C , 65-H ) :   0.9900 B(  5-C , 66-H ) :   0.9880
B(  6-S ,  7-C ) :   1.0611 B(  6-S ,  8-N ) :   0.1036 B(  7-C ,  8-N ) :   1.8115
B(  7-C ,  9-C ) :   1.0696 B(  9-C , 10-S ) :   1.1153 B(  9-C , 11-C ) :   0.1182
B(  9-C , 13-C ) :   1.5188 B( 10-S , 11-C ) :   1.1337 B( 11-C , 12-C ) :   1.5081
B( 11-C , 14-C ) :   1.1092 B( 12-C , 13-C ) :   1.2551 B( 12-C , 67-H ) :   0.9982
B( 13-C , 68-H ) :   1.0049 B( 14-C , 15-C ) :   1.5262 B( 14-C , 17-C ) :   0.1069
B( 14-C , 18-S ) :   1.1113 B( 15-C , 16-C ) :   1.2675 B( 15-C , 69-H ) :   0.9960
B( 16-C , 17-C ) :   1.4972 B( 16-C , 70-H ) :   0.9928 B( 17-C , 18-S ) :   1.1250
B( 17-C , 19-C ) :   1.1555 B( 19-C , 20-S ) :   1.1256 B( 19-C , 23-C ) :   1.4865
B( 20-S , 21-C ) :   1.1118 B( 21-C , 22-C ) :   1.4912 B( 21-C , 24-C ) :   1.1278
B( 22-C , 23-C ) :   1.2852 B( 22-C , 71-H ) :   0.9913 B( 23-C , 72-H ) :   0.9913
B( 24-C , 25-C ) :   1.6489 B( 24-C , 73-H ) :   0.9609 B( 25-C , 26-C ) :   1.1934
B( 25-C , 74-H ) :   0.9759 B( 26-C , 27-S ) :   1.0718 B( 26-C , 28-C ) :   0.1061
B( 26-C , 30-C ) :   1.3922 B( 27-S , 28-C ) :   1.1492 B( 28-C , 29-C ) :   1.3382
B( 28-C , 37-C ) :   1.2125 B( 29-C , 30-C ) :   1.2178 B( 29-C , 36-C ) :   1.1429
B( 30-C , 31-N ) :   1.1833 B( 31-N , 32-C ) :   1.1657 B( 31-N , 75-H ) :   0.9103
B( 32-C , 33-N ) :   0.9334 B( 32-C , 36-C ) :   1.5252 B( 33-N , 34-O ) :   1.4650
B( 33-N , 35-O ) :   1.5376 B( 34-O , 35-O ) :   0.2675 B( 36-C , 76-H ) :   1.0149
B( 37-C , 38-S ) :   1.1108 B( 37-C , 41-C ) :   1.4582 B( 38-S , 39-C ) :   1.1200
B( 39-C , 40-C ) :   1.4809 B( 39-C , 42-C ) :   1.1605 B( 40-C , 41-C ) :   1.2893
B( 40-C , 77-H ) :   0.9918 B( 41-C , 78-H ) :   0.9937 B( 42-C , 43-C ) :   1.4897
B( 42-C , 45-C ) :   0.1063 B( 42-C , 46-S ) :   1.1203 B( 43-C , 44-C ) :   1.2735
B( 43-C , 79-H ) :   0.9921 B( 44-C , 45-C ) :   1.5187 B( 44-C , 80-H ) :   0.9961
B( 45-C , 46-S ) :   1.1155 B( 45-C , 47-C ) :   1.1129 B( 47-C , 48-S ) :   1.1359
B( 47-C , 49-C ) :   0.1055 B( 47-C , 51-C ) :   1.4979 B( 48-S , 49-C ) :   1.1119
B( 49-C , 50-C ) :   1.4875 B( 49-C , 52-C ) :   1.1063 B( 50-C , 51-C ) :   1.2916
B( 50-C , 81-H ) :   0.9914 B( 51-C , 82-H ) :   0.9964 B( 52-C , 53-C ) :   1.7306
B( 52-C , 83-H ) :   0.9637 B( 53-C , 54-C ) :   1.0881 B( 53-C , 84-H ) :   0.9506
B( 54-C , 55-N ) :   1.7651 B( 54-C , 62-S ) :   1.0517 B( 55-N , 56-C ) :   1.2960
B( 55-N , 62-S ) :   0.1015 B( 56-C , 57-C ) :   1.3283 B( 56-C , 61-C ) :   1.3021
B( 57-C , 58-C ) :   1.4034 B( 57-C , 85-H ) :   1.0067 B( 58-C , 59-C ) :   1.3390
B( 58-C , 86-H ) :   0.9888 B( 59-C , 60-C ) :   1.4255 B( 59-C , 87-H ) :   0.9898
B( 60-C , 61-C ) :   1.3560 B( 60-C , 88-H ) :   1.0026 B( 61-C , 62-S ) :   1.0537

-----------------------------------------------------------------------------
         ABSORPTION SPECTRUM VIA TRANSITION ELECTRIC DIPOLE MOMENTS
-----------------------------------------------------------------------------
State   Energy  Wavelength   fosc         T2         TX        TY        TZ
        (cm-1)    (nm)                  (au**2)     (au)      (au)      (au)
-----------------------------------------------------------------------------
   0   14131.7    707.6   1.719068079  40.04742   3.40048   0.88370  -5.26339
   1   20659.0    484.1   1.568991379  25.00272   3.85415   0.00827  -3.18561
   2   21447.0    466.3   0.466482271   7.16053   1.44013  -0.83062   2.09681
   3   22788.3    438.8   0.101270248   1.46300   0.74194  -0.24292   0.92386
   4   25683.5    389.4   0.124542706   1.59640   0.55713   0.10495  -1.12916
   5   26243.5    381.0   0.402976218   5.05513  -0.10567  -0.65188   2.14919
   6   28525.8    350.6   0.038710141   0.44675   0.38659   0.38211   0.38896
   7   29541.2    338.5   0.359667450   4.00819  -0.58459  -0.43156   1.86553
   8   30159.3    331.6   0.049709587   0.54262   0.38223   0.29027  -0.55880
   9   31906.6    313.4   0.142349105   1.46876   0.59572  -0.79187   0.69773
  10   32784.3    305.0   0.049272185   0.49478   0.61640  -0.16397   0.29656
  11   33068.0    302.4   0.163799891   1.63073  -1.23463   0.09280  -0.31274
  12   33749.9    296.3   0.431828624   4.21226   1.34372  -0.87029   1.28424
  13   34268.0    291.8   0.068852274   0.66146   0.18418   0.18346  -0.77064
  14   34886.6    286.6   0.044597483   0.42085  -0.56717  -0.02147   0.31418
  15   35118.1    284.8   0.086103059   0.80717  -0.52045   0.41126  -0.60594
  16   35560.8    281.2   0.102481879   0.94875  -0.96699   0.02704   0.11377
  17   36299.8    275.5   0.104243097   0.94541   0.10314  -0.33472   0.90704
  18   36926.5    270.8   0.042203499   0.37626   0.50133  -0.26922  -0.22901
  19   36986.2    270.4   0.010571392   0.09410  -0.08671   0.06400  -0.28720
  20   37200.6    268.8   0.038796924   0.34334  -0.50182   0.20105  -0.22603
  21   37295.6    268.1   0.001836927   0.01621  -0.10678  -0.01760  -0.06711
  22   37757.2    264.9   0.025759331   0.22460   0.45464   0.12889  -0.03589
  23   38376.5    260.6   0.122608790   1.05180  -1.01449   0.08329  -0.12521
  24   39127.9    255.6   0.022404966   0.18851  -0.27269   0.30872  -0.13727
  25   39250.1    254.8   0.012375623   0.10380   0.13205  -0.14022   0.25827
  26   39310.5    254.4   0.008181837   0.06852   0.06703   0.07450  -0.24182
  27   39736.8    251.7   0.025574206   0.21188   0.39759  -0.18738   0.13671
  28   40052.2    249.7   0.019014982   0.15630   0.39016  -0.05716  -0.02834
  29   40212.6    248.7   0.050993471   0.41747   0.62116  -0.16605   0.06371

FINAL SINGLE POINT ENERGY     -5793.961185358346

DIPOLE MOMENT
-------------
                                X             Y             Z
Electronic contribution:     -8.48649       6.10173     -18.14959
Nuclear contribution   :      8.55583      -6.60070      18.95061
                        -----------------------------------------
Total Dipole Moment    :      0.06934      -0.49897       0.80102
                        -----------------------------------------
Magnitude (a.u.)       :      0.94626
Magnitude (Debye)      :      2.40521

Rotational constants in cm-1:     0.001734     0.000135     0.000126
Rotational constants in MHz :    51.983827     4.049549     3.769989

                             ****ORCA TERMINATED NORMALLY****
TOTAL RUN TIME: 0 days 0 hours 14 minutes 0 seconds 186 msec
