                         Program Version 4.2.0 -  RELEASE  -
|  1> # ORCA input file
|  2> # SCF done       -216.797967828564          0.000458177612
|  3> ! CAM-B3LYP def2-SVP def2/J RIJCOSX Grid4 TightSCF
|  4> %maxcore 5000
|  5> %tddft
|  6>     Mode sTDDFT
|  7>     Ethresh 5.0
|  8>     maxcore 5000
|  9> end
| 10>
| 11> %pal
| 12>   nprocs 6
| 13>   end
| 14> * xyz 0 1
| 15>    C       -2.12296        -3.12651        -5.29620
| 16>    C       -2.29305        -4.46282        -5.53463
| 17>    C       -3.29055        -4.98806        -6.38429
| 18>    N       -4.09638        -5.47181        -7.04255
| 19>    C       -1.45150        -5.48317        -5.03999
| 20>    N       -0.78603        -6.36675        -4.73547
| 21>    C       -2.80893        -2.05327        -6.01259
| 22>    C       -2.06877        -0.86476        -5.87238
| 23>    C       -2.45699         0.30727        -6.48940
| 24>    C       -3.61646         0.29749        -7.25466
| 25>    C       -4.36747        -0.87725        -7.38467
| 26>    C       -3.96893        -2.05859        -6.76951
| 27>   Cl       -5.80725        -0.86934        -8.31945
| 28>   Cl       -4.12979         1.73413        -8.04178
| 29>    C       -0.90374        -1.10818        -4.99437
| 30>    O       -0.02610        -0.33570        -4.69183
| 31>    C       -1.06971        -2.50740        -4.51007
| 32>    C       -0.33933        -2.94332        -3.45549
| 33>    C       -0.55241        -4.11030        -2.64171
| 34>    C       -1.84843        -4.57445        -2.35999
| 35>    C       -2.01213        -5.71454        -1.61408
| 36>    C       -0.88373        -6.40050        -1.12377
| 37>    C        0.39863        -5.92593        -1.35946
| 38>    C        0.55549        -4.77565        -2.10244
| 39>    C       -1.33179        -7.55164        -0.37488
| 40>    C       -2.73583        -7.57619        -0.39113
| 41>    C       -3.28450        -6.42967        -1.21334
| 42>    C       -4.22068        -5.53393        -0.38807
| 43>    C       -3.57410        -5.05676         0.90775
| 44>    C       -3.99488        -7.04053        -2.44589
| 45>    C       -4.79272        -6.06935        -3.30583
| 46>    C       -3.42338        -8.57162         0.25861
| 47>    C       -2.71222        -9.57584         0.92997
| 48>    C       -1.31130        -9.53470         0.94599
| 49>    C       -0.61869        -8.53092         0.30194
| 50>    C       -3.41573       -10.64227         1.59654
| 51>    S       -5.06484       -10.45343         2.13903
| 52>    C       -5.18562       -12.05605         2.79651
| 53>    C       -3.98165       -12.72388         2.59314
| 54>    C       -2.99868       -11.91350         1.92528
| 55>    N       -1.86751       -12.65898         1.77684
| 56>    C       -2.10238       -13.89303         2.33407
| 57>    N       -1.08632       -14.86235         2.31841
| 58>    O       -0.03199       -14.53650         1.79232
| 59>    O       -1.31740       -15.94611         2.81735
| 60>    C       -3.37367       -13.97459         2.85525
| 61>    C       -6.39145       -12.50514         3.43636
| 62>    C       -7.31448       -11.57279         3.93650
| 63>    C       -8.44099       -12.01715         4.58099
| 64>    C       -8.68472       -13.39502         4.72865
| 65>    C       -7.79229       -14.32461         4.21223
| 66>    C       -6.65556       -13.87594         3.57365
| 67>    C       -9.92124       -13.56926         5.45537
| 68>    C      -10.44277       -12.29721         5.76092
| 69>    C       -9.54212       -11.20890         5.22522
| 70>    C       -8.99443       -10.32841         6.36474
| 71>    C       -8.25255       -11.12916         7.42836
| 72>    C      -10.27106       -10.32715         4.19425
| 73>    C      -10.84344       -11.12722         3.03043
| 74>    C      -11.61670       -12.17836         6.45783
| 75>    C      -12.27677       -13.33776         6.90810
| 76>    C      -11.76350       -14.59769         6.56689
| 77>    C      -10.59743       -14.71911         5.84077
| 78>    C      -13.49019       -13.17131         7.65800
| 79>    C      -13.99063       -13.96106         8.64665
| 80>    C      -15.27650       -13.76403         9.30092
| 81>    C      -16.31357       -12.99518         8.84622
| 82>    C      -17.55040       -12.86143         9.51378
| 83>    N      -18.57396       -12.70575        10.00856
| 84>    C      -16.31392       -12.25185         7.64569
| 85>    N      -16.40283       -11.63400         6.68202
| 86>    C      -15.30106       -14.60089        10.49537
| 87>    C      -14.10675       -15.33801        10.55659
| 88>    C      -13.24396       -15.00310         9.40210
| 89>    O      -12.14038       -15.44954         9.18802
| 90>    C      -13.84770       -16.22230        11.58407
| 91>    C      -14.80669       -16.37813        12.57658
| 92>    C      -15.99893       -15.64543        12.52587
| 93>    C      -16.25463       -14.75488        11.48960
| 94>   Cl      -17.17221       -15.84123        13.76407
| 95>   Cl      -14.52641       -17.47203        13.86935
| 96>    H       -1.87140         1.20636        -6.38025
| 97>    H       -4.57201        -2.94418        -6.88753
| 98>    H        0.48831        -2.29965        -3.17282
| 99>    H       -2.69500        -3.99836        -2.70384
|100>    H        1.25868        -6.44627        -0.96714
|101>    H        1.54435        -4.39662        -2.31298
|102>    H       -5.12922        -6.09377        -0.15727
|103>    H       -4.49952        -4.66492        -0.98502
|104>    H       -3.31838        -5.89913         1.54642
|105>    H       -4.25864        -4.40909         1.45053
|106>    H       -2.66455        -4.49746         0.69870
|107>    H       -4.67075        -7.82216        -2.09250
|108>    H       -3.23021        -7.51912        -3.06325
|109>    H       -5.64142        -5.66257        -2.76224
|110>    H       -5.17028        -6.59172        -4.18209
|111>    H       -4.17471        -5.24687        -3.65306
|112>    H       -4.50364        -8.60255         0.25639
|113>    H       -0.76582       -10.27990         1.50376
|114>    H        0.45989        -8.50972         0.32905
|115>    H       -1.01515       -12.43051         1.29091
|116>    H       -3.77441       -14.82682         3.36378
|117>    H       -7.11278       -10.51705         3.82487
|118>    H       -7.98225       -15.38274         4.30696
|119>    H       -5.96834       -14.58728         3.14680
|120>    H       -9.82930        -9.79782         6.82694
|121>    H       -8.32119        -9.58292         5.93661
|122>    H       -8.90765       -11.86973         7.88180
|123>    H       -7.89152       -10.46545         8.21045
|124>    H       -7.39897       -11.64644         6.99582
|125>    H       -9.56778        -9.58411         3.81263
|126>    H      -11.07902        -9.79443         4.69949
|127>    H      -10.05308       -11.65114         2.49728
|128>    H      -11.34652       -10.46203         2.33285
|129>    H      -11.56388       -11.86105         3.38464
|130>    H      -12.02772       -11.20812         6.69745
|131>    H      -12.30720       -15.48327         6.84976
|132>    H      -10.21771       -15.69497         5.58026
|133>    H      -14.04123       -12.26834         7.41986
|134>    H      -12.92344       -16.77765        11.61068
|135>    H      -17.18097       -14.20432        11.48704
|136> *
|137>
|138>                          ****END OF INPUT****

CARTESIAN COORDINATES (ANGSTROEM)
---------------------------------
  C     -2.122960   -3.126510   -5.296200
  C     -2.293050   -4.462820   -5.534630
  C     -3.290550   -4.988060   -6.384290
  N     -4.096380   -5.471810   -7.042550
  C     -1.451500   -5.483170   -5.039990
  N     -0.786030   -6.366750   -4.735470
  C     -2.808930   -2.053270   -6.012590
  C     -2.068770   -0.864760   -5.872380
  C     -2.456990    0.307270   -6.489400
  C     -3.616460    0.297490   -7.254660
  C     -4.367470   -0.877250   -7.384670
  C     -3.968930   -2.058590   -6.769510
  Cl    -5.807250   -0.869340   -8.319450
  Cl    -4.129790    1.734130   -8.041780
  C     -0.903740   -1.108180   -4.994370
  O     -0.026100   -0.335700   -4.691830
  C     -1.069710   -2.507400   -4.510070
  C     -0.339330   -2.943320   -3.455490
  C     -0.552410   -4.110300   -2.641710
  C     -1.848430   -4.574450   -2.359990
  C     -2.012130   -5.714540   -1.614080
  C     -0.883730   -6.400500   -1.123770
  C      0.398630   -5.925930   -1.359460
  C      0.555490   -4.775650   -2.102440
  C     -1.331790   -7.551640   -0.374880
  C     -2.735830   -7.576190   -0.391130
  C     -3.284500   -6.429670   -1.213340
  C     -4.220680   -5.533930   -0.388070
  C     -3.574100   -5.056760    0.907750
  C     -3.994880   -7.040530   -2.445890
  C     -4.792720   -6.069350   -3.305830
  C     -3.423380   -8.571620    0.258610
  C     -2.712220   -9.575840    0.929970
  C     -1.311300   -9.534700    0.945990
  C     -0.618690   -8.530920    0.301940
  C     -3.415730  -10.642270    1.596540
  S     -5.064840  -10.453430    2.139030
  C     -5.185620  -12.056050    2.796510
  C     -3.981650  -12.723880    2.593140
  C     -2.998680  -11.913500    1.925280
  N     -1.867510  -12.658980    1.776840
  C     -2.102380  -13.893030    2.334070
  N     -1.086320  -14.862350    2.318410
  O     -0.031990  -14.536500    1.792320
  O     -1.317400  -15.946110    2.817350
  C     -3.373670  -13.974590    2.855250
  C     -6.391450  -12.505140    3.436360
  C     -7.314480  -11.572790    3.936500
  C     -8.440990  -12.017150    4.580990
  C     -8.684720  -13.395020    4.728650
  C     -7.792290  -14.324610    4.212230
  C     -6.655560  -13.875940    3.573650
  C     -9.921240  -13.569260    5.455370
  C    -10.442770  -12.297210    5.760920
  C     -9.542120  -11.208900    5.225220
  C     -8.994430  -10.328410    6.364740
  C     -8.252550  -11.129160    7.428360
  C    -10.271060  -10.327150    4.194250
  C    -10.843440  -11.127220    3.030430
  C    -11.616700  -12.178360    6.457830
  C    -12.276770  -13.337760    6.908100
  C    -11.763500  -14.597690    6.566890
  C    -10.597430  -14.719110    5.840770
  C    -13.490190  -13.171310    7.658000
  C    -13.990630  -13.961060    8.646650
  C    -15.276500  -13.764030    9.300920
  C    -16.313570  -12.995180    8.846220
  C    -17.550400  -12.861430    9.513780
  N    -18.573960  -12.705750   10.008560
  C    -16.313920  -12.251850    7.645690
  N    -16.402830  -11.634000    6.682020
  C    -15.301060  -14.600890   10.495370
  C    -14.106750  -15.338010   10.556590
  C    -13.243960  -15.003100    9.402100
  O    -12.140380  -15.449540    9.188020
  C    -13.847700  -16.222300   11.584070
  C    -14.806690  -16.378130   12.576580
  C    -15.998930  -15.645430   12.525870
  C    -16.254630  -14.754880   11.489600
  Cl   -17.172210  -15.841230   13.764070
  Cl   -14.526410  -17.472030   13.869350
  H     -1.871400    1.206360   -6.380250
  H     -4.572010   -2.944180   -6.887530
  H      0.488310   -2.299650   -3.172820
  H     -2.695000   -3.998360   -2.703840
  H      1.258680   -6.446270   -0.967140
  H      1.544350   -4.396620   -2.312980
  H     -5.129220   -6.093770   -0.157270
  H     -4.499520   -4.664920   -0.985020
  H     -3.318380   -5.899130    1.546420
  H     -4.258640   -4.409090    1.450530
  H     -2.664550   -4.497460    0.698700
  H     -4.670750   -7.822160   -2.092500
  H     -3.230210   -7.519120   -3.063250
  H     -5.641420   -5.662570   -2.762240
  H     -5.170280   -6.591720   -4.182090
  H     -4.174710   -5.246870   -3.653060
  H     -4.503640   -8.602550    0.256390
  H     -0.765820  -10.279900    1.503760
  H      0.459890   -8.509720    0.329050
  H     -1.015150  -12.430510    1.290910
  H     -3.774410  -14.826820    3.363780
  H     -7.112780  -10.517050    3.824870
  H     -7.982250  -15.382740    4.306960
  H     -5.968340  -14.587280    3.146800
  H     -9.829300   -9.797820    6.826940
  H     -8.321190   -9.582920    5.936610
  H     -8.907650  -11.869730    7.881800
  H     -7.891520  -10.465450    8.210450
  H     -7.398970  -11.646440    6.995820
  H     -9.567780   -9.584110    3.812630
  H    -11.079020   -9.794430    4.699490
  H    -10.053080  -11.651140    2.497280
  H    -11.346520  -10.462030    2.332850
  H    -11.563880  -11.861050    3.384640
  H    -12.027720  -11.208120    6.697450
  H    -12.307200  -15.483270    6.849760
  H    -10.217710  -15.694970    5.580260
  H    -14.041230  -12.268340    7.419860
  H    -12.923440  -16.777650   11.610680
  H    -17.180970  -14.204320   11.487040

 Total Charge           Charge          ....    0
 Multiplicity           Mult            ....    1
 Number of Electrons    NEL             ....  594
 Basis Dimension        Dim             .... 1354

ORBITAL ENERGIES
----------------

  NO   OCC          E(Eh)            E(eV)
   0   2.0000    -101.605047     -2764.8139
   1   2.0000    -101.604240     -2764.7919
   2   2.0000    -101.603973     -2764.7847
   3   2.0000    -101.602301     -2764.7392
   4   2.0000     -88.973811     -2421.1005
   5   2.0000     -19.248299      -523.7728
   6   2.0000     -19.247823      -523.7599
   7   2.0000     -19.225260      -523.1459
   8   2.0000     -19.225106      -523.1417
   9   2.0000     -14.657849      -398.8604
  10   2.0000     -14.478545      -393.9812
  11   2.0000     -14.424659      -392.5149
  12   2.0000     -14.422521      -392.4568
  13   2.0000     -14.421539      -392.4300
  14   2.0000     -14.420546      -392.4030
  15   2.0000     -10.378016      -282.4002
  16   2.0000     -10.376433      -282.3571
  17   2.0000     -10.364247      -282.0255
  18   2.0000     -10.362288      -281.9722
  19   2.0000     -10.361605      -281.9536
  20   2.0000     -10.360411      -281.9211
  21   2.0000     -10.360003      -281.9100
  22   2.0000     -10.354099      -281.7494
  23   2.0000     -10.352156      -281.6965
  24   2.0000     -10.351451      -281.6773
  25   2.0000     -10.349225      -281.6167
  26   2.0000     -10.328743      -281.0594
  27   2.0000     -10.326664      -281.0028
  28   2.0000     -10.324980      -280.9570
  29   2.0000     -10.323768      -280.9240
  30   2.0000     -10.322981      -280.9026
  31   2.0000     -10.322764      -280.8967
  32   2.0000     -10.322295      -280.8839
  33   2.0000     -10.321405      -280.8597
  34   2.0000     -10.319929      -280.8195
  35   2.0000     -10.318802      -280.7889
  36   2.0000     -10.315340      -280.6947
  37   2.0000     -10.315221      -280.6914
  38   2.0000     -10.313201      -280.6365
  39   2.0000     -10.312990      -280.6307
  40   2.0000     -10.311171      -280.5812
  41   2.0000     -10.308089      -280.4974
  42   2.0000     -10.305662      -280.4313
  43   2.0000     -10.305113      -280.4164
  44   2.0000     -10.304049      -280.3874
  45   2.0000     -10.301044      -280.3057
  46   2.0000     -10.300859      -280.3006
  47   2.0000     -10.300832      -280.2999
  48   2.0000     -10.294901      -280.1385
  49   2.0000     -10.294616      -280.1307
  50   2.0000     -10.294273      -280.1214
  51   2.0000     -10.289544      -279.9927
  52   2.0000     -10.289205      -279.9835
  53   2.0000     -10.288996      -279.9778
  54   2.0000     -10.288529      -279.9651
  55   2.0000     -10.287665      -279.9416
  56   2.0000     -10.287581      -279.9393
  57   2.0000     -10.287188      -279.9286
  58   2.0000     -10.286017      -279.8968
  59   2.0000     -10.285882      -279.8931
  60   2.0000     -10.285251      -279.8759
  61   2.0000     -10.284281      -279.8495
  62   2.0000     -10.283967      -279.8410
  63   2.0000     -10.283847      -279.8377
  64   2.0000     -10.283121      -279.8180
  65   2.0000     -10.283056      -279.8162
  66   2.0000     -10.282531      -279.8019
  67   2.0000     -10.281843      -279.7832
  68   2.0000     -10.281691      -279.7790
  69   2.0000     -10.281588      -279.7762
  70   2.0000     -10.281055      -279.7617
  71   2.0000     -10.280564      -279.7484
  72   2.0000     -10.280023      -279.7337
  73   2.0000     -10.272591      -279.5314
  74   2.0000     -10.271892      -279.5124
  75   2.0000     -10.271552      -279.5031
  76   2.0000     -10.268942      -279.4321
  77   2.0000     -10.258080      -279.1366
  78   2.0000     -10.255741      -279.0729
  79   2.0000     -10.253643      -279.0158
  80   2.0000     -10.253314      -279.0068
  81   2.0000      -9.560053      -260.1423
  82   2.0000      -9.559298      -260.1217
  83   2.0000      -9.558996      -260.1135
  84   2.0000      -9.557302      -260.0674
  85   2.0000      -8.068222      -219.5475
  86   2.0000      -7.330448      -199.4716
  87   2.0000      -7.329712      -199.4516
  88   2.0000      -7.329379      -199.4425
  89   2.0000      -7.327696      -199.3967
  90   2.0000      -7.320315      -199.1959
  91   2.0000      -7.319575      -199.1758
  92   2.0000      -7.319538      -199.1747
  93   2.0000      -7.319271      -199.1675
  94   2.0000      -7.318807      -199.1549
  95   2.0000      -7.318516      -199.1470
  96   2.0000      -7.317561      -199.1209
  97   2.0000      -7.316826      -199.1010
  98   2.0000      -6.037423      -164.2866
  99   2.0000      -6.033321      -164.1750
 100   2.0000      -6.030708      -164.1039
 101   2.0000      -1.327654       -36.1273
 102   2.0000      -1.147369       -31.2215
 103   2.0000      -1.141537       -31.0628
 104   2.0000      -1.140818       -31.0432
 105   2.0000      -1.104063       -30.0431
 106   2.0000      -1.037262       -28.2253
 107   2.0000      -1.035388       -28.1743
 108   2.0000      -1.022431       -27.8218
 109   2.0000      -1.021216       -27.7887
 110   2.0000      -1.003574       -27.3086
 111   2.0000      -1.002400       -27.2767
 112   2.0000      -1.000387       -27.2219
 113   2.0000      -0.999085       -27.1865
 114   2.0000      -0.996928       -27.1278
 115   2.0000      -0.995784       -27.0967
 116   2.0000      -0.991051       -26.9679
 117   2.0000      -0.967065       -26.3152
 118   2.0000      -0.965419       -26.2704
 119   2.0000      -0.963316       -26.2132
 120   2.0000      -0.957727       -26.0611
 121   2.0000      -0.942262       -25.6403
 122   2.0000      -0.938585       -25.5402
 123   2.0000      -0.932412       -25.3722
 124   2.0000      -0.926546       -25.2126
 125   2.0000      -0.914568       -24.8867
 126   2.0000      -0.908147       -24.7119
 127   2.0000      -0.907098       -24.6834
 128   2.0000      -0.895974       -24.3807
 129   2.0000      -0.891643       -24.2628
 130   2.0000      -0.884499       -24.0684
 131   2.0000      -0.872073       -23.7303
 132   2.0000      -0.866876       -23.5889
 133   2.0000      -0.865021       -23.5384
 134   2.0000      -0.861323       -23.4378
 135   2.0000      -0.847962       -23.0742
 136   2.0000      -0.846876       -23.0447
 137   2.0000      -0.845712       -23.0130
 138   2.0000      -0.845102       -22.9964
 139   2.0000      -0.843294       -22.9472
 140   2.0000      -0.842601       -22.9283
 141   2.0000      -0.835398       -22.7323
 142   2.0000      -0.820978       -22.3400
 143   2.0000      -0.800683       -21.7877
 144   2.0000      -0.787360       -21.4252
 145   2.0000      -0.782922       -21.3044
 146   2.0000      -0.774415       -21.0729
 147   2.0000      -0.773938       -21.0599
 148   2.0000      -0.771244       -20.9866
 149   2.0000      -0.770278       -20.9603
 150   2.0000      -0.763433       -20.7741
 151   2.0000      -0.745524       -20.2867
 152   2.0000      -0.734725       -19.9929
 153   2.0000      -0.726029       -19.7562
 154   2.0000      -0.718201       -19.5432
 155   2.0000      -0.713651       -19.4194
 156   2.0000      -0.708173       -19.2704
 157   2.0000      -0.702940       -19.1280
 158   2.0000      -0.701660       -19.0931
 159   2.0000      -0.699185       -19.0258
 160   2.0000      -0.695176       -18.9167
 161   2.0000      -0.692396       -18.8411
 162   2.0000      -0.686758       -18.6876
 163   2.0000      -0.682146       -18.5621
 164   2.0000      -0.681129       -18.5345
 165   2.0000      -0.676774       -18.4159
 166   2.0000      -0.673506       -18.3270
 167   2.0000      -0.672982       -18.3128
 168   2.0000      -0.667514       -18.1640
 169   2.0000      -0.655699       -17.8425
 170   2.0000      -0.650149       -17.6914
 171   2.0000      -0.640364       -17.4252
 172   2.0000      -0.639743       -17.4083
 173   2.0000      -0.635841       -17.3021
 174   2.0000      -0.628540       -17.1034
 175   2.0000      -0.623460       -16.9652
 176   2.0000      -0.621280       -16.9059
 177   2.0000      -0.617236       -16.7958
 178   2.0000      -0.606177       -16.4949
 179   2.0000      -0.605073       -16.4649
 180   2.0000      -0.602563       -16.3966
 181   2.0000      -0.598393       -16.2831
 182   2.0000      -0.593607       -16.1529
 183   2.0000      -0.592313       -16.1177
 184   2.0000      -0.588312       -16.0088
 185   2.0000      -0.584215       -15.8973
 186   2.0000      -0.575763       -15.6673
 187   2.0000      -0.572366       -15.5749
 188   2.0000      -0.564967       -15.3735
 189   2.0000      -0.560268       -15.2457
 190   2.0000      -0.556658       -15.1474
 191   2.0000      -0.554249       -15.0819
 192   2.0000      -0.553724       -15.0676
 193   2.0000      -0.552512       -15.0346
 194   2.0000      -0.552232       -15.0270
 195   2.0000      -0.551235       -14.9999
 196   2.0000      -0.549236       -14.9455
 197   2.0000      -0.546575       -14.8731
 198   2.0000      -0.545165       -14.8347
 199   2.0000      -0.541990       -14.7483
 200   2.0000      -0.540611       -14.7108
 201   2.0000      -0.539076       -14.6690
 202   2.0000      -0.536394       -14.5960
 203   2.0000      -0.535261       -14.5652
 204   2.0000      -0.533495       -14.5171
 205   2.0000      -0.531857       -14.4726
 206   2.0000      -0.530384       -14.4325
 207   2.0000      -0.529340       -14.4041
 208   2.0000      -0.528509       -14.3815
 209   2.0000      -0.525915       -14.3109
 210   2.0000      -0.525638       -14.3033
 211   2.0000      -0.519620       -14.1396
 212   2.0000      -0.515795       -14.0355
 213   2.0000      -0.513410       -13.9706
 214   2.0000      -0.511173       -13.9097
 215   2.0000      -0.509870       -13.8743
 216   2.0000      -0.507832       -13.8188
 217   2.0000      -0.506331       -13.7780
 218   2.0000      -0.501746       -13.6532
 219   2.0000      -0.499624       -13.5954
 220   2.0000      -0.497993       -13.5511
 221   2.0000      -0.495450       -13.4819
 222   2.0000      -0.494287       -13.4502
 223   2.0000      -0.487471       -13.2648
 224   2.0000      -0.486489       -13.2380
 225   2.0000      -0.485215       -13.2034
 226   2.0000      -0.480379       -13.0718
 227   2.0000      -0.479203       -13.0398
 228   2.0000      -0.477788       -13.0013
 229   2.0000      -0.476128       -12.9561
 230   2.0000      -0.473463       -12.8836
 231   2.0000      -0.471953       -12.8425
 232   2.0000      -0.469878       -12.7860
 233   2.0000      -0.463843       -12.6218
 234   2.0000      -0.461035       -12.5454
 235   2.0000      -0.457939       -12.4611
 236   2.0000      -0.456441       -12.4204
 237   2.0000      -0.455758       -12.4018
 238   2.0000      -0.454545       -12.3688
 239   2.0000      -0.452001       -12.2996
 240   2.0000      -0.450531       -12.2596
 241   2.0000      -0.449208       -12.2236
 242   2.0000      -0.448625       -12.2077
 243   2.0000      -0.447035       -12.1644
 244   2.0000      -0.444256       -12.0888
 245   2.0000      -0.441601       -12.0166
 246   2.0000      -0.441120       -12.0035
 247   2.0000      -0.439986       -11.9726
 248   2.0000      -0.437367       -11.9014
 249   2.0000      -0.436481       -11.8772
 250   2.0000      -0.433941       -11.8081
 251   2.0000      -0.433821       -11.8049
 252   2.0000      -0.433418       -11.7939
 253   2.0000      -0.433119       -11.7858
 254   2.0000      -0.432571       -11.7708
 255   2.0000      -0.431296       -11.7362
 256   2.0000      -0.430510       -11.7148
 257   2.0000      -0.430020       -11.7014
 258   2.0000      -0.423811       -11.5325
 259   2.0000      -0.420529       -11.4432
 260   2.0000      -0.419338       -11.4108
 261   2.0000      -0.417246       -11.3538
 262   2.0000      -0.415080       -11.2949
 263   2.0000      -0.414468       -11.2783
 264   2.0000      -0.412285       -11.2188
 265   2.0000      -0.410878       -11.1806
 266   2.0000      -0.406873       -11.0716
 267   2.0000      -0.401431       -10.9235
 268   2.0000      -0.399202       -10.8628
 269   2.0000      -0.398883       -10.8542
 270   2.0000      -0.396153       -10.7799
 271   2.0000      -0.394913       -10.7461
 272   2.0000      -0.393571       -10.7096
 273   2.0000      -0.391702       -10.6588
 274   2.0000      -0.388763       -10.5788
 275   2.0000      -0.386553       -10.5187
 276   2.0000      -0.386280       -10.5112
 277   2.0000      -0.384941       -10.4748
 278   2.0000      -0.377799       -10.2804
 279   2.0000      -0.375033       -10.2052
 280   2.0000      -0.369302       -10.0492
 281   2.0000      -0.352548        -9.5933
 282   2.0000      -0.348989        -9.4965
 283   2.0000      -0.348496        -9.4831
 284   2.0000      -0.346333        -9.4242
 285   2.0000      -0.338829        -9.2200
 286   2.0000      -0.334076        -9.0907
 287   2.0000      -0.332769        -9.0551
 288   2.0000      -0.332103        -9.0370
 289   2.0000      -0.326675        -8.8893
 290   2.0000      -0.324572        -8.8321
 291   2.0000      -0.317937        -8.6515
 292   2.0000      -0.316028        -8.5996
 293   2.0000      -0.315349        -8.5811
 294   2.0000      -0.298060        -8.1106
 295   2.0000      -0.282823        -7.6960
 296   2.0000      -0.243672        -6.6307
 297   0.0000      -0.096326        -2.6212
 298   0.0000      -0.093446        -2.5428
 299   0.0000      -0.076239        -2.0746
 300   0.0000      -0.068224        -1.8565
 301   0.0000      -0.066017        -1.7964

MULLIKEN ATOMIC CHARGES
-----------------------
   0 C :    0.267161
   1 C :   -0.343606
   2 C :   -0.191965
   3 N :    0.167257
   4 C :   -0.186516
   5 N :    0.186021
   6 C :    0.016654
   7 C :    0.002037
   8 C :   -0.031541
   9 C :    0.060211
  10 C :    0.051463
  11 C :   -0.017641
  12 Cl:   -0.034247
  13 Cl:   -0.040128
  14 C :    0.135696
  15 O :   -0.134144
  16 C :   -0.115351
  17 C :    0.029741
  18 C :    0.052820
  19 C :   -0.084776
  20 C :    0.035438
  21 C :    0.128227
  22 C :   -0.042651
  23 C :    0.020847
  24 C :    0.096915
  25 C :    0.030918
  26 C :   -0.137666
  27 C :    0.046046
  28 C :    0.023222
  29 C :    0.068608
  30 C :    0.037778
  31 C :   -0.128880
  32 C :    0.129437
  33 C :   -0.048802
  34 C :   -0.039327
  35 C :   -0.189380
  36 S :    0.136053
  37 C :   -0.131539
  38 C :    0.111021
  39 C :    0.134716
  40 N :   -0.045074
  41 C :    0.137937
  42 N :    0.289967
  43 O :   -0.267540
  44 O :   -0.238985
  45 C :   -0.103202
  46 C :    0.134506
  47 C :   -0.121112
  48 C :    0.019053
  49 C :    0.107010
  50 C :   -0.041926
  51 C :   -0.033227
  52 C :    0.125210
  53 C :    0.013382
  54 C :   -0.139989
  55 C :    0.064819
  56 C :    0.025196
  57 C :    0.069295
  58 C :    0.022106
  59 C :   -0.091465
  60 C :    0.070294
  61 C :    0.076911
  62 C :   -0.064924
  63 C :   -0.032322
  64 C :   -0.077102
  65 C :    0.295828
  66 C :   -0.335647
  67 C :   -0.188659
  68 N :    0.158124
  69 C :   -0.203278
  70 N :    0.165768
  71 C :    0.032079
  72 C :   -0.019865
  73 C :    0.141825
  74 O :   -0.133728
  75 C :   -0.028558
  76 C :    0.059580
  77 C :    0.047396
  78 C :   -0.008796
  79 Cl:   -0.033261
  80 Cl:   -0.040950
  81 H :    0.002126
  82 H :    0.003951
  83 H :    0.027224
  84 H :   -0.021762
  85 H :   -0.028484
  86 H :   -0.017477
  87 H :    0.003243
  88 H :    0.009151
  89 H :    0.021440
  90 H :    0.011895
  91 H :    0.019828
  92 H :   -0.001618
  93 H :    0.018909
  94 H :    0.011072
  95 H :    0.029978
  96 H :   -0.006338
  97 H :   -0.027310
  98 H :   -0.039277
  99 H :   -0.028560
 100 H :    0.143118
 101 H :   -0.001997
 102 H :   -0.027346
 103 H :   -0.027705
 104 H :   -0.027083
 105 H :   -0.000261
 106 H :    0.000338
 107 H :    0.024131
 108 H :    0.011916
 109 H :    0.021700
 110 H :   -0.001477
 111 H :    0.002439
 112 H :    0.020817
 113 H :    0.014166
 114 H :    0.023477
 115 H :   -0.028203
 116 H :   -0.015532
 117 H :   -0.028583
 118 H :    0.029642
 119 H :    0.000303
 120 H :    0.001350
Sum of atomic charges:   -0.0000000

LOEWDIN ATOMIC CHARGES
----------------------
   0 C :    0.065683
   1 C :   -0.130505
   2 C :   -0.020081
   3 N :   -0.045411
   4 C :   -0.018025
   5 N :   -0.035673
   6 C :   -0.012057
   7 C :   -0.045741
   8 C :    0.002235
   9 C :   -0.134240
  10 C :   -0.129155
  11 C :   -0.014923
  12 Cl:    0.163811
  13 Cl:    0.160753
  14 C :    0.084119
  15 O :   -0.134296
  16 C :   -0.096115
  17 C :    0.087969
  18 C :   -0.046837
  19 C :   -0.006921
  20 C :    0.007564
  21 C :    0.008965
  22 C :   -0.011830
  23 C :    0.008404
  24 C :   -0.024177
  25 C :    0.016352
  26 C :   -0.033322
  27 C :   -0.015220
  28 C :   -0.056679
  29 C :   -0.010252
  30 C :   -0.057992
  31 C :   -0.031670
  32 C :   -0.027733
  33 C :   -0.032242
  34 C :   -0.005974
  35 C :   -0.207718
  36 S :    0.473098
  37 C :   -0.164599
  38 C :   -0.066467
  39 C :    0.000259
  40 N :    0.060734
  41 C :   -0.001778
  42 N :    0.280638
  43 O :   -0.225631
  44 O :   -0.200219
  45 C :   -0.030856
  46 C :   -0.029956
  47 C :   -0.028734
  48 C :    0.012135
  49 C :   -0.022144
  50 C :   -0.006909
  51 C :   -0.017549
  52 C :    0.007117
  53 C :   -0.002447
  54 C :   -0.035847
  55 C :   -0.011370
  56 C :   -0.057509
  57 C :   -0.011283
  58 C :   -0.057503
  59 C :    0.000929
  60 C :   -0.044301
  61 C :    0.028051
  62 C :   -0.020414
  63 C :    0.086780
  64 C :   -0.098887
  65 C :    0.074614
  66 C :   -0.133034
  67 C :   -0.020144
  68 N :   -0.044753
  69 C :   -0.024422
  70 N :   -0.044930
  71 C :   -0.014976
  72 C :   -0.043492
  73 C :    0.082019
  74 O :   -0.127917
  75 C :    0.000965
  76 C :   -0.133747
  77 C :   -0.129997
  78 C :   -0.011958
  79 Cl:    0.163438
  80 Cl:    0.160618
  81 H :    0.046920
  82 H :    0.044474
  83 H :    0.047735
  84 H :    0.024961
  85 H :    0.030170
  86 H :    0.031908
  87 H :    0.021401
  88 H :    0.021584
  89 H :    0.024832
  90 H :    0.025021
  91 H :    0.025298
  92 H :    0.022191
  93 H :    0.030876
  94 H :    0.022633
  95 H :    0.034171
  96 H :    0.014729
  97 H :    0.018618
  98 H :    0.021537
  99 H :    0.030173
 100 H :    0.089334
 101 H :    0.038442
 102 H :    0.018613
 103 H :    0.030700
 104 H :    0.029368
 105 H :    0.020666
 106 H :    0.020837
 107 H :    0.026158
 108 H :    0.025627
 109 H :    0.025539
 110 H :    0.020450
 111 H :    0.021738
 112 H :    0.024986
 113 H :    0.026352
 114 H :    0.026028
 115 H :    0.028939
 116 H :    0.031450
 117 H :    0.030317
 118 H :    0.045784
 119 H :    0.046059
 120 H :    0.044698

  Mayer bond orders larger than 0.100000
B(  0-C ,  1-C ) :   1.6751 B(  0-C ,  6-C ) :   1.0064 B(  0-C , 16-C ) :   1.0193
B(  1-C ,  2-C ) :   1.1314 B(  1-C ,  4-C ) :   1.1625 B(  2-C ,  3-N ) :   2.9714
B(  4-C ,  5-N ) :   2.9794 B(  6-C ,  7-C ) :   1.3304 B(  6-C , 11-C ) :   1.3439
B(  7-C ,  8-C ) :   1.3440 B(  7-C , 14-C ) :   0.9186 B(  8-C ,  9-C ) :   1.3468
B(  8-C , 81-H ) :   1.0168 B(  9-C , 10-C ) :   1.4038 B(  9-C , 13-Cl) :   1.0501
B( 10-C , 11-C ) :   1.3608 B( 10-C , 12-Cl) :   1.0719 B( 11-C , 82-H ) :   0.9894
B( 14-C , 15-O ) :   2.2772 B( 14-C , 16-C ) :   0.9372 B( 16-C , 17-C ) :   1.7055
B( 17-C , 18-C ) :   1.0350 B( 17-C , 83-H ) :   0.9461 B( 18-C , 19-C ) :   1.2852
B( 18-C , 23-C ) :   1.3374 B( 19-C , 20-C ) :   1.4140 B( 19-C , 84-H ) :   0.9996
B( 20-C , 21-C ) :   1.3727 B( 20-C , 26-C ) :   0.9212 B( 21-C , 22-C ) :   1.3366
B( 21-C , 24-C ) :   1.0009 B( 22-C , 23-C ) :   1.3780 B( 22-C , 85-H ) :   0.9903
B( 23-C , 86-H ) :   0.9945 B( 24-C , 25-C ) :   1.3750 B( 24-C , 34-C ) :   1.3336
B( 25-C , 26-C ) :   0.9255 B( 25-C , 31-C ) :   1.4008 B( 26-C , 27-C ) :   1.0304
B( 26-C , 29-C ) :   1.0085 B( 27-C , 28-C ) :   1.1034 B( 27-C , 87-H ) :   0.9402
B( 27-C , 88-H ) :   0.9363 B( 28-C , 89-H ) :   0.9623 B( 28-C , 90-H ) :   0.9645
B( 28-C , 91-H ) :   0.9656 B( 29-C , 30-C ) :   1.1140 B( 29-C , 92-H ) :   0.9351
B( 29-C , 93-H ) :   0.9389 B( 30-C , 94-H ) :   0.9516 B( 30-C , 95-H ) :   0.9583
B( 30-C , 96-H ) :   0.9641 B( 31-C , 32-C ) :   1.2929 B( 31-C , 97-H ) :   0.9955
B( 32-C , 33-C ) :   1.3489 B( 32-C , 35-C ) :   1.0453 B( 33-C , 34-C ) :   1.3923
B( 33-C , 98-H ) :   0.9845 B( 34-C , 99-H ) :   0.9909 B( 35-C , 36-S ) :   1.1116
B( 35-C , 37-C ) :   0.1293 B( 35-C , 39-C ) :   1.4490 B( 36-S , 37-C ) :   1.1651
B( 37-C , 38-C ) :   1.3737 B( 37-C , 46-C ) :   1.0734 B( 38-C , 39-C ) :   1.2113
B( 38-C , 45-C ) :   1.1227 B( 39-C , 40-N ) :   1.1688 B( 40-N , 41-C ) :   1.1672
B( 40-N ,100-H ) :   0.9038 B( 41-C , 42-N ) :   0.9299 B( 41-C , 45-C ) :   1.5300
B( 42-N , 43-O ) :   1.4734 B( 42-N , 44-O ) :   1.5382 B( 43-O , 44-O ) :   0.2693
B( 45-C ,101-H ) :   1.0146 B( 46-C , 47-C ) :   1.2774 B( 46-C , 51-C ) :   1.3492
B( 47-C , 48-C ) :   1.4093 B( 47-C ,102-H ) :   0.9977 B( 48-C , 49-C ) :   1.3577
B( 48-C , 54-C ) :   0.9148 B( 49-C , 50-C ) :   1.3295 B( 49-C , 52-C ) :   1.0038
B( 50-C , 51-C ) :   1.3880 B( 50-C ,103-H ) :   0.9937 B( 51-C ,104-H ) :   0.9892
B( 52-C , 53-C ) :   1.3504 B( 52-C , 62-C ) :   1.3272 B( 53-C , 54-C ) :   0.9135
B( 53-C , 59-C ) :   1.4000 B( 54-C , 55-C ) :   1.0354 B( 54-C , 57-C ) :   1.0396
B( 55-C , 56-C ) :   1.1023 B( 55-C ,105-H ) :   0.9400 B( 55-C ,106-H ) :   0.9395
B( 56-C ,107-H ) :   0.9641 B( 56-C ,108-H ) :   0.9637 B( 56-C ,109-H ) :   0.9639
B( 57-C , 58-C ) :   1.0985 B( 57-C ,110-H ) :   0.9389 B( 57-C ,111-H ) :   0.9396
B( 58-C ,112-H ) :   0.9650 B( 58-C ,113-H ) :   0.9644 B( 58-C ,114-H ) :   0.9648
B( 59-C , 60-C ) :   1.2524 B( 59-C ,115-H ) :   1.0134 B( 60-C , 61-C ) :   1.3467
B( 60-C , 63-C ) :   1.0920 B( 61-C , 62-C ) :   1.4057 B( 61-C ,116-H ) :   0.9759
B( 62-C ,117-H ) :   0.9944 B( 63-C , 64-C ) :   1.6152 B( 63-C ,118-H ) :   0.9523
B( 64-C , 65-C ) :   1.0535 B( 64-C , 73-C ) :   0.9367 B( 65-C , 66-C ) :   1.6550
B( 65-C , 71-C ) :   0.9971 B( 66-C , 67-C ) :   1.1356 B( 66-C , 69-C ) :   1.1420
B( 67-C , 68-N ) :   2.9757 B( 69-C , 70-N ) :   2.9901 B( 71-C , 72-C ) :   1.3279
B( 71-C , 78-C ) :   1.3375 B( 72-C , 73-C ) :   0.9414 B( 72-C , 75-C ) :   1.3453
B( 73-C , 74-O ) :   2.2387 B( 75-C , 76-C ) :   1.3437 B( 75-C ,119-H ) :   1.0162
B( 76-C , 77-C ) :   1.4039 B( 76-C , 80-Cl) :   1.0487 B( 77-C , 78-C ) :   1.3639
B( 77-C , 79-Cl) :   1.0772 B( 78-C ,120-H ) :   0.9860

-----------------------------------------------------------------------------
         ABSORPTION SPECTRUM VIA TRANSITION ELECTRIC DIPOLE MOMENTS
-----------------------------------------------------------------------------
State   Energy  Wavelength   fosc         T2         TX        TY        TZ
        (cm-1)    (nm)                  (au**2)     (au)      (au)      (au)
-----------------------------------------------------------------------------
   0   18719.9    534.2   1.527048858  26.85496   3.34150   2.13818  -3.33430
   1   20412.5    489.9   0.361352468   5.82789  -2.29293   0.74362  -0.13191
   2   22423.3    446.0   0.091662602   1.34576  -0.89015   0.11777   0.73452
   3   25902.8    386.1   0.231463234   2.94178   0.75201   1.22019  -0.94201
   4   26494.8    377.4   0.118256654   1.46940   0.15433   1.19377   0.14318
   5   26842.4    372.5   0.174815027   2.14404  -1.11135   0.87724  -0.37337
   6   27296.2    366.4   0.208229406   2.51140   0.24847   0.71239  -1.39361
   7   29884.1    334.6   0.303300732   3.34125  -1.40406  -0.69979   0.93818
   8   30599.2    326.8   0.206652981   2.22335  -0.03033   1.46574  -0.27209
   9   30867.7    324.0   0.123995970   1.32245  -0.80163   0.82159   0.06950
  10   31115.1    321.4   0.107879360   1.14141  -0.35964   0.41798  -0.91508
  11   31230.5    320.2   0.108859079   1.14752   1.02296  -0.19826  -0.24854
  12   31324.9    319.2   0.034554787   0.36316  -0.54568   0.19720  -0.16279
  13   32053.6    312.0   0.270301176   2.77617  -0.25306  -1.49385   0.69322
  14   32488.1    307.8   0.016649080   0.16871   0.29544  -0.16303   0.23419
  15   32772.1    305.1   0.065142950   0.65439  -0.26206   0.76326   0.05608
  16   33563.3    297.9   0.424713613   4.16588  -0.03049   1.64027  -1.21427
  17   33982.2    294.3   0.013310896   0.12895   0.30459  -0.18430  -0.04704
  18   34162.1    292.7   0.074369216   0.71668  -0.23444  -0.76468   0.27746
  19   34443.8    290.3   0.212089763   2.02714   0.02993  -1.11266   0.88782
  20   34784.4    287.5   0.033076076   0.31304  -0.03911  -0.47918   0.28618
  21   34979.0    285.9   0.032519041   0.30606   0.12179  -0.05815  -0.53651
  22   35531.9    281.4   0.093196427   0.86349  -0.54950   0.05571  -0.74729
  23   35664.3    280.4   0.585917497   5.40852   0.88246  -1.90029   1.00930
  24   36046.7    277.4   0.226154263   2.06545   0.28351  -1.36408   0.35265
  25   36221.8    276.1   0.074648377   0.67846  -0.54392   0.51496   0.34268
  26   36505.0    273.9   0.245104566   2.21042  -0.95792   1.11844   0.20468
  27   36971.5    270.5   0.423724316   3.77305   0.97028  -1.40981   0.91872
  28   37365.4    267.6   0.011715318   0.10322   0.27122   0.12595  -0.11746
  29   37533.7    266.4   0.303130281   2.65879   1.42317  -0.76644  -0.21434
  30   38009.3    263.1   0.181795832   1.57460  -0.84385  -0.89187  -0.25899
  31   38468.8    260.0   0.002980992   0.02551   0.04678  -0.03593   0.14843
  32   38658.3    258.7   0.013614913   0.11594   0.21712  -0.24986   0.07984
  33   38792.3    257.8   0.019498046   0.16547  -0.23129   0.33121   0.04767
  34   39050.5    256.1   0.026903467   0.22681  -0.28429   0.35564   0.13968
  35   39328.5    254.3   0.043096274   0.36075  -0.06219   0.57980  -0.14394
  36   39586.0    252.6   0.046436422   0.38618   0.02436  -0.51923  -0.34057
  37   39893.9    250.7   0.052232878   0.43104   0.41211   0.23225   0.45526
  38   40136.7    249.1   0.019515242   0.16007   0.24747  -0.10290  -0.29705

FINAL SINGLE POINT ENERGY     -5402.702292460446

DIPOLE MOMENT
-------------
                                X             Y             Z
Electronic contribution:    -40.87145      -3.50748       6.75647
Nuclear contribution   :     41.91546       4.76157      -5.91410
                        -----------------------------------------
Total Dipole Moment    :      1.04401       1.25409       0.84237
                        -----------------------------------------
Magnitude (a.u.)       :      1.83638
Magnitude (Debye)      :      4.66771

Rotational constants in cm-1:     0.001123     0.000163     0.000147
Rotational constants in MHz :    33.669465     4.875513     4.395486

                             ****ORCA TERMINATED NORMALLY****
TOTAL RUN TIME: 0 days 0 hours 28 minutes 33 seconds 818 msec
