                         Program Version 4.2.0 -  RELEASE  -
|  1> # ORCA input file
|  2> # SCF done       -178.777426748901          0.000656963831
|  3> ! CAM-B3LYP def2-SVP def2/J RIJCOSX Grid4 TightSCF
|  4> %maxcore 5000
|  5> %tddft
|  6>     Mode sTDDFT
|  7>     Ethresh 5.0
|  8>     maxcore 5000
|  9> end
| 10>
| 11> %pal
| 12>   nprocs 6
| 13>   end
| 14> * xyz 0 1
| 15>    C       -7.73992        -1.92744         1.59617
| 16>    C       -7.00880        -2.05932         2.74630
| 17>    C       -6.92669        -3.24896         3.49944
| 18>    N       -6.82160        -4.19188         4.14520
| 19>    C       -6.27863        -1.01319         3.34963
| 20>    N       -5.68660        -0.20062         3.90389
| 21>    C       -8.60218        -2.94005         1.00366
| 22>    C       -9.32103        -2.35890        -0.07056
| 23>    C      -10.22602        -3.06787        -0.82260
| 24>    C      -10.43269        -4.41296        -0.49934
| 25>    C       -9.70536        -4.98624         0.57169
| 26>    C       -8.78972        -4.27044         1.33186
| 27>    S      -10.10748        -6.66190         0.79325
| 28>    C      -11.23400        -6.57083        -0.53468
| 29>    C      -11.30598        -5.34977        -1.11625
| 30>   Br      -12.20700        -8.09602        -1.02813
| 31>    C       -8.92062        -0.94545        -0.23060
| 32>    O       -9.30626        -0.17323        -1.07950
| 33>    C       -7.87738        -0.71622         0.80653
| 34>    C       -7.07854         0.37987         0.84845
| 35>    C       -7.27284         1.57549         0.06981
| 36>    C       -6.21515         2.02737        -0.67582
| 37>    S       -6.59899         3.29773        -1.74870
| 38>    C       -8.22324         3.33256        -1.12729
| 39>    C       -8.46017         2.37473        -0.13172
| 40>    C       -9.70779         2.37997         0.53946
| 41>    C       -9.88103         1.52875         1.77062
| 42>    C       -8.95723         1.99746         2.89674
| 43>    C      -10.71856         3.23916         0.11810
| 44>    C      -12.09753         3.17281         0.72124
| 45>    C      -12.22384         4.03746         1.97858
| 46>    C      -10.47618         4.19354        -0.89988
| 47>    C      -11.32987         5.21250        -1.47529
| 48>    C      -10.68906         5.90408        -2.46360
| 49>    S       -9.06655         5.42676        -2.74852
| 50>    C       -9.21263         4.21921        -1.51175
| 51>    C      -12.66969         5.59669        -1.08201
| 52>    C      -13.57917         6.09175        -1.94252
| 53>    C      -14.87210         6.55745        -1.55667
| 54>    S      -15.87625         7.37669        -2.72047
| 55>    C      -17.14691         7.64544        -1.56786
| 56>    C      -16.81006         7.07551        -0.35231
| 57>    C      -15.52601         6.48315        -0.34138
| 58>    O      -15.03051         5.90481         0.77813
| 59>    O      -17.57265         7.05087         0.79128
| 60>    C      -18.70781         6.19795         0.73534
| 61>    C      -18.29281         8.42623        -1.88855
| 62>    S      -18.65104         8.88444        -3.53718
| 63>    C      -20.02844         9.82017        -3.05084
| 64>    C      -20.18819         9.75334        -1.66984
| 65>    C      -19.21231         8.96468        -1.02726
| 66>    N      -21.18042        10.40165        -0.88045
| 67>    O      -21.68397        11.43267        -1.27721
| 68>    O      -21.44498         9.87677         0.18436
| 69>    C      -20.81522        10.44973        -4.05538
| 70>    O      -21.97720        11.07660        -3.70985
| 71>    C      -22.46786        11.59109        -4.83840
| 72>    C      -23.54692        12.36142        -5.33219
| 73>    C      -24.67008        12.96547        -4.57697
| 74>    O      -25.60395        13.52073        -5.11394
| 75>    N      -24.54641        12.82911        -3.23931
| 76>    C      -23.29013        12.44673        -6.68169
| 77>    O      -22.15825        11.81008        -7.05342
| 78>    C      -21.64656        11.28331        -5.92437
| 79>    C      -20.56909        10.54074        -5.42160
| 80>    H      -10.75871        -2.59828        -1.63461
| 81>    H       -8.25407        -4.75098         2.13353
| 82>    H      -11.94675        -5.11787        -1.94725
| 83>    H       -6.15418         0.33302         1.41179
| 84>    H       -5.23168         1.59742        -0.70330
| 85>    H       -9.67684         0.48172         1.54737
| 86>    H      -10.90395         1.57793         2.13249
| 87>    H       -7.91007         1.85942         2.63903
| 88>    H       -9.15803         1.43209         3.80434
| 89>    H       -9.11918         3.05318         3.10256
| 90>    H      -12.35354         2.13943         0.95947
| 91>    H      -12.81840         3.50360        -0.02582
| 92>    H      -11.64569         3.62054         2.79913
| 93>    H      -13.26494         4.10160         2.28571
| 94>    H      -11.85554         5.04364         1.79269
| 95>    H      -11.08269         6.73081        -3.02184
| 96>    H      -12.92812         5.54809        -0.03833
| 97>    H      -13.36066         6.16012        -2.99935
| 98>    H      -15.68605         6.04421         1.47993
| 99>    H      -19.35925         6.44817        -0.10450
|100>    H      -19.24259         6.35138         1.67015
|101>    H      -18.40203         5.14999         0.65095
|102>    H      -19.17684         8.85653         0.04109
|103>    H      -23.73945        12.41334        -2.80387
|104>    H      -25.25343        13.23569        -2.64994
|105>    H      -23.85185        12.94349        -7.44762
|106>    H      -19.72918        10.12839        -5.94073
|107> *
|108>
|109>                          ****END OF INPUT****

CARTESIAN COORDINATES (ANGSTROEM)
---------------------------------
  C     -7.739920   -1.927440    1.596170
  C     -7.008800   -2.059320    2.746300
  C     -6.926690   -3.248960    3.499440
  N     -6.821600   -4.191880    4.145200
  C     -6.278630   -1.013190    3.349630
  N     -5.686600   -0.200620    3.903890
  C     -8.602180   -2.940050    1.003660
  C     -9.321030   -2.358900   -0.070560
  C    -10.226020   -3.067870   -0.822600
  C    -10.432690   -4.412960   -0.499340
  C     -9.705360   -4.986240    0.571690
  C     -8.789720   -4.270440    1.331860
  S    -10.107480   -6.661900    0.793250
  C    -11.234000   -6.570830   -0.534680
  C    -11.305980   -5.349770   -1.116250
  Br   -12.207000   -8.096020   -1.028130
  C     -8.920620   -0.945450   -0.230600
  O     -9.306260   -0.173230   -1.079500
  C     -7.877380   -0.716220    0.806530
  C     -7.078540    0.379870    0.848450
  C     -7.272840    1.575490    0.069810
  C     -6.215150    2.027370   -0.675820
  S     -6.598990    3.297730   -1.748700
  C     -8.223240    3.332560   -1.127290
  C     -8.460170    2.374730   -0.131720
  C     -9.707790    2.379970    0.539460
  C     -9.881030    1.528750    1.770620
  C     -8.957230    1.997460    2.896740
  C    -10.718560    3.239160    0.118100
  C    -12.097530    3.172810    0.721240
  C    -12.223840    4.037460    1.978580
  C    -10.476180    4.193540   -0.899880
  C    -11.329870    5.212500   -1.475290
  C    -10.689060    5.904080   -2.463600
  S     -9.066550    5.426760   -2.748520
  C     -9.212630    4.219210   -1.511750
  C    -12.669690    5.596690   -1.082010
  C    -13.579170    6.091750   -1.942520
  C    -14.872100    6.557450   -1.556670
  S    -15.876250    7.376690   -2.720470
  C    -17.146910    7.645440   -1.567860
  C    -16.810060    7.075510   -0.352310
  C    -15.526010    6.483150   -0.341380
  O    -15.030510    5.904810    0.778130
  O    -17.572650    7.050870    0.791280
  C    -18.707810    6.197950    0.735340
  C    -18.292810    8.426230   -1.888550
  S    -18.651040    8.884440   -3.537180
  C    -20.028440    9.820170   -3.050840
  C    -20.188190    9.753340   -1.669840
  C    -19.212310    8.964680   -1.027260
  N    -21.180420   10.401650   -0.880450
  O    -21.683970   11.432670   -1.277210
  O    -21.444980    9.876770    0.184360
  C    -20.815220   10.449730   -4.055380
  O    -21.977200   11.076600   -3.709850
  C    -22.467860   11.591090   -4.838400
  C    -23.546920   12.361420   -5.332190
  C    -24.670080   12.965470   -4.576970
  O    -25.603950   13.520730   -5.113940
  N    -24.546410   12.829110   -3.239310
  C    -23.290130   12.446730   -6.681690
  O    -22.158250   11.810080   -7.053420
  C    -21.646560   11.283310   -5.924370
  C    -20.569090   10.540740   -5.421600
  H    -10.758710   -2.598280   -1.634610
  H     -8.254070   -4.750980    2.133530
  H    -11.946750   -5.117870   -1.947250
  H     -6.154180    0.333020    1.411790
  H     -5.231680    1.597420   -0.703300
  H     -9.676840    0.481720    1.547370
  H    -10.903950    1.577930    2.132490
  H     -7.910070    1.859420    2.639030
  H     -9.158030    1.432090    3.804340
  H     -9.119180    3.053180    3.102560
  H    -12.353540    2.139430    0.959470
  H    -12.818400    3.503600   -0.025820
  H    -11.645690    3.620540    2.799130
  H    -13.264940    4.101600    2.285710
  H    -11.855540    5.043640    1.792690
  H    -11.082690    6.730810   -3.021840
  H    -12.928120    5.548090   -0.038330
  H    -13.360660    6.160120   -2.999350
  H    -15.686050    6.044210    1.479930
  H    -19.359250    6.448170   -0.104500
  H    -19.242590    6.351380    1.670150
  H    -18.402030    5.149990    0.650950
  H    -19.176840    8.856530    0.041090
  H    -23.739450   12.413340   -2.803870
  H    -25.253430   13.235690   -2.649940
  H    -23.851850   12.943490   -7.447620
  H    -19.729180   10.128390   -5.940730

 Total Charge           Charge          ....    0
 Multiplicity           Mult            ....    1
 Number of Electrons    NEL             ....  516
 Basis Dimension        Dim             .... 1083

ORBITAL ENERGIES
----------------

  NO   OCC          E(Eh)            E(eV)
   0   2.0000    -482.888687    -13140.0692
   1   2.0000     -88.986503     -2421.4459
   2   2.0000     -88.978987     -2421.2413
   3   2.0000     -88.966683     -2420.9065
   4   2.0000     -88.961936     -2420.7773
   5   2.0000     -88.951568     -2420.4952
   6   2.0000     -62.566410     -1702.5186
   7   2.0000     -56.400365     -1534.7320
   8   2.0000     -56.397640     -1534.6578
   9   2.0000     -56.397609     -1534.6570
  10   2.0000     -19.311670      -525.4972
  11   2.0000     -19.310131      -525.4554
  12   2.0000     -19.264844      -524.2231
  13   2.0000     -19.261353      -524.1281
  14   2.0000     -19.242459      -523.6139
  15   2.0000     -19.241276      -523.5817
  16   2.0000     -19.217760      -522.9418
  17   2.0000     -19.168684      -521.6064
  18   2.0000     -14.651478      -398.6870
  19   2.0000     -14.420687      -392.4068
  20   2.0000     -14.418801      -392.3555
  21   2.0000     -14.418466      -392.3464
  22   2.0000     -10.371029      -282.2101
  23   2.0000     -10.368996      -282.1547
  24   2.0000     -10.362564      -281.9797
  25   2.0000     -10.360271      -281.9173
  26   2.0000     -10.346763      -281.5497
  27   2.0000     -10.346480      -281.5420
  28   2.0000     -10.346204      -281.5345
  29   2.0000     -10.344431      -281.4863
  30   2.0000     -10.343133      -281.4510
  31   2.0000     -10.341427      -281.4045
  32   2.0000     -10.338908      -281.3360
  33   2.0000     -10.336922      -281.2819
  34   2.0000     -10.336909      -281.2816
  35   2.0000     -10.334470      -281.2152
  36   2.0000     -10.332444      -281.1601
  37   2.0000     -10.329175      -281.0711
  38   2.0000     -10.321398      -280.8595
  39   2.0000     -10.321087      -280.8510
  40   2.0000     -10.321032      -280.8496
  41   2.0000     -10.319892      -280.8185
  42   2.0000     -10.311684      -280.5952
  43   2.0000     -10.311526      -280.5909
  44   2.0000     -10.311336      -280.5857
  45   2.0000     -10.309350      -280.5317
  46   2.0000     -10.306267      -280.4478
  47   2.0000     -10.305570      -280.4288
  48   2.0000     -10.304098      -280.3888
  49   2.0000     -10.300013      -280.2776
  50   2.0000     -10.300010      -280.2775
  51   2.0000     -10.299982      -280.2768
  52   2.0000     -10.298155      -280.2270
  53   2.0000     -10.296850      -280.1915
  54   2.0000     -10.295977      -280.1678
  55   2.0000     -10.294627      -280.1310
  56   2.0000     -10.292631      -280.0767
  57   2.0000     -10.292475      -280.0725
  58   2.0000     -10.281864      -279.7837
  59   2.0000     -10.281712      -279.7796
  60   2.0000     -10.281019      -279.7607
  61   2.0000     -10.277922      -279.6765
  62   2.0000     -10.274391      -279.5804
  63   2.0000     -10.274269      -279.5771
  64   2.0000     -10.273708      -279.5618
  65   2.0000     -10.261625      -279.2330
  66   2.0000     -10.261176      -279.2208
  67   2.0000     -10.254654      -279.0433
  68   2.0000     -10.252501      -278.9847
  69   2.0000      -8.795842      -239.3470
  70   2.0000      -8.081893      -219.9195
  71   2.0000      -8.074935      -219.7301
  72   2.0000      -8.062181      -219.3831
  73   2.0000      -8.058197      -219.2747
  74   2.0000      -8.047769      -218.9909
  75   2.0000      -6.632173      -180.4706
  76   2.0000      -6.617559      -180.0729
  77   2.0000      -6.617361      -180.0676
  78   2.0000      -6.051490      -164.6694
  79   2.0000      -6.047137      -164.5510
  80   2.0000      -6.044634      -164.4829
  81   2.0000      -6.043572      -164.4540
  82   2.0000      -6.040342      -164.3661
  83   2.0000      -6.036166      -164.2524
  84   2.0000      -6.031624      -164.1288
  85   2.0000      -6.027795      -164.0246
  86   2.0000      -6.027567      -164.0184
  87   2.0000      -6.023691      -163.9130
  88   2.0000      -6.023391      -163.9048
  89   2.0000      -6.020024      -163.8132
  90   2.0000      -6.017249      -163.7377
  91   2.0000      -6.013035      -163.6230
  92   2.0000      -6.009502      -163.5269
  93   2.0000      -2.748028       -74.7776
  94   2.0000      -2.743961       -74.6670
  95   2.0000      -2.743772       -74.6618
  96   2.0000      -2.732190       -74.3467
  97   2.0000      -2.732168       -74.3461
  98   2.0000      -1.323537       -36.0153
  99   2.0000      -1.237334       -33.6696
 100   2.0000      -1.218622       -33.1604
 101   2.0000      -1.171907       -31.8892
 102   2.0000      -1.144952       -31.1557
 103   2.0000      -1.140419       -31.0324
 104   2.0000      -1.133013       -30.8309
 105   2.0000      -1.109351       -30.1870
 106   2.0000      -1.026315       -27.9274
 107   2.0000      -1.021312       -27.7913
 108   2.0000      -1.016665       -27.6649
 109   2.0000      -1.005647       -27.3651
 110   2.0000      -0.997311       -27.1382
 111   2.0000      -0.992704       -27.0128
 112   2.0000      -0.988864       -26.9084
 113   2.0000      -0.981353       -26.7040
 114   2.0000      -0.975866       -26.5547
 115   2.0000      -0.946101       -25.7447
 116   2.0000      -0.925443       -25.1826
 117   2.0000      -0.922794       -25.1105
 118   2.0000      -0.919702       -25.0264
 119   2.0000      -0.912877       -24.8406
 120   2.0000      -0.911800       -24.8113
 121   2.0000      -0.908940       -24.7335
 122   2.0000      -0.898164       -24.4403
 123   2.0000      -0.889408       -24.2020
 124   2.0000      -0.882965       -24.0267
 125   2.0000      -0.874173       -23.7875
 126   2.0000      -0.865768       -23.5587
 127   2.0000      -0.854463       -23.2511
 128   2.0000      -0.847515       -23.0620
 129   2.0000      -0.839814       -22.8525
 130   2.0000      -0.833002       -22.6671
 131   2.0000      -0.827464       -22.5164
 132   2.0000      -0.820871       -22.3370
 133   2.0000      -0.810141       -22.0451
 134   2.0000      -0.793408       -21.5897
 135   2.0000      -0.786862       -21.4116
 136   2.0000      -0.782089       -21.2817
 137   2.0000      -0.776662       -21.1341
 138   2.0000      -0.765992       -20.8437
 139   2.0000      -0.757331       -20.6080
 140   2.0000      -0.746933       -20.3251
 141   2.0000      -0.734290       -19.9811
 142   2.0000      -0.718646       -19.5553
 143   2.0000      -0.717355       -19.5202
 144   2.0000      -0.708369       -19.2757
 145   2.0000      -0.703501       -19.1432
 146   2.0000      -0.697254       -18.9733
 147   2.0000      -0.695185       -18.9169
 148   2.0000      -0.692451       -18.8425
 149   2.0000      -0.690911       -18.8007
 150   2.0000      -0.676830       -18.4175
 151   2.0000      -0.673404       -18.3242
 152   2.0000      -0.660817       -17.9817
 153   2.0000      -0.654572       -17.8118
 154   2.0000      -0.652190       -17.7470
 155   2.0000      -0.647764       -17.6266
 156   2.0000      -0.640198       -17.4207
 157   2.0000      -0.634295       -17.2600
 158   2.0000      -0.632139       -17.2014
 159   2.0000      -0.627389       -17.0721
 160   2.0000      -0.625457       -17.0196
 161   2.0000      -0.624204       -16.9855
 162   2.0000      -0.619578       -16.8596
 163   2.0000      -0.616396       -16.7730
 164   2.0000      -0.605414       -16.4742
 165   2.0000      -0.599954       -16.3256
 166   2.0000      -0.595348       -16.2002
 167   2.0000      -0.593847       -16.1594
 168   2.0000      -0.592750       -16.1295
 169   2.0000      -0.591591       -16.0980
 170   2.0000      -0.577066       -15.7028
 171   2.0000      -0.571379       -15.5480
 172   2.0000      -0.569157       -15.4876
 173   2.0000      -0.567435       -15.4407
 174   2.0000      -0.560705       -15.2575
 175   2.0000      -0.553265       -15.0551
 176   2.0000      -0.551846       -15.0165
 177   2.0000      -0.549260       -14.9461
 178   2.0000      -0.544848       -14.8261
 179   2.0000      -0.542904       -14.7732
 180   2.0000      -0.541369       -14.7314
 181   2.0000      -0.541162       -14.7258
 182   2.0000      -0.539023       -14.6676
 183   2.0000      -0.529194       -14.4001
 184   2.0000      -0.528347       -14.3770
 185   2.0000      -0.527250       -14.3472
 186   2.0000      -0.524059       -14.2604
 187   2.0000      -0.518268       -14.1028
 188   2.0000      -0.513826       -13.9819
 189   2.0000      -0.513071       -13.9614
 190   2.0000      -0.512556       -13.9474
 191   2.0000      -0.510415       -13.8891
 192   2.0000      -0.506048       -13.7703
 193   2.0000      -0.502665       -13.6782
 194   2.0000      -0.501777       -13.6540
 195   2.0000      -0.499561       -13.5937
 196   2.0000      -0.495754       -13.4902
 197   2.0000      -0.494508       -13.4563
 198   2.0000      -0.492755       -13.4085
 199   2.0000      -0.491721       -13.3804
 200   2.0000      -0.490171       -13.3382
 201   2.0000      -0.488534       -13.2937
 202   2.0000      -0.485302       -13.2057
 203   2.0000      -0.479983       -13.0610
 204   2.0000      -0.479603       -13.0507
 205   2.0000      -0.474207       -12.9038
 206   2.0000      -0.470144       -12.7933
 207   2.0000      -0.463313       -12.6074
 208   2.0000      -0.461491       -12.5578
 209   2.0000      -0.458445       -12.4749
 210   2.0000      -0.454429       -12.3657
 211   2.0000      -0.453737       -12.3468
 212   2.0000      -0.451620       -12.2892
 213   2.0000      -0.451039       -12.2734
 214   2.0000      -0.449792       -12.2395
 215   2.0000      -0.447715       -12.1830
 216   2.0000      -0.446108       -12.1392
 217   2.0000      -0.443240       -12.0612
 218   2.0000      -0.442354       -12.0371
 219   2.0000      -0.440082       -11.9752
 220   2.0000      -0.437060       -11.8930
 221   2.0000      -0.432934       -11.7807
 222   2.0000      -0.430893       -11.7252
 223   2.0000      -0.430334       -11.7100
 224   2.0000      -0.428547       -11.6614
 225   2.0000      -0.425793       -11.5864
 226   2.0000      -0.418765       -11.3952
 227   2.0000      -0.417950       -11.3730
 228   2.0000      -0.415200       -11.2982
 229   2.0000      -0.412141       -11.2149
 230   2.0000      -0.407760       -11.0957
 231   2.0000      -0.405056       -11.0221
 232   2.0000      -0.391346       -10.6491
 233   2.0000      -0.389113       -10.5883
 234   2.0000      -0.388194       -10.5633
 235   2.0000      -0.386504       -10.5173
 236   2.0000      -0.382822       -10.4171
 237   2.0000      -0.379609       -10.3297
 238   2.0000      -0.378446       -10.2980
 239   2.0000      -0.377616       -10.2755
 240   2.0000      -0.376491       -10.2449
 241   2.0000      -0.369969       -10.0674
 242   2.0000      -0.358510        -9.7555
 243   2.0000      -0.351714        -9.5706
 244   2.0000      -0.348649        -9.4872
 245   2.0000      -0.346441        -9.4271
 246   2.0000      -0.340892        -9.2762
 247   2.0000      -0.334754        -9.1091
 248   2.0000      -0.328634        -8.9426
 249   2.0000      -0.325283        -8.8514
 250   2.0000      -0.319010        -8.6807
 251   2.0000      -0.308156        -8.3853
 252   2.0000      -0.307637        -8.3712
 253   2.0000      -0.296509        -8.0684
 254   2.0000      -0.289662        -7.8821
 255   2.0000      -0.271301        -7.3825
 256   2.0000      -0.267980        -7.2921
 257   2.0000      -0.239872        -6.5272
 258   0.0000      -0.088402        -2.4055
 259   0.0000      -0.069624        -1.8946
 260   0.0000      -0.058588        -1.5943
 261   0.0000      -0.039427        -1.0729
 262   0.0000      -0.012836        -0.3493

MULLIKEN ATOMIC CHARGES
-----------------------
   0 C :    0.311600
   1 C :   -0.344025
   2 C :   -0.185365
   3 N :    0.151727
   4 C :   -0.198970
   5 N :    0.165771
   6 C :    0.018695
   7 C :   -0.020499
   8 C :   -0.068980
   9 C :    0.115797
  10 C :   -0.087575
  11 C :   -0.023694
  12 S :    0.187545
  13 C :   -0.122857
  14 C :    0.038625
  15 Br:    0.025675
  16 C :    0.139707
  17 O :   -0.128468
  18 C :   -0.097982
  19 C :   -0.084199
  20 C :    0.038675
  21 C :   -0.082422
  22 S :    0.150690
  23 C :   -0.159572
  24 C :    0.183491
  25 C :   -0.108945
  26 C :    0.062080
  27 C :    0.017024
  28 C :   -0.125467
  29 C :    0.007269
  30 C :    0.045879
  31 C :    0.118125
  32 C :    0.075719
  33 C :   -0.121011
  34 S :    0.125253
  35 C :   -0.145902
  36 C :   -0.040247
  37 C :    0.043143
  38 C :   -0.179175
  39 S :    0.133080
  40 C :   -0.100856
  41 C :    0.106349
  42 C :    0.137861
  43 O :   -0.172748
  44 O :   -0.360411
  45 C :    0.184246
  46 C :   -0.034523
  47 S :    0.157065
  48 C :   -0.136444
  49 C :    0.173007
  50 C :   -0.078036
  51 N :    0.257548
  52 O :   -0.242310
  53 O :   -0.247728
  54 C :    0.150944
  55 O :   -0.189229
  56 C :    0.102140
  57 C :   -0.076842
  58 C :    0.058928
  59 O :   -0.200526
  60 N :   -0.091395
  61 C :    0.119290
  62 O :   -0.174655
  63 C :    0.193163
  64 C :   -0.141813
  65 H :   -0.009336
  66 H :   -0.004743
  67 H :   -0.002483
  68 H :    0.042551
  69 H :    0.027500
  70 H :    0.003149
  71 H :   -0.011672
  72 H :    0.021799
  73 H :    0.015774
  74 H :    0.015180
  75 H :    0.008934
  76 H :    0.010108
  77 H :    0.004926
  78 H :    0.008187
  79 H :    0.018794
  80 H :    0.018304
  81 H :    0.019931
  82 H :   -0.025767
  83 H :    0.187389
  84 H :    0.041175
  85 H :    0.046963
  86 H :    0.021728
  87 H :    0.011646
  88 H :    0.135055
  89 H :    0.131702
  90 H :    0.032252
  91 H :    0.007711
Sum of atomic charges:   -0.0000000

LOEWDIN ATOMIC CHARGES
----------------------
   0 C :    0.075592
   1 C :   -0.138307
   2 C :   -0.018803
   3 N :   -0.051057
   4 C :   -0.023105
   5 N :   -0.049172
   6 C :   -0.022345
   7 C :   -0.050079
   8 C :    0.022107
   9 C :   -0.031586
  10 C :   -0.144113
  11 C :   -0.009111
  12 S :    0.433427
  13 C :   -0.270741
  14 C :   -0.070425
  15 Br:    0.138486
  16 C :    0.076138
  17 O :   -0.125131
  18 C :   -0.098013
  19 C :    0.076287
  20 C :   -0.068041
  21 C :   -0.143141
  22 S :    0.437732
  23 C :   -0.175557
  24 C :   -0.027845
  25 C :   -0.013228
  26 C :   -0.030133
  27 C :   -0.047137
  28 C :   -0.012129
  29 C :   -0.031359
  30 C :   -0.051628
  31 C :   -0.039686
  32 C :   -0.059770
  33 C :   -0.168344
  34 S :    0.412743
  35 C :   -0.176513
  36 C :   -0.014784
  37 C :   -0.046904
  38 C :   -0.200626
  39 S :    0.428890
  40 C :   -0.221847
  41 C :   -0.016651
  42 C :    0.001383
  43 O :   -0.044970
  44 O :   -0.133669
  45 C :    0.082269
  46 C :   -0.175884
  47 S :    0.459316
  48 C :   -0.156071
  49 C :   -0.072212
  50 C :   -0.047084
  51 N :    0.284878
  52 O :   -0.209328
  53 O :   -0.211955
  54 C :    0.006805
  55 O :    0.025555
  56 C :    0.002401
  57 C :   -0.122275
  58 C :    0.058414
  59 O :   -0.217531
  60 N :    0.000120
  61 C :    0.098492
  62 O :    0.021421
  63 C :   -0.008395
  64 C :   -0.057376
  65 H :    0.041577
  66 H :    0.041326
  67 H :    0.039186
  68 H :    0.048240
  69 H :    0.028290
  70 H :    0.025152
  71 H :    0.025067
  72 H :    0.023272
  73 H :    0.026405
  74 H :    0.025198
  75 H :    0.026610
  76 H :    0.030145
  77 H :    0.021941
  78 H :    0.022877
  79 H :    0.023571
  80 H :    0.021594
  81 H :    0.032588
  82 H :    0.024826
  83 H :    0.094510
  84 H :    0.019007
  85 H :    0.030235
  86 H :    0.016126
  87 H :    0.041227
  88 H :    0.076739
  89 H :    0.083633
  90 H :    0.036399
  91 H :    0.035868

  Mayer bond orders larger than 0.100000
B(  0-C ,  1-C ) :   1.6558 B(  0-C ,  6-C ) :   1.0145 B(  0-C , 18-C ) :   1.0390
B(  1-C ,  2-C ) :   1.1348 B(  1-C ,  4-C ) :   1.1517 B(  2-C ,  3-N ) :   2.9751
B(  4-C ,  5-N ) :   2.9698 B(  6-C ,  7-C ) :   1.2719 B(  6-C , 11-C ) :   1.4000
B(  7-C ,  8-C ) :   1.4261 B(  7-C , 16-C ) :   0.9342 B(  8-C ,  9-C ) :   1.2434
B(  8-C , 65-H ) :   1.0184 B(  9-C , 10-C ) :   1.3042 B(  9-C , 14-C ) :   1.1622
B( 10-C , 11-C ) :   1.3327 B( 10-C , 12-S ) :   1.0847 B( 11-C , 66-H ) :   0.9819
B( 12-S , 13-C ) :   1.0871 B( 13-C , 14-C ) :   1.6177 B( 13-C , 15-Br) :   1.0196
B( 14-C , 67-H ) :   1.0010 B( 16-C , 17-O ) :   2.2413 B( 16-C , 18-C ) :   0.9291
B( 18-C , 19-C ) :   1.6669 B( 19-C , 20-C ) :   1.0613 B( 19-C , 68-H ) :   0.9448
B( 20-C , 21-C ) :   1.5466 B( 20-C , 24-C ) :   1.1316 B( 21-C , 22-S ) :   1.1578
B( 21-C , 69-H ) :   0.9695 B( 22-S , 23-C ) :   1.0616 B( 23-C , 24-C ) :   1.3873
B( 23-C , 35-C ) :   1.3846 B( 24-C , 25-C ) :   1.2546 B( 25-C , 26-C ) :   1.0854
B( 25-C , 28-C ) :   1.5089 B( 26-C , 27-C ) :   1.1029 B( 26-C , 70-H ) :   0.9117
B( 26-C , 71-H ) :   0.9052 B( 27-C , 72-H ) :   0.9611 B( 27-C , 73-H ) :   0.9653
B( 27-C , 74-H ) :   0.9570 B( 28-C , 29-C ) :   1.0559 B( 28-C , 31-C ) :   1.2697
B( 29-C , 30-C ) :   1.1031 B( 29-C , 75-H ) :   0.9201 B( 29-C , 76-H ) :   0.9209
B( 30-C , 77-H ) :   0.9603 B( 30-C , 78-H ) :   0.9620 B( 30-C , 79-H ) :   0.9579
B( 31-C , 32-C ) :   1.1424 B( 31-C , 35-C ) :   1.3678 B( 32-C , 33-C ) :   1.6112
B( 32-C , 36-C ) :   1.0155 B( 33-C , 34-S ) :   1.1136 B( 33-C , 80-H ) :   0.9614
B( 34-S , 35-C ) :   1.0790 B( 36-C , 37-C ) :   1.7614 B( 36-C , 81-H ) :   0.9495
B( 37-C , 38-C ) :   1.0931 B( 37-C , 82-H ) :   0.9552 B( 38-C , 39-S ) :   1.0877
B( 38-C , 40-C ) :   0.1299 B( 38-C , 42-C ) :   1.4944 B( 39-S , 40-C ) :   1.1082
B( 40-C , 41-C ) :   1.5119 B( 40-C , 46-C ) :   1.1131 B( 41-C , 42-C ) :   1.2401
B( 41-C , 44-O ) :   1.1230 B( 42-C , 43-O ) :   1.2561 B( 43-O , 83-H ) :   0.9317
B( 44-O , 45-C ) :   0.9139 B( 45-C , 84-H ) :   0.9713 B( 45-C , 85-H ) :   0.9832
B( 45-C , 86-H ) :   0.9701 B( 46-C , 47-S ) :   1.0815 B( 46-C , 50-C ) :   1.5133
B( 47-S , 48-C ) :   1.1662 B( 48-C , 49-C ) :   1.4767 B( 48-C , 54-C ) :   1.1209
B( 49-C , 50-C ) :   1.2099 B( 49-C , 51-N ) :   0.9203 B( 50-C , 87-H ) :   1.0090
B( 51-N , 52-O ) :   1.5229 B( 51-N , 53-O ) :   1.5310 B( 52-O , 53-O ) :   0.2653
B( 54-C , 55-O ) :   1.1379 B( 54-C , 64-C ) :   1.4489 B( 55-O , 56-C ) :   1.1494
B( 56-C , 57-C ) :   1.1769 B( 56-C , 63-C ) :   1.3854 B( 57-C , 58-C ) :   0.8806
B( 57-C , 61-C ) :   1.5386 B( 58-C , 59-O ) :   2.2298 B( 58-C , 60-N ) :   1.2950
B( 60-N , 88-H ) :   0.9285 B( 60-N , 89-H ) :   0.9348 B( 61-C , 62-O ) :   1.1436
B( 61-C , 90-H ) :   1.0040 B( 62-O , 63-C ) :   1.1413 B( 63-C , 64-C ) :   1.2354
B( 64-C , 91-H ) :   1.0119

-----------------------------------------------------------------------------
         ABSORPTION SPECTRUM VIA TRANSITION ELECTRIC DIPOLE MOMENTS
-----------------------------------------------------------------------------
State   Energy  Wavelength   fosc         T2         TX        TY        TZ
        (cm-1)    (nm)                  (au**2)     (au)      (au)      (au)
-----------------------------------------------------------------------------
   0   21481.6    465.5   0.795683278  12.19406   2.35889  -1.96248   1.66684
   1   21684.6    461.2   0.193573611   2.93880  -1.20733   0.69710  -0.99761
   2   22975.4    435.2   0.295419785   4.23304  -0.20397  -1.93399   0.67166
   3   26716.8    374.3   0.243116726   2.99575   1.43940  -0.95412  -0.11634
   4   27033.1    369.9   0.547278347   6.66482  -2.28037   0.95175   0.74760
   5   27553.1    362.9   0.025294299   0.30222   0.31520  -0.18433   0.41097
   6   27735.4    360.6   0.010201226   0.12109   0.06062   0.20771  -0.27252
   7   28202.1    354.6   0.048809105   0.56976   0.02931  -0.20584   0.72563
   8   28882.4    346.2   0.464576854   5.29541  -1.15787  -1.90904  -0.55707
   9   29098.5    343.7   0.479011795   5.41939  -1.78708   0.88085  -1.20409
  10   30101.7    332.2   0.038395761   0.41992   0.06091  -0.43466   0.47674
  11   30759.3    325.1   0.058444228   0.62552  -0.50527  -0.17429  -0.58296
  12   33252.9    300.7   0.016202211   0.16041  -0.33910   0.00200  -0.21310
  13   33354.6    299.8   0.029598408   0.29214  -0.04184   0.31851  -0.43467
  14   33804.6    295.8   0.033315608   0.32445   0.39537   0.37394  -0.16821
  15   34171.5    292.6   0.527649637   5.08343   1.44045   0.95809   1.44589
  16   34391.2    290.8   0.127971899   1.22502  -0.14188  -1.03269   0.37208
  17   34531.6    289.6   0.079915366   0.76188  -0.09532   0.63860  -0.58736
  18   34785.1    287.5   0.079335237   0.75084  -0.18852  -0.81860   0.21261
  19   35240.5    283.8   0.164556761   1.53727  -0.17064  -0.69168   1.01476
  20   36063.6    277.3   0.054173067   0.49453  -0.56118   0.41887   0.06445
  21   36405.7    274.7   0.015378761   0.13907   0.21666  -0.28428   0.10637
  22   37072.7    269.7   0.106567000   0.94633  -0.33539  -0.87512  -0.26079
  23   37640.6    265.7   0.063140913   0.55224  -0.41273   0.26655   0.55754
  24   37745.6    264.9   0.042219608   0.36823   0.36708  -0.13976  -0.46255
  25   38524.9    259.6   0.004241503   0.03625  -0.03262   0.11527   0.14797
  26   38613.7    259.0   0.034544971   0.29452  -0.41268   0.34392   0.07705
  27   38814.3    257.6   0.049089229   0.41636  -0.63698   0.09041  -0.04950
  28   39570.0    252.7   0.209963273   1.74684  -0.46810   1.17929  -0.37012
  29   39650.2    252.2   0.028141324   0.23365  -0.32828  -0.27888   0.21934
  30   40259.5    248.4   0.024129551   0.19731  -0.23843  -0.00697   0.37472

FINAL SINGLE POINT ENERGY     -7188.948762648758

DIPOLE MOMENT
-------------
                                X             Y             Z
Electronic contribution:     17.65631    -131.94075     -27.11761
Nuclear contribution   :    -17.63074     130.52316      25.70757
                        -----------------------------------------
Total Dipole Moment    :      0.02556      -1.41759      -1.41005
                        -----------------------------------------
Magnitude (a.u.)       :      1.99962
Magnitude (Debye)      :      5.08262

Rotational constants in cm-1:     0.001418     0.000239     0.000219
Rotational constants in MHz :    42.504252     7.171562     6.578323

                             ****ORCA TERMINATED NORMALLY****
TOTAL RUN TIME: 0 days 0 hours 8 minutes 15 seconds 898 msec
