                         Program Version 4.2.0 -  RELEASE  -
|  1> # ORCA input file
|  2> # SCF done       -170.667209294312          0.000645943718
|  3> ! CAM-B3LYP def2-SVP def2/J RIJCOSX Grid4 TightSCF
|  4> %maxcore 5000
|  5> %tddft
|  6>     Mode sTDDFT
|  7>     Ethresh 5.0
|  8>     maxcore 5000
|  9> end
| 10>
| 11> %pal
| 12>   nprocs 6
| 13>   end
| 14> * xyz 0 1
| 15>    C       -2.41395        -0.76633         0.72080
| 16>    C       -2.84642        -1.90505         1.34899
| 17>    C       -1.99039        -2.95085         1.75400
| 18>    N       -1.34082        -3.82743         2.11065
| 19>    C       -4.19393        -2.23743         1.60955
| 20>    N       -5.25970        -2.61138         1.81276
| 21>    C       -1.04694        -0.50801         0.28959
| 22>    C       -1.04226         0.65272        -0.52069
| 23>    C        0.09984         1.14192        -1.10747
| 24>    C        1.29733         0.45731        -0.87701
| 25>    C        1.28499        -0.69591        -0.05590
| 26>    C        0.12923        -1.19351         0.53291
| 27>    S        2.87197        -1.38425         0.10310
| 28>    C        3.52114        -0.13428        -0.92486
| 29>    C        2.59920         0.75566        -1.36356
| 30>   Br        5.35408        -0.11995        -1.32092
| 31>    C       -2.40899         1.20573        -0.61156
| 32>    O       -2.73171         2.17150        -1.26880
| 33>    C       -3.24198         0.34229         0.27044
| 34>    C       -4.51014         0.57815         0.71993
| 35>    C       -5.40876         1.59824         0.33883
| 36>    O       -5.17869         2.44700        -0.69276
| 37>    C       -6.65170         1.90922         0.87427
| 38>    C       -7.61228         1.56736         1.93443
| 39>    O       -7.56252         0.74980         2.81258
| 40>    N       -8.66117         2.45871         1.71836
| 41>    C       -8.48487         3.34888         0.65903
| 42>    O       -9.27209         4.19359         0.32469
| 43>    C       -7.16946         2.98447         0.12155
| 44>    C       -6.22014         3.29225        -0.84214
| 45>    C       -6.17815         4.28182        -1.86143
| 46>    C       -5.07466         4.44684        -2.62692
| 47>    C       -4.97642         5.41392        -3.67079
| 48>    C       -3.88529         5.65898        -4.42128
| 49>    C       -2.55921         4.99560        -4.25783
| 50>    C       -3.95982         6.67673        -5.53073
| 51>    N       -5.17626         6.53095        -6.29670
| 52>    C       -5.62819         7.41834        -7.19585
| 53>    C       -5.06465         8.61794        -7.49861
| 54>    C       -5.65693         9.46660        -8.46264
| 55>    O       -5.08711        10.66568        -8.75276
| 56>    C       -6.78880         9.31917        -9.25039
| 57>    C       -7.89476         8.43431        -9.57578
| 58>    O       -8.19412         7.34133        -9.14662
| 59>    N       -8.60351         9.12774       -10.55232
| 60>    C       -8.07253        10.37251       -10.89740
| 61>    O       -8.54210        11.11736       -11.72169
| 62>    C       -6.89298        10.48832       -10.04577
| 63>    C       -5.82563        11.30511        -9.71626
| 64>    C       -5.46460        12.57289       -10.20945
| 65>    C       -4.37560        13.28547        -9.79388
| 66>    C       -4.04566        14.54733       -10.30502
| 67>    C       -2.96344        15.29506        -9.91179
| 68>    C       -2.59657        16.57397       -10.40133
| 69>    C       -1.47459        17.09212        -9.83524
| 70>    C       -0.88251        16.25204        -8.86010
| 71>    S       -1.81165        14.77492        -8.69212
| 72>    C        0.25039        16.49398        -8.11812
| 73>    C        1.08114        17.64831        -8.16573
| 74>    C        2.13401        17.61313        -7.31930
| 75>    C        2.21965        16.41856        -6.52927
| 76>    S        0.86753        15.35165        -6.94263
| 77>    C        3.14652        16.10468        -5.61380
| 78>    H        0.07150         2.02599        -1.72508
| 79>    H        0.17174        -2.07352         1.15227
| 80>    H        2.82687         1.58823        -2.00363
| 81>    H       -4.91741        -0.06830         1.48704
| 82>    H       -9.48939         2.46606         2.29675
| 83>    H       -7.06187         4.89207        -1.97360
| 84>    H       -4.23200         3.79962        -2.43141
| 85>    H       -5.87252         5.99281        -3.86073
| 86>    H       -2.51456         4.37006        -3.37326
| 87>    H       -1.77717         5.75184        -4.19238
| 88>    H       -2.34482         4.37940        -5.13190
| 89>    H       -3.08463         6.58047        -6.18727
| 90>    H       -3.93856         7.68608        -5.09994
| 91>    H       -5.64460         5.64205        -6.22787
| 92>    H       -6.53739         7.12567        -7.70451
| 93>    H       -4.15835         8.97123        -7.03420
| 94>    H       -9.44004         8.75874       -10.98056
| 95>    H       -6.12416        12.97133       -10.96713
| 96>    H       -3.73230        12.86271        -9.03296
| 97>    H       -4.68807        14.97080       -11.06620
| 98>    H       -3.17973        17.06737       -11.15891
| 99>    H       -1.05640        18.04961       -10.08869
|100>    H        0.86514        18.46628        -8.82983
|101>    H        2.86773        18.39266        -7.21597
|102>    H        3.95182        16.78299        -5.39375
|103>    H        3.11741        15.17588        -5.07440
|104> *
|105>
|106>                          ****END OF INPUT****

CARTESIAN COORDINATES (ANGSTROEM)
---------------------------------
  C     -2.413950   -0.766330    0.720800
  C     -2.846420   -1.905050    1.348990
  C     -1.990390   -2.950850    1.754000
  N     -1.340820   -3.827430    2.110650
  C     -4.193930   -2.237430    1.609550
  N     -5.259700   -2.611380    1.812760
  C     -1.046940   -0.508010    0.289590
  C     -1.042260    0.652720   -0.520690
  C      0.099840    1.141920   -1.107470
  C      1.297330    0.457310   -0.877010
  C      1.284990   -0.695910   -0.055900
  C      0.129230   -1.193510    0.532910
  S      2.871970   -1.384250    0.103100
  C      3.521140   -0.134280   -0.924860
  C      2.599200    0.755660   -1.363560
  Br     5.354080   -0.119950   -1.320920
  C     -2.408990    1.205730   -0.611560
  O     -2.731710    2.171500   -1.268800
  C     -3.241980    0.342290    0.270440
  C     -4.510140    0.578150    0.719930
  C     -5.408760    1.598240    0.338830
  O     -5.178690    2.447000   -0.692760
  C     -6.651700    1.909220    0.874270
  C     -7.612280    1.567360    1.934430
  O     -7.562520    0.749800    2.812580
  N     -8.661170    2.458710    1.718360
  C     -8.484870    3.348880    0.659030
  O     -9.272090    4.193590    0.324690
  C     -7.169460    2.984470    0.121550
  C     -6.220140    3.292250   -0.842140
  C     -6.178150    4.281820   -1.861430
  C     -5.074660    4.446840   -2.626920
  C     -4.976420    5.413920   -3.670790
  C     -3.885290    5.658980   -4.421280
  C     -2.559210    4.995600   -4.257830
  C     -3.959820    6.676730   -5.530730
  N     -5.176260    6.530950   -6.296700
  C     -5.628190    7.418340   -7.195850
  C     -5.064650    8.617940   -7.498610
  C     -5.656930    9.466600   -8.462640
  O     -5.087110   10.665680   -8.752760
  C     -6.788800    9.319170   -9.250390
  C     -7.894760    8.434310   -9.575780
  O     -8.194120    7.341330   -9.146620
  N     -8.603510    9.127740  -10.552320
  C     -8.072530   10.372510  -10.897400
  O     -8.542100   11.117360  -11.721690
  C     -6.892980   10.488320  -10.045770
  C     -5.825630   11.305110   -9.716260
  C     -5.464600   12.572890  -10.209450
  C     -4.375600   13.285470   -9.793880
  C     -4.045660   14.547330  -10.305020
  C     -2.963440   15.295060   -9.911790
  C     -2.596570   16.573970  -10.401330
  C     -1.474590   17.092120   -9.835240
  C     -0.882510   16.252040   -8.860100
  S     -1.811650   14.774920   -8.692120
  C      0.250390   16.493980   -8.118120
  C      1.081140   17.648310   -8.165730
  C      2.134010   17.613130   -7.319300
  C      2.219650   16.418560   -6.529270
  S      0.867530   15.351650   -6.942630
  C      3.146520   16.104680   -5.613800
  H      0.071500    2.025990   -1.725080
  H      0.171740   -2.073520    1.152270
  H      2.826870    1.588230   -2.003630
  H     -4.917410   -0.068300    1.487040
  H     -9.489390    2.466060    2.296750
  H     -7.061870    4.892070   -1.973600
  H     -4.232000    3.799620   -2.431410
  H     -5.872520    5.992810   -3.860730
  H     -2.514560    4.370060   -3.373260
  H     -1.777170    5.751840   -4.192380
  H     -2.344820    4.379400   -5.131900
  H     -3.084630    6.580470   -6.187270
  H     -3.938560    7.686080   -5.099940
  H     -5.644600    5.642050   -6.227870
  H     -6.537390    7.125670   -7.704510
  H     -4.158350    8.971230   -7.034200
  H     -9.440040    8.758740  -10.980560
  H     -6.124160   12.971330  -10.967130
  H     -3.732300   12.862710   -9.032960
  H     -4.688070   14.970800  -11.066200
  H     -3.179730   17.067370  -11.158910
  H     -1.056400   18.049610  -10.088690
  H      0.865140   18.466280   -8.829830
  H      2.867730   18.392660   -7.215970
  H      3.951820   16.782990   -5.393750
  H      3.117410   15.175880   -5.074400

 Total Charge           Charge          ....    0
 Multiplicity           Mult            ....    1
 Number of Electrons    NEL             ....  482
 Basis Dimension        Dim             .... 1042

ORBITAL ENERGIES
----------------

  NO   OCC          E(Eh)            E(eV)
   0   2.0000    -482.891814    -13140.1543
   1   2.0000     -88.982340     -2421.3326
   2   2.0000     -88.939316     -2420.1618
   3   2.0000     -88.936318     -2420.0803
   4   2.0000     -62.569516     -1702.6031
   5   2.0000     -56.403475     -1534.8166
   6   2.0000     -56.400744     -1534.7423
   7   2.0000     -56.400715     -1534.7415
   8   2.0000     -19.316868      -525.6387
   9   2.0000     -19.289223      -524.8864
  10   2.0000     -19.227450      -523.2055
  11   2.0000     -19.220863      -523.0263
  12   2.0000     -19.217146      -522.9251
  13   2.0000     -19.195000      -522.3225
  14   2.0000     -19.191586      -522.2296
  15   2.0000     -14.461187      -393.5089
  16   2.0000     -14.450189      -393.2096
  17   2.0000     -14.437426      -392.8623
  18   2.0000     -14.421652      -392.4331
  19   2.0000     -14.419767      -392.3818
  20   2.0000     -10.409575      -283.2589
  21   2.0000     -10.407037      -283.1899
  22   2.0000     -10.382280      -282.5162
  23   2.0000     -10.380715      -282.4736
  24   2.0000     -10.380645      -282.4717
  25   2.0000     -10.377353      -282.3821
  26   2.0000     -10.371968      -282.2356
  27   2.0000     -10.366053      -282.0746
  28   2.0000     -10.350937      -281.6633
  29   2.0000     -10.348868      -281.6070
  30   2.0000     -10.348748      -281.6038
  31   2.0000     -10.336684      -281.2755
  32   2.0000     -10.333371      -281.1853
  33   2.0000     -10.333155      -281.1795
  34   2.0000     -10.326419      -280.9961
  35   2.0000     -10.323969      -280.9295
  36   2.0000     -10.321807      -280.8706
  37   2.0000     -10.321272      -280.8561
  38   2.0000     -10.316189      -280.7178
  39   2.0000     -10.315514      -280.6994
  40   2.0000     -10.315213      -280.6912
  41   2.0000     -10.313006      -280.6312
  42   2.0000     -10.312025      -280.6045
  43   2.0000     -10.310216      -280.5552
  44   2.0000     -10.309556      -280.5373
  45   2.0000     -10.307245      -280.4744
  46   2.0000     -10.306151      -280.4446
  47   2.0000     -10.304775      -280.4072
  48   2.0000     -10.303741      -280.3791
  49   2.0000     -10.302951      -280.3576
  50   2.0000     -10.301183      -280.3094
  51   2.0000     -10.300752      -280.2977
  52   2.0000     -10.300575      -280.2929
  53   2.0000     -10.297358      -280.2053
  54   2.0000     -10.287553      -279.9385
  55   2.0000     -10.287424      -279.9350
  56   2.0000     -10.285048      -279.8704
  57   2.0000     -10.284603      -279.8583
  58   2.0000     -10.282385      -279.7979
  59   2.0000     -10.280901      -279.7575
  60   2.0000     -10.275552      -279.6120
  61   2.0000     -10.274618      -279.5866
  62   2.0000     -10.272949      -279.5412
  63   2.0000     -10.268910      -279.4313
  64   2.0000     -10.268108      -279.4094
  65   2.0000     -10.262635      -279.2605
  66   2.0000     -10.260381      -279.1992
  67   2.0000      -8.798937      -239.4313
  68   2.0000      -8.078395      -219.8243
  69   2.0000      -8.035620      -218.6603
  70   2.0000      -8.033078      -218.5912
  71   2.0000      -6.635278      -180.5551
  72   2.0000      -6.620659      -180.1573
  73   2.0000      -6.620433      -180.1511
  74   2.0000      -6.048092      -164.5769
  75   2.0000      -6.043796      -164.4600
  76   2.0000      -6.039589      -164.3456
  77   2.0000      -6.005363      -163.4142
  78   2.0000      -6.002893      -163.3470
  79   2.0000      -6.001445      -163.3076
  80   2.0000      -5.999010      -163.2414
  81   2.0000      -5.996411      -163.1706
  82   2.0000      -5.993587      -163.0938
  83   2.0000      -2.751128       -74.8620
  84   2.0000      -2.747041       -74.7508
  85   2.0000      -2.746894       -74.7468
  86   2.0000      -2.735258       -74.4301
  87   2.0000      -2.735255       -74.4301
  88   2.0000      -1.240807       -33.7641
  89   2.0000      -1.203086       -32.7376
  90   2.0000      -1.163727       -31.6666
  91   2.0000      -1.143200       -31.1081
  92   2.0000      -1.142293       -31.0834
  93   2.0000      -1.136530       -30.9266
  94   2.0000      -1.115552       -30.3557
  95   2.0000      -1.050833       -28.5946
  96   2.0000      -1.049511       -28.5586
  97   2.0000      -1.030555       -28.0428
  98   2.0000      -1.024142       -27.8683
  99   2.0000      -1.019672       -27.7467
 100   2.0000      -0.999171       -27.1888
 101   2.0000      -0.997452       -27.1420
 102   2.0000      -0.989392       -26.9227
 103   2.0000      -0.966691       -26.3050
 104   2.0000      -0.955129       -25.9904
 105   2.0000      -0.945169       -25.7194
 106   2.0000      -0.935361       -25.4525
 107   2.0000      -0.928916       -25.2771
 108   2.0000      -0.915462       -24.9110
 109   2.0000      -0.914428       -24.8829
 110   2.0000      -0.904840       -24.6220
 111   2.0000      -0.900835       -24.5130
 112   2.0000      -0.893381       -24.3101
 113   2.0000      -0.888845       -24.1867
 114   2.0000      -0.877942       -23.8900
 115   2.0000      -0.868297       -23.6276
 116   2.0000      -0.846985       -23.0476
 117   2.0000      -0.842136       -22.9157
 118   2.0000      -0.840670       -22.8758
 119   2.0000      -0.836254       -22.7556
 120   2.0000      -0.818444       -22.2710
 121   2.0000      -0.811452       -22.0807
 122   2.0000      -0.805720       -21.9248
 123   2.0000      -0.794724       -21.6256
 124   2.0000      -0.784124       -21.3371
 125   2.0000      -0.773382       -21.0448
 126   2.0000      -0.767703       -20.8903
 127   2.0000      -0.767033       -20.8720
 128   2.0000      -0.762456       -20.7475
 129   2.0000      -0.747924       -20.3520
 130   2.0000      -0.746271       -20.3071
 131   2.0000      -0.724804       -19.7229
 132   2.0000      -0.724334       -19.7101
 133   2.0000      -0.714381       -19.4393
 134   2.0000      -0.702188       -19.1075
 135   2.0000      -0.696306       -18.9474
 136   2.0000      -0.694959       -18.9108
 137   2.0000      -0.683408       -18.5965
 138   2.0000      -0.680643       -18.5212
 139   2.0000      -0.672948       -18.3118
 140   2.0000      -0.665517       -18.1096
 141   2.0000      -0.655397       -17.8343
 142   2.0000      -0.644581       -17.5399
 143   2.0000      -0.639823       -17.4105
 144   2.0000      -0.632629       -17.2147
 145   2.0000      -0.631381       -17.1808
 146   2.0000      -0.620998       -16.8982
 147   2.0000      -0.617061       -16.7911
 148   2.0000      -0.610697       -16.6179
 149   2.0000      -0.608422       -16.5560
 150   2.0000      -0.603393       -16.4192
 151   2.0000      -0.600458       -16.3393
 152   2.0000      -0.596439       -16.2299
 153   2.0000      -0.595889       -16.2150
 154   2.0000      -0.588889       -16.0245
 155   2.0000      -0.585339       -15.9279
 156   2.0000      -0.579875       -15.7792
 157   2.0000      -0.575780       -15.6678
 158   2.0000      -0.573702       -15.6112
 159   2.0000      -0.572421       -15.5764
 160   2.0000      -0.565413       -15.3857
 161   2.0000      -0.563747       -15.3403
 162   2.0000      -0.561280       -15.2732
 163   2.0000      -0.554936       -15.1006
 164   2.0000      -0.553893       -15.0722
 165   2.0000      -0.553680       -15.0664
 166   2.0000      -0.548468       -14.9246
 167   2.0000      -0.545618       -14.8470
 168   2.0000      -0.541115       -14.7245
 169   2.0000      -0.536493       -14.5987
 170   2.0000      -0.534178       -14.5357
 171   2.0000      -0.531487       -14.4625
 172   2.0000      -0.526353       -14.3228
 173   2.0000      -0.524726       -14.2785
 174   2.0000      -0.524350       -14.2683
 175   2.0000      -0.523364       -14.2415
 176   2.0000      -0.519433       -14.1345
 177   2.0000      -0.515351       -14.0234
 178   2.0000      -0.511257       -13.9120
 179   2.0000      -0.510856       -13.9011
 180   2.0000      -0.506940       -13.7945
 181   2.0000      -0.506608       -13.7855
 182   2.0000      -0.501118       -13.6361
 183   2.0000      -0.500858       -13.6290
 184   2.0000      -0.499768       -13.5994
 185   2.0000      -0.496082       -13.4991
 186   2.0000      -0.492028       -13.3887
 187   2.0000      -0.490196       -13.3389
 188   2.0000      -0.484699       -13.1893
 189   2.0000      -0.482590       -13.1320
 190   2.0000      -0.481896       -13.1131
 191   2.0000      -0.481287       -13.0965
 192   2.0000      -0.476730       -12.9725
 193   2.0000      -0.473972       -12.8974
 194   2.0000      -0.465604       -12.6697
 195   2.0000      -0.465385       -12.6638
 196   2.0000      -0.463441       -12.6109
 197   2.0000      -0.461218       -12.5504
 198   2.0000      -0.459835       -12.5127
 199   2.0000      -0.458195       -12.4681
 200   2.0000      -0.455161       -12.3856
 201   2.0000      -0.453308       -12.3351
 202   2.0000      -0.449066       -12.2197
 203   2.0000      -0.448299       -12.1988
 204   2.0000      -0.445263       -12.1162
 205   2.0000      -0.442413       -12.0387
 206   2.0000      -0.439576       -11.9615
 207   2.0000      -0.437137       -11.8951
 208   2.0000      -0.431712       -11.7475
 209   2.0000      -0.429546       -11.6885
 210   2.0000      -0.428909       -11.6712
 211   2.0000      -0.424982       -11.5644
 212   2.0000      -0.422754       -11.5037
 213   2.0000      -0.416351       -11.3295
 214   2.0000      -0.413775       -11.2594
 215   2.0000      -0.410418       -11.1680
 216   2.0000      -0.399650       -10.8750
 217   2.0000      -0.393954       -10.7200
 218   2.0000      -0.393902       -10.7186
 219   2.0000      -0.385027       -10.4771
 220   2.0000      -0.381144       -10.3714
 221   2.0000      -0.377826       -10.2812
 222   2.0000      -0.376568       -10.2469
 223   2.0000      -0.368478       -10.0268
 224   2.0000      -0.364592        -9.9211
 225   2.0000      -0.358419        -9.7531
 226   2.0000      -0.353047        -9.6069
 227   2.0000      -0.351996        -9.5783
 228   2.0000      -0.346966        -9.4414
 229   2.0000      -0.346023        -9.4158
 230   2.0000      -0.341701        -9.2981
 231   2.0000      -0.334888        -9.1128
 232   2.0000      -0.329896        -8.9769
 233   2.0000      -0.329351        -8.9621
 234   2.0000      -0.323002        -8.7893
 235   2.0000      -0.320680        -8.7261
 236   2.0000      -0.300744        -8.1837
 237   2.0000      -0.297555        -8.0969
 238   2.0000      -0.276652        -7.5281
 239   2.0000      -0.250745        -6.8231
 240   2.0000      -0.206493        -5.6190
 241   0.0000      -0.106852        -2.9076
 242   0.0000      -0.071825        -1.9545
 243   0.0000      -0.070220        -1.9108
 244   0.0000      -0.057358        -1.5608
 245   0.0000      -0.026424        -0.7190

MULLIKEN ATOMIC CHARGES
-----------------------
   0 C :    0.294154
   1 C :   -0.332927
   2 C :   -0.183139
   3 N :    0.152634
   4 C :   -0.207648
   5 N :    0.178496
   6 C :    0.019550
   7 C :   -0.014348
   8 C :   -0.074539
   9 C :    0.118894
  10 C :   -0.089435
  11 C :   -0.018022
  12 S :    0.191591
  13 C :   -0.123197
  14 C :    0.037881
  15 Br:    0.027868
  16 C :    0.144302
  17 O :   -0.131833
  18 C :   -0.063131
  19 C :   -0.047636
  20 C :    0.072334
  21 O :   -0.172430
  22 C :   -0.015437
  23 C :    0.171860
  24 O :   -0.122944
  25 N :   -0.167897
  26 C :    0.168872
  27 O :   -0.135385
  28 C :   -0.043584
  29 C :    0.103030
  30 C :   -0.047153
  31 C :    0.036838
  32 C :    0.002792
  33 C :   -0.222327
  34 C :    0.093658
  35 C :    0.240397
  36 N :   -0.160929
  37 C :    0.068729
  38 C :   -0.103459
  39 C :    0.159614
  40 O :   -0.221372
  41 C :   -0.109178
  42 C :    0.180176
  43 O :   -0.187964
  44 N :   -0.161842
  45 C :    0.150792
  46 O :   -0.156286
  47 C :   -0.017386
  48 C :    0.091493
  49 C :   -0.049023
  50 C :    0.024330
  51 C :   -0.023716
  52 C :   -0.010517
  53 C :    0.034327
  54 C :    0.028425
  55 C :   -0.050192
  56 S :    0.072261
  57 C :   -0.068195
  58 C :    0.030455
  59 C :    0.049172
  60 C :   -0.063386
  61 S :    0.076573
  62 C :   -0.031092
  63 H :   -0.014664
  64 H :   -0.003603
  65 H :   -0.003814
  66 H :    0.038599
  67 H :    0.142884
  68 H :    0.011948
  69 H :    0.032916
  70 H :   -0.009725
  71 H :    0.029868
  72 H :    0.031374
  73 H :    0.035732
  74 H :    0.013868
  75 H :    0.044653
  76 H :    0.135169
  77 H :    0.027563
  78 H :   -0.025730
  79 H :    0.131068
  80 H :    0.006861
  81 H :    0.007054
  82 H :   -0.013443
  83 H :   -0.012184
  84 H :   -0.015209
  85 H :   -0.012131
  86 H :   -0.011295
  87 H :    0.018944
  88 H :    0.019345
Sum of atomic charges:   -0.0000000

LOEWDIN ATOMIC CHARGES
----------------------
   0 C :    0.071297
   1 C :   -0.131006
   2 C :   -0.017235
   3 N :   -0.047441
   4 C :   -0.030335
   5 N :   -0.033747
   6 C :   -0.020599
   7 C :   -0.052116
   8 C :    0.020274
   9 C :   -0.031877
  10 C :   -0.142502
  11 C :   -0.008631
  12 S :    0.436431
  13 C :   -0.269846
  14 C :   -0.071432
  15 Br:    0.140279
  16 C :    0.083859
  17 O :   -0.142916
  18 C :   -0.079497
  19 C :    0.049165
  20 C :    0.037924
  21 O :    0.045891
  22 C :   -0.055224
  23 C :    0.084244
  24 O :   -0.139233
  25 N :   -0.005460
  26 C :    0.085543
  27 O :   -0.152871
  28 C :   -0.106843
  29 C :    0.094000
  30 C :   -0.054770
  31 C :    0.029412
  32 C :   -0.056209
  33 C :   -0.005418
  34 C :   -0.046056
  35 C :    0.046385
  36 N :    0.011123
  37 C :    0.074103
  38 C :   -0.158130
  39 C :    0.094815
  40 O :    0.000929
  41 C :   -0.142717
  42 C :    0.085124
  43 O :   -0.192460
  44 N :   -0.006744
  45 C :    0.082772
  46 O :   -0.172774
  47 C :   -0.095697
  48 C :    0.055981
  49 C :   -0.040540
  50 C :   -0.019370
  51 C :   -0.059488
  52 C :   -0.141920
  53 C :   -0.034336
  54 C :   -0.031266
  55 C :   -0.179967
  56 S :    0.364366
  57 C :   -0.179028
  58 C :   -0.026342
  59 C :   -0.033587
  60 C :   -0.138706
  61 S :    0.349283
  62 C :   -0.079849
  63 H :    0.038595
  64 H :    0.041735
  65 H :    0.038570
  66 H :    0.060835
  67 H :    0.097188
  68 H :    0.044347
  69 H :    0.037033
  70 H :    0.028692
  71 H :    0.034973
  72 H :    0.039998
  73 H :    0.042077
  74 H :    0.023620
  75 H :    0.041177
  76 H :    0.083100
  77 H :    0.034833
  78 H :    0.027112
  79 H :    0.090608
  80 H :    0.044010
  81 H :    0.025680
  82 H :    0.033600
  83 H :    0.033626
  84 H :    0.030882
  85 H :    0.032127
  86 H :    0.033122
  87 H :    0.028184
  88 H :    0.025258

  Mayer bond orders larger than 0.100000
B(  0-C ,  1-C ) :   1.6495 B(  0-C ,  6-C ) :   1.0078 B(  0-C , 18-C ) :   1.0507
B(  1-C ,  2-C ) :   1.1411 B(  1-C ,  4-C ) :   1.1341 B(  2-C ,  3-N ) :   2.9724
B(  4-C ,  5-N ) :   3.0002 B(  6-C ,  7-C ) :   1.2748 B(  6-C , 11-C ) :   1.4081
B(  7-C ,  8-C ) :   1.4181 B(  7-C , 16-C ) :   0.9469 B(  8-C ,  9-C ) :   1.2522
B(  8-C , 63-H ) :   1.0167 B(  9-C , 10-C ) :   1.3029 B(  9-C , 14-C ) :   1.1620
B( 10-C , 11-C ) :   1.3318 B( 10-C , 12-S ) :   1.0871 B( 11-C , 64-H ) :   0.9805
B( 12-S , 13-C ) :   1.0877 B( 13-C , 14-C ) :   1.6182 B( 13-C , 15-Br) :   1.0212
B( 14-C , 65-H ) :   1.0002 B( 16-C , 17-O ) :   2.2146 B( 16-C , 18-C ) :   0.9255
B( 18-C , 19-C ) :   1.5593 B( 19-C , 20-C ) :   1.2145 B( 19-C , 66-H ) :   0.9352
B( 20-C , 21-O ) :   1.1515 B( 20-C , 22-C ) :   1.3706 B( 21-O , 29-C ) :   1.1992
B( 22-C , 23-C ) :   0.8647 B( 22-C , 28-C ) :   1.3210 B( 23-C , 24-O ) :   2.2703
B( 23-C , 25-N ) :   1.0845 B( 25-N , 26-C ) :   1.0729 B( 25-N , 67-H ) :   0.9131
B( 26-C , 27-O ) :   2.2786 B( 26-C , 28-C ) :   0.8764 B( 28-C , 29-C ) :   1.3393
B( 29-C , 30-C ) :   1.1583 B( 30-C , 31-C ) :   1.6497 B( 30-C , 68-H ) :   0.9735
B( 31-C , 32-C ) :   1.0893 B( 31-C , 69-H ) :   0.9721 B( 32-C , 33-C ) :   1.7518
B( 32-C , 70-H ) :   0.9774 B( 33-C , 34-C ) :   1.0953 B( 33-C , 35-C ) :   1.0017
B( 34-C , 71-H ) :   0.9521 B( 34-C , 72-H ) :   0.9437 B( 34-C , 73-H ) :   0.9413
B( 35-C , 36-N ) :   0.9991 B( 35-C , 74-H ) :   0.9423 B( 35-C , 75-H ) :   0.9175
B( 36-N , 37-C ) :   1.2807 B( 36-N , 76-H ) :   0.9333 B( 37-C , 38-C ) :   1.5533
B( 37-C , 77-H ) :   0.9318 B( 38-C , 39-C ) :   1.2000 B( 38-C , 78-H ) :   0.9581
B( 39-C , 40-O ) :   1.1579 B( 39-C , 41-C ) :   1.3869 B( 40-O , 48-C ) :   1.1128
B( 41-C , 42-C ) :   0.9175 B( 41-C , 47-C ) :   1.2507 B( 42-C , 43-O ) :   2.1206
B( 42-C , 44-N ) :   1.1038 B( 43-O , 77-H ) :   0.1122 B( 44-N , 45-C ) :   1.0732
B( 44-N , 79-H ) :   0.9165 B( 45-C , 46-O ) :   2.2539 B( 45-C , 47-C ) :   0.8923
B( 47-C , 48-C ) :   1.4004 B( 48-C , 49-C ) :   1.1866 B( 49-C , 50-C ) :   1.5758
B( 49-C , 80-H ) :   0.9688 B( 50-C , 51-C ) :   1.1499 B( 50-C , 81-H ) :   0.9824
B( 51-C , 52-C ) :   1.5564 B( 51-C , 82-H ) :   0.9850 B( 52-C , 53-C ) :   1.1399
B( 52-C , 56-S ) :   1.0300 B( 53-C , 54-C ) :   1.6001 B( 53-C , 83-H ) :   1.0000
B( 54-C , 55-C ) :   1.1756 B( 54-C , 84-H ) :   0.9926 B( 55-C , 56-S ) :   1.0375
B( 55-C , 57-C ) :   1.5521 B( 57-C , 58-C ) :   1.1551 B( 57-C , 61-S ) :   1.0436
B( 58-C , 59-C ) :   1.6593 B( 58-C , 85-H ) :   0.9914 B( 59-C , 60-C ) :   1.0812
B( 59-C , 86-H ) :   0.9928 B( 60-C , 61-S ) :   1.0076 B( 60-C , 62-C ) :   1.8629
B( 62-C , 87-H ) :   0.9503 B( 62-C , 88-H ) :   0.9417

-----------------------------------------------------------------------------
         ABSORPTION SPECTRUM VIA TRANSITION ELECTRIC DIPOLE MOMENTS
-----------------------------------------------------------------------------
State   Energy  Wavelength   fosc         T2         TX        TY        TZ
        (cm-1)    (nm)                  (au**2)     (au)      (au)      (au)
-----------------------------------------------------------------------------
   0   14490.6    690.1   0.000446683   0.01015   0.02973  -0.07751   0.05706
   1   16325.9    612.5   1.512799409  30.50570  -4.07037  -3.56900  -1.09545
   2   20405.8    490.1   0.777943365  12.55077  -2.25685   2.40123  -1.30058
   3   22149.4    451.5   0.012254682   0.18214   0.34384  -0.22567   0.11400
   4   23149.2    432.0   0.004204462   0.05979  -0.19463   0.14161  -0.04311
   5   23777.9    420.6   0.001819860   0.02520   0.06896  -0.13911   0.03299
   6   24180.0    413.6   0.082687438   1.12579  -0.45996   0.55731  -0.77694
   7   25786.1    387.8   0.117173387   1.49595  -1.16609  -0.28188   0.23818
   8   26776.6    373.5   0.004344052   0.05341  -0.06185  -0.19731  -0.10322
   9   27355.2    365.6   0.009809899   0.11806   0.27314   0.09893  -0.18348
  10   27644.4    361.7   0.087847107   1.04615   0.99943   0.20889  -0.06045
  11   28258.3    353.9   0.654129963   7.62067  -0.91301   1.54895  -2.09471
  12   28937.8    345.6   0.008788251   0.09998  -0.06499  -0.26613   0.15790
  13   30668.9    326.1   0.081511040   0.87497  -0.37402  -0.46233   0.72203
  14   31162.1    320.9   0.178340173   1.88407  -0.10566  -0.75760   1.13971
  15   31975.7    312.7   0.004904050   0.05049  -0.07839   0.14864  -0.14917
  16   32118.2    311.4   0.001355708   0.01390   0.06883   0.08450   0.04491
  17   32381.3    308.8   0.039531562   0.40191   0.54259   0.22262  -0.24071
  18   32443.4    308.2   0.648207084   6.57754   2.01238   1.13451  -1.11389
  19   32766.1    305.2   0.161085109   1.61848  -0.26492  -0.97571   0.77219
  20   32878.4    304.2   0.265019227   2.65365  -1.42382  -0.08103   0.78728
  21   33553.7    298.0   0.403058644   3.95460   1.65775   0.00721  -1.09837
  22   34194.7    292.4   0.000008437   0.00008  -0.00109  -0.00575  -0.00685
  23   34340.3    291.2   0.150224840   1.44017  -0.69063  -0.58399   0.78877
  24   34438.1    290.4   0.132476485   1.26641  -0.58345   0.95994  -0.06723
  25   34939.9    286.2   0.120702888   1.13729  -0.84816   0.38314  -0.52069
  26   36656.3    272.8   0.052195123   0.46877   0.57302   0.08186   0.36567
  27   36734.1    272.2   0.257184478   2.30489  -1.10004   1.01593  -0.25040
  28   37107.1    269.5   0.134344364   1.19189   0.84997  -0.14132   0.67042
  29   38044.6    262.8   0.053232200   0.46064  -0.34508  -0.57836   0.08401
  30   38327.9    260.9   0.111615899   0.95871  -0.34008  -0.72208   0.56714
  31   38543.6    259.4   0.002255714   0.01927   0.05837   0.09275  -0.08519
  32   38791.0    257.8   0.001073774   0.00911   0.03428   0.06494  -0.06100
  33   39002.2    256.4   0.051719700   0.43656   0.23519  -0.55917   0.26187
  34   39396.6    253.8   0.048774303   0.40758   0.60838   0.14380   0.12950
  35   39428.0    253.6   0.068933778   0.57558  -0.53880  -0.30407   0.43910
  36   39928.1    250.5   0.002104312   0.01735   0.10595   0.07826  -0.00100
  37   40012.5    249.9   0.002432510   0.02001  -0.11412  -0.05381   0.06399

FINAL SINGLE POINT ENERGY     -6371.851412857181

DIPOLE MOMENT
-------------
                                X             Y             Z
Electronic contribution:     84.89383    -118.40160      61.21529
Nuclear contribution   :    -81.71111     120.40425     -61.68401
                        -----------------------------------------
Total Dipole Moment    :      3.18272       2.00265      -0.46871
                        -----------------------------------------
Magnitude (a.u.)       :      3.78946
Magnitude (Debye)      :      9.63204

Rotational constants in cm-1:     0.000871     0.000287     0.000234
Rotational constants in MHz :    26.109484     8.591342     7.026384

                             ****ORCA TERMINATED NORMALLY****
TOTAL RUN TIME: 0 days 0 hours 6 minutes 33 seconds 534 msec
