                         Program Version 4.2.0 -  RELEASE  -
|  1> # ORCA input file
|  2> # SCF done       -172.984102879293          0.000572085411
|  3> ! CAM-B3LYP def2-SVP def2/J RIJCOSX Grid4 TightSCF
|  4> %maxcore 5000
|  5> %tddft
|  6>     Mode sTDDFT
|  7>     Ethresh 5.0
|  8>     maxcore 5000
|  9> end
| 10>
| 11> %pal
| 12>   nprocs 6
| 13>   end
| 14> * xyz 0 1
| 15>    C      -17.89806        -5.70859         6.59484
| 16>    C      -17.20923        -6.55258         5.75042
| 17>    C      -17.41543        -7.94395         5.68146
| 18>    N      -17.52515        -9.08246         5.56830
| 19>    C      -16.20881        -6.18398         4.83038
| 20>    N      -15.38352        -5.99977         4.05042
| 21>    C      -18.92980        -6.13040         7.54225
| 22>    C      -19.41432        -4.98718         8.22304
| 23>    C      -20.39006        -5.05495         9.18542
| 24>    C      -20.91575        -6.31489         9.49457
| 25>    C      -20.42644        -7.45061         8.81030
| 26>    C      -19.43819        -7.38095         7.83454
| 27>    S      -21.21066        -8.90659         9.34686
| 28>    C      -22.17097        -7.97961        10.46882
| 29>    C      -21.92017        -6.64967        10.44413
| 30>   Br      -23.41512        -8.85602        11.56665
| 31>    C      -18.70168        -3.78878         7.72799
| 32>    O      -18.87799        -2.64359         8.09747
| 33>    C      -17.75317        -4.28360         6.71529
| 34>    C      -16.86415        -3.48850         6.01668
| 35>    C      -16.72794        -2.11272         6.14455
| 36>    C      -15.78281        -1.40521         5.41885
| 37>    C      -15.51819        -0.02001         5.44776
| 38>    C      -14.49945         0.37303         4.62131
| 39>    C      -13.91842        -0.68749         3.90450
| 40>    S      -14.70181        -2.19863         4.29950
| 41>    C      -12.86899        -0.69506         2.99516
| 42>    C      -12.05751         0.35257         2.51800
| 43>    C      -11.10275        -0.05772         1.63004
| 44>    C      -11.11729        -1.44595         1.36207
| 45>    S      -12.39327        -2.21286         2.28086
| 46>    C      -10.28256        -2.14935         0.52170
| 47>    C      -10.33832        -3.52215         0.27726
| 48>    S      -11.51562        -4.61897         0.99904
| 49>    C      -10.90696        -6.03416         0.17911
| 50>    C       -9.81820        -5.66884        -0.62416
| 51>    C       -9.52220        -4.28394        -0.55631
| 52>    O       -8.47611        -3.97669        -1.34116
| 53>    C       -8.09647        -5.15346        -1.91303
| 54>    N       -6.99907        -5.13194        -2.80253
| 55>    O       -6.68332        -6.19799        -3.29798
| 56>    O       -6.45560        -4.06768        -3.00924
| 57>    C       -8.87034        -6.21693        -1.51985
| 58>    C      -11.51319        -7.28364         0.36838
| 59>    S      -10.92236        -8.71210        -0.47706
| 60>    C      -12.14958        -9.67218         0.25794
| 61>    C      -12.96115        -8.90650         1.11544
| 62>    C      -12.60467        -7.56713         1.17877
| 63>    S      -14.21959        -9.84478         1.86977
| 64>    C      -13.65793       -11.26178         1.02598
| 65>    C      -14.08809       -12.58758         0.98866
| 66>    C      -13.31421       -13.36239         0.14806
| 67>    S      -12.02822       -12.43555        -0.60518
| 68>    C      -12.54525       -11.00687         0.20929
| 69>    C      -13.41891       -14.74531        -0.17775
| 70>    C      -14.39628       -15.56751         0.25041
| 71>    C      -14.49923       -16.96227        -0.10114
| 72>    C      -15.71315       -17.57069        -0.31891
| 73>    S      -17.33298       -16.89920        -0.25076
| 74>    S      -15.56230       -19.21866        -0.83685
| 75>    C      -13.82655       -19.09695        -0.74030
| 76>    O      -13.03121       -20.14919        -1.01074
| 77>    C      -13.39993       -17.86513        -0.32943
| 78>    C      -11.98180       -17.63973        -0.07461
| 79>    C      -11.47827       -16.90036         0.90347
| 80>    H      -20.73740        -4.16510         9.68668
| 81>    H      -19.09902        -8.27744         7.34325
| 82>    H      -22.42084        -5.93245        11.06865
| 83>    H      -16.20435        -3.97597         5.30827
| 84>    H      -17.36567        -1.57499         6.83042
| 85>    H      -16.08230         0.64549         6.07669
| 86>    H      -14.16032         1.38826         4.51658
| 87>    H      -12.19165         1.37040         2.83734
| 88>    H      -10.38941         0.59630         1.16049
| 89>    H       -9.51016        -1.60461        -0.00481
| 90>    H       -8.75488        -7.23178        -1.83992
| 91>    H      -13.10436        -6.82571         1.77592
| 92>    H      -14.92054       -12.96030         1.55512
| 93>    H      -12.64789       -15.13352        -0.82756
| 94>    H      -15.19474       -15.16991         0.86444
| 95>    H      -16.94887       -15.62494        -0.20726
| 96>    H      -13.55129       -20.92054        -1.26228
| 97>    H      -11.32641       -18.21315        -0.71704
| 98>    H      -12.10061       -16.35602         1.59298
| 99>    H      -10.41520       -16.81910         1.04849
|100> *
|101>
|102>                          ****END OF INPUT****

CARTESIAN COORDINATES (ANGSTROEM)
---------------------------------
  C    -17.898060   -5.708590    6.594840
  C    -17.209230   -6.552580    5.750420
  C    -17.415430   -7.943950    5.681460
  N    -17.525150   -9.082460    5.568300
  C    -16.208810   -6.183980    4.830380
  N    -15.383520   -5.999770    4.050420
  C    -18.929800   -6.130400    7.542250
  C    -19.414320   -4.987180    8.223040
  C    -20.390060   -5.054950    9.185420
  C    -20.915750   -6.314890    9.494570
  C    -20.426440   -7.450610    8.810300
  C    -19.438190   -7.380950    7.834540
  S    -21.210660   -8.906590    9.346860
  C    -22.170970   -7.979610   10.468820
  C    -21.920170   -6.649670   10.444130
  Br   -23.415120   -8.856020   11.566650
  C    -18.701680   -3.788780    7.727990
  O    -18.877990   -2.643590    8.097470
  C    -17.753170   -4.283600    6.715290
  C    -16.864150   -3.488500    6.016680
  C    -16.727940   -2.112720    6.144550
  C    -15.782810   -1.405210    5.418850
  C    -15.518190   -0.020010    5.447760
  C    -14.499450    0.373030    4.621310
  C    -13.918420   -0.687490    3.904500
  S    -14.701810   -2.198630    4.299500
  C    -12.868990   -0.695060    2.995160
  C    -12.057510    0.352570    2.518000
  C    -11.102750   -0.057720    1.630040
  C    -11.117290   -1.445950    1.362070
  S    -12.393270   -2.212860    2.280860
  C    -10.282560   -2.149350    0.521700
  C    -10.338320   -3.522150    0.277260
  S    -11.515620   -4.618970    0.999040
  C    -10.906960   -6.034160    0.179110
  C     -9.818200   -5.668840   -0.624160
  C     -9.522200   -4.283940   -0.556310
  O     -8.476110   -3.976690   -1.341160
  C     -8.096470   -5.153460   -1.913030
  N     -6.999070   -5.131940   -2.802530
  O     -6.683320   -6.197990   -3.297980
  O     -6.455600   -4.067680   -3.009240
  C     -8.870340   -6.216930   -1.519850
  C    -11.513190   -7.283640    0.368380
  S    -10.922360   -8.712100   -0.477060
  C    -12.149580   -9.672180    0.257940
  C    -12.961150   -8.906500    1.115440
  C    -12.604670   -7.567130    1.178770
  S    -14.219590   -9.844780    1.869770
  C    -13.657930  -11.261780    1.025980
  C    -14.088090  -12.587580    0.988660
  C    -13.314210  -13.362390    0.148060
  S    -12.028220  -12.435550   -0.605180
  C    -12.545250  -11.006870    0.209290
  C    -13.418910  -14.745310   -0.177750
  C    -14.396280  -15.567510    0.250410
  C    -14.499230  -16.962270   -0.101140
  C    -15.713150  -17.570690   -0.318910
  S    -17.332980  -16.899200   -0.250760
  S    -15.562300  -19.218660   -0.836850
  C    -13.826550  -19.096950   -0.740300
  O    -13.031210  -20.149190   -1.010740
  C    -13.399930  -17.865130   -0.329430
  C    -11.981800  -17.639730   -0.074610
  C    -11.478270  -16.900360    0.903470
  H    -20.737400   -4.165100    9.686680
  H    -19.099020   -8.277440    7.343250
  H    -22.420840   -5.932450   11.068650
  H    -16.204350   -3.975970    5.308270
  H    -17.365670   -1.574990    6.830420
  H    -16.082300    0.645490    6.076690
  H    -14.160320    1.388260    4.516580
  H    -12.191650    1.370400    2.837340
  H    -10.389410    0.596300    1.160490
  H     -9.510160   -1.604610   -0.004810
  H     -8.754880   -7.231780   -1.839920
  H    -13.104360   -6.825710    1.775920
  H    -14.920540  -12.960300    1.555120
  H    -12.647890  -15.133520   -0.827560
  H    -15.194740  -15.169910    0.864440
  H    -16.948870  -15.624940   -0.207260
  H    -13.551290  -20.920540   -1.262280
  H    -11.326410  -18.213150   -0.717040
  H    -12.100610  -16.356020    1.592980
  H    -10.415200  -16.819100    1.048490

 Total Charge           Charge          ....    0
 Multiplicity           Mult            ....    1
 Number of Electrons    NEL             ....  542
 Basis Dimension        Dim             .... 1064

ORBITAL ENERGIES
----------------

  NO   OCC          E(Eh)            E(eV)
   0   2.0000    -482.876442    -13139.7360
   1   2.0000     -88.984516     -2421.3918
   2   2.0000     -88.976055     -2421.1615
   3   2.0000     -88.965610     -2420.8773
   4   2.0000     -88.965191     -2420.8659
   5   2.0000     -88.963871     -2420.8300
   6   2.0000     -88.962091     -2420.7816
   7   2.0000     -88.961448     -2420.7641
   8   2.0000     -88.956046     -2420.6171
   9   2.0000     -88.940168     -2420.1850
  10   2.0000     -62.554141     -1702.1847
  11   2.0000     -56.388076     -1534.3976
  12   2.0000     -56.385391     -1534.3245
  13   2.0000     -56.385351     -1534.3234
  14   2.0000     -19.323934      -525.8310
  15   2.0000     -19.265592      -524.2434
  16   2.0000     -19.247518      -523.7516
  17   2.0000     -19.245574      -523.6987
  18   2.0000     -19.196750      -522.3701
  19   2.0000     -14.660088      -398.9213
  20   2.0000     -14.404037      -391.9538
  21   2.0000     -14.397326      -391.7711
  22   2.0000     -10.393936      -282.8334
  23   2.0000     -10.366214      -282.0790
  24   2.0000     -10.353907      -281.7441
  25   2.0000     -10.347359      -281.5659
  26   2.0000     -10.346847      -281.5520
  27   2.0000     -10.345256      -281.5087
  28   2.0000     -10.335321      -281.2384
  29   2.0000     -10.329143      -281.0703
  30   2.0000     -10.325615      -280.9743
  31   2.0000     -10.323584      -280.9190
  32   2.0000     -10.323064      -280.9049
  33   2.0000     -10.322487      -280.8891
  34   2.0000     -10.322213      -280.8817
  35   2.0000     -10.321171      -280.8533
  36   2.0000     -10.319266      -280.8015
  37   2.0000     -10.319123      -280.7976
  38   2.0000     -10.318364      -280.7770
  39   2.0000     -10.318140      -280.7709
  40   2.0000     -10.313387      -280.6415
  41   2.0000     -10.311534      -280.5911
  42   2.0000     -10.311378      -280.5869
  43   2.0000     -10.311212      -280.5823
  44   2.0000     -10.310666      -280.5675
  45   2.0000     -10.309801      -280.5440
  46   2.0000     -10.308915      -280.5198
  47   2.0000     -10.307778      -280.4889
  48   2.0000     -10.303821      -280.3812
  49   2.0000     -10.302606      -280.3482
  50   2.0000     -10.300563      -280.2926
  51   2.0000     -10.300396      -280.2880
  52   2.0000     -10.294094      -280.1165
  53   2.0000     -10.293454      -280.0991
  54   2.0000     -10.292071      -280.0615
  55   2.0000     -10.290327      -280.0140
  56   2.0000     -10.289375      -279.9881
  57   2.0000     -10.285970      -279.8955
  58   2.0000     -10.285899      -279.8936
  59   2.0000     -10.285671      -279.8873
  60   2.0000     -10.284042      -279.8430
  61   2.0000     -10.283281      -279.8223
  62   2.0000     -10.282998      -279.8146
  63   2.0000     -10.275564      -279.6123
  64   2.0000     -10.271481      -279.5012
  65   2.0000     -10.270113      -279.4640
  66   2.0000     -10.269237      -279.4401
  67   2.0000     -10.267262      -279.3864
  68   2.0000     -10.252919      -278.9961
  69   2.0000      -8.783553      -239.0126
  70   2.0000      -8.078864      -219.8371
  71   2.0000      -8.070946      -219.6216
  72   2.0000      -8.062001      -219.3782
  73   2.0000      -8.060573      -219.3393
  74   2.0000      -8.059788      -219.3180
  75   2.0000      -8.058470      -219.2821
  76   2.0000      -8.057263      -219.2493
  77   2.0000      -8.052176      -219.1109
  78   2.0000      -8.035736      -218.6635
  79   2.0000      -6.619777      -180.1333
  80   2.0000      -6.605313      -179.7397
  81   2.0000      -6.605152      -179.7353
  82   2.0000      -6.048434      -164.5863
  83   2.0000      -6.044174      -164.4703
  84   2.0000      -6.040635      -164.3740
  85   2.0000      -6.040529      -164.3712
  86   2.0000      -6.036517      -164.2620
  87   2.0000      -6.032324      -164.1479
  88   2.0000      -6.031678      -164.1303
  89   2.0000      -6.030075      -164.0867
  90   2.0000      -6.029457      -164.0699
  91   2.0000      -6.027925      -164.0282
  92   2.0000      -6.027425      -164.0146
  93   2.0000      -6.027014      -164.0034
  94   2.0000      -6.026014      -163.9762
  95   2.0000      -6.025244      -163.9552
  96   2.0000      -6.024020      -163.9219
  97   2.0000      -6.023104      -163.8970
  98   2.0000      -6.023089      -163.8966
  99   2.0000      -6.022186      -163.8720
 100   2.0000      -6.021713      -163.8591
 101   2.0000      -6.021041      -163.8409
 102   2.0000      -6.019736      -163.8053
 103   2.0000      -6.018179      -163.7630
 104   2.0000      -6.017693      -163.7497
 105   2.0000      -6.013443      -163.6341
 106   2.0000      -6.006162      -163.4360
 107   2.0000      -6.001979      -163.3221
 108   2.0000      -5.995611      -163.1489
 109   2.0000      -2.735678       -74.4416
 110   2.0000      -2.731589       -74.3303
 111   2.0000      -2.731471       -74.3271
 112   2.0000      -2.719971       -74.0142
 113   2.0000      -2.719958       -74.0138
 114   2.0000      -1.330907       -36.2158
 115   2.0000      -1.243735       -33.8437
 116   2.0000      -1.162026       -31.6203
 117   2.0000      -1.147129       -31.2150
 118   2.0000      -1.110008       -30.2049
 119   2.0000      -1.028262       -27.9804
 120   2.0000      -1.017039       -27.6750
 121   2.0000      -1.009021       -27.4568
 122   2.0000      -1.008086       -27.4314
 123   2.0000      -0.999485       -27.1974
 124   2.0000      -0.989125       -26.9155
 125   2.0000      -0.985947       -26.8290
 126   2.0000      -0.982304       -26.7298
 127   2.0000      -0.979645       -26.6575
 128   2.0000      -0.972893       -26.4738
 129   2.0000      -0.947785       -25.7906
 130   2.0000      -0.934818       -25.4377
 131   2.0000      -0.929109       -25.2823
 132   2.0000      -0.916556       -24.9408
 133   2.0000      -0.902660       -24.5626
 134   2.0000      -0.898023       -24.4364
 135   2.0000      -0.895076       -24.3563
 136   2.0000      -0.893310       -24.3082
 137   2.0000      -0.887693       -24.1554
 138   2.0000      -0.877192       -23.8696
 139   2.0000      -0.871701       -23.7202
 140   2.0000      -0.866381       -23.5754
 141   2.0000      -0.862597       -23.4725
 142   2.0000      -0.856165       -23.2974
 143   2.0000      -0.846715       -23.0403
 144   2.0000      -0.843219       -22.9452
 145   2.0000      -0.835053       -22.7229
 146   2.0000      -0.828606       -22.5475
 147   2.0000      -0.817885       -22.2558
 148   2.0000      -0.815319       -22.1860
 149   2.0000      -0.805250       -21.9120
 150   2.0000      -0.796530       -21.6747
 151   2.0000      -0.792552       -21.5664
 152   2.0000      -0.782538       -21.2939
 153   2.0000      -0.771285       -20.9877
 154   2.0000      -0.756519       -20.5859
 155   2.0000      -0.743187       -20.2232
 156   2.0000      -0.732323       -19.9275
 157   2.0000      -0.727683       -19.8013
 158   2.0000      -0.707268       -19.2457
 159   2.0000      -0.702670       -19.1206
 160   2.0000      -0.691075       -18.8051
 161   2.0000      -0.683307       -18.5937
 162   2.0000      -0.681496       -18.5445
 163   2.0000      -0.674545       -18.3553
 164   2.0000      -0.671096       -18.2614
 165   2.0000      -0.663851       -18.0643
 166   2.0000      -0.658271       -17.9125
 167   2.0000      -0.656416       -17.8620
 168   2.0000      -0.654871       -17.8199
 169   2.0000      -0.645887       -17.5755
 170   2.0000      -0.644696       -17.5431
 171   2.0000      -0.641233       -17.4488
 172   2.0000      -0.635244       -17.2859
 173   2.0000      -0.632899       -17.2221
 174   2.0000      -0.625573       -17.0227
 175   2.0000      -0.622790       -16.9470
 176   2.0000      -0.616485       -16.7754
 177   2.0000      -0.612030       -16.6542
 178   2.0000      -0.608545       -16.5593
 179   2.0000      -0.607757       -16.5379
 180   2.0000      -0.599077       -16.3017
 181   2.0000      -0.589882       -16.0515
 182   2.0000      -0.585898       -15.9431
 183   2.0000      -0.584321       -15.9002
 184   2.0000      -0.579742       -15.7756
 185   2.0000      -0.579480       -15.7684
 186   2.0000      -0.569124       -15.4867
 187   2.0000      -0.568070       -15.4580
 188   2.0000      -0.562555       -15.3079
 189   2.0000      -0.548631       -14.9290
 190   2.0000      -0.544004       -14.8031
 191   2.0000      -0.540205       -14.6997
 192   2.0000      -0.536786       -14.6067
 193   2.0000      -0.532003       -14.4765
 194   2.0000      -0.530520       -14.4362
 195   2.0000      -0.525736       -14.3060
 196   2.0000      -0.524199       -14.2642
 197   2.0000      -0.523272       -14.2389
 198   2.0000      -0.521000       -14.1771
 199   2.0000      -0.517363       -14.0782
 200   2.0000      -0.516604       -14.0575
 201   2.0000      -0.514342       -13.9960
 202   2.0000      -0.514237       -13.9931
 203   2.0000      -0.513700       -13.9785
 204   2.0000      -0.507469       -13.8089
 205   2.0000      -0.501835       -13.6556
 206   2.0000      -0.496647       -13.5145
 207   2.0000      -0.496366       -13.5068
 208   2.0000      -0.495019       -13.4702
 209   2.0000      -0.493319       -13.4239
 210   2.0000      -0.489159       -13.3107
 211   2.0000      -0.485257       -13.2045
 212   2.0000      -0.482874       -13.1397
 213   2.0000      -0.482428       -13.1275
 214   2.0000      -0.479811       -13.0563
 215   2.0000      -0.477197       -12.9852
 216   2.0000      -0.476874       -12.9764
 217   2.0000      -0.472648       -12.8614
 218   2.0000      -0.467705       -12.7269
 219   2.0000      -0.465728       -12.6731
 220   2.0000      -0.462005       -12.5718
 221   2.0000      -0.457565       -12.4510
 222   2.0000      -0.455670       -12.3994
 223   2.0000      -0.453528       -12.3411
 224   2.0000      -0.448442       -12.2027
 225   2.0000      -0.446514       -12.1503
 226   2.0000      -0.444798       -12.1036
 227   2.0000      -0.441550       -12.0152
 228   2.0000      -0.440188       -11.9781
 229   2.0000      -0.435857       -11.8603
 230   2.0000      -0.433880       -11.8065
 231   2.0000      -0.432439       -11.7673
 232   2.0000      -0.430401       -11.7118
 233   2.0000      -0.429854       -11.6969
 234   2.0000      -0.426558       -11.6072
 235   2.0000      -0.423288       -11.5182
 236   2.0000      -0.423101       -11.5132
 237   2.0000      -0.415434       -11.3045
 238   2.0000      -0.413763       -11.2591
 239   2.0000      -0.412990       -11.2380
 240   2.0000      -0.410064       -11.1584
 241   2.0000      -0.409366       -11.1394
 242   2.0000      -0.404417       -11.0048
 243   2.0000      -0.400575       -10.9002
 244   2.0000      -0.393997       -10.7212
 245   2.0000      -0.393477       -10.7070
 246   2.0000      -0.393189       -10.6992
 247   2.0000      -0.387821       -10.5532
 248   2.0000      -0.383966       -10.4482
 249   2.0000      -0.377490       -10.2720
 250   2.0000      -0.375614       -10.2210
 251   2.0000      -0.372850       -10.1458
 252   2.0000      -0.370942       -10.0938
 253   2.0000      -0.366022        -9.9600
 254   2.0000      -0.360697        -9.8151
 255   2.0000      -0.354045        -9.6341
 256   2.0000      -0.346781        -9.4364
 257   2.0000      -0.342338        -9.3155
 258   2.0000      -0.342192        -9.3115
 259   2.0000      -0.337981        -9.1969
 260   2.0000      -0.328418        -8.9367
 261   2.0000      -0.319291        -8.6883
 262   2.0000      -0.317503        -8.6397
 263   2.0000      -0.302713        -8.2372
 264   2.0000      -0.301702        -8.2097
 265   2.0000      -0.290610        -7.9079
 266   2.0000      -0.282344        -7.6830
 267   2.0000      -0.277027        -7.5383
 268   2.0000      -0.257993        -7.0204
 269   2.0000      -0.243387        -6.6229
 270   2.0000      -0.216347        -5.8871
 271   0.0000      -0.114912        -3.1269
 272   0.0000      -0.079534        -2.1642
 273   0.0000      -0.056613        -1.5405
 274   0.0000      -0.043883        -1.1941
 275   0.0000      -0.034254        -0.9321

MULLIKEN ATOMIC CHARGES
-----------------------
   0 C :    0.333554
   1 C :   -0.370181
   2 C :   -0.194656
   3 N :    0.130003
   4 C :   -0.190513
   5 N :    0.118009
   6 C :    0.013053
   7 C :   -0.014497
   8 C :   -0.074977
   9 C :    0.116910
  10 C :   -0.093563
  11 C :   -0.025270
  12 S :    0.176512
  13 C :   -0.123035
  14 C :    0.035927
  15 Br:    0.012903
  16 C :    0.133749
  17 O :   -0.164904
  18 C :   -0.087286
  19 C :   -0.049847
  20 C :   -0.019718
  21 C :    0.007736
  22 C :    0.019950
  23 C :    0.045613
  24 C :   -0.048826
  25 S :    0.087444
  26 C :   -0.002938
  27 C :    0.021692
  28 C :    0.050498
  29 C :   -0.045269
  30 S :    0.070004
  31 C :    0.032369
  32 C :   -0.178597
  33 S :    0.132387
  34 C :   -0.053169
  35 C :    0.077614
  36 C :    0.202128
  37 O :   -0.172924
  38 C :    0.225445
  39 N :    0.278807
  40 O :   -0.249115
  41 O :   -0.233318
  42 C :   -0.079863
  43 C :   -0.071194
  44 S :    0.142160
  45 C :   -0.067080
  46 C :   -0.019928
  47 C :   -0.056067
  48 S :    0.194253
  49 C :   -0.029459
  50 C :   -0.039719
  51 C :   -0.083236
  52 S :    0.155695
  53 C :   -0.080577
  54 C :    0.072640
  55 C :   -0.100415
  56 C :    0.157462
  57 C :   -0.258436
  58 S :    0.049308
  59 S :    0.089328
  60 C :   -0.042409
  61 O :   -0.166745
  62 C :    0.024362
  63 C :   -0.038958
  64 C :   -0.014680
  65 H :   -0.016649
  66 H :   -0.011264
  67 H :   -0.006957
  68 H :    0.015491
  69 H :    0.014119
  70 H :   -0.002304
  71 H :   -0.006787
  72 H :   -0.008031
  73 H :   -0.000507
  74 H :    0.014468
  75 H :    0.020637
  76 H :    0.021654
  77 H :   -0.011078
  78 H :    0.000068
  79 H :   -0.005737
  80 H :    0.071893
  81 H :    0.193152
  82 H :    0.003608
  83 H :    0.027267
  84 H :    0.020814
Sum of atomic charges:   -0.0000000

LOEWDIN ATOMIC CHARGES
----------------------
   0 C :    0.075047
   1 C :   -0.167016
   2 C :   -0.019389
   3 N :   -0.078318
   4 C :   -0.013738
   5 N :   -0.089146
   6 C :   -0.017943
   7 C :   -0.047875
   8 C :    0.016359
   9 C :   -0.036594
  10 C :   -0.146853
  11 C :   -0.014911
  12 S :    0.424933
  13 C :   -0.275603
  14 C :   -0.070795
  15 Br:    0.128289
  16 C :    0.080622
  17 O :   -0.160168
  18 C :   -0.115272
  19 C :    0.044696
  20 C :   -0.076385
  21 C :   -0.102734
  22 C :   -0.048631
  23 C :   -0.007653
  24 C :   -0.199358
  25 S :    0.412194
  26 C :   -0.143652
  27 C :   -0.049580
  28 C :   -0.006913
  29 C :   -0.174994
  30 S :    0.396740
  31 C :   -0.026814
  32 C :   -0.213013
  33 S :    0.466895
  34 C :   -0.151359
  35 C :   -0.095126
  36 C :    0.040664
  37 O :    0.013115
  38 C :    0.021449
  39 N :    0.271897
  40 O :   -0.210215
  41 O :   -0.194723
  42 C :   -0.006955
  43 C :   -0.192725
  44 S :    0.428310
  45 C :   -0.199977
  46 C :   -0.190471
  47 C :   -0.037306
  48 S :    0.431992
  49 C :   -0.177224
  50 C :   -0.070221
  51 C :   -0.148654
  52 S :    0.431203
  53 C :   -0.227553
  54 C :   -0.034884
  55 C :   -0.023688
  56 C :   -0.080594
  57 C :   -0.329568
  58 S :    0.224456
  59 S :    0.377359
  60 C :   -0.097896
  61 O :   -0.046440
  62 C :   -0.109428
  63 C :   -0.022475
  64 C :   -0.046943
  65 H :    0.038399
  66 H :    0.039373
  67 H :    0.037293
  68 H :    0.028319
  69 H :    0.038154
  70 H :    0.037539
  71 H :    0.035276
  72 H :    0.034741
  73 H :    0.038552
  74 H :    0.051284
  75 H :    0.043987
  76 H :    0.041907
  77 H :    0.033999
  78 H :    0.032633
  79 H :    0.021666
  80 H :   -0.016454
  81 H :    0.098073
  82 H :    0.031196
  83 H :    0.022262
  84 H :    0.023352

  Mayer bond orders larger than 0.100000
B(  0-C ,  1-C ) :   1.5521 B(  0-C ,  6-C ) :   0.9863 B(  0-C , 18-C ) :   1.1389
B(  1-C ,  2-C ) :   1.1542 B(  1-C ,  4-C ) :   1.1561 B(  2-C ,  3-N ) :   2.9601
B(  4-C ,  5-N ) :   2.9605 B(  6-C ,  7-C ) :   1.2785 B(  6-C , 11-C ) :   1.4224
B(  7-C ,  8-C ) :   1.4361 B(  7-C , 16-C ) :   0.9318 B(  8-C ,  9-C ) :   1.2365
B(  8-C , 65-H ) :   1.0159 B(  9-C , 10-C ) :   1.3191 B(  9-C , 14-C ) :   1.1608
B( 10-C , 11-C ) :   1.3183 B( 10-C , 12-S ) :   1.0821 B( 11-C , 66-H ) :   0.9790
B( 12-S , 13-C ) :   1.0847 B( 13-C , 14-C ) :   1.6212 B( 13-C , 15-Br) :   1.0117
B( 14-C , 67-H ) :   1.0001 B( 16-C , 17-O ) :   2.1922 B( 16-C , 18-C ) :   0.9702
B( 18-C , 19-C ) :   1.4430 B( 19-C , 20-C ) :   1.2983 B( 19-C , 68-H ) :   0.9391
B( 20-C , 21-C ) :   1.3740 B( 20-C , 69-H ) :   0.9831 B( 21-C , 22-C ) :   1.2066
B( 21-C , 25-S ) :   1.0970 B( 22-C , 23-C ) :   1.5058 B( 22-C , 70-H ) :   1.0013
B( 23-C , 24-C ) :   1.2486 B( 23-C , 71-H ) :   0.9962 B( 24-C , 25-S ) :   1.0487
B( 24-C , 26-C ) :   1.4210 B( 26-C , 27-C ) :   1.2247 B( 26-C , 30-S ) :   1.0889
B( 27-C , 28-C ) :   1.5431 B( 27-C , 72-H ) :   0.9946 B( 28-C , 29-C ) :   1.1815
B( 28-C , 73-H ) :   0.9995 B( 29-C , 30-S ) :   1.0323 B( 29-C , 31-C ) :   1.4887
B( 31-C , 32-C ) :   1.2513 B( 31-C , 74-H ) :   0.9772 B( 32-C , 33-S ) :   1.0427
B( 32-C , 36-C ) :   1.3894 B( 33-S , 34-C ) :   1.1664 B( 34-C , 35-C ) :   1.2905
B( 34-C , 43-C ) :   1.2670 B( 35-C , 36-C ) :   1.2560 B( 35-C , 42-C ) :   1.1031
B( 36-C , 37-O ) :   1.1574 B( 37-O , 38-C ) :   1.1135 B( 38-C , 39-N ) :   0.9249
B( 38-C , 42-C ) :   1.5616 B( 39-N , 40-O ) :   1.5282 B( 39-N , 41-O ) :   1.5056
B( 40-O , 41-O ) :   0.2781 B( 42-C , 75-H ) :   1.0155 B( 43-C , 44-S ) :   1.0673
B( 43-C , 47-C ) :   1.4241 B( 44-S , 45-C ) :   1.0815 B( 45-C , 46-C ) :   1.4190
B( 45-C , 53-C ) :   1.3267 B( 46-C , 47-C ) :   1.3242 B( 46-C , 48-S ) :   1.0496
B( 47-C , 76-H ) :   0.9923 B( 48-S , 49-C ) :   1.0594 B( 49-C , 50-C ) :   1.2791
B( 49-C , 53-C ) :   1.4371 B( 50-C , 51-C ) :   1.5121 B( 50-C , 77-H ) :   0.9981
B( 51-C , 52-S ) :   1.1019 B( 51-C , 54-C ) :   1.1128 B( 52-S , 53-C ) :   1.0648
B( 54-C , 55-C ) :   1.7523 B( 54-C , 78-H ) :   0.9568 B( 55-C , 56-C ) :   1.0619
B( 55-C , 79-H ) :   0.9526 B( 56-C , 57-C ) :   1.5388 B( 56-C , 62-C ) :   1.1967
B( 57-C , 58-S ) :   1.0389 B( 57-C , 59-S ) :   1.0773 B( 58-S , 80-H ) :   0.9464
B( 59-S , 60-C ) :   1.0941 B( 60-C , 61-O ) :   1.2172 B( 60-C , 62-C ) :   1.5263
B( 61-O , 81-H ) :   0.9533 B( 62-C , 63-C ) :   1.0508 B( 63-C , 64-C ) :   1.9680
B( 63-C , 82-H ) :   0.9579 B( 64-C , 83-H ) :   0.9523 B( 64-C , 84-H ) :   0.9525

-----------------------------------------------------------------------------
         ABSORPTION SPECTRUM VIA TRANSITION ELECTRIC DIPOLE MOMENTS
-----------------------------------------------------------------------------
State   Energy  Wavelength   fosc         T2         TX        TY        TZ
        (cm-1)    (nm)                  (au**2)     (au)      (au)      (au)
-----------------------------------------------------------------------------
   0    8465.0   1181.3   0.590384607  22.96075  -2.89766   1.98289   3.26074
   1   15828.8    631.8   0.024805669   0.51591  -0.45343  -0.47440   0.29199
   2   16970.5    589.3   1.918912363  37.22504   3.12831   5.06268  -1.34461
   3   20702.8    483.0   0.152854655   2.43067   0.57440  -1.20549  -0.80468
   4   21297.2    469.5   0.152127132   2.35158   0.18576  -1.50736  -0.21196
   5   23257.2    430.0   0.106327746   1.50510  -0.65633  -0.89543   0.52204
   6   23643.4    423.0   0.319794635   4.45283   0.66721  -1.74238  -0.98578
   7   23925.7    418.0   0.188877724   2.59892   1.06478   1.15676  -0.35644
   8   24364.0    410.4   0.009939011   0.13430  -0.03251   0.34986   0.10411
   9   24902.5    401.6   0.392351898   5.18691  -1.30085  -1.72093   0.73014
  10   26519.2    377.1   0.150811122   1.87219  -0.53806  -1.23028  -0.26284
  11   26834.0    372.7   0.000041286   0.00051  -0.01418  -0.01273   0.01198
  12   27840.8    359.2   0.019451204   0.23001   0.33997  -0.33821   0.00655
  13   28121.0    355.6   0.001534512   0.01796  -0.05091  -0.02847  -0.12067
  14   28203.0    354.6   0.071490604   0.83451  -0.58823   0.10123   0.69156
  15   29257.2    341.8   0.025200345   0.28356  -0.19464  -0.46640   0.16778
  16   29761.3    336.0   0.055381522   0.61262  -0.64616   0.18937   0.39904
  17   29795.1    335.6   0.007151278   0.07902  -0.23269   0.08839   0.13061
  18   29939.2    334.0   0.086278732   0.94872   0.58999   0.73790  -0.23692
  19   30842.7    324.2   0.041290630   0.44073  -0.19784   0.17250   0.60978
  20   31216.2    320.3   0.334461794   3.52730  -1.17779   0.67656   1.29706
  21   31623.0    316.2   0.000525483   0.00547   0.03091   0.06191   0.02612
  22   31668.8    315.8   0.100487004   1.04461   0.19855   0.97779   0.22161
  23   32076.0    311.8   0.132751000   1.36249  -0.85055  -0.44662   0.66301
  24   32418.5    308.5   0.130840165   1.32869  -0.57186  -0.83544   0.55110
  25   32813.0    304.8   0.105644868   1.05993  -0.82424  -0.28786   0.54561
  26   33706.5    296.7   0.033581952   0.32800  -0.41467   0.08453   0.38588
  27   33809.0    295.8   0.038876486   0.37856  -0.41735  -0.39750   0.21535
  28   34043.8    293.7   0.010341417   0.10000   0.10767  -0.19489  -0.22456
  29   34544.2    289.5   0.022892287   0.21817   0.02752   0.46164   0.06559
  30   34736.2    287.9   0.009993479   0.09471  -0.20550   0.11816   0.19627
  31   35005.9    285.7   0.170720960   1.60554   0.91262   0.22943  -0.84854
  32   35519.6    281.5   0.004335783   0.04019   0.14383   0.13480  -0.03645
  33   36384.2    274.8   0.505014197   4.56948  -1.42482   0.65206   1.45402
  34   36673.6    272.7   0.062678607   0.56265  -0.19788   0.63931   0.33880
  35   37136.5    269.3   0.073637579   0.65279   0.58980  -0.19609  -0.51622
  36   37373.7    267.6   0.004808345   0.04236   0.03409   0.20173   0.02232
  37   38008.0    263.1   0.022000981   0.19056   0.03526  -0.43273  -0.04544
  38   38320.2    261.0   0.038820425   0.33351   0.28154   0.49401  -0.10096
  39   38551.3    259.4   0.067270874   0.57447  -0.57193   0.21874   0.44667
  40   38584.8    259.2   0.000753140   0.00643   0.03041  -0.02879  -0.06835
  41   38606.3    259.0   0.039417991   0.33613   0.39139  -0.03147  -0.42657
  42   38779.5    257.9   0.095907980   0.81420  -0.77087  -0.27968   0.37647
  43   39059.1    256.0   0.128871441   1.08620   0.59352  -0.50317  -0.69336
  44   39479.6    253.3   0.046701261   0.38943   0.52864   0.11065  -0.31262
  45   39620.5    252.4   0.029996365   0.24924  -0.30769   0.07069   0.38675
  46   39861.8    250.9   0.006705691   0.05538   0.01418   0.21635   0.09151

FINAL SINGLE POINT ENERGY     -8496.845261319406

DIPOLE MOMENT
-------------
                                X             Y             Z
Electronic contribution:    -89.45249      -1.84790      83.78138
Nuclear contribution   :     89.40554       2.37306     -84.05849
                        -----------------------------------------
Total Dipole Moment    :     -0.04695       0.52516      -0.27712
                        -----------------------------------------
Magnitude (a.u.)       :      0.59565
Magnitude (Debye)      :      1.51401

Rotational constants in cm-1:     0.000528     0.000423     0.000238
Rotational constants in MHz :    15.837616    12.672210     7.121215

                             ****ORCA TERMINATED NORMALLY****
TOTAL RUN TIME: 0 days 0 hours 9 minutes 11 seconds 97 msec
