                         Program Version 4.2.0 -  RELEASE  -
|  1> # ORCA input file
|  2> # SCF done       -172.399170471255          0.000897662390
|  3> ! CAM-B3LYP def2-SVP def2/J RIJCOSX Grid4 TightSCF
|  4> %maxcore 5000
|  5> %tddft
|  6>     Mode sTDDFT
|  7>     Ethresh 5.0
|  8>     maxcore 5000
|  9> end
| 10>
| 11> %pal
| 12>   nprocs 6
| 13>   end
| 14> * xyz 0 1
| 15>    C       -5.32600        -0.23878         2.78336
| 16>    C       -6.09886        -1.37223         2.80032
| 17>    C       -5.80929        -2.51519         3.57474
| 18>    N       -5.63061        -3.47437         4.17988
| 19>    C       -7.28744        -1.57381         2.06879
| 20>    N       -8.26288        -1.81780         1.51254
| 21>    C       -4.09730        -0.05093         3.54516
| 22>    C       -3.58930         1.24243         3.27656
| 23>    C       -2.43903         1.72473         3.85190
| 24>    C       -1.74567         0.88320         4.72726
| 25>    C       -2.25521        -0.41194         4.98462
| 26>    C       -3.42417        -0.89457         4.41044
| 27>    S       -1.23902        -1.29000         6.08753
| 28>    C       -0.15886         0.07520         6.18531
| 29>    C       -0.53777         1.13550         5.43311
| 30>   Br        1.36692        -0.02822         7.27102
| 31>    C       -4.46195         1.92539         2.30132
| 32>    O       -4.31873         3.05799         1.89334
| 33>    C       -5.55151         0.96374         1.99733
| 34>    C       -6.66492         1.20713         1.24795
| 35>    C       -6.87886         2.28663         0.33549
| 36>    C       -5.82593         2.79838        -0.38527
| 37>    S       -6.24312         3.99849        -1.51140
| 38>    C       -7.90540         3.89747        -1.00667
| 39>    C       -8.13648         2.91945        -0.02767
| 40>    C       -9.46119         2.73786         0.44866
| 41>    C       -9.75429         1.64626         1.44689
| 42>    C       -9.27521         2.02107         2.85058
| 43>    C      -10.48389         3.56712         0.00081
| 44>    C      -11.90059         3.40509         0.48591
| 45>    C      -12.66894         2.40913        -0.38614
| 46>    C      -10.23115         4.55289        -0.98147
| 47>    C      -11.12577         5.46875        -1.64417
| 48>    C      -10.49780         6.18285        -2.61381
| 49>    S       -8.81157         5.86282        -2.76274
| 50>    C       -8.93370         4.68043        -1.50104
| 51>    C      -12.54938         5.69911        -1.39935
| 52>    C      -13.48427         5.42244        -2.31398
| 53>    C      -14.88414         5.71220        -2.13682
| 54>    N      -15.73259         5.33469        -3.09681
| 55>    C      -16.96550         5.75350        -3.03341
| 56>    C      -17.31869         6.72698        -2.05895
| 57>    N      -16.49190         6.80951        -1.00203
| 58>    N      -15.32988         6.27420        -1.00115
| 59>    C      -18.47683         7.54165        -2.06681
| 60>    C      -19.25575         7.82167        -3.15638
| 61>    C      -20.39185         8.67406        -3.17566
| 62>    C      -20.95002         8.84645        -4.40542
| 63>    C      -20.29264         8.14236        -5.43681
| 64>    S      -18.94195         7.23577        -4.78314
| 65>    C      -20.58993         8.10510        -6.78462
| 66>    C      -21.63518         8.74272        -7.48448
| 67>    C      -21.63439         8.49494        -8.82489
| 68>    C      -20.59127         7.64832        -9.27267
| 69>    S      -19.60733         7.17694        -7.89683
| 70>    C      -20.40148         7.27143       -10.58096
| 71>    C      -19.43477         6.45825       -11.18015
| 72>    S      -19.57293         6.22427       -12.92179
| 73>    C      -18.18228         5.19210       -13.04757
| 74>    C      -17.62261         5.03229       -11.78196
| 75>    C      -18.31753         5.73422       -10.74969
| 76>    N      -17.64227         5.47128        -9.60637
| 77>    N      -16.59122         4.67069        -9.82797
| 78>    C      -16.55182         4.39286       -11.10462
| 79>    C      -17.80564         4.67090       -14.32030
| 80>    C      -16.76685         3.86100       -14.54510
| 81>    H       -2.08277         2.71787         3.62754
| 82>    H       -3.77057        -1.88719         4.64332
| 83>    H        0.01087         2.05778         5.37663
| 84>    H       -7.46280         0.48717         1.32546
| 85>    H       -4.80799         2.46665        -0.34311
| 86>    H       -9.29439         0.71498         1.11695
| 87>    H      -10.82105         1.44408         1.48851
| 88>    H       -8.22369         2.29973         2.85016
| 89>    H       -9.41160         1.18316         3.53061
| 90>    H       -9.84568         2.86798         3.22575
| 91>    H      -12.41007         4.36437         0.43815
| 92>    H      -11.92276         3.08510         1.52701
| 93>    H      -12.69971         2.75828        -1.41536
| 94>    H      -13.69080         2.31075        -0.02776
| 95>    H      -12.19782         1.42904        -0.37225
| 96>    H      -10.94292         6.92523        -3.24733
| 97>    H      -12.84096         6.17836        -0.47355
| 98>    H      -13.23074         4.95300        -3.25414
| 99>    H      -17.68823         5.27059        -3.67609
|100>    H      -18.71758         8.03009        -1.13306
|101>    H      -20.75274         9.13478        -2.27324
|102>    H      -21.80840         9.46468        -4.59939
|103>    H      -22.35604         9.36321        -6.98348
|104>    H      -22.35594         8.89709        -9.51420
|105>    H      -21.13046         7.67508       -11.27430
|106>    H      -17.83120         5.79033        -8.67101
|107>    H      -15.77946         3.76150       -11.49269
|108>    H      -18.43721         4.97782       -15.14409
|109>    H      -16.11826         3.53296       -13.75347
|110>    H      -16.54364         3.50629       -15.53524
|111> *
|112>
|113>                          ****END OF INPUT****

CARTESIAN COORDINATES (ANGSTROEM)
---------------------------------
  C     -5.326000   -0.238780    2.783360
  C     -6.098860   -1.372230    2.800320
  C     -5.809290   -2.515190    3.574740
  N     -5.630610   -3.474370    4.179880
  C     -7.287440   -1.573810    2.068790
  N     -8.262880   -1.817800    1.512540
  C     -4.097300   -0.050930    3.545160
  C     -3.589300    1.242430    3.276560
  C     -2.439030    1.724730    3.851900
  C     -1.745670    0.883200    4.727260
  C     -2.255210   -0.411940    4.984620
  C     -3.424170   -0.894570    4.410440
  S     -1.239020   -1.290000    6.087530
  C     -0.158860    0.075200    6.185310
  C     -0.537770    1.135500    5.433110
  Br     1.366920   -0.028220    7.271020
  C     -4.461950    1.925390    2.301320
  O     -4.318730    3.057990    1.893340
  C     -5.551510    0.963740    1.997330
  C     -6.664920    1.207130    1.247950
  C     -6.878860    2.286630    0.335490
  C     -5.825930    2.798380   -0.385270
  S     -6.243120    3.998490   -1.511400
  C     -7.905400    3.897470   -1.006670
  C     -8.136480    2.919450   -0.027670
  C     -9.461190    2.737860    0.448660
  C     -9.754290    1.646260    1.446890
  C     -9.275210    2.021070    2.850580
  C    -10.483890    3.567120    0.000810
  C    -11.900590    3.405090    0.485910
  C    -12.668940    2.409130   -0.386140
  C    -10.231150    4.552890   -0.981470
  C    -11.125770    5.468750   -1.644170
  C    -10.497800    6.182850   -2.613810
  S     -8.811570    5.862820   -2.762740
  C     -8.933700    4.680430   -1.501040
  C    -12.549380    5.699110   -1.399350
  C    -13.484270    5.422440   -2.313980
  C    -14.884140    5.712200   -2.136820
  N    -15.732590    5.334690   -3.096810
  C    -16.965500    5.753500   -3.033410
  C    -17.318690    6.726980   -2.058950
  N    -16.491900    6.809510   -1.002030
  N    -15.329880    6.274200   -1.001150
  C    -18.476830    7.541650   -2.066810
  C    -19.255750    7.821670   -3.156380
  C    -20.391850    8.674060   -3.175660
  C    -20.950020    8.846450   -4.405420
  C    -20.292640    8.142360   -5.436810
  S    -18.941950    7.235770   -4.783140
  C    -20.589930    8.105100   -6.784620
  C    -21.635180    8.742720   -7.484480
  C    -21.634390    8.494940   -8.824890
  C    -20.591270    7.648320   -9.272670
  S    -19.607330    7.176940   -7.896830
  C    -20.401480    7.271430  -10.580960
  C    -19.434770    6.458250  -11.180150
  S    -19.572930    6.224270  -12.921790
  C    -18.182280    5.192100  -13.047570
  C    -17.622610    5.032290  -11.781960
  C    -18.317530    5.734220  -10.749690
  N    -17.642270    5.471280   -9.606370
  N    -16.591220    4.670690   -9.827970
  C    -16.551820    4.392860  -11.104620
  C    -17.805640    4.670900  -14.320300
  C    -16.766850    3.861000  -14.545100
  H     -2.082770    2.717870    3.627540
  H     -3.770570   -1.887190    4.643320
  H      0.010870    2.057780    5.376630
  H     -7.462800    0.487170    1.325460
  H     -4.807990    2.466650   -0.343110
  H     -9.294390    0.714980    1.116950
  H    -10.821050    1.444080    1.488510
  H     -8.223690    2.299730    2.850160
  H     -9.411600    1.183160    3.530610
  H     -9.845680    2.867980    3.225750
  H    -12.410070    4.364370    0.438150
  H    -11.922760    3.085100    1.527010
  H    -12.699710    2.758280   -1.415360
  H    -13.690800    2.310750   -0.027760
  H    -12.197820    1.429040   -0.372250
  H    -10.942920    6.925230   -3.247330
  H    -12.840960    6.178360   -0.473550
  H    -13.230740    4.953000   -3.254140
  H    -17.688230    5.270590   -3.676090
  H    -18.717580    8.030090   -1.133060
  H    -20.752740    9.134780   -2.273240
  H    -21.808400    9.464680   -4.599390
  H    -22.356040    9.363210   -6.983480
  H    -22.355940    8.897090   -9.514200
  H    -21.130460    7.675080  -11.274300
  H    -17.831200    5.790330   -8.671010
  H    -15.779460    3.761500  -11.492690
  H    -18.437210    4.977820  -15.144090
  H    -16.118260    3.532960  -13.753470
  H    -16.543640    3.506290  -15.535240

 Total Charge           Charge          ....    0
 Multiplicity           Mult            ....    1
 Number of Electrons    NEL             ....  524
 Basis Dimension        Dim             .... 1116

ORBITAL ENERGIES
----------------

  NO   OCC          E(Eh)            E(eV)
   0   2.0000    -482.884537    -13139.9563
   1   2.0000     -88.974162     -2421.1100
   2   2.0000     -88.968663     -2420.9604
   3   2.0000     -88.961567     -2420.7673
   4   2.0000     -88.957246     -2420.6497
   5   2.0000     -88.948741     -2420.4183
   6   2.0000     -88.947748     -2420.3913
   7   2.0000     -62.562255     -1702.4055
   8   2.0000     -56.396205     -1534.6188
   9   2.0000     -56.393489     -1534.5449
  10   2.0000     -56.393457     -1534.5440
  11   2.0000     -19.212588      -522.8011
  12   2.0000     -14.481353      -394.0576
  13   2.0000     -14.439097      -392.9078
  14   2.0000     -14.437374      -392.8609
  15   2.0000     -14.431200      -392.6929
  16   2.0000     -14.415344      -392.2614
  17   2.0000     -14.414905      -392.2495
  18   2.0000     -14.411666      -392.1614
  19   2.0000     -10.365105      -282.0488
  20   2.0000     -10.357865      -281.8518
  21   2.0000     -10.338960      -281.3374
  22   2.0000     -10.338089      -281.3137
  23   2.0000     -10.331264      -281.1280
  24   2.0000     -10.324004      -280.9304
  25   2.0000     -10.323423      -280.9146
  26   2.0000     -10.321561      -280.8640
  27   2.0000     -10.318555      -280.7821
  28   2.0000     -10.318128      -280.7705
  29   2.0000     -10.316990      -280.7396
  30   2.0000     -10.315046      -280.6867
  31   2.0000     -10.315020      -280.6860
  32   2.0000     -10.314922      -280.6833
  33   2.0000     -10.314643      -280.6757
  34   2.0000     -10.313645      -280.6485
  35   2.0000     -10.312443      -280.6158
  36   2.0000     -10.309963      -280.5484
  37   2.0000     -10.309554      -280.5372
  38   2.0000     -10.306137      -280.4442
  39   2.0000     -10.305854      -280.4366
  40   2.0000     -10.303603      -280.3753
  41   2.0000     -10.303222      -280.3649
  42   2.0000     -10.299053      -280.2515
  43   2.0000     -10.298642      -280.2403
  44   2.0000     -10.296248      -280.1752
  45   2.0000     -10.296116      -280.1716
  46   2.0000     -10.295409      -280.1523
  47   2.0000     -10.294114      -280.1171
  48   2.0000     -10.293041      -280.0879
  49   2.0000     -10.292625      -280.0766
  50   2.0000     -10.290789      -280.0266
  51   2.0000     -10.290565      -280.0205
  52   2.0000     -10.289823      -280.0003
  53   2.0000     -10.289744      -279.9982
  54   2.0000     -10.289254      -279.9848
  55   2.0000     -10.284776      -279.8630
  56   2.0000     -10.282751      -279.8079
  57   2.0000     -10.282738      -279.8075
  58   2.0000     -10.279150      -279.7099
  59   2.0000     -10.278251      -279.6854
  60   2.0000     -10.277275      -279.6589
  61   2.0000     -10.275297      -279.6050
  62   2.0000     -10.275083      -279.5992
  63   2.0000     -10.272331      -279.5243
  64   2.0000     -10.271560      -279.5034
  65   2.0000     -10.267989      -279.4062
  66   2.0000     -10.258556      -279.1495
  67   2.0000     -10.255873      -279.0765
  68   2.0000     -10.251456      -278.9563
  69   2.0000     -10.244511      -278.7673
  70   2.0000      -8.791684      -239.2339
  71   2.0000      -8.070110      -219.5989
  72   2.0000      -8.063707      -219.4246
  73   2.0000      -8.057952      -219.2680
  74   2.0000      -8.053505      -219.1470
  75   2.0000      -8.044801      -218.9102
  76   2.0000      -8.043926      -218.8864
  77   2.0000      -6.627984      -180.3566
  78   2.0000      -6.613413      -179.9601
  79   2.0000      -6.613228      -179.9551
  80   2.0000      -6.039804      -164.3514
  81   2.0000      -6.035520      -164.2348
  82   2.0000      -6.032962      -164.1652
  83   2.0000      -6.031354      -164.1215
  84   2.0000      -6.028884      -164.0543
  85   2.0000      -6.027188      -164.0081
  86   2.0000      -6.025948      -163.9744
  87   2.0000      -6.023266      -163.9014
  88   2.0000      -6.023000      -163.8942
  89   2.0000      -6.020033      -163.8134
  90   2.0000      -6.019361      -163.7951
  91   2.0000      -6.014581      -163.6651
  92   2.0000      -6.014349      -163.6587
  93   2.0000      -6.013462      -163.6346
  94   2.0000      -6.010517      -163.5545
  95   2.0000      -6.009251      -163.5200
  96   2.0000      -6.005674      -163.4227
  97   2.0000      -6.005530      -163.4188
  98   2.0000      -2.743872       -74.6646
  99   2.0000      -2.739774       -74.5530
 100   2.0000      -2.739601       -74.5483
 101   2.0000      -2.728046       -74.2339
 102   2.0000      -2.728027       -74.2334
 103   2.0000      -1.145325       -31.1659
 104   2.0000      -1.132405       -30.8143
 105   2.0000      -1.128480       -30.7075
 106   2.0000      -1.021042       -27.7840
 107   2.0000      -1.014261       -27.5994
 108   2.0000      -1.011878       -27.5346
 109   2.0000      -1.003680       -27.3115
 110   2.0000      -1.002006       -27.2660
 111   2.0000      -0.992247       -27.0004
 112   2.0000      -0.989662       -26.9301
 113   2.0000      -0.987094       -26.8602
 114   2.0000      -0.977826       -26.6080
 115   2.0000      -0.973673       -26.4950
 116   2.0000      -0.940906       -25.6034
 117   2.0000      -0.937879       -25.5210
 118   2.0000      -0.924835       -25.1660
 119   2.0000      -0.923008       -25.1163
 120   2.0000      -0.906534       -24.6680
 121   2.0000      -0.904732       -24.6190
 122   2.0000      -0.899683       -24.4816
 123   2.0000      -0.890808       -24.2401
 124   2.0000      -0.884187       -24.0600
 125   2.0000      -0.880382       -23.9564
 126   2.0000      -0.870707       -23.6931
 127   2.0000      -0.865151       -23.5419
 128   2.0000      -0.856834       -23.3156
 129   2.0000      -0.851245       -23.1636
 130   2.0000      -0.849958       -23.1285
 131   2.0000      -0.846949       -23.0467
 132   2.0000      -0.829044       -22.5594
 133   2.0000      -0.828564       -22.5464
 134   2.0000      -0.826831       -22.4992
 135   2.0000      -0.818550       -22.2739
 136   2.0000      -0.810543       -22.0560
 137   2.0000      -0.793747       -21.5989
 138   2.0000      -0.785200       -21.3664
 139   2.0000      -0.773912       -21.0592
 140   2.0000      -0.763507       -20.7761
 141   2.0000      -0.759649       -20.6711
 142   2.0000      -0.754112       -20.5204
 143   2.0000      -0.748522       -20.3683
 144   2.0000      -0.723205       -19.6794
 145   2.0000      -0.715647       -19.4738
 146   2.0000      -0.707806       -19.2604
 147   2.0000      -0.707216       -19.2443
 148   2.0000      -0.702652       -19.1201
 149   2.0000      -0.699669       -19.0389
 150   2.0000      -0.695321       -18.9206
 151   2.0000      -0.693504       -18.8712
 152   2.0000      -0.684763       -18.6333
 153   2.0000      -0.680590       -18.5198
 154   2.0000      -0.677227       -18.4283
 155   2.0000      -0.673593       -18.3294
 156   2.0000      -0.661694       -18.0056
 157   2.0000      -0.656103       -17.8535
 158   2.0000      -0.644904       -17.5487
 159   2.0000      -0.637874       -17.3574
 160   2.0000      -0.633192       -17.2300
 161   2.0000      -0.629920       -17.1410
 162   2.0000      -0.624850       -17.0030
 163   2.0000      -0.621136       -16.9020
 164   2.0000      -0.614910       -16.7325
 165   2.0000      -0.613105       -16.6834
 166   2.0000      -0.605052       -16.4643
 167   2.0000      -0.597393       -16.2559
 168   2.0000      -0.593081       -16.1385
 169   2.0000      -0.590646       -16.0723
 170   2.0000      -0.585239       -15.9252
 171   2.0000      -0.582315       -15.8456
 172   2.0000      -0.566798       -15.4234
 173   2.0000      -0.564479       -15.3603
 174   2.0000      -0.557749       -15.1771
 175   2.0000      -0.553630       -15.0650
 176   2.0000      -0.547743       -14.9048
 177   2.0000      -0.547083       -14.8869
 178   2.0000      -0.545969       -14.8566
 179   2.0000      -0.543853       -14.7990
 180   2.0000      -0.539192       -14.6722
 181   2.0000      -0.536350       -14.5948
 182   2.0000      -0.534166       -14.5354
 183   2.0000      -0.533340       -14.5129
 184   2.0000      -0.525170       -14.2906
 185   2.0000      -0.523929       -14.2568
 186   2.0000      -0.522366       -14.2143
 187   2.0000      -0.517552       -14.0833
 188   2.0000      -0.513896       -13.9838
 189   2.0000      -0.512302       -13.9404
 190   2.0000      -0.509581       -13.8664
 191   2.0000      -0.506484       -13.7821
 192   2.0000      -0.503058       -13.6889
 193   2.0000      -0.502407       -13.6712
 194   2.0000      -0.498814       -13.5734
 195   2.0000      -0.498276       -13.5588
 196   2.0000      -0.495921       -13.4947
 197   2.0000      -0.493107       -13.4181
 198   2.0000      -0.492839       -13.4108
 199   2.0000      -0.489819       -13.3286
 200   2.0000      -0.483131       -13.1467
 201   2.0000      -0.481718       -13.1082
 202   2.0000      -0.477793       -13.0014
 203   2.0000      -0.474437       -12.9101
 204   2.0000      -0.474195       -12.9035
 205   2.0000      -0.469295       -12.7702
 206   2.0000      -0.466697       -12.6995
 207   2.0000      -0.464154       -12.6303
 208   2.0000      -0.461724       -12.5641
 209   2.0000      -0.460651       -12.5349
 210   2.0000      -0.457671       -12.4539
 211   2.0000      -0.455564       -12.3965
 212   2.0000      -0.451226       -12.2785
 213   2.0000      -0.448190       -12.1959
 214   2.0000      -0.445630       -12.1262
 215   2.0000      -0.444897       -12.1063
 216   2.0000      -0.443175       -12.0594
 217   2.0000      -0.442157       -12.0317
 218   2.0000      -0.440827       -11.9955
 219   2.0000      -0.439068       -11.9477
 220   2.0000      -0.437360       -11.9012
 221   2.0000      -0.436431       -11.8759
 222   2.0000      -0.434241       -11.8163
 223   2.0000      -0.431918       -11.7531
 224   2.0000      -0.425671       -11.5831
 225   2.0000      -0.425014       -11.5652
 226   2.0000      -0.424035       -11.5386
 227   2.0000      -0.421031       -11.4568
 228   2.0000      -0.419160       -11.4059
 229   2.0000      -0.415269       -11.3000
 230   2.0000      -0.412704       -11.2303
 231   2.0000      -0.410824       -11.1791
 232   2.0000      -0.407393       -11.0857
 233   2.0000      -0.405002       -11.0207
 234   2.0000      -0.404020       -10.9939
 235   2.0000      -0.401138       -10.9155
 236   2.0000      -0.394820       -10.7436
 237   2.0000      -0.387570       -10.5463
 238   2.0000      -0.384344       -10.4585
 239   2.0000      -0.380109       -10.3433
 240   2.0000      -0.378215       -10.2918
 241   2.0000      -0.373855       -10.1731
 242   2.0000      -0.372139       -10.1264
 243   2.0000      -0.364703        -9.9241
 244   2.0000      -0.364238        -9.9114
 245   2.0000      -0.354856        -9.6561
 246   2.0000      -0.349601        -9.5131
 247   2.0000      -0.343851        -9.3567
 248   2.0000      -0.342136        -9.3100
 249   2.0000      -0.335337        -9.1250
 250   2.0000      -0.330465        -8.9924
 251   2.0000      -0.326669        -8.8891
 252   2.0000      -0.319473        -8.6933
 253   2.0000      -0.313793        -8.5387
 254   2.0000      -0.311069        -8.4646
 255   2.0000      -0.305709        -8.3188
 256   2.0000      -0.291806        -7.9405
 257   2.0000      -0.282542        -7.6883
 258   2.0000      -0.269041        -7.3210
 259   2.0000      -0.264280        -7.1914
 260   2.0000      -0.262645        -7.1469
 261   2.0000      -0.209769        -5.7081
 262   0.0000      -0.087246        -2.3741
 263   0.0000      -0.083461        -2.2711
 264   0.0000      -0.055066        -1.4984
 265   0.0000      -0.041789        -1.1371
 266   0.0000      -0.011949        -0.3251

MULLIKEN ATOMIC CHARGES
-----------------------
   0 C :    0.315696
   1 C :   -0.357999
   2 C :   -0.184375
   3 N :    0.145256
   4 C :   -0.185354
   5 N :    0.151147
   6 C :    0.016165
   7 C :   -0.020442
   8 C :   -0.069564
   9 C :    0.117555
  10 C :   -0.091686
  11 C :   -0.017481
  12 S :    0.186361
  13 C :   -0.123372
  14 C :    0.039233
  15 Br:    0.023593
  16 C :    0.126240
  17 O :   -0.144069
  18 C :   -0.089680
  19 C :   -0.041951
  20 C :    0.050135
  21 C :   -0.044026
  22 S :    0.160299
  23 C :   -0.167655
  24 C :    0.138039
  25 C :   -0.125066
  26 C :    0.014493
  27 C :    0.024761
  28 C :   -0.121747
  29 C :    0.049187
  30 C :    0.045481
  31 C :    0.118131
  32 C :    0.041763
  33 C :   -0.097218
  34 S :    0.118091
  35 C :   -0.139825
  36 C :   -0.035588
  37 C :    0.054839
  38 C :   -0.071035
  39 N :   -0.032938
  40 C :    0.000891
  41 C :   -0.018876
  42 N :   -0.068513
  43 N :   -0.064744
  44 C :    0.008107
  45 C :   -0.010269
  46 C :    0.032280
  47 C :    0.037495
  48 C :   -0.052712
  49 S :    0.051187
  50 C :   -0.022492
  51 C :    0.021073
  52 C :    0.035458
  53 C :   -0.039876
  54 S :    0.023877
  55 C :    0.054577
  56 C :   -0.225243
  57 S :    0.140981
  58 C :   -0.119922
  59 C :   -0.001297
  60 C :    0.166753
  61 N :   -0.046930
  62 N :   -0.052806
  63 C :   -0.014939
  64 C :    0.042768
  65 C :   -0.013300
  66 H :   -0.011355
  67 H :   -0.007621
  68 H :   -0.003297
  69 H :    0.016010
  70 H :    0.032611
  71 H :    0.024639
  72 H :    0.002339
  73 H :    0.021065
  74 H :    0.020529
  75 H :    0.009898
  76 H :   -0.004951
  77 H :    0.003899
  78 H :    0.011085
  79 H :    0.017114
  80 H :    0.009498
  81 H :    0.019395
  82 H :    0.055418
  83 H :   -0.002877
  84 H :    0.031263
  85 H :   -0.005946
  86 H :   -0.009480
  87 H :   -0.011075
  88 H :   -0.012093
  89 H :   -0.008911
  90 H :   -0.016963
  91 H :    0.142671
  92 H :    0.001576
  93 H :   -0.011727
  94 H :    0.016301
  95 H :    0.032066
Sum of atomic charges:   -0.0000000

LOEWDIN ATOMIC CHARGES
----------------------
   0 C :    0.079173
   1 C :   -0.145699
   2 C :   -0.017925
   3 N :   -0.056554
   4 C :   -0.019746
   5 N :   -0.053755
   6 C :   -0.021923
   7 C :   -0.050438
   8 C :    0.021549
   9 C :   -0.032408
  10 C :   -0.143978
  11 C :   -0.009328
  12 S :    0.432456
  13 C :   -0.271247
  14 C :   -0.070553
  15 Br:    0.136711
  16 C :    0.079379
  17 O :   -0.140668
  18 C :   -0.105290
  19 C :    0.086432
  20 C :   -0.082718
  21 C :   -0.108413
  22 S :    0.455044
  23 C :   -0.180484
  24 C :   -0.032983
  25 C :   -0.020926
  26 C :   -0.032184
  27 C :   -0.051170
  28 C :   -0.011544
  29 C :   -0.029281
  30 C :   -0.046664
  31 C :   -0.041046
  32 C :   -0.060296
  33 C :   -0.164304
  34 S :    0.405197
  35 C :   -0.178174
  36 C :    0.017749
  37 C :   -0.039838
  38 C :   -0.006062
  39 N :   -0.054906
  40 C :    0.011439
  41 C :   -0.045273
  42 N :   -0.025489
  43 N :   -0.061828
  44 C :   -0.075121
  45 C :   -0.126975
  46 C :   -0.040212
  47 C :   -0.023069
  48 C :   -0.195447
  49 S :    0.373485
  50 C :   -0.161988
  51 C :   -0.047793
  52 C :   -0.020671
  53 C :   -0.169507
  54 S :    0.372158
  55 C :   -0.056524
  56 C :   -0.213808
  57 S :    0.460811
  58 C :   -0.160154
  59 C :   -0.091909
  60 C :   -0.013918
  61 N :    0.092353
  62 N :   -0.046601
  63 C :   -0.040621
  64 C :   -0.044468
  65 C :   -0.028612
  66 H :    0.040588
  67 H :    0.040858
  68 H :    0.038851
  69 H :    0.040616
  70 H :    0.028651
  71 H :    0.027516
  72 H :    0.029969
  73 H :    0.022121
  74 H :    0.027109
  75 H :    0.025853
  76 H :    0.031433
  77 H :    0.025868
  78 H :    0.024388
  79 H :    0.026432
  80 H :    0.022298
  81 H :    0.025185
  82 H :    0.038075
  83 H :    0.035671
  84 H :    0.017641
  85 H :    0.040102
  86 H :    0.034724
  87 H :    0.033183
  88 H :    0.033077
  89 H :    0.034936
  90 H :    0.036975
  91 H :    0.057979
  92 H :    0.021780
  93 H :    0.030763
  94 H :    0.024264
  95 H :    0.029652

  Mayer bond orders larger than 0.100000
B(  0-C ,  1-C ) :   1.6289 B(  0-C ,  6-C ) :   1.0046 B(  0-C , 18-C ) :   1.0601
B(  1-C ,  2-C ) :   1.1415 B(  1-C ,  4-C ) :   1.1508 B(  2-C ,  3-N ) :   2.9660
B(  4-C ,  5-N ) :   2.9612 B(  6-C ,  7-C ) :   1.2697 B(  6-C , 11-C ) :   1.4045
B(  7-C ,  8-C ) :   1.4244 B(  7-C , 16-C ) :   0.9401 B(  8-C ,  9-C ) :   1.2452
B(  8-C , 66-H ) :   1.0168 B(  9-C , 10-C ) :   1.3039 B(  9-C , 14-C ) :   1.1628
B( 10-C , 11-C ) :   1.3337 B( 10-C , 12-S ) :   1.0857 B( 11-C , 67-H ) :   0.9791
B( 12-S , 13-C ) :   1.0863 B( 13-C , 14-C ) :   1.6195 B( 13-C , 15-Br) :   1.0185
B( 14-C , 68-H ) :   0.9999 B( 16-C , 17-O ) :   2.2341 B( 16-C , 18-C ) :   0.9293
B( 18-C , 19-C ) :   1.6292 B( 19-C , 20-C ) :   1.0909 B( 19-C , 69-H ) :   0.9269
B( 20-C , 21-C ) :   1.5387 B( 20-C , 24-C ) :   1.1299 B( 21-C , 22-S ) :   1.1877
B( 21-C , 70-H ) :   0.9556 B( 22-S , 23-C ) :   1.0614 B( 23-C , 24-C ) :   1.3821
B( 23-C , 35-C ) :   1.3827 B( 24-C , 25-C ) :   1.2580 B( 25-C , 26-C ) :   1.0525
B( 25-C , 28-C ) :   1.5090 B( 26-C , 27-C ) :   1.1071 B( 26-C , 71-H ) :   0.9233
B( 26-C , 72-H ) :   0.9060 B( 27-C , 73-H ) :   0.9645 B( 27-C , 74-H ) :   0.9660
B( 27-C , 75-H ) :   0.9568 B( 28-C , 29-C ) :   1.0759 B( 28-C , 31-C ) :   1.2686
B( 29-C , 30-C ) :   1.1103 B( 29-C , 76-H ) :   0.9053 B( 29-C , 77-H ) :   0.9105
B( 30-C , 78-H ) :   0.9607 B( 30-C , 79-H ) :   0.9666 B( 30-C , 80-H ) :   0.9632
B( 31-C , 32-C ) :   1.1674 B( 31-C , 35-C ) :   1.3639 B( 32-C , 33-C ) :   1.6539
B( 32-C , 36-C ) :   0.9509 B( 33-C , 34-S ) :   1.1015 B( 33-C , 81-H ) :   0.9665
B( 34-S , 35-C ) :   1.0819 B( 36-C , 37-C ) :   1.8069 B( 36-C , 82-H ) :   0.9371
B( 37-C , 38-C ) :   1.0716 B( 37-C , 83-H ) :   0.9623 B( 38-C , 39-N ) :   1.4720
B( 38-C , 43-N ) :   1.4763 B( 39-N , 40-C ) :   1.6031 B( 40-C , 41-C ) :   1.2183
B( 40-C , 84-H ) :   0.9636 B( 41-C , 42-N ) :   1.4532 B( 41-C , 44-C ) :   1.1164
B( 42-N , 43-N ) :   1.3731 B( 44-C , 45-C ) :   1.5670 B( 44-C , 85-H ) :   0.9722
B( 45-C , 46-C ) :   1.1392 B( 45-C , 49-S ) :   1.0402 B( 46-C , 47-C ) :   1.5918
B( 46-C , 86-H ) :   0.9993 B( 47-C , 48-C ) :   1.1906 B( 47-C , 87-H ) :   0.9939
B( 48-C , 49-S ) :   1.0263 B( 48-C , 50-C ) :   1.5020 B( 50-C , 51-C ) :   1.1987
B( 50-C , 54-S ) :   1.0590 B( 51-C , 52-C ) :   1.5739 B( 51-C , 88-H ) :   0.9920
B( 52-C , 53-C ) :   1.1643 B( 52-C , 89-H ) :   0.9984 B( 53-C , 54-S ) :   1.0042
B( 53-C , 55-C ) :   1.5896 B( 55-C , 56-C ) :   1.2181 B( 55-C , 90-H ) :   0.9291
B( 56-C , 57-S ) :   1.0971 B( 56-C , 58-C ) :   0.1072 B( 56-C , 60-C ) :   1.3205
B( 57-S , 58-C ) :   1.1599 B( 58-C , 59-C ) :   1.3377 B( 58-C , 64-C ) :   1.1341
B( 59-C , 60-C ) :   1.2652 B( 59-C , 63-C ) :   1.1537 B( 60-C , 61-N ) :   1.1663
B( 61-N , 62-N ) :   1.1370 B( 61-N , 91-H ) :   0.9326 B( 62-N , 63-C ) :   1.7412
B( 63-C , 92-H ) :   0.9985 B( 64-C , 65-C ) :   1.9075 B( 64-C , 93-H ) :   0.9506
B( 65-C , 94-H ) :   0.9553 B( 65-C , 95-H ) :   0.9482

-----------------------------------------------------------------------------
         ABSORPTION SPECTRUM VIA TRANSITION ELECTRIC DIPOLE MOMENTS
-----------------------------------------------------------------------------
State   Energy  Wavelength   fosc         T2         TX        TY        TZ
        (cm-1)    (nm)                  (au**2)     (au)      (au)      (au)
-----------------------------------------------------------------------------
   0   13427.5    744.7   1.205275031  29.55054  -0.78397  -0.73680  -5.32851
   1   21246.4    470.7   0.000962949   0.01492   0.10477  -0.02966  -0.05535
   2   21467.2    465.8   0.097948857   1.50210   0.97100  -0.70763  -0.24190
   3   22097.8    452.5   0.522494121   7.78410   1.18419  -1.89690   1.66841
   4   23038.5    434.1   0.010052359   0.14364  -0.13484   0.31892   0.15413
   5   24505.7    408.1   0.015576247   0.20925  -0.44865   0.08174   0.03589
   6   25418.3    393.4   0.438012238   5.67303  -2.09587   1.06547   0.38098
   7   25724.5    388.7   0.735903696   9.41781  -2.63192   1.57762  -0.04392
   8   26236.0    381.2   0.004655790   0.05842   0.08591   0.16438   0.15499
   9   27651.6    361.6   0.000053387   0.00064  -0.01954  -0.01591   0.00079
  10   28140.9    355.4   0.006968564   0.08152  -0.01914  -0.17770  -0.22266
  11   28620.0    349.4   0.021217836   0.24407  -0.30517  -0.22227  -0.31864
  12   28708.3    348.3   0.375974871   4.31148  -1.74079  -0.56225  -0.98234
  13   28936.5    345.6   0.012510625   0.14233   0.17443   0.26920  -0.19859
  14   29984.8    333.5   0.000488474   0.00536  -0.04921   0.05144  -0.01719
  15   30401.1    328.9   0.033433205   0.36205  -0.32131   0.29429  -0.41497
  16   30500.5    327.9   0.021576490   0.23289  -0.33762  -0.30352  -0.16365
  17   31098.3    321.6   0.015374011   0.16275  -0.31606   0.11614  -0.22218
  18   32750.9    305.3   0.011957335   0.12019   0.25369  -0.23431  -0.03059
  19   32942.5    303.6   0.215630443   2.15491  -0.77882   0.85519  -0.90387
  20   33034.2    302.7   0.000160593   0.00160  -0.00506  -0.03365  -0.02104
  21   33234.6    300.9   0.282433108   2.79770  -1.22759   0.49227  -1.02391
  22   33313.6    300.2   0.021962242   0.21704   0.08239   0.13717   0.43753
  23   33354.6    299.8   0.067221686   0.66348   0.21026  -0.58445   0.52696
  24   33886.7    295.1   0.540779472   5.25371   1.86835   1.05876   0.80126
  25   34098.1    293.3   0.005775658   0.05576   0.02038   0.08878   0.21787
  26   34350.1    291.1   0.054298027   0.52039   0.64852  -0.27609  -0.15361
  27   34516.5    289.7   0.021413288   0.20424  -0.42435   0.14552   0.05462
  28   34566.8    289.3   0.080251636   0.76431  -0.60589   0.11059   0.62047
  29   35099.0    284.9   0.187427432   1.75798   1.18011  -0.38659   0.46463
  30   35512.3    281.6   0.021268443   0.19717   0.27302  -0.22047   0.27207
  31   35910.1    278.5   0.003737934   0.03427   0.03943   0.16710  -0.06922
  32   36726.3    272.3   0.002138237   0.01917  -0.07006  -0.07779  -0.09059
  33   37535.0    266.4   0.225648701   1.97912  -1.32318   0.04685  -0.47553
  34   37864.5    264.1   0.019312134   0.16791  -0.11460   0.34218   0.19414
  35   37887.7    263.9   0.161114898   1.39995  -0.05834   0.23072  -1.15901
  36   38229.4    261.6   0.060737480   0.52304   0.03712   0.33620  -0.63924
  37   38815.9    257.6   0.094924526   0.80509   0.85711  -0.07178   0.25553
  38   39187.2    255.2   0.323037599   2.71384  -0.72516   1.17795  -0.89466
  39   39224.5    254.9   0.052789631   0.44306  -0.20748   0.48610  -0.40463
  40   39401.9    253.8   0.007586885   0.06339   0.11222  -0.20073   0.10249
  41   39602.3    252.5   0.035117116   0.29193   0.25044   0.05957   0.47503
  42   39710.6    251.8   0.011440369   0.09484   0.24477  -0.14071   0.12302
  43   40160.5    249.0   0.009660088   0.07919  -0.02951  -0.27922  -0.01876

FINAL SINGLE POINT ENERGY     -7379.111481003943

DIPOLE MOMENT
-------------
                                X             Y             Z
Electronic contribution:    175.70794     -46.00987     110.47515
Nuclear contribution   :   -176.99605      48.42642    -112.86757
                        -----------------------------------------
Total Dipole Moment    :     -1.28811       2.41655      -2.39242
                        -----------------------------------------
Magnitude (a.u.)       :      3.63629
Magnitude (Debye)      :      9.24271

Rotational constants in cm-1:     0.002015     0.000177     0.000170
Rotational constants in MHz :    60.408682     5.308113     5.100306

                             ****ORCA TERMINATED NORMALLY****
TOTAL RUN TIME: 0 days 0 hours 8 minutes 39 seconds 124 msec
