                         Program Version 4.2.0 -  RELEASE  -
|  1> # ORCA input file
|  2> # SCF done       -162.971872139643          0.000286341450
|  3> ! CAM-B3LYP def2-SVP def2/J RIJCOSX Grid4 TightSCF
|  4> %maxcore 5000
|  5> %tddft
|  6>     Mode sTDDFT
|  7>     Ethresh 5.0
|  8>     maxcore 5000
|  9> end
| 10>
| 11> %pal
| 12>   nprocs 6
| 13>   end
| 14> * xyz 0 1
| 15>    C        7.60947        -6.11164        -5.77109
| 16>    C        7.66607        -6.67566        -4.55767
| 17>    C        8.82259        -6.85450        -3.72592
| 18>    C        8.57186        -7.45746        -2.54407
| 19>    C        7.20551        -7.80581        -2.34059
| 20>    S        6.24571        -7.33152        -3.72628
| 21>    C        6.65520        -8.42322        -1.24385
| 22>    C        7.31483        -8.85292        -0.06406
| 23>    C        6.49046        -9.43349         0.84551
| 24>    C        5.13058        -9.49909         0.44144
| 25>    S        4.94127        -8.78880        -1.14721
| 26>    C        4.08682       -10.03049         1.15388
| 27>    C        2.76617       -10.05849         0.68190
| 28>    O        2.47234        -9.53633        -0.54579
| 29>    C        1.59060       -10.54419         1.23741
| 30>    C        1.01143       -11.20071         2.40493
| 31>    O        1.50686       -11.58877         3.43308
| 32>    N       -0.34486       -11.30661         2.08255
| 33>    C       -0.70196       -10.79284         0.83874
| 34>    O       -1.81715       -10.79108         0.37795
| 35>    C        0.56168       -10.29875         0.29768
| 36>    C        1.13931        -9.67342        -0.79397
| 37>    C        0.55900        -9.21423        -1.99426
| 38>    C        1.26295        -8.59627        -2.98286
| 39>    C        0.71328        -8.12334        -4.18711
| 40>    S        1.72052        -7.30235        -5.35981
| 41>    C        0.42251        -7.01808        -6.48746
| 42>    C       -0.75728        -7.55804        -5.97203
| 43>    C       -0.58510        -8.16656        -4.69362
| 44>    N       -1.80142        -8.64313        -4.33594
| 45>    N       -2.71987        -8.39057        -5.28130
| 46>    C       -2.13420        -7.75151        -6.25937
| 47>    C        0.68579        -6.32949        -7.69732
| 48>    C       -0.26805        -5.95942        -8.58319
| 49>    C       -0.07485        -5.26359        -9.82463
| 50>    C        0.98733        -5.28430       -10.64513
| 51>    C        2.22537        -6.09870       -10.43682
| 52>    C        0.97554        -4.45994       -11.91314
| 53>    N        2.03846        -3.48212       -11.91033
| 54>    C        1.89114        -2.20078       -11.57076
| 55>    C        2.93077        -1.32783       -11.41735
| 56>    C        2.71760         0.02116       -11.11366
| 57>    C        3.70981         0.95952       -10.94597
| 58>    C        3.53162         2.36073       -10.64710
| 59>    C        2.34725         3.02883       -10.44622
| 60>    C        2.25167         4.40524       -10.16088
| 61>    N        2.10155         5.51988        -9.92665
| 62>    C        1.06349         2.45110       -10.48978
| 63>    N       -0.01580         2.05559       -10.50726
| 64>    C        4.85738         2.97380       -10.58978
| 65>    C        5.82931         1.97533       -10.83798
| 66>    C        5.15091         0.68036       -11.06182
| 67>    O        5.70047        -0.38196       -11.28981
| 68>    C        7.17621         2.23928       -10.85582
| 69>    C        7.58705         3.55528       -10.61733
| 70>    C        6.60980         4.54607       -10.36854
| 71>    C        5.24618         4.27807       -10.34981
| 72>    S        7.33354         6.10408       -10.09880
| 73>    C        8.91711         5.41000       -10.32271
| 74>    C        8.90776         4.08208       -10.58500
| 75>   Br       10.43549         6.50476       -10.18984
| 76>    H        8.49754        -5.72460        -6.23867
| 77>    H        6.68457        -6.02452        -6.31096
| 78>    H        9.79079        -6.52087        -4.05456
| 79>    H        9.31909        -7.66999        -1.80039
| 80>    H        8.37248        -8.72061         0.07722
| 81>    H        6.80423        -9.82106         1.79843
| 82>    H        4.26312       -10.45555         2.12939
| 83>    H       -1.01623       -11.72657         2.70898
| 84>    H       -0.50303        -9.38407        -2.07076
| 85>    H        2.32532        -8.44670        -2.84297
| 86>    H       -2.07662        -9.13598        -3.50279
| 87>    H       -2.70045        -7.46286        -7.12093
| 88>    H        1.71795        -6.05736        -7.85669
| 89>    H       -1.29975        -6.15438        -8.32736
| 90>    H       -0.93834        -4.69107       -10.14362
| 91>    H        1.99803        -7.00487        -9.88030
| 92>    H        2.97559        -5.53801        -9.87765
| 93>    H        2.66021        -6.37830       -11.39565
| 94>    H        0.02462        -3.93495       -12.02082
| 95>    H        1.11291        -5.11480       -12.78202
| 96>    H        2.98250        -3.83607       -11.98142
| 97>    H        0.87070        -1.86027       -11.44513
| 98>    H        3.94580        -1.67501       -11.53621
| 99>    H        1.68803         0.33720       -11.00945
|100>    H        7.89200         1.45556       -11.04904
|101>    H        4.54237         5.06985       -10.15565
|102>    H        9.79364         3.49631       -10.74997
|103> *
|104>
|105>                          ****END OF INPUT****

CARTESIAN COORDINATES (ANGSTROEM)
---------------------------------
  C      7.609470   -6.111640   -5.771090
  C      7.666070   -6.675660   -4.557670
  C      8.822590   -6.854500   -3.725920
  C      8.571860   -7.457460   -2.544070
  C      7.205510   -7.805810   -2.340590
  S      6.245710   -7.331520   -3.726280
  C      6.655200   -8.423220   -1.243850
  C      7.314830   -8.852920   -0.064060
  C      6.490460   -9.433490    0.845510
  C      5.130580   -9.499090    0.441440
  S      4.941270   -8.788800   -1.147210
  C      4.086820  -10.030490    1.153880
  C      2.766170  -10.058490    0.681900
  O      2.472340   -9.536330   -0.545790
  C      1.590600  -10.544190    1.237410
  C      1.011430  -11.200710    2.404930
  O      1.506860  -11.588770    3.433080
  N     -0.344860  -11.306610    2.082550
  C     -0.701960  -10.792840    0.838740
  O     -1.817150  -10.791080    0.377950
  C      0.561680  -10.298750    0.297680
  C      1.139310   -9.673420   -0.793970
  C      0.559000   -9.214230   -1.994260
  C      1.262950   -8.596270   -2.982860
  C      0.713280   -8.123340   -4.187110
  S      1.720520   -7.302350   -5.359810
  C      0.422510   -7.018080   -6.487460
  C     -0.757280   -7.558040   -5.972030
  C     -0.585100   -8.166560   -4.693620
  N     -1.801420   -8.643130   -4.335940
  N     -2.719870   -8.390570   -5.281300
  C     -2.134200   -7.751510   -6.259370
  C      0.685790   -6.329490   -7.697320
  C     -0.268050   -5.959420   -8.583190
  C     -0.074850   -5.263590   -9.824630
  C      0.987330   -5.284300  -10.645130
  C      2.225370   -6.098700  -10.436820
  C      0.975540   -4.459940  -11.913140
  N      2.038460   -3.482120  -11.910330
  C      1.891140   -2.200780  -11.570760
  C      2.930770   -1.327830  -11.417350
  C      2.717600    0.021160  -11.113660
  C      3.709810    0.959520  -10.945970
  C      3.531620    2.360730  -10.647100
  C      2.347250    3.028830  -10.446220
  C      2.251670    4.405240  -10.160880
  N      2.101550    5.519880   -9.926650
  C      1.063490    2.451100  -10.489780
  N     -0.015800    2.055590  -10.507260
  C      4.857380    2.973800  -10.589780
  C      5.829310    1.975330  -10.837980
  C      5.150910    0.680360  -11.061820
  O      5.700470   -0.381960  -11.289810
  C      7.176210    2.239280  -10.855820
  C      7.587050    3.555280  -10.617330
  C      6.609800    4.546070  -10.368540
  C      5.246180    4.278070  -10.349810
  S      7.333540    6.104080  -10.098800
  C      8.917110    5.410000  -10.322710
  C      8.907760    4.082080  -10.585000
  Br    10.435490    6.504760  -10.189840
  H      8.497540   -5.724600   -6.238670
  H      6.684570   -6.024520   -6.310960
  H      9.790790   -6.520870   -4.054560
  H      9.319090   -7.669990   -1.800390
  H      8.372480   -8.720610    0.077220
  H      6.804230   -9.821060    1.798430
  H      4.263120  -10.455550    2.129390
  H     -1.016230  -11.726570    2.708980
  H     -0.503030   -9.384070   -2.070760
  H      2.325320   -8.446700   -2.842970
  H     -2.076620   -9.135980   -3.502790
  H     -2.700450   -7.462860   -7.120930
  H      1.717950   -6.057360   -7.856690
  H     -1.299750   -6.154380   -8.327360
  H     -0.938340   -4.691070  -10.143620
  H      1.998030   -7.004870   -9.880300
  H      2.975590   -5.538010   -9.877650
  H      2.660210   -6.378300  -11.395650
  H      0.024620   -3.934950  -12.020820
  H      1.112910   -5.114800  -12.782020
  H      2.982500   -3.836070  -11.981420
  H      0.870700   -1.860270  -11.445130
  H      3.945800   -1.675010  -11.536210
  H      1.688030    0.337200  -11.009450
  H      7.892000    1.455560  -11.049040
  H      4.542370    5.069850  -10.155650
  H      9.793640    3.496310  -10.749970

 Total Charge           Charge          ....    0
 Multiplicity           Mult            ....    1
 Number of Electrons    NEL             ....  476
 Basis Dimension        Dim             .... 1023

ORBITAL ENERGIES
----------------

  NO   OCC          E(Eh)            E(eV)
   0   2.0000    -482.878715    -13139.7978
   1   2.0000     -88.971362     -2421.0338
   2   2.0000     -88.966038     -2420.8890
   3   2.0000     -88.950279     -2420.4602
   4   2.0000     -88.948496     -2420.4116
   5   2.0000     -62.556400     -1702.2462
   6   2.0000     -56.390340     -1534.4592
   7   2.0000     -56.387648     -1534.3859
   8   2.0000     -56.387609     -1534.3848
   9   2.0000     -19.303150      -525.2654
  10   2.0000     -19.200390      -522.4692
  11   2.0000     -19.199990      -522.4583
  12   2.0000     -19.198789      -522.4256
  13   2.0000     -14.487500      -394.2249
  14   2.0000     -14.472467      -393.8158
  15   2.0000     -14.443621      -393.0309
  16   2.0000     -14.441482      -392.9727
  17   2.0000     -14.402441      -391.9103
  18   2.0000     -14.398609      -391.8061
  19   2.0000     -10.389465      -282.7117
  20   2.0000     -10.388567      -282.6873
  21   2.0000     -10.353911      -281.7443
  22   2.0000     -10.353439      -281.7314
  23   2.0000     -10.350584      -281.6537
  24   2.0000     -10.349961      -281.6368
  25   2.0000     -10.349909      -281.6354
  26   2.0000     -10.335358      -281.2394
  27   2.0000     -10.325490      -280.9709
  28   2.0000     -10.322462      -280.8885
  29   2.0000     -10.321661      -280.8667
  30   2.0000     -10.321013      -280.8490
  31   2.0000     -10.320340      -280.8307
  32   2.0000     -10.319044      -280.7955
  33   2.0000     -10.316117      -280.7158
  34   2.0000     -10.314207      -280.6638
  35   2.0000     -10.312366      -280.6137
  36   2.0000     -10.312077      -280.6059
  37   2.0000     -10.306817      -280.4628
  38   2.0000     -10.303939      -280.3844
  39   2.0000     -10.303129      -280.3624
  40   2.0000     -10.300906      -280.3019
  41   2.0000     -10.298424      -280.2344
  42   2.0000     -10.298122      -280.2261
  43   2.0000     -10.298097      -280.2255
  44   2.0000     -10.296599      -280.1847
  45   2.0000     -10.296531      -280.1828
  46   2.0000     -10.295729      -280.1610
  47   2.0000     -10.294730      -280.1338
  48   2.0000     -10.294408      -280.1251
  49   2.0000     -10.293101      -280.0895
  50   2.0000     -10.289952      -280.0038
  51   2.0000     -10.289340      -279.9872
  52   2.0000     -10.289103      -279.9807
  53   2.0000     -10.288270      -279.9581
  54   2.0000     -10.288086      -279.9531
  55   2.0000     -10.287033      -279.9244
  56   2.0000     -10.286859      -279.9197
  57   2.0000     -10.286521      -279.9105
  58   2.0000     -10.285334      -279.8782
  59   2.0000     -10.280977      -279.7596
  60   2.0000     -10.279030      -279.7066
  61   2.0000     -10.278704      -279.6977
  62   2.0000     -10.278508      -279.6924
  63   2.0000     -10.271650      -279.5058
  64   2.0000     -10.266662      -279.3701
  65   2.0000      -8.785798      -239.0737
  66   2.0000      -8.066222      -219.4931
  67   2.0000      -8.062028      -219.3789
  68   2.0000      -8.045779      -218.9368
  69   2.0000      -8.045198      -218.9210
  70   2.0000      -6.622039      -180.1948
  71   2.0000      -6.607554      -179.8007
  72   2.0000      -6.607380      -179.7959
  73   2.0000      -6.035445      -164.2328
  74   2.0000      -6.031724      -164.1315
  75   2.0000      -6.031351      -164.1214
  76   2.0000      -6.028589      -164.0462
  77   2.0000      -6.027468      -164.0157
  78   2.0000      -6.023233      -163.9005
  79   2.0000      -6.015685      -163.6951
  80   2.0000      -6.014982      -163.6760
  81   2.0000      -6.011371      -163.5777
  82   2.0000      -6.011141      -163.5715
  83   2.0000      -6.006626      -163.4486
  84   2.0000      -6.005739      -163.4245
  85   2.0000      -2.737937       -74.5031
  86   2.0000      -2.733844       -74.3917
  87   2.0000      -2.733720       -74.3883
  88   2.0000      -2.722209       -74.0751
  89   2.0000      -2.722192       -74.0746
  90   2.0000      -1.218659       -33.1614
  91   2.0000      -1.148441       -31.2507
  92   2.0000      -1.143415       -31.1139
  93   2.0000      -1.122530       -30.5456
  94   2.0000      -1.113253       -30.2932
  95   2.0000      -1.071057       -29.1450
  96   2.0000      -1.031325       -28.0638
  97   2.0000      -1.010583       -27.4994
  98   2.0000      -1.000453       -27.2237
  99   2.0000      -1.000204       -27.2169
 100   2.0000      -0.992027       -26.9944
 101   2.0000      -0.980040       -26.6682
 102   2.0000      -0.978292       -26.6207
 103   2.0000      -0.975090       -26.5336
 104   2.0000      -0.940645       -25.5963
 105   2.0000      -0.932767       -25.3819
 106   2.0000      -0.929364       -25.2893
 107   2.0000      -0.919902       -25.0318
 108   2.0000      -0.913350       -24.8535
 109   2.0000      -0.906203       -24.6591
 110   2.0000      -0.897346       -24.4180
 111   2.0000      -0.895829       -24.3768
 112   2.0000      -0.886579       -24.1250
 113   2.0000      -0.874511       -23.7966
 114   2.0000      -0.873591       -23.7716
 115   2.0000      -0.864628       -23.5277
 116   2.0000      -0.856356       -23.3026
 117   2.0000      -0.853155       -23.2155
 118   2.0000      -0.843323       -22.9480
 119   2.0000      -0.829878       -22.5821
 120   2.0000      -0.825792       -22.4710
 121   2.0000      -0.817898       -22.2561
 122   2.0000      -0.815795       -22.1989
 123   2.0000      -0.799921       -21.7670
 124   2.0000      -0.790513       -21.5109
 125   2.0000      -0.772801       -21.0290
 126   2.0000      -0.759445       -20.6656
 127   2.0000      -0.755244       -20.5512
 128   2.0000      -0.750602       -20.4249
 129   2.0000      -0.743478       -20.2311
 130   2.0000      -0.732567       -19.9342
 131   2.0000      -0.718475       -19.5507
 132   2.0000      -0.713230       -19.4080
 133   2.0000      -0.710154       -19.3243
 134   2.0000      -0.706150       -19.2153
 135   2.0000      -0.698570       -19.0090
 136   2.0000      -0.686456       -18.6794
 137   2.0000      -0.686126       -18.6704
 138   2.0000      -0.685099       -18.6425
 139   2.0000      -0.676909       -18.4196
 140   2.0000      -0.659023       -17.9329
 141   2.0000      -0.654343       -17.8056
 142   2.0000      -0.646136       -17.5823
 143   2.0000      -0.644796       -17.5458
 144   2.0000      -0.631989       -17.1973
 145   2.0000      -0.623941       -16.9783
 146   2.0000      -0.621495       -16.9118
 147   2.0000      -0.618407       -16.8277
 148   2.0000      -0.610500       -16.6126
 149   2.0000      -0.608816       -16.5667
 150   2.0000      -0.606793       -16.5117
 151   2.0000      -0.602281       -16.3889
 152   2.0000      -0.594592       -16.1797
 153   2.0000      -0.584384       -15.9019
 154   2.0000      -0.583538       -15.8789
 155   2.0000      -0.579807       -15.7774
 156   2.0000      -0.576362       -15.6836
 157   2.0000      -0.575699       -15.6656
 158   2.0000      -0.572178       -15.5697
 159   2.0000      -0.562221       -15.2988
 160   2.0000      -0.556900       -15.1540
 161   2.0000      -0.554169       -15.0797
 162   2.0000      -0.551852       -15.0167
 163   2.0000      -0.549803       -14.9609
 164   2.0000      -0.544509       -14.8168
 165   2.0000      -0.541069       -14.7232
 166   2.0000      -0.537518       -14.6266
 167   2.0000      -0.534208       -14.5365
 168   2.0000      -0.533178       -14.5085
 169   2.0000      -0.526803       -14.3351
 170   2.0000      -0.525916       -14.3109
 171   2.0000      -0.520516       -14.1640
 172   2.0000      -0.517357       -14.0780
 173   2.0000      -0.515817       -14.0361
 174   2.0000      -0.511566       -13.9204
 175   2.0000      -0.506654       -13.7868
 176   2.0000      -0.505764       -13.7625
 177   2.0000      -0.501708       -13.6522
 178   2.0000      -0.499887       -13.6026
 179   2.0000      -0.499515       -13.5925
 180   2.0000      -0.498089       -13.5537
 181   2.0000      -0.496676       -13.5152
 182   2.0000      -0.495904       -13.4942
 183   2.0000      -0.495156       -13.4739
 184   2.0000      -0.490801       -13.3554
 185   2.0000      -0.484812       -13.1924
 186   2.0000      -0.481437       -13.1006
 187   2.0000      -0.479553       -13.0493
 188   2.0000      -0.475655       -12.9432
 189   2.0000      -0.473527       -12.8853
 190   2.0000      -0.470696       -12.8083
 191   2.0000      -0.469148       -12.7662
 192   2.0000      -0.467833       -12.7304
 193   2.0000      -0.467246       -12.7144
 194   2.0000      -0.465246       -12.6600
 195   2.0000      -0.460685       -12.5359
 196   2.0000      -0.458710       -12.4821
 197   2.0000      -0.450907       -12.2698
 198   2.0000      -0.448971       -12.2171
 199   2.0000      -0.447053       -12.1649
 200   2.0000      -0.443399       -12.0655
 201   2.0000      -0.437640       -11.9088
 202   2.0000      -0.437197       -11.8967
 203   2.0000      -0.436850       -11.8873
 204   2.0000      -0.433624       -11.7995
 205   2.0000      -0.430152       -11.7050
 206   2.0000      -0.428983       -11.6732
 207   2.0000      -0.428095       -11.6491
 208   2.0000      -0.426171       -11.5967
 209   2.0000      -0.413586       -11.2542
 210   2.0000      -0.410196       -11.1620
 211   2.0000      -0.407911       -11.0998
 212   2.0000      -0.402847       -10.9620
 213   2.0000      -0.400488       -10.8978
 214   2.0000      -0.393940       -10.7197
 215   2.0000      -0.389813       -10.6074
 216   2.0000      -0.380236       -10.3467
 217   2.0000      -0.372558       -10.1378
 218   2.0000      -0.370475       -10.0811
 219   2.0000      -0.369638       -10.0583
 220   2.0000      -0.368298       -10.0219
 221   2.0000      -0.368251       -10.0206
 222   2.0000      -0.359059        -9.7705
 223   2.0000      -0.352249        -9.5852
 224   2.0000      -0.345261        -9.3950
 225   2.0000      -0.344105        -9.3636
 226   2.0000      -0.339345        -9.2340
 227   2.0000      -0.335107        -9.1187
 228   2.0000      -0.330909        -9.0045
 229   2.0000      -0.323882        -8.8133
 230   2.0000      -0.321239        -8.7414
 231   2.0000      -0.321088        -8.7373
 232   2.0000      -0.304760        -8.2929
 233   2.0000      -0.295796        -8.0490
 234   2.0000      -0.284504        -7.7417
 235   2.0000      -0.261844        -7.1251
 236   2.0000      -0.249229        -6.7819
 237   2.0000      -0.217880        -5.9288
 238   0.0000      -0.084329        -2.2947
 239   0.0000      -0.070530        -1.9192
 240   0.0000      -0.066997        -1.8231
 241   0.0000      -0.041672        -1.1339
 242   0.0000      -0.019014        -0.5174

MULLIKEN ATOMIC CHARGES
-----------------------
   0 C :   -0.022488
   1 C :   -0.065107
   2 C :    0.056596
   3 C :    0.030495
   4 C :   -0.062457
   5 S :    0.081140
   6 C :   -0.044698
   7 C :    0.032709
   8 C :    0.028742
   9 C :   -0.000421
  10 S :    0.091666
  11 C :   -0.049530
  12 C :    0.092098
  13 O :   -0.246359
  14 C :   -0.024884
  15 C :    0.150871
  16 O :   -0.149878
  17 N :   -0.167918
  18 C :    0.158480
  19 O :   -0.160534
  20 C :   -0.040333
  21 C :    0.097515
  22 C :   -0.047086
  23 C :    0.082546
  24 C :   -0.190297
  25 S :    0.158855
  26 C :   -0.134951
  27 C :    0.020066
  28 C :    0.150261
  29 N :   -0.044180
  30 N :   -0.051944
  31 C :   -0.018442
  32 C :    0.059976
  33 C :   -0.006558
  34 C :    0.018073
  35 C :   -0.178347
  36 C :    0.065508
  37 C :    0.186868
  38 N :   -0.120883
  39 C :    0.089965
  40 C :   -0.036580
  41 C :   -0.028612
  42 C :   -0.100038
  43 C :    0.336274
  44 C :   -0.368881
  45 C :   -0.186914
  46 N :    0.138690
  47 C :   -0.190879
  48 N :    0.123375
  49 C :    0.009068
  50 C :   -0.011349
  51 C :    0.138532
  52 O :   -0.176039
  53 C :   -0.077280
  54 C :    0.118493
  55 C :   -0.094679
  56 C :   -0.022156
  57 S :    0.179569
  58 C :   -0.121910
  59 C :    0.036016
  60 Br:    0.013898
  61 H :    0.024285
  62 H :    0.020613
  63 H :   -0.007221
  64 H :   -0.007570
  65 H :   -0.010803
  66 H :   -0.006758
  67 H :    0.005135
  68 H :    0.134336
  69 H :   -0.033604
  70 H :   -0.008049
  71 H :    0.150080
  72 H :    0.003753
  73 H :   -0.026836
  74 H :   -0.012205
  75 H :   -0.015186
  76 H :    0.041207
  77 H :    0.044679
  78 H :    0.010095
  79 H :    0.019136
  80 H :    0.033153
  81 H :    0.134291
  82 H :    0.028589
  83 H :    0.011090
  84 H :   -0.000573
  85 H :   -0.018073
  86 H :   -0.009302
  87 H :   -0.007994
Sum of atomic charges:   -0.0000000

LOEWDIN ATOMIC CHARGES
----------------------
   0 C :   -0.068583
   1 C :   -0.139167
   2 C :   -0.024503
   3 C :   -0.026105
   4 C :   -0.166750
   5 S :    0.352826
   6 C :   -0.189409
   7 C :   -0.022475
   8 C :   -0.036143
   9 C :   -0.127014
  10 S :    0.388764
  11 C :   -0.083911
  12 C :    0.067250
  13 O :   -0.004148
  14 C :   -0.104843
  15 C :    0.082912
  16 O :   -0.168495
  17 N :   -0.009178
  18 C :    0.082369
  19 O :   -0.176098
  20 C :   -0.103546
  21 C :    0.070051
  22 C :   -0.066802
  23 C :   -0.014807
  24 C :   -0.213347
  25 S :    0.465615
  26 C :   -0.164568
  27 C :   -0.091919
  28 C :   -0.010823
  29 N :    0.094574
  30 N :   -0.046956
  31 C :   -0.041297
  32 C :   -0.037982
  33 C :   -0.026954
  34 C :   -0.044968
  35 C :   -0.037588
  36 C :   -0.056736
  37 C :    0.047598
  38 N :    0.038360
  39 C :    0.096503
  40 C :   -0.116642
  41 C :    0.075457
  42 C :   -0.134659
  43 C :    0.080431
  44 C :   -0.161722
  45 C :   -0.019413
  46 N :   -0.069370
  47 C :   -0.018038
  48 N :   -0.073520
  49 C :   -0.019640
  50 C :   -0.048274
  51 C :    0.082828
  52 O :   -0.169221
  53 C :    0.015607
  54 C :   -0.035927
  55 C :   -0.146455
  56 C :   -0.012001
  57 S :    0.427004
  58 C :   -0.274584
  59 C :   -0.071761
  60 Br:    0.129362
  61 H :    0.030781
  62 H :    0.026237
  63 H :    0.035334
  64 H :    0.033991
  65 H :    0.032360
  66 H :    0.035844
  67 H :    0.049331
  68 H :    0.092206
  69 H :    0.031946
  70 H :    0.033092
  71 H :    0.089062
  72 H :    0.021194
  73 H :    0.027556
  74 H :    0.031235
  75 H :    0.029198
  76 H :    0.041340
  77 H :    0.037000
  78 H :    0.026713
  79 H :    0.033400
  80 H :    0.032044
  81 H :    0.087652
  82 H :    0.038553
  83 H :    0.028909
  84 H :    0.038977
  85 H :    0.037708
  86 H :    0.040249
  87 H :    0.036920

  Mayer bond orders larger than 0.100000
B(  0-C ,  1-C ) :   1.8659 B(  0-C , 61-H ) :   0.9507 B(  0-C , 62-H ) :   0.9416
B(  1-C ,  2-C ) :   1.0784 B(  1-C ,  5-S ) :   1.0065 B(  2-C ,  3-C ) :   1.6648
B(  2-C , 63-H ) :   0.9929 B(  3-C ,  4-C ) :   1.1491 B(  3-C , 64-H ) :   0.9919
B(  4-C ,  5-S ) :   1.0510 B(  4-C ,  6-C ) :   1.5585 B(  6-C ,  7-C ) :   1.1723
B(  6-C , 10-S ) :   1.0139 B(  7-C ,  8-C ) :   1.6049 B(  7-C , 65-H ) :   0.9943
B(  8-C ,  9-C ) :   1.1356 B(  8-C , 66-H ) :   1.0010 B(  9-C , 10-S ) :   1.0608
B(  9-C , 11-C ) :   1.5313 B( 11-C , 12-C ) :   1.2274 B( 11-C , 67-H ) :   0.9646
B( 12-C , 13-O ) :   1.1097 B( 12-C , 14-C ) :   1.3640 B( 13-O , 21-C ) :   1.1326
B( 14-C , 15-C ) :   0.8949 B( 14-C , 20-C ) :   1.2776 B( 15-C , 16-O ) :   2.2639
B( 15-C , 17-N ) :   1.0684 B( 17-N , 18-C ) :   1.0831 B( 17-N , 68-H ) :   0.9148
B( 18-C , 19-O ) :   2.2493 B( 18-C , 20-C ) :   0.8889 B( 20-C , 21-C ) :   1.3737
B( 21-C , 22-C ) :   1.2397 B( 22-C , 23-C ) :   1.5669 B( 22-C , 69-H ) :   0.9467
B( 23-C , 24-C ) :   1.1707 B( 23-C , 70-H ) :   0.9597 B( 24-C , 25-S ) :   1.0974
B( 24-C , 26-C ) :   0.1096 B( 24-C , 28-C ) :   1.3470 B( 25-S , 26-C ) :   1.1575
B( 26-C , 27-C ) :   1.3130 B( 26-C , 32-C ) :   1.1584 B( 27-C , 28-C ) :   1.2680
B( 27-C , 31-C ) :   1.1503 B( 28-C , 29-N ) :   1.1658 B( 29-N , 30-N ) :   1.1341
B( 29-N , 71-H ) :   0.9444 B( 30-N , 31-C ) :   1.7441 B( 31-C , 72-H ) :   0.9958
B( 32-C , 33-C ) :   1.6922 B( 32-C , 73-H ) :   0.9538 B( 33-C , 34-C ) :   1.1141
B( 33-C , 74-H ) :   0.9576 B( 34-C , 35-C ) :   1.8337 B( 34-C , 75-H ) :   0.9487
B( 35-C , 36-C ) :   1.0677 B( 35-C , 37-C ) :   1.0435 B( 36-C , 76-H ) :   0.9422
B( 36-C , 77-H ) :   0.9444 B( 36-C , 78-H ) :   0.9485 B( 37-C , 38-N ) :   0.9878
B( 37-C , 79-H ) :   0.9392 B( 37-C , 80-H ) :   0.9353 B( 38-N , 39-C ) :   1.3223
B( 38-N , 81-H ) :   0.9306 B( 39-C , 40-C ) :   1.4395 B( 39-C , 82-H ) :   0.9661
B( 40-C , 41-C ) :   1.2847 B( 40-C , 83-H ) :   0.9654 B( 41-C , 42-C ) :   1.4564
B( 41-C , 84-H ) :   0.9542 B( 42-C , 43-C ) :   1.1052 B( 42-C , 51-C ) :   0.9799
B( 43-C , 44-C ) :   1.5903 B( 43-C , 49-C ) :   0.9931 B( 44-C , 45-C ) :   1.1453
B( 44-C , 47-C ) :   1.1553 B( 45-C , 46-N ) :   2.9639 B( 47-C , 48-N ) :   2.9514
B( 49-C , 50-C ) :   1.2800 B( 49-C , 56-C ) :   1.4175 B( 50-C , 51-C ) :   0.9369
B( 50-C , 53-C ) :   1.4323 B( 51-C , 52-O ) :   2.1754 B( 53-C , 54-C ) :   1.2402
B( 53-C , 85-H ) :   1.0150 B( 54-C , 55-C ) :   1.3158 B( 54-C , 59-C ) :   1.1603
B( 55-C , 56-C ) :   1.3244 B( 55-C , 57-S ) :   1.0816 B( 56-C , 86-H ) :   0.9781
B( 57-S , 58-C ) :   1.0859 B( 58-C , 59-C ) :   1.6198 B( 58-C , 60-Br) :   1.0128
B( 59-C , 87-H ) :   1.0004

-----------------------------------------------------------------------------
         ABSORPTION SPECTRUM VIA TRANSITION ELECTRIC DIPOLE MOMENTS
-----------------------------------------------------------------------------
State   Energy  Wavelength   fosc         T2         TX        TY        TZ
        (cm-1)    (nm)                  (au**2)     (au)      (au)      (au)
-----------------------------------------------------------------------------
   0   14626.1    683.7   0.442159722   9.95233  -3.00207   0.09439  -0.96487
   1   19009.3    526.1   0.442496976   7.66336  -1.17389  -1.38134   2.09218
   2   22295.7    448.5   2.065144773  30.49339  -1.37019  -3.16816   4.31031
   3   23647.1    422.9   0.087198495   1.21397  -0.02334   0.33565   1.04917
   4   24721.9    404.5   0.399237656   5.31648  -0.12717  -2.17349  -0.75913
   5   25391.9    393.8   0.136696584   1.77230   0.09537  -0.42231  -1.25891
   6   27979.0    357.4   0.075762462   0.89145   0.57527   0.73559   0.13936
   7   28196.4    354.7   0.030590204   0.35716   0.27921   0.06925   0.52384
   8   28793.3    347.3   0.071918646   0.82229  -0.23137  -0.42630  -0.76617
   9   29043.1    344.3   0.050928025   0.57728   0.00658   0.74307  -0.15840
  10   29589.9    338.0   0.016152235   0.17971  -0.37355   0.19623  -0.04076
  11   30223.4    330.9   0.009490107   0.10337   0.27309   0.16791   0.02442
  12   30668.9    326.1   0.889816537   9.55165   2.56198   1.69330   0.34734
  13   31271.8    319.8   0.000226081   0.00238   0.04155   0.01796   0.01820
  14   31901.1    313.5   0.166841022   1.72176  -1.05545   0.19400  -0.75508
  15   32109.3    311.4   0.000563475   0.00578   0.06518   0.03072   0.02418
  16   32161.8    310.9   0.248692928   2.54565   1.43578   0.69569  -0.01385
  17   32509.5    307.6   0.044385389   0.44948   0.54863   0.36272   0.13007
  18   33517.5    298.4   0.004524596   0.04444   0.16745  -0.11138   0.06323
  19   34137.0    292.9   0.067333383   0.64935  -0.49723   0.21603  -0.59620
  20   35116.7    284.8   0.006465300   0.06061  -0.23658  -0.06562  -0.01830
  21   35171.4    284.3   0.348121052   3.25849  -1.77463   0.30344   0.13080
  22   35700.5    280.1   0.101678350   0.93763  -0.80647  -0.29297   0.44878
  23   35808.4    279.3   0.001165966   0.01072   0.07991   0.05285  -0.03926
  24   36076.3    277.2   0.001440278   0.01314  -0.09375  -0.03109  -0.05820
  25   36275.2    275.7   0.003510828   0.03186  -0.05409  -0.16972  -0.01152
  26   36869.6    271.2   0.086060141   0.76844   0.85211   0.15603   0.13420
  27   37024.4    270.1   0.035319008   0.31405  -0.53224  -0.16504   0.05941
  28   37777.8    264.7   0.055096435   0.48013  -0.65649  -0.17170   0.14026
  29   37835.6    264.3   0.000066090   0.00058  -0.01616  -0.01768  -0.00116
  30   38567.7    259.3   0.001582842   0.01351  -0.05463   0.06077  -0.08267
  31   39019.6    256.3   0.093899695   0.79224  -0.14895  -0.41986   0.77057
  32   39552.8    252.8   0.005446472   0.04533   0.00220  -0.20892   0.04100
  33   39815.7    251.2   0.079413623   0.65662   0.01073   0.62539  -0.51516
  34   40028.6    249.8   0.086004134   0.70733  -0.00530   0.57958  -0.60942
  35   40234.8    248.5   0.187501667   1.53419   0.35992   1.10081   0.43917

FINAL SINGLE POINT ENERGY     -6561.674350551642

DIPOLE MOMENT
-------------
                                X             Y             Z
Electronic contribution:     78.06436     134.29811     -19.67989
Nuclear contribution   :    -75.12990    -137.00000      18.15901
                        -----------------------------------------
Total Dipole Moment    :      2.93446      -2.70189      -1.52088
                        -----------------------------------------
Magnitude (a.u.)       :      4.26900
Magnitude (Debye)      :     10.85093

Rotational constants in cm-1:     0.001250     0.000293     0.000256
Rotational constants in MHz :    37.473968     8.797886     7.681034

                             ****ORCA TERMINATED NORMALLY****
TOTAL RUN TIME: 0 days 0 hours 10 minutes 51 seconds 6 msec
