                         Program Version 4.2.0 -  RELEASE  -
|  1> # ORCA input file
|  2> # SCF done       -157.207019316863          0.000264188927
|  3> ! CAM-B3LYP def2-SVP def2/J RIJCOSX Grid4 TightSCF
|  4> %maxcore 5000
|  5> %tddft
|  6>     Mode sTDDFT
|  7>     Ethresh 5.0
|  8>     maxcore 5000
|  9> end
| 10>
| 11> %pal
| 12>   nprocs 6
| 13>   end
| 14> * xyz 0 1
| 15>    C       -6.27915       -12.06578         2.07956
| 16>    C       -5.02480       -12.48594         1.87199
| 17>    C       -4.50779       -13.81760         2.01663
| 18>    C       -3.19313       -13.94368         1.73656
| 19>    C       -2.55488       -12.73236         1.34646
| 20>    S       -3.71637       -11.41055         1.35473
| 21>    C       -1.24229       -12.55260         1.00392
| 22>    C       -0.20249       -13.51875         0.95115
| 23>    C        0.99896       -13.02790         0.56756
| 24>    C        1.01656       -11.62759         0.28660
| 25>    S       -0.61451       -10.97847         0.54189
| 26>    C        2.13644       -10.95334        -0.07966
| 27>    N        2.30237        -9.64102        -0.41477
| 28>    C        3.55801        -9.06202        -0.45077
| 29>    C        4.70770        -9.55362         0.10155
| 30>    S        6.04513        -8.50238        -0.14063
| 31>    C        5.06989        -7.37682        -0.98798
| 32>    C        3.77090        -7.78973        -1.08295
| 33>    N        2.73471        -7.12968        -1.73631
| 34>    C        1.53776        -7.91604        -1.95187
| 35>    C        1.21325        -8.73797        -0.70468
| 36>    C        2.88193        -5.86934        -2.18767
| 37>    C        2.02833        -5.20570        -3.01153
| 38>    C        2.13866        -3.85880        -3.44074
| 39>    S        0.91668        -3.36546        -4.59960
| 40>    C        1.44960        -1.69366        -4.59936
| 41>    C        2.52459        -1.55443        -3.74929
| 42>    C        2.92267        -2.76718        -3.09781
| 43>    N        3.88077        -2.72855        -2.04578
| 44>    O        4.65388        -3.66310        -1.92596
| 45>    O        3.84012        -1.76838        -1.30599
| 46>    N        3.21579        -0.31523        -3.58147
| 47>    O        4.41902        -0.36300        -3.44307
| 48>    O        2.55665         0.70519        -3.64910
| 49>    N        0.92991        -0.76453        -5.44647
| 50>    C       -0.42925        -0.64565        -5.71362
| 51>    C       -1.43909        -1.44173        -5.26259
| 52>    S       -2.97532        -0.92207        -5.82534
| 53>    C       -2.27016         0.40067        -6.66257
| 54>    C       -0.90999         0.44055        -6.52529
| 55>    N       -0.05572         1.40390        -7.02650
| 56>    C        1.27663         1.41635        -6.46259
| 57>    C        1.77999        -0.01902        -6.36144
| 58>    C       -0.47247         2.32279        -7.94543
| 59>    C        0.18227         3.43993        -8.34346
| 60>    C       -0.33940         4.29176        -9.34280
| 61>    C        0.26751         5.42719        -9.79627
| 62>    C       -0.22320         6.31842       -10.78752
| 63>    C        0.59011         7.37181       -11.05128
| 64>    C        1.78573         7.38780       -10.28694
| 65>    S        1.82955         6.00230        -9.21143
| 66>    C        2.79900         8.31179       -10.33262
| 67>    C        2.87871         9.46792       -11.15776
| 68>    C        4.00333        10.19803       -10.99168
| 69>    C        4.91311         9.67466       -10.01317
| 70>    S        4.23216         8.19277        -9.32317
| 71>    C        6.09723        10.17950        -9.64123
| 72>    H       -7.04287       -12.75471         2.39443
| 73>    H       -6.56277       -11.03865         1.94151
| 74>    H       -5.15132       -14.62227         2.32586
| 75>    H       -2.64633       -14.86855         1.79396
| 76>    H       -0.38193       -14.54827         1.20343
| 77>    H        1.89360       -13.61840         0.47423
| 78>    H        3.05142       -11.52829        -0.12418
| 79>    H        4.84877       -10.45773         0.65596
| 80>    H        5.52031        -6.48210        -1.36644
| 81>    H        1.68165        -8.58722        -2.80797
| 82>    H        0.70046        -7.25069        -2.15864
| 83>    H        0.30434        -9.30898        -0.88372
| 84>    H        1.04349        -8.06422         0.14453
| 85>    H        3.77790        -5.37698        -1.84396
| 86>    H        1.17777        -5.71678        -3.44041
| 87>    H       -1.39057        -2.29522        -4.62028
| 88>    H       -2.91209         1.08012        -7.18255
| 89>    H        1.28000         1.86366        -5.46128
| 90>    H        1.93830         1.98628        -7.11348
| 91>    H        2.81352        -0.03118        -6.02342
| 92>    H        1.73531        -0.49367        -7.35241
| 93>    H       -1.42672         2.09182        -8.39591
| 94>    H        1.12410         3.73408        -7.90477
| 95>    H       -1.29310         4.03047        -9.78324
| 96>    H       -1.16878         6.14296       -11.27071
| 97>    H        0.37158         8.13958       -11.77186
| 98>    H        2.09230         9.71633       -11.84876
| 99>    H        4.23582        11.10138       -11.52763
|100>    H        6.47288        11.08313       -10.08790
|101>    H        6.70462         9.70499        -8.89280
|102> *
|103>
|104>                          ****END OF INPUT****

CARTESIAN COORDINATES (ANGSTROEM)
---------------------------------
  C     -6.279150  -12.065780    2.079560
  C     -5.024800  -12.485940    1.871990
  C     -4.507790  -13.817600    2.016630
  C     -3.193130  -13.943680    1.736560
  C     -2.554880  -12.732360    1.346460
  S     -3.716370  -11.410550    1.354730
  C     -1.242290  -12.552600    1.003920
  C     -0.202490  -13.518750    0.951150
  C      0.998960  -13.027900    0.567560
  C      1.016560  -11.627590    0.286600
  S     -0.614510  -10.978470    0.541890
  C      2.136440  -10.953340   -0.079660
  N      2.302370   -9.641020   -0.414770
  C      3.558010   -9.062020   -0.450770
  C      4.707700   -9.553620    0.101550
  S      6.045130   -8.502380   -0.140630
  C      5.069890   -7.376820   -0.987980
  C      3.770900   -7.789730   -1.082950
  N      2.734710   -7.129680   -1.736310
  C      1.537760   -7.916040   -1.951870
  C      1.213250   -8.737970   -0.704680
  C      2.881930   -5.869340   -2.187670
  C      2.028330   -5.205700   -3.011530
  C      2.138660   -3.858800   -3.440740
  S      0.916680   -3.365460   -4.599600
  C      1.449600   -1.693660   -4.599360
  C      2.524590   -1.554430   -3.749290
  C      2.922670   -2.767180   -3.097810
  N      3.880770   -2.728550   -2.045780
  O      4.653880   -3.663100   -1.925960
  O      3.840120   -1.768380   -1.305990
  N      3.215790   -0.315230   -3.581470
  O      4.419020   -0.363000   -3.443070
  O      2.556650    0.705190   -3.649100
  N      0.929910   -0.764530   -5.446470
  C     -0.429250   -0.645650   -5.713620
  C     -1.439090   -1.441730   -5.262590
  S     -2.975320   -0.922070   -5.825340
  C     -2.270160    0.400670   -6.662570
  C     -0.909990    0.440550   -6.525290
  N     -0.055720    1.403900   -7.026500
  C      1.276630    1.416350   -6.462590
  C      1.779990   -0.019020   -6.361440
  C     -0.472470    2.322790   -7.945430
  C      0.182270    3.439930   -8.343460
  C     -0.339400    4.291760   -9.342800
  C      0.267510    5.427190   -9.796270
  C     -0.223200    6.318420  -10.787520
  C      0.590110    7.371810  -11.051280
  C      1.785730    7.387800  -10.286940
  S      1.829550    6.002300   -9.211430
  C      2.799000    8.311790  -10.332620
  C      2.878710    9.467920  -11.157760
  C      4.003330   10.198030  -10.991680
  C      4.913110    9.674660  -10.013170
  S      4.232160    8.192770   -9.323170
  C      6.097230   10.179500   -9.641230
  H     -7.042870  -12.754710    2.394430
  H     -6.562770  -11.038650    1.941510
  H     -5.151320  -14.622270    2.325860
  H     -2.646330  -14.868550    1.793960
  H     -0.381930  -14.548270    1.203430
  H      1.893600  -13.618400    0.474230
  H      3.051420  -11.528290   -0.124180
  H      4.848770  -10.457730    0.655960
  H      5.520310   -6.482100   -1.366440
  H      1.681650   -8.587220   -2.807970
  H      0.700460   -7.250690   -2.158640
  H      0.304340   -9.308980   -0.883720
  H      1.043490   -8.064220    0.144530
  H      3.777900   -5.376980   -1.843960
  H      1.177770   -5.716780   -3.440410
  H     -1.390570   -2.295220   -4.620280
  H     -2.912090    1.080120   -7.182550
  H      1.280000    1.863660   -5.461280
  H      1.938300    1.986280   -7.113480
  H      2.813520   -0.031180   -6.023420
  H      1.735310   -0.493670   -7.352410
  H     -1.426720    2.091820   -8.395910
  H      1.124100    3.734080   -7.904770
  H     -1.293100    4.030470   -9.783240
  H     -1.168780    6.142960  -11.270710
  H      0.371580    8.139580  -11.771860
  H      2.092300    9.716330  -11.848760
  H      4.235820   11.101380  -11.527630
  H      6.472880   11.083130  -10.087900
  H      6.704620    9.704990   -8.892800

 Total Charge           Charge          ....    0
 Multiplicity           Mult            ....    1
 Number of Electrons    NEL             ....  456
 Basis Dimension        Dim             ....  976

ORBITAL ENERGIES
----------------

  NO   OCC          E(Eh)            E(eV)
   0   2.0000     -88.983332     -2421.3596
   1   2.0000     -88.959097     -2420.7001
   2   2.0000     -88.953550     -2420.5492
   3   2.0000     -88.941551     -2420.2226
   4   2.0000     -88.927663     -2419.8447
   5   2.0000     -88.925822     -2419.7946
   6   2.0000     -88.920574     -2419.6518
   7   2.0000     -19.245003      -523.6832
   8   2.0000     -19.244946      -523.6816
   9   2.0000     -19.243997      -523.6558
  10   2.0000     -19.242523      -523.6157
  11   2.0000     -14.652206      -398.7068
  12   2.0000     -14.651503      -398.6877
  13   2.0000     -14.474944      -393.8832
  14   2.0000     -14.465631      -393.6298
  15   2.0000     -14.464207      -393.5911
  16   2.0000     -14.455009      -393.3408
  17   2.0000     -10.370547      -282.1969
  18   2.0000     -10.344782      -281.4958
  19   2.0000     -10.338694      -281.3302
  20   2.0000     -10.336690      -281.2756
  21   2.0000     -10.332806      -281.1699
  22   2.0000     -10.331217      -281.1267
  23   2.0000     -10.328607      -281.0557
  24   2.0000     -10.326269      -280.9921
  25   2.0000     -10.325889      -280.9817
  26   2.0000     -10.325744      -280.9778
  27   2.0000     -10.324905      -280.9550
  28   2.0000     -10.324664      -280.9484
  29   2.0000     -10.320655      -280.8393
  30   2.0000     -10.313943      -280.6567
  31   2.0000     -10.313410      -280.6421
  32   2.0000     -10.303170      -280.3635
  33   2.0000     -10.300487      -280.2905
  34   2.0000     -10.296733      -280.1883
  35   2.0000     -10.295958      -280.1673
  36   2.0000     -10.295475      -280.1541
  37   2.0000     -10.294022      -280.1146
  38   2.0000     -10.293665      -280.1049
  39   2.0000     -10.290591      -280.0212
  40   2.0000     -10.289999      -280.0051
  41   2.0000     -10.289242      -279.9845
  42   2.0000     -10.288424      -279.9622
  43   2.0000     -10.286426      -279.9079
  44   2.0000     -10.285992      -279.8961
  45   2.0000     -10.284013      -279.8422
  46   2.0000     -10.280674      -279.7514
  47   2.0000     -10.278154      -279.6828
  48   2.0000     -10.273858      -279.5659
  49   2.0000     -10.273199      -279.5479
  50   2.0000     -10.270863      -279.4844
  51   2.0000     -10.270161      -279.4653
  52   2.0000     -10.269897      -279.4581
  53   2.0000     -10.266867      -279.3757
  54   2.0000     -10.260970      -279.2152
  55   2.0000     -10.257731      -279.1270
  56   2.0000     -10.251633      -278.9611
  57   2.0000      -8.079127      -219.8442
  58   2.0000      -8.054909      -219.1852
  59   2.0000      -8.049430      -219.0361
  60   2.0000      -8.037182      -218.7028
  61   2.0000      -8.024340      -218.3534
  62   2.0000      -8.021982      -218.2892
  63   2.0000      -8.017272      -218.1611
  64   2.0000      -6.048583      -164.5903
  65   2.0000      -6.044558      -164.4808
  66   2.0000      -6.040542      -164.3715
  67   2.0000      -6.024366      -163.9313
  68   2.0000      -6.020021      -163.8131
  69   2.0000      -6.018931      -163.7834
  70   2.0000      -6.016922      -163.7288
  71   2.0000      -6.014626      -163.6663
  72   2.0000      -6.011322      -163.5764
  73   2.0000      -6.007151      -163.4629
  74   2.0000      -6.003113      -163.3530
  75   2.0000      -5.997768      -163.2076
  76   2.0000      -5.994233      -163.1114
  77   2.0000      -5.991754      -163.0439
  78   2.0000      -5.990341      -163.0055
  79   2.0000      -5.987914      -162.9394
  80   2.0000      -5.987116      -162.9177
  81   2.0000      -5.984758      -162.8535
  82   2.0000      -5.983266      -162.8129
  83   2.0000      -5.982707      -162.7977
  84   2.0000      -5.977716      -162.6619
  85   2.0000      -1.327569       -36.1250
  86   2.0000      -1.320338       -35.9282
  87   2.0000      -1.145981       -31.1837
  88   2.0000      -1.140139       -31.0248
  89   2.0000      -1.105696       -30.0875
  90   2.0000      -1.100434       -29.9443
  91   2.0000      -1.066584       -29.0232
  92   2.0000      -1.062241       -28.9051
  93   2.0000      -1.011922       -27.5358
  94   2.0000      -0.984612       -26.7927
  95   2.0000      -0.979081       -26.6422
  96   2.0000      -0.974947       -26.5297
  97   2.0000      -0.974199       -26.5093
  98   2.0000      -0.958841       -26.0914
  99   2.0000      -0.951800       -25.8998
 100   2.0000      -0.924199       -25.1487
 101   2.0000      -0.910955       -24.7884
 102   2.0000      -0.896687       -24.4001
 103   2.0000      -0.891563       -24.2607
 104   2.0000      -0.874874       -23.8065
 105   2.0000      -0.870456       -23.6863
 106   2.0000      -0.867250       -23.5991
 107   2.0000      -0.857678       -23.3386
 108   2.0000      -0.849089       -23.1049
 109   2.0000      -0.837554       -22.7910
 110   2.0000      -0.837217       -22.7818
 111   2.0000      -0.828112       -22.5341
 112   2.0000      -0.827720       -22.5234
 113   2.0000      -0.826089       -22.4790
 114   2.0000      -0.819051       -22.2875
 115   2.0000      -0.811605       -22.0849
 116   2.0000      -0.805498       -21.9187
 117   2.0000      -0.797395       -21.6982
 118   2.0000      -0.781583       -21.2680
 119   2.0000      -0.765821       -20.8390
 120   2.0000      -0.765213       -20.8225
 121   2.0000      -0.752694       -20.4819
 122   2.0000      -0.746888       -20.3239
 123   2.0000      -0.737807       -20.0768
 124   2.0000      -0.725788       -19.7497
 125   2.0000      -0.718162       -19.5422
 126   2.0000      -0.713664       -19.4198
 127   2.0000      -0.691912       -18.8279
 128   2.0000      -0.683842       -18.6083
 129   2.0000      -0.679976       -18.5031
 130   2.0000      -0.668830       -18.1998
 131   2.0000      -0.664368       -18.0784
 132   2.0000      -0.661117       -17.9899
 133   2.0000      -0.652685       -17.7605
 134   2.0000      -0.646828       -17.6011
 135   2.0000      -0.645087       -17.5537
 136   2.0000      -0.638424       -17.3724
 137   2.0000      -0.630626       -17.1602
 138   2.0000      -0.629209       -17.1216
 139   2.0000      -0.624861       -17.0033
 140   2.0000      -0.621012       -16.8986
 141   2.0000      -0.616858       -16.7856
 142   2.0000      -0.614431       -16.7195
 143   2.0000      -0.612816       -16.6756
 144   2.0000      -0.609418       -16.5831
 145   2.0000      -0.607164       -16.5218
 146   2.0000      -0.603977       -16.4351
 147   2.0000      -0.600021       -16.3274
 148   2.0000      -0.594976       -16.1901
 149   2.0000      -0.592948       -16.1349
 150   2.0000      -0.589352       -16.0371
 151   2.0000      -0.581759       -15.8305
 152   2.0000      -0.580602       -15.7990
 153   2.0000      -0.577952       -15.7269
 154   2.0000      -0.574084       -15.6216
 155   2.0000      -0.570119       -15.5137
 156   2.0000      -0.566298       -15.4098
 157   2.0000      -0.552531       -15.0351
 158   2.0000      -0.544687       -14.8217
 159   2.0000      -0.542341       -14.7578
 160   2.0000      -0.537631       -14.6297
 161   2.0000      -0.535907       -14.5828
 162   2.0000      -0.533366       -14.5136
 163   2.0000      -0.523749       -14.2519
 164   2.0000      -0.520711       -14.1693
 165   2.0000      -0.512910       -13.9570
 166   2.0000      -0.508527       -13.8377
 167   2.0000      -0.506894       -13.7933
 168   2.0000      -0.504771       -13.7355
 169   2.0000      -0.500448       -13.6179
 170   2.0000      -0.494741       -13.4626
 171   2.0000      -0.494308       -13.4508
 172   2.0000      -0.490539       -13.3482
 173   2.0000      -0.488196       -13.2845
 174   2.0000      -0.486806       -13.2467
 175   2.0000      -0.482191       -13.1211
 176   2.0000      -0.482077       -13.1180
 177   2.0000      -0.479228       -13.0404
 178   2.0000      -0.478249       -13.0138
 179   2.0000      -0.475390       -12.9360
 180   2.0000      -0.474985       -12.9250
 181   2.0000      -0.472835       -12.8665
 182   2.0000      -0.470280       -12.7970
 183   2.0000      -0.466894       -12.7048
 184   2.0000      -0.464546       -12.6409
 185   2.0000      -0.459655       -12.5078
 186   2.0000      -0.455554       -12.3962
 187   2.0000      -0.454667       -12.3721
 188   2.0000      -0.450380       -12.2555
 189   2.0000      -0.448876       -12.2145
 190   2.0000      -0.447119       -12.1667
 191   2.0000      -0.438690       -11.9374
 192   2.0000      -0.437026       -11.8921
 193   2.0000      -0.432210       -11.7610
 194   2.0000      -0.427988       -11.6461
 195   2.0000      -0.423033       -11.5113
 196   2.0000      -0.422180       -11.4881
 197   2.0000      -0.419989       -11.4285
 198   2.0000      -0.412558       -11.2263
 199   2.0000      -0.410882       -11.1807
 200   2.0000      -0.407238       -11.0815
 201   2.0000      -0.402985       -10.9658
 202   2.0000      -0.395027       -10.7492
 203   2.0000      -0.391599       -10.6560
 204   2.0000      -0.389473       -10.5981
 205   2.0000      -0.386379       -10.5139
 206   2.0000      -0.383504       -10.4357
 207   2.0000      -0.382736       -10.4148
 208   2.0000      -0.380231       -10.3466
 209   2.0000      -0.373091       -10.1523
 210   2.0000      -0.372475       -10.1356
 211   2.0000      -0.368023       -10.0144
 212   2.0000      -0.364763        -9.9257
 213   2.0000      -0.345960        -9.4141
 214   2.0000      -0.341597        -9.2953
 215   2.0000      -0.333175        -9.0661
 216   2.0000      -0.328379        -8.9357
 217   2.0000      -0.321555        -8.7499
 218   2.0000      -0.319763        -8.7012
 219   2.0000      -0.313159        -8.5215
 220   2.0000      -0.312400        -8.5008
 221   2.0000      -0.297801        -8.1036
 222   2.0000      -0.282897        -7.6980
 223   2.0000      -0.277158        -7.5419
 224   2.0000      -0.259370        -7.0578
 225   2.0000      -0.248487        -6.7617
 226   2.0000      -0.208798        -5.6817
 227   2.0000      -0.197174        -5.3654
 228   0.0000      -0.051468        -1.4005
 229   0.0000      -0.045555        -1.2396
 230   0.0000      -0.044531        -1.2118
 231   0.0000      -0.043977        -1.1967
 232   0.0000      -0.007320        -0.1992

MULLIKEN ATOMIC CHARGES
-----------------------
   0 C :   -0.037542
   1 C :   -0.060356
   2 C :    0.045593
   3 C :    0.031661
   4 C :   -0.076006
   5 S :    0.057055
   6 C :   -0.042519
   7 C :    0.022782
   8 C :    0.029427
   9 C :   -0.046571
  10 S :    0.039079
  11 C :    0.043610
  12 N :   -0.207195
  13 C :    0.172863
  14 C :   -0.217170
  15 S :    0.135267
  16 C :   -0.211858
  17 C :    0.154334
  18 N :   -0.189493
  19 C :    0.136527
  20 C :    0.127874
  21 C :    0.088252
  22 C :   -0.028805
  23 C :   -0.126923
  24 S :    0.128019
  25 C :   -0.097596
  26 C :    0.158638
  27 C :    0.131031
  28 N :    0.260085
  29 O :   -0.256496
  30 O :   -0.221626
  31 N :    0.242709
  32 O :   -0.224788
  33 O :   -0.242381
  34 N :   -0.207921
  35 C :    0.187283
  36 C :   -0.231238
  37 S :    0.119930
  38 C :   -0.217416
  39 C :    0.171117
  40 N :   -0.202923
  41 C :    0.159067
  42 C :    0.127154
  43 C :    0.097228
  44 C :   -0.042990
  45 C :   -0.018799
  46 C :   -0.031458
  47 C :    0.041760
  48 C :    0.015632
  49 C :   -0.042221
  50 S :    0.050857
  51 C :   -0.073160
  52 C :    0.028994
  53 C :    0.044382
  54 C :   -0.058498
  55 S :    0.066566
  56 C :   -0.040170
  57 H :    0.014085
  58 H :    0.015237
  59 H :   -0.017376
  60 H :   -0.016883
  61 H :   -0.018235
  62 H :   -0.016323
  63 H :    0.006699
  64 H :    0.016335
  65 H :    0.042319
  66 H :    0.038147
  67 H :    0.039335
  68 H :    0.049995
  69 H :    0.041910
  70 H :    0.036172
  71 H :   -0.020811
  72 H :    0.018964
  73 H :    0.016901
  74 H :    0.054786
  75 H :    0.036788
  76 H :    0.043973
  77 H :    0.028294
  78 H :    0.000558
  79 H :    0.005815
  80 H :   -0.026453
  81 H :   -0.022007
  82 H :   -0.020880
  83 H :   -0.017404
  84 H :   -0.019113
  85 H :    0.012189
  86 H :    0.016325
Sum of atomic charges:   -0.0000000

LOEWDIN ATOMIC CHARGES
----------------------
   0 C :   -0.092121
   1 C :   -0.137273
   2 C :   -0.041679
   3 C :   -0.025873
   4 C :   -0.193842
   5 S :    0.331398
   6 C :   -0.174987
   7 C :   -0.051372
   8 C :   -0.026215
   9 C :   -0.200612
  10 S :    0.345334
  11 C :    0.005846
  12 N :   -0.008532
  13 C :   -0.026962
  14 C :   -0.232698
  15 S :    0.455021
  16 C :   -0.217331
  17 C :   -0.031260
  18 N :    0.010619
  19 C :    0.046984
  20 C :    0.040070
  21 C :    0.074124
  22 C :   -0.155017
  23 C :   -0.117046
  24 S :    0.453805
  25 C :   -0.103115
  26 C :   -0.086964
  27 C :   -0.090731
  28 N :    0.289030
  29 O :   -0.212476
  30 O :   -0.187950
  31 N :    0.282802
  32 O :   -0.192355
  33 O :   -0.206289
  34 N :   -0.034989
  35 C :   -0.025781
  36 C :   -0.243111
  37 S :    0.440983
  38 C :   -0.233620
  39 C :   -0.022586
  40 N :   -0.005864
  41 C :    0.049865
  42 C :    0.049763
  43 C :    0.039946
  44 C :   -0.101182
  45 C :   -0.047163
  46 C :   -0.164664
  47 C :   -0.031991
  48 C :   -0.044717
  49 C :   -0.174694
  50 S :    0.346868
  51 C :   -0.190287
  52 C :   -0.026654
  53 C :   -0.042239
  54 C :   -0.137755
  55 S :    0.339337
  56 C :   -0.092265
  57 H :    0.026154
  58 H :    0.023365
  59 H :    0.031042
  60 H :    0.030412
  61 H :    0.030109
  62 H :    0.030695
  63 H :    0.034393
  64 H :    0.021768
  65 H :    0.030866
  66 H :    0.030216
  67 H :    0.036223
  68 H :    0.023064
  69 H :    0.030662
  70 H :    0.027228
  71 H :    0.021068
  72 H :    0.008273
  73 H :    0.020771
  74 H :    0.033862
  75 H :    0.037036
  76 H :    0.032770
  77 H :    0.025660
  78 H :    0.028164
  79 H :    0.020785
  80 H :    0.028315
  81 H :    0.030003
  82 H :    0.028463
  83 H :    0.030040
  84 H :    0.030218
  85 H :    0.025279
  86 H :    0.023565

  Mayer bond orders larger than 0.100000
B(  0-C ,  1-C ) :   1.8679 B(  0-C , 57-H ) :   0.9492 B(  0-C , 58-H ) :   0.9415
B(  1-C ,  2-C ) :   1.0800 B(  1-C ,  5-S ) :   1.0079 B(  2-C ,  3-C ) :   1.6643
B(  2-C , 59-H ) :   0.9920 B(  3-C ,  4-C ) :   1.1516 B(  3-C , 60-H ) :   0.9912
B(  4-C ,  5-S ) :   1.0258 B(  4-C ,  6-C ) :   1.5838 B(  6-C ,  7-C ) :   1.1545
B(  6-C , 10-S ) :   1.0267 B(  7-C ,  8-C ) :   1.6424 B(  7-C , 61-H ) :   0.9917
B(  8-C ,  9-C ) :   1.1241 B(  8-C , 62-H ) :   0.9949 B(  9-C , 10-S ) :   0.9833
B(  9-C , 11-C ) :   1.6390 B( 11-C , 12-N ) :   1.1285 B( 11-C , 63-H ) :   0.9535
B( 12-N , 13-C ) :   1.0600 B( 12-N , 20-C ) :   0.9642 B( 13-C , 14-C ) :   1.5036
B( 13-C , 17-C ) :   1.2402 B( 14-C , 15-S ) :   1.1490 B( 14-C , 64-H ) :   0.9765
B( 15-S , 16-C ) :   1.1616 B( 16-C , 17-C ) :   1.5177 B( 16-C , 65-H ) :   0.9735
B( 17-C , 18-N ) :   1.0379 B( 18-N , 19-C ) :   0.9636 B( 18-N , 21-C ) :   1.2023
B( 19-C , 20-C ) :   1.0845 B( 19-C , 66-H ) :   0.9434 B( 19-C , 67-H ) :   0.9338
B( 20-C , 68-H ) :   0.9242 B( 20-C , 69-H ) :   0.9414 B( 21-C , 22-C ) :   1.5785
B( 21-C , 70-H ) :   0.9473 B( 22-C , 23-C ) :   1.2025 B( 22-C , 71-H ) :   0.9260
B( 23-C , 24-S ) :   1.1147 B( 23-C , 27-C ) :   1.4798 B( 24-S , 25-C ) :   1.0860
B( 25-C , 26-C ) :   1.5244 B( 25-C , 34-N ) :   1.1553 B( 26-C , 27-C ) :   1.1936
B( 26-C , 31-N ) :   0.9086 B( 27-C , 28-N ) :   0.9316 B( 28-N , 29-O ) :   1.4529
B( 28-N , 30-O ) :   1.5566 B( 29-O , 30-O ) :   0.2570 B( 31-N , 32-O ) :   1.5382
B( 31-N , 33-O ) :   1.5024 B( 32-O , 33-O ) :   0.2698 B( 34-N , 35-C ) :   1.0306
B( 34-N , 42-C ) :   0.9438 B( 35-C , 36-C ) :   1.5105 B( 35-C , 39-C ) :   1.2472
B( 36-C , 37-S ) :   1.1483 B( 36-C , 72-H ) :   0.9701 B( 37-S , 38-C ) :   1.1454
B( 38-C , 39-C ) :   1.5101 B( 38-C , 73-H ) :   0.9752 B( 39-C , 40-N ) :   1.0686
B( 40-N , 41-C ) :   0.9596 B( 40-N , 43-C ) :   1.1254 B( 41-C , 42-C ) :   1.0783
B( 41-C , 74-H ) :   0.9414 B( 41-C , 75-H ) :   0.9344 B( 42-C , 76-H ) :   0.9460
B( 42-C , 77-H ) :   0.9411 B( 43-C , 44-C ) :   1.6371 B( 43-C , 78-H ) :   0.9669
B( 44-C , 45-C ) :   1.1371 B( 44-C , 79-H ) :   0.9652 B( 45-C , 46-C ) :   1.6128
B( 45-C , 80-H ) :   0.9790 B( 46-C , 47-C ) :   1.1277 B( 46-C , 50-S ) :   1.0103
B( 47-C , 48-C ) :   1.6154 B( 47-C , 81-H ) :   0.9975 B( 48-C , 49-C ) :   1.1664
B( 48-C , 82-H ) :   0.9925 B( 49-C , 50-S ) :   1.0371 B( 49-C , 51-C ) :   1.5663
B( 51-C , 52-C ) :   1.1555 B( 51-C , 55-S ) :   1.0298 B( 52-C , 53-C ) :   1.6589
B( 52-C , 83-H ) :   0.9911 B( 53-C , 54-C ) :   1.0812 B( 53-C , 84-H ) :   0.9926
B( 54-C , 55-S ) :   1.0103 B( 54-C , 56-C ) :   1.8615 B( 56-C , 85-H ) :   0.9505
B( 56-C , 86-H ) :   0.9419

-----------------------------------------------------------------------------
         ABSORPTION SPECTRUM VIA TRANSITION ELECTRIC DIPOLE MOMENTS
-----------------------------------------------------------------------------
State   Energy  Wavelength   fosc         T2         TX        TY        TZ
        (cm-1)    (nm)                  (au**2)     (au)      (au)      (au)
-----------------------------------------------------------------------------
   0   19482.5    513.3   1.117194367  18.87812  -2.11028  -3.53257   1.39491
   1   20154.9    496.2   0.660328574  10.78585  -2.08953  -2.46512   0.58555
   2   21594.0    463.1   1.170248391  17.84107   3.59242   1.85601  -1.22100
   3   22331.2    447.8   0.225923999   3.33062   1.77742  -0.37422  -0.17711
   4   22737.1    439.8   0.014396735   0.20845  -0.33379  -0.30956   0.03483
   5   24090.0    415.1   0.098547016   1.34673   0.45102   0.96278   0.46516
   6   24925.9    401.2   0.218463576   2.88539  -1.29817   0.94067  -0.56149
   7   26833.6    372.7   0.011579553   0.14207   0.36729   0.01354   0.08354
   8   28025.1    356.8   0.000016147   0.00019   0.00586  -0.00698  -0.01033
   9   29227.0    342.1   0.028366726   0.31952  -0.46693   0.13341  -0.28931
  10   30334.5    329.7   0.000573730   0.00623   0.03641  -0.06709   0.02001
  11   30908.2    323.5   0.070101981   0.74668  -0.53174   0.62859  -0.26230
  12   30927.9    323.3   0.001095749   0.01166   0.06202   0.06625  -0.05855
  13   31438.8    318.1   0.094066514   0.98502  -0.64005   0.49205  -0.57727
  14   31868.8    313.8   0.013095822   0.13528  -0.13941   0.02892  -0.33914
  15   32241.6    310.2   0.169807335   1.73387   0.57404  -0.71800   0.94277
  16   32546.5    307.3   0.095307074   0.96404   0.35568  -0.74581   0.53038
  17   32674.7    306.0   0.068954565   0.69475  -0.17879   0.40053  -0.70877
  18   33067.6    302.4   0.001723514   0.01716  -0.09209  -0.08960   0.02548
  19   33142.6    301.7   0.223889385   2.22394  -0.56601   1.20045  -0.68007
  20   33462.3    298.8   0.000227759   0.00224  -0.00847   0.00715  -0.04602
  21   33783.0    296.0   0.326402096   3.18076  -0.93815   1.30001  -0.78142
  22   34529.1    289.6   0.022787464   0.21726   0.25336  -0.31423   0.23309
  23   34718.0    288.0   0.004280836   0.04059  -0.00134   0.08265   0.18374
  24   34911.5    286.4   0.013071599   0.12326   0.18674  -0.29470  -0.03925
  25   35598.8    280.9   0.032424817   0.29986  -0.53753  -0.05260  -0.09032
  26   35791.8    279.4   0.059731321   0.54941  -0.09893  -0.73145  -0.06782
  27   36055.0    277.4   0.013374116   0.12212  -0.13550  -0.30497  -0.10368
  28   36211.9    276.2   0.061738823   0.56128  -0.60509  -0.22538  -0.37994
  29   37028.5    270.1   0.009657664   0.08586   0.26973   0.11211   0.02325
  30   37789.3    264.6   0.026967804   0.23494   0.40089  -0.21338   0.16938
  31   39401.3    253.8   0.070879774   0.59223  -0.49017   0.47538  -0.35492
  32   39901.0    250.6   0.000574636   0.00474  -0.05119   0.00044  -0.04605
  33   40062.1    249.6   0.032908213   0.27042  -0.02343   0.48040  -0.19772
  34   40145.0    249.1   0.028156281   0.23090   0.07552  -0.36848   0.29903
  35   40247.2    248.5   0.024003421   0.19634   0.28466  -0.17539   0.29077

FINAL SINGLE POINT ENERGY     -4955.150471720096

DIPOLE MOMENT
-------------
                                X             Y             Z
Electronic contribution:     10.77795      -1.09184      10.19139
Nuclear contribution   :    -12.18415      -2.07063     -11.34570
                        -----------------------------------------
Total Dipole Moment    :     -1.40619      -3.16247      -1.15431
                        -----------------------------------------
Magnitude (a.u.)       :      3.64843
Magnitude (Debye)      :      9.27356

Rotational constants in cm-1:     0.002396     0.000275     0.000250
Rotational constants in MHz :    71.821658     8.229714     7.497111

                             ****ORCA TERMINATED NORMALLY****
TOTAL RUN TIME: 0 days 0 hours 6 minutes 25 seconds 678 msec
