                         Program Version 4.2.0 -  RELEASE  -
|  1> # ORCA input file
|  2> # SCF done       -195.947370259802          0.000421371926
|  3> ! CAM-B3LYP def2-SVP def2/J RIJCOSX Grid4 TightSCF
|  4> %maxcore 5000
|  5> %tddft
|  6>     Mode sTDDFT
|  7>     Ethresh 5.0
|  8>     maxcore 5000
|  9> end
| 10>
| 11> %pal
| 12>   nprocs 6
| 13>   end
| 14> * xyz 0 1
| 15>    N        6.06467        -0.22691         1.26252
| 16>    C        6.87440        -0.58895         0.23507
| 17>    S        7.70475        -2.10843         0.29212
| 18>    C        8.44886        -1.75698        -1.24053
| 19>    N        9.31856        -2.70640        -1.77405
| 20>    O        9.86370        -2.44757        -2.83239
| 21>    O        9.47528        -3.73237        -1.12998
| 22>    C        8.07427        -0.54104        -1.74489
| 23>    C        7.15410         0.14090        -0.92529
| 24>    C        6.61988         1.42942        -1.29613
| 25>    C        5.46264         1.97488        -0.87938
| 26>    C        4.98400         3.27605        -1.25431
| 27>    C        4.19906         4.06519        -0.46555
| 28>    C        4.08132         5.36859        -1.08008
| 29>    C        3.33295         6.42782        -0.55397
| 30>    N        2.72788         7.29451        -0.10465
| 31>    C        4.82172         5.38691        -2.23397
| 32>    C        5.36826         4.07465        -2.43342
| 33>    C        5.91074         3.61602        -3.61335
| 34>    C        6.48941         4.42966        -4.70912
| 35>    C        6.56529         3.62404        -5.81468
| 36>    C        6.10418         2.30934        -5.45913
| 37>    C        5.76672         2.29032        -4.12469
| 38>    C        6.00714         1.23199        -6.34991
| 39>    N        5.92715         0.35455        -7.08575
| 40>    C        7.02683         5.74302        -4.62401
| 41>    C        7.38924         6.37342        -3.48021
| 42>    C        7.88795         7.71422        -3.36392
| 43>    C        8.16649         8.52161        -4.45393
| 44>    C        8.59914         9.84062        -4.26155
| 45>    C        8.92117        10.83819        -5.18519
| 46>    C        8.95519        10.69435        -6.66363
| 47>    C        7.90663        11.59474        -7.35278
| 48>    N        7.55613        11.00524        -8.62433
| 49>    C       10.37191        10.95498        -7.21907
| 50>    N       10.42866        10.63901        -8.63512
| 51>    C        9.23080        12.02194        -4.42210
| 52>    C        9.51194        13.28586        -4.79836
| 53>    C        9.82345        14.34905        -3.80346
| 54>    C        9.70709        13.92667        -2.37776
| 55>    C        9.38632        12.67001        -2.01265
| 56>    C        9.12874        11.68555        -2.99480
| 57>    C        8.73926        10.35995        -2.91148
| 58>    C        8.47549         9.51310        -1.81316
| 59>    C        8.07312         8.23609        -2.04143
| 60>    C       11.24297        14.78067        -4.10591
| 61>    C       11.54907        15.86749        -4.81578
| 62>    C       12.87966        16.24518        -5.21581
| 63>    C       13.18619        16.88049        -6.38211
| 64>    C       14.62389        16.88192        -6.54393
| 65>    C       15.30704        17.47409        -7.61186
| 66>    N       15.86766        17.95102        -8.49362
| 67>    C       15.19040        16.21108        -5.49062
| 68>    C       14.14198        15.83399        -4.58613
| 69>    C       14.33136        15.38820        -3.29464
| 70>    C       15.55231        14.75351        -2.75699
| 71>    C       15.47516        14.80239        -1.39485
| 72>    C       14.21432        15.40293        -1.03172
| 73>    C       13.50605        15.70041        -2.17317
| 74>    C       13.78945        15.62895         0.28264
| 75>    N       13.43705        15.80451         1.36160
| 76>    C       16.51872        14.04061        -3.53361
| 77>    C       16.22404        13.51064        -4.73617
| 78>    N       17.10256        12.81196        -5.51896
| 79>    C       16.76437        12.17802        -6.66501
| 80>    S       15.11042        12.15106        -7.19003
| 81>    C       15.57917        11.20391        -8.56984
| 82>    N       14.57327        10.81380        -9.43960
| 83>    O       14.86854        10.14369       -10.41303
| 84>    O       13.43272        11.17081        -9.15241
| 85>    C       16.92500        10.93971        -8.61211
| 86>    C       17.62757        11.48798        -7.52881
| 87>    C       19.05622        11.37109        -7.31087
| 88>    C       19.90881        10.74964        -8.11900
| 89>    H        6.11203        -0.78472         2.09993
| 90>    H        5.90546         0.75995         1.39633
| 91>    H        8.43801        -0.17052        -2.68659
| 92>    H        7.22880         1.96961        -2.00835
| 93>    H        4.82874         1.44905        -0.17804
| 94>    H        3.75573         3.80172         0.47711
| 95>    H        4.86821         6.19284        -2.94046
| 96>    H        6.94568         3.89228        -6.78253
| 97>    H        5.32733         1.46488        -3.59891
| 98>    H        7.20019         6.22029        -5.57987
| 99>    H        7.28578         5.83918        -2.54450
|100>    H        8.04764         8.14703        -5.45860
|101>    H        8.68456         9.66632        -6.92279
|102>    H        8.30907        12.61682        -7.43766
|103>    H        7.00401        11.63862        -6.73244
|104>    H        8.39946        10.92802        -9.18853
|105>    H        6.87123        11.56718        -9.11549
|106>    H       11.09089        10.37609        -6.61346
|107>    H       10.62747        12.01094        -7.10558
|108>    H       10.36762         9.63403        -8.76987
|109>    H       11.31950        10.94078        -9.01830
|110>    H        9.56106        13.58099        -5.83592
|111>    H        9.16460        15.20902        -3.98621
|112>    H        9.91458        14.68607        -1.63913
|113>    H        9.31163        12.40201        -0.96900
|114>    H        8.58912         9.88828        -0.80707
|115>    H        7.86042         7.58075        -1.20889
|116>    H       12.00730        14.10516        -3.75115
|117>    H       10.75594        16.48975        -5.21383
|118>    H       12.49789        17.28921        -7.09820
|119>    H       16.24113        16.11375        -5.29730
|120>    H       16.18978        14.42114        -0.68978
|121>    H       12.56335        16.21020        -2.21819
|122>    H       17.48433        13.86192        -3.07865
|123>    H       15.23355        13.60641        -5.15589
|124>    H       18.06663        12.75376        -5.21504
|125>    H       17.36505        10.36570        -9.40609
|126>    H       19.43995        11.83877        -6.41269
|127>    H       19.59875        10.26949        -9.02964
|128>    H       20.95900        10.70690        -7.89140
|129> *
|130>
|131>                          ****END OF INPUT****

CARTESIAN COORDINATES (ANGSTROEM)
---------------------------------
  N      6.064670   -0.226910    1.262520
  C      6.874400   -0.588950    0.235070
  S      7.704750   -2.108430    0.292120
  C      8.448860   -1.756980   -1.240530
  N      9.318560   -2.706400   -1.774050
  O      9.863700   -2.447570   -2.832390
  O      9.475280   -3.732370   -1.129980
  C      8.074270   -0.541040   -1.744890
  C      7.154100    0.140900   -0.925290
  C      6.619880    1.429420   -1.296130
  C      5.462640    1.974880   -0.879380
  C      4.984000    3.276050   -1.254310
  C      4.199060    4.065190   -0.465550
  C      4.081320    5.368590   -1.080080
  C      3.332950    6.427820   -0.553970
  N      2.727880    7.294510   -0.104650
  C      4.821720    5.386910   -2.233970
  C      5.368260    4.074650   -2.433420
  C      5.910740    3.616020   -3.613350
  C      6.489410    4.429660   -4.709120
  C      6.565290    3.624040   -5.814680
  C      6.104180    2.309340   -5.459130
  C      5.766720    2.290320   -4.124690
  C      6.007140    1.231990   -6.349910
  N      5.927150    0.354550   -7.085750
  C      7.026830    5.743020   -4.624010
  C      7.389240    6.373420   -3.480210
  C      7.887950    7.714220   -3.363920
  C      8.166490    8.521610   -4.453930
  C      8.599140    9.840620   -4.261550
  C      8.921170   10.838190   -5.185190
  C      8.955190   10.694350   -6.663630
  C      7.906630   11.594740   -7.352780
  N      7.556130   11.005240   -8.624330
  C     10.371910   10.954980   -7.219070
  N     10.428660   10.639010   -8.635120
  C      9.230800   12.021940   -4.422100
  C      9.511940   13.285860   -4.798360
  C      9.823450   14.349050   -3.803460
  C      9.707090   13.926670   -2.377760
  C      9.386320   12.670010   -2.012650
  C      9.128740   11.685550   -2.994800
  C      8.739260   10.359950   -2.911480
  C      8.475490    9.513100   -1.813160
  C      8.073120    8.236090   -2.041430
  C     11.242970   14.780670   -4.105910
  C     11.549070   15.867490   -4.815780
  C     12.879660   16.245180   -5.215810
  C     13.186190   16.880490   -6.382110
  C     14.623890   16.881920   -6.543930
  C     15.307040   17.474090   -7.611860
  N     15.867660   17.951020   -8.493620
  C     15.190400   16.211080   -5.490620
  C     14.141980   15.833990   -4.586130
  C     14.331360   15.388200   -3.294640
  C     15.552310   14.753510   -2.756990
  C     15.475160   14.802390   -1.394850
  C     14.214320   15.402930   -1.031720
  C     13.506050   15.700410   -2.173170
  C     13.789450   15.628950    0.282640
  N     13.437050   15.804510    1.361600
  C     16.518720   14.040610   -3.533610
  C     16.224040   13.510640   -4.736170
  N     17.102560   12.811960   -5.518960
  C     16.764370   12.178020   -6.665010
  S     15.110420   12.151060   -7.190030
  C     15.579170   11.203910   -8.569840
  N     14.573270   10.813800   -9.439600
  O     14.868540   10.143690  -10.413030
  O     13.432720   11.170810   -9.152410
  C     16.925000   10.939710   -8.612110
  C     17.627570   11.487980   -7.528810
  C     19.056220   11.371090   -7.310870
  C     19.908810   10.749640   -8.119000
  H      6.112030   -0.784720    2.099930
  H      5.905460    0.759950    1.396330
  H      8.438010   -0.170520   -2.686590
  H      7.228800    1.969610   -2.008350
  H      4.828740    1.449050   -0.178040
  H      3.755730    3.801720    0.477110
  H      4.868210    6.192840   -2.940460
  H      6.945680    3.892280   -6.782530
  H      5.327330    1.464880   -3.598910
  H      7.200190    6.220290   -5.579870
  H      7.285780    5.839180   -2.544500
  H      8.047640    8.147030   -5.458600
  H      8.684560    9.666320   -6.922790
  H      8.309070   12.616820   -7.437660
  H      7.004010   11.638620   -6.732440
  H      8.399460   10.928020   -9.188530
  H      6.871230   11.567180   -9.115490
  H     11.090890   10.376090   -6.613460
  H     10.627470   12.010940   -7.105580
  H     10.367620    9.634030   -8.769870
  H     11.319500   10.940780   -9.018300
  H      9.561060   13.580990   -5.835920
  H      9.164600   15.209020   -3.986210
  H      9.914580   14.686070   -1.639130
  H      9.311630   12.402010   -0.969000
  H      8.589120    9.888280   -0.807070
  H      7.860420    7.580750   -1.208890
  H     12.007300   14.105160   -3.751150
  H     10.755940   16.489750   -5.213830
  H     12.497890   17.289210   -7.098200
  H     16.241130   16.113750   -5.297300
  H     16.189780   14.421140   -0.689780
  H     12.563350   16.210200   -2.218190
  H     17.484330   13.861920   -3.078650
  H     15.233550   13.606410   -5.155890
  H     18.066630   12.753760   -5.215040
  H     17.365050   10.365700   -9.406090
  H     19.439950   11.838770   -6.412690
  H     19.598750   10.269490   -9.029640
  H     20.959000   10.706900   -7.891400

 Total Charge           Charge          ....    0
 Multiplicity           Mult            ....    1
 Number of Electrons    NEL             ....  522
 Basis Dimension        Dim             .... 1244

ORBITAL ENERGIES
----------------

  NO   OCC          E(Eh)            E(eV)
   0   2.0000     -88.997607     -2421.7480
   1   2.0000     -88.977428     -2421.1989
   2   2.0000     -19.249312      -523.8004
   3   2.0000     -19.249239      -523.7984
   4   2.0000     -19.225895      -523.1632
   5   2.0000     -19.225113      -523.1419
   6   2.0000     -14.660767      -398.9398
   7   2.0000     -14.638071      -398.3222
   8   2.0000     -14.504890      -394.6981
   9   2.0000     -14.462059      -393.5326
  10   2.0000     -14.420128      -392.3916
  11   2.0000     -14.418974      -392.3602
  12   2.0000     -14.408470      -392.0744
  13   2.0000     -14.407854      -392.0576
  14   2.0000     -14.373492      -391.1226
  15   2.0000     -14.349789      -390.4776
  16   2.0000     -10.385472      -282.6031
  17   2.0000     -10.368097      -282.1303
  18   2.0000     -10.356319      -281.8098
  19   2.0000     -10.352278      -281.6998
  20   2.0000     -10.337623      -281.3010
  21   2.0000     -10.336587      -281.2728
  22   2.0000     -10.332200      -281.1534
  23   2.0000     -10.331437      -281.1327
  24   2.0000     -10.330004      -281.0937
  25   2.0000     -10.324794      -280.9519
  26   2.0000     -10.323572      -280.9187
  27   2.0000     -10.322056      -280.8774
  28   2.0000     -10.320082      -280.8237
  29   2.0000     -10.318083      -280.7693
  30   2.0000     -10.317494      -280.7533
  31   2.0000     -10.317222      -280.7459
  32   2.0000     -10.313408      -280.6421
  33   2.0000     -10.311220      -280.5826
  34   2.0000     -10.309865      -280.5457
  35   2.0000     -10.308281      -280.5026
  36   2.0000     -10.307580      -280.4835
  37   2.0000     -10.306850      -280.4636
  38   2.0000     -10.306587      -280.4565
  39   2.0000     -10.306578      -280.4562
  40   2.0000     -10.306466      -280.4532
  41   2.0000     -10.304101      -280.3888
  42   2.0000     -10.303234      -280.3652
  43   2.0000     -10.302882      -280.3557
  44   2.0000     -10.301936      -280.3299
  45   2.0000     -10.300819      -280.2995
  46   2.0000     -10.299834      -280.2727
  47   2.0000     -10.298077      -280.2249
  48   2.0000     -10.297018      -280.1961
  49   2.0000     -10.296455      -280.1808
  50   2.0000     -10.295782      -280.1625
  51   2.0000     -10.295588      -280.1572
  52   2.0000     -10.292763      -280.0803
  53   2.0000     -10.292143      -280.0635
  54   2.0000     -10.292103      -280.0624
  55   2.0000     -10.291377      -280.0426
  56   2.0000     -10.288217      -279.9566
  57   2.0000     -10.286352      -279.9059
  58   2.0000     -10.286236      -279.9027
  59   2.0000     -10.284949      -279.8677
  60   2.0000     -10.280687      -279.7517
  61   2.0000     -10.279946      -279.7316
  62   2.0000     -10.278137      -279.6823
  63   2.0000     -10.276372      -279.6343
  64   2.0000     -10.273965      -279.5688
  65   2.0000     -10.273076      -279.5446
  66   2.0000     -10.270837      -279.4837
  67   2.0000     -10.270369      -279.4710
  68   2.0000     -10.269431      -279.4454
  69   2.0000     -10.265999      -279.3520
  70   2.0000     -10.264738      -279.3177
  71   2.0000     -10.264307      -279.3060
  72   2.0000     -10.264273      -279.3051
  73   2.0000     -10.259133      -279.1652
  74   2.0000      -8.092981      -220.2212
  75   2.0000      -8.073572      -219.6931
  76   2.0000      -6.062745      -164.9757
  77   2.0000      -6.058312      -164.8550
  78   2.0000      -6.054258      -164.7447
  79   2.0000      -6.043267      -164.4457
  80   2.0000      -6.038873      -164.3261
  81   2.0000      -6.034853      -164.2167
  82   2.0000      -1.327412       -36.1207
  83   2.0000      -1.306361       -35.5479
  84   2.0000      -1.145820       -31.1794
  85   2.0000      -1.125135       -30.6165
  86   2.0000      -1.111104       -30.2347
  87   2.0000      -1.057643       -28.7799
  88   2.0000      -1.026154       -27.9231
  89   2.0000      -1.016846       -27.6698
  90   2.0000      -1.012683       -27.5565
  91   2.0000      -1.010434       -27.4953
  92   2.0000      -0.998648       -27.1746
  93   2.0000      -0.997867       -27.1533
  94   2.0000      -0.987963       -26.8839
  95   2.0000      -0.986941       -26.8560
  96   2.0000      -0.986318       -26.8391
  97   2.0000      -0.985699       -26.8222
  98   2.0000      -0.975534       -26.5456
  99   2.0000      -0.963056       -26.2061
 100   2.0000      -0.952163       -25.9097
 101   2.0000      -0.933770       -25.4092
 102   2.0000      -0.930783       -25.3279
 103   2.0000      -0.925701       -25.1896
 104   2.0000      -0.916567       -24.9411
 105   2.0000      -0.914292       -24.8791
 106   2.0000      -0.900628       -24.5073
 107   2.0000      -0.892349       -24.2821
 108   2.0000      -0.888784       -24.1850
 109   2.0000      -0.882342       -24.0097
 110   2.0000      -0.880296       -23.9541
 111   2.0000      -0.873225       -23.7617
 112   2.0000      -0.867201       -23.5977
 113   2.0000      -0.856537       -23.3076
 114   2.0000      -0.849440       -23.1144
 115   2.0000      -0.843709       -22.9585
 116   2.0000      -0.841558       -22.8999
 117   2.0000      -0.837755       -22.7965
 118   2.0000      -0.827970       -22.5302
 119   2.0000      -0.816649       -22.2222
 120   2.0000      -0.815859       -22.2006
 121   2.0000      -0.809077       -22.0161
 122   2.0000      -0.797254       -21.6944
 123   2.0000      -0.789258       -21.4768
 124   2.0000      -0.788092       -21.4451
 125   2.0000      -0.763369       -20.7723
 126   2.0000      -0.756433       -20.5836
 127   2.0000      -0.746425       -20.3113
 128   2.0000      -0.746209       -20.3054
 129   2.0000      -0.736132       -20.0312
 130   2.0000      -0.730973       -19.8908
 131   2.0000      -0.723431       -19.6856
 132   2.0000      -0.718954       -19.5637
 133   2.0000      -0.714197       -19.4343
 134   2.0000      -0.703875       -19.1534
 135   2.0000      -0.699009       -19.0210
 136   2.0000      -0.691266       -18.8103
 137   2.0000      -0.688866       -18.7450
 138   2.0000      -0.681117       -18.5341
 139   2.0000      -0.678940       -18.4749
 140   2.0000      -0.676790       -18.4164
 141   2.0000      -0.667989       -18.1769
 142   2.0000      -0.662085       -18.0163
 143   2.0000      -0.654334       -17.8053
 144   2.0000      -0.653386       -17.7795
 145   2.0000      -0.649034       -17.6611
 146   2.0000      -0.642053       -17.4712
 147   2.0000      -0.640811       -17.4374
 148   2.0000      -0.640703       -17.4344
 149   2.0000      -0.638549       -17.3758
 150   2.0000      -0.637227       -17.3398
 151   2.0000      -0.627749       -17.0819
 152   2.0000      -0.626923       -17.0594
 153   2.0000      -0.621119       -16.9015
 154   2.0000      -0.619276       -16.8513
 155   2.0000      -0.614356       -16.7175
 156   2.0000      -0.609687       -16.5904
 157   2.0000      -0.605835       -16.4856
 158   2.0000      -0.604850       -16.4588
 159   2.0000      -0.601154       -16.3582
 160   2.0000      -0.598224       -16.2785
 161   2.0000      -0.593835       -16.1591
 162   2.0000      -0.583312       -15.8727
 163   2.0000      -0.582511       -15.8509
 164   2.0000      -0.576733       -15.6937
 165   2.0000      -0.574188       -15.6245
 166   2.0000      -0.567192       -15.4341
 167   2.0000      -0.562803       -15.3146
 168   2.0000      -0.557384       -15.1672
 169   2.0000      -0.556425       -15.1411
 170   2.0000      -0.554296       -15.0832
 171   2.0000      -0.553657       -15.0658
 172   2.0000      -0.546490       -14.8707
 173   2.0000      -0.541574       -14.7370
 174   2.0000      -0.539873       -14.6907
 175   2.0000      -0.536016       -14.5857
 176   2.0000      -0.534659       -14.5488
 177   2.0000      -0.530766       -14.4429
 178   2.0000      -0.528494       -14.3810
 179   2.0000      -0.526483       -14.3263
 180   2.0000      -0.524713       -14.2782
 181   2.0000      -0.522153       -14.2085
 182   2.0000      -0.519604       -14.1392
 183   2.0000      -0.516395       -14.0518
 184   2.0000      -0.515625       -14.0309
 185   2.0000      -0.514481       -13.9997
 186   2.0000      -0.511429       -13.9167
 187   2.0000      -0.508620       -13.8403
 188   2.0000      -0.508005       -13.8235
 189   2.0000      -0.507059       -13.7978
 190   2.0000      -0.506418       -13.7803
 191   2.0000      -0.503511       -13.7012
 192   2.0000      -0.500737       -13.6258
 193   2.0000      -0.500307       -13.6140
 194   2.0000      -0.498322       -13.5600
 195   2.0000      -0.497364       -13.5340
 196   2.0000      -0.493893       -13.4395
 197   2.0000      -0.491646       -13.3784
 198   2.0000      -0.489754       -13.3269
 199   2.0000      -0.488883       -13.3032
 200   2.0000      -0.485144       -13.2014
 201   2.0000      -0.483852       -13.1663
 202   2.0000      -0.478276       -13.0145
 203   2.0000      -0.476120       -12.9559
 204   2.0000      -0.475071       -12.9273
 205   2.0000      -0.470859       -12.8127
 206   2.0000      -0.465665       -12.6714
 207   2.0000      -0.462997       -12.5988
 208   2.0000      -0.459744       -12.5103
 209   2.0000      -0.456083       -12.4107
 210   2.0000      -0.452643       -12.3170
 211   2.0000      -0.450956       -12.2711
 212   2.0000      -0.448320       -12.1994
 213   2.0000      -0.447701       -12.1826
 214   2.0000      -0.446367       -12.1463
 215   2.0000      -0.445789       -12.1305
 216   2.0000      -0.442526       -12.0417
 217   2.0000      -0.440132       -11.9766
 218   2.0000      -0.437500       -11.9050
 219   2.0000      -0.436566       -11.8796
 220   2.0000      -0.435680       -11.8554
 221   2.0000      -0.433250       -11.7893
 222   2.0000      -0.431235       -11.7345
 223   2.0000      -0.431173       -11.7328
 224   2.0000      -0.422288       -11.4910
 225   2.0000      -0.419448       -11.4138
 226   2.0000      -0.416987       -11.3468
 227   2.0000      -0.414673       -11.2838
 228   2.0000      -0.411343       -11.1932
 229   2.0000      -0.409193       -11.1347
 230   2.0000      -0.408186       -11.1073
 231   2.0000      -0.407474       -11.0879
 232   2.0000      -0.405563       -11.0359
 233   2.0000      -0.399754       -10.8778
 234   2.0000      -0.397170       -10.8075
 235   2.0000      -0.393566       -10.7095
 236   2.0000      -0.391703       -10.6588
 237   2.0000      -0.389339       -10.5945
 238   2.0000      -0.384747       -10.4695
 239   2.0000      -0.377447       -10.2709
 240   2.0000      -0.375532       -10.2188
 241   2.0000      -0.374615       -10.1938
 242   2.0000      -0.371303       -10.1037
 243   2.0000      -0.366731        -9.9792
 244   2.0000      -0.366426        -9.9710
 245   2.0000      -0.354621        -9.6497
 246   2.0000      -0.343143        -9.3374
 247   2.0000      -0.340786        -9.2732
 248   2.0000      -0.335813        -9.1379
 249   2.0000      -0.334353        -9.0982
 250   2.0000      -0.325896        -8.8681
 251   2.0000      -0.318514        -8.6672
 252   2.0000      -0.316988        -8.6257
 253   2.0000      -0.303627        -8.2621
 254   2.0000      -0.300767        -8.1843
 255   2.0000      -0.296618        -8.0714
 256   2.0000      -0.277933        -7.5629
 257   2.0000      -0.271733        -7.3942
 258   2.0000      -0.268410        -7.3038
 259   2.0000      -0.261184        -7.1072
 260   2.0000      -0.220511        -6.0004
 261   0.0000      -0.131409        -3.5758
 262   0.0000      -0.120424        -3.2769
 263   0.0000      -0.075820        -2.0632
 264   0.0000      -0.071145        -1.9360
 265   0.0000      -0.042437        -1.1548

MULLIKEN ATOMIC CHARGES
-----------------------
   0 N :   -0.047490
   1 C :   -0.151454
   2 S :    0.159577
   3 C :   -0.023255
   4 N :    0.280797
   5 O :   -0.257672
   6 O :   -0.274990
   7 C :    0.013918
   8 C :    0.095596
   9 C :   -0.030887
  10 C :   -0.044777
  11 C :    0.084989
  12 C :   -0.018533
  13 C :   -0.106017
  14 C :   -0.128800
  15 N :    0.134884
  16 C :   -0.031025
  17 C :    0.029756
  18 C :    0.033294
  19 C :    0.092451
  20 C :   -0.020330
  21 C :   -0.091323
  22 C :   -0.044263
  23 C :   -0.128890
  24 N :    0.142963
  25 C :    0.009601
  26 C :   -0.031500
  27 C :    0.103176
  28 C :   -0.084675
  29 C :    0.059748
  30 C :   -0.012597
  31 C :   -0.054467
  32 C :    0.157337
  33 N :   -0.224221
  34 C :    0.143511
  35 N :   -0.219890
  36 C :    0.102976
  37 C :   -0.116044
  38 C :    0.130464
  39 C :   -0.061695
  40 C :    0.022440
  41 C :   -0.002081
  42 C :    0.037610
  43 C :   -0.003433
  44 C :   -0.013454
  45 C :   -0.061342
  46 C :    0.012377
  47 C :    0.075993
  48 C :   -0.001958
  49 C :   -0.104187
  50 C :   -0.128799
  51 N :    0.142193
  52 C :   -0.032811
  53 C :    0.011544
  54 C :    0.024516
  55 C :    0.061378
  56 C :   -0.013713
  57 C :   -0.103234
  58 C :   -0.015475
  59 C :   -0.126971
  60 N :    0.141888
  61 C :   -0.018254
  62 C :    0.048312
  63 N :   -0.027751
  64 C :   -0.104451
  65 S :    0.141354
  66 C :   -0.006108
  67 N :    0.296466
  68 O :   -0.243658
  69 O :   -0.291703
  70 C :    0.014539
  71 C :    0.109321
  72 C :   -0.028533
  73 C :   -0.013758
  74 H :    0.132823
  75 H :    0.135660
  76 H :    0.010493
  77 H :    0.011013
  78 H :   -0.009511
  79 H :   -0.019698
  80 H :    0.017766
  81 H :   -0.011295
  82 H :    0.009729
  83 H :   -0.008932
  84 H :   -0.004533
  85 H :   -0.037755
  86 H :   -0.031188
  87 H :   -0.035855
  88 H :   -0.004993
  89 H :    0.081752
  90 H :    0.079398
  91 H :   -0.010614
  92 H :   -0.023717
  93 H :    0.099139
  94 H :    0.098545
  95 H :   -0.004483
  96 H :    0.030154
  97 H :   -0.008494
  98 H :   -0.030664
  99 H :   -0.035863
 100 H :   -0.028840
 101 H :    0.022938
 102 H :   -0.006416
 103 H :   -0.008114
 104 H :    0.006389
 105 H :   -0.013626
 106 H :    0.003530
 107 H :   -0.008959
 108 H :    0.061833
 109 H :    0.139416
 110 H :    0.011223
 111 H :   -0.031381
 112 H :    0.022372
 113 H :    0.032262
Sum of atomic charges:   -0.0000000

LOEWDIN ATOMIC CHARGES
----------------------
   0 N :   -0.007105
   1 C :   -0.088166
   2 S :    0.443354
   3 C :   -0.221575
   4 N :    0.274496
   5 O :   -0.222700
   6 O :   -0.240756
   7 C :    0.007219
   8 C :   -0.124501
   9 C :   -0.010873
  10 C :   -0.046736
  11 C :   -0.031411
  12 C :   -0.002007
  13 C :   -0.064206
  14 C :   -0.031779
  15 N :   -0.048285
  16 C :    0.002540
  17 C :    0.033608
  18 C :    0.043006
  19 C :   -0.021421
  20 C :   -0.012508
  21 C :   -0.047470
  22 C :   -0.016268
  23 C :   -0.030382
  24 N :   -0.039832
  25 C :   -0.017695
  26 C :   -0.004493
  27 C :   -0.037872
  28 C :    0.005187
  29 C :   -0.021374
  30 C :   -0.019367
  31 C :   -0.042431
  32 C :    0.031223
  33 N :   -0.129531
  34 C :    0.028199
  35 N :   -0.102223
  36 C :   -0.016775
  37 C :    0.069852
  38 C :   -0.028287
  39 C :   -0.043776
  40 C :   -0.010824
  41 C :   -0.040376
  42 C :   -0.027694
  43 C :   -0.009069
  44 C :   -0.025982
  45 C :    0.008846
  46 C :   -0.035034
  47 C :   -0.030882
  48 C :    0.006317
  49 C :   -0.057600
  50 C :   -0.032358
  51 N :   -0.042272
  52 C :   -0.008048
  53 C :    0.032211
  54 C :    0.041043
  55 C :   -0.022129
  56 C :   -0.015815
  57 C :   -0.045712
  58 C :   -0.008934
  59 C :   -0.030099
  60 N :   -0.039495
  61 C :   -0.064609
  62 C :    0.031288
  63 N :    0.045128
  64 C :   -0.091926
  65 S :    0.456390
  66 C :   -0.214315
  67 N :    0.282384
  68 O :   -0.209934
  69 O :   -0.249142
  70 C :    0.017129
  71 C :   -0.107226
  72 C :   -0.031467
  73 C :   -0.031674
  74 H :    0.082657
  75 H :    0.082067
  76 H :    0.045990
  77 H :    0.033689
  78 H :    0.027317
  79 H :    0.029028
  80 H :    0.039320
  81 H :    0.032282
  82 H :    0.036101
  83 H :    0.034761
  84 H :    0.028277
  85 H :    0.025001
  86 H :    0.023254
  87 H :   -0.008164
  88 H :    0.015530
  89 H :    0.034272
  90 H :    0.047653
  91 H :    0.000783
  92 H :    0.010720
  93 H :    0.056056
  94 H :    0.047554
  95 H :    0.026746
  96 H :    0.054467
  97 H :    0.024864
  98 H :    0.031917
  99 H :    0.027976
 100 H :    0.025211
 101 H :    0.028892
 102 H :    0.034512
 103 H :    0.034181
 104 H :    0.033844
 105 H :    0.031820
 106 H :    0.034871
 107 H :    0.034646
 108 H :    0.024892
 109 H :    0.097474
 110 H :    0.046675
 111 H :    0.021757
 112 H :    0.025048
 113 H :    0.031064

  Mayer bond orders larger than 0.100000
B(  0-N ,  1-C ) :   1.2952 B(  0-N , 74-H ) :   0.9374 B(  0-N , 75-H ) :   0.9346
B(  1-C ,  2-S ) :   1.1466 B(  1-C ,  8-C ) :   1.3557 B(  2-S ,  3-C ) :   1.0652
B(  3-C ,  4-N ) :   0.9848 B(  3-C ,  7-C ) :   1.4775 B(  4-N ,  5-O ) :   1.5296
B(  4-N ,  6-O ) :   1.5017 B(  5-O ,  6-O ) :   0.2518 B(  7-C ,  8-C ) :   1.2281
B(  7-C , 76-H ) :   1.0076 B(  8-C ,  9-C ) :   1.0939 B(  9-C , 10-C ) :   1.7045
B(  9-C , 77-H ) :   0.9577 B( 10-C , 11-C ) :   1.0943 B( 10-C , 78-H ) :   0.9590
B( 11-C , 12-C ) :   1.5896 B( 11-C , 17-C ) :   1.0505 B( 12-C , 13-C ) :   1.0989
B( 12-C , 79-H ) :   1.0210 B( 13-C , 14-C ) :   1.0637 B( 13-C , 16-C ) :   1.6087
B( 14-C , 15-N ) :   3.0392 B( 16-C , 17-C ) :   1.1107 B( 16-C , 80-H ) :   1.0140
B( 17-C , 18-C ) :   1.4647 B( 18-C , 19-C ) :   1.0244 B( 18-C , 22-C ) :   1.1327
B( 19-C , 20-C ) :   1.5557 B( 19-C , 25-C ) :   1.1317 B( 20-C , 21-C ) :   1.1163
B( 20-C , 81-H ) :   1.0223 B( 21-C , 22-C ) :   1.5795 B( 21-C , 23-C ) :   1.0619
B( 22-C , 82-H ) :   1.0138 B( 23-C , 24-N ) :   3.0413 B( 25-C , 26-C ) :   1.6379
B( 25-C , 83-H ) :   0.9609 B( 26-C , 27-C ) :   1.0902 B( 26-C , 84-H ) :   0.9751
B( 27-C , 28-C ) :   1.5010 B( 27-C , 44-C ) :   1.1151 B( 28-C , 29-C ) :   1.1660
B( 28-C , 85-H ) :   0.9907 B( 29-C , 30-C ) :   1.4656 B( 29-C , 42-C ) :   1.1145
B( 30-C , 31-C ) :   1.0311 B( 30-C , 36-C ) :   1.0922 B( 31-C , 32-C ) :   1.0208
B( 31-C , 34-C ) :   1.0390 B( 31-C , 86-H ) :   0.8756 B( 32-C , 33-N ) :   1.1133
B( 32-C , 87-H ) :   0.9216 B( 32-C , 88-H ) :   0.9471 B( 33-N , 89-H ) :   0.9371
B( 33-N , 90-H ) :   0.9664 B( 34-C , 35-N ) :   1.0991 B( 34-C , 91-H ) :   0.9446
B( 34-C , 92-H ) :   0.9318 B( 35-N , 89-H ) :   0.1127 B( 35-N , 93-H ) :   0.9613
B( 35-N , 94-H ) :   0.9562 B( 36-C , 37-C ) :   1.6421 B( 36-C , 41-C ) :   1.0462
B( 37-C , 38-C ) :   0.9816 B( 37-C , 95-H ) :   0.9619 B( 38-C , 39-C ) :   0.9756
B( 38-C , 45-C ) :   0.9616 B( 38-C , 96-H ) :   0.8774 B( 39-C , 40-C ) :   1.7123
B( 39-C , 97-H ) :   0.9776 B( 40-C , 41-C ) :   1.1355 B( 40-C , 98-H ) :   0.9919
B( 41-C , 42-C ) :   1.4304 B( 42-C , 43-C ) :   1.1454 B( 43-C , 44-C ) :   1.6007
B( 43-C , 99-H ) :   0.9921 B( 44-C ,100-H ) :   0.9898 B( 45-C , 46-C ) :   1.7915
B( 45-C ,101-H ) :   0.9626 B( 46-C , 47-C ) :   1.0661 B( 46-C ,102-H ) :   0.9647
B( 47-C , 48-C ) :   1.6055 B( 47-C , 53-C ) :   1.0562 B( 48-C , 49-C ) :   1.0955
B( 48-C ,103-H ) :   1.0207 B( 49-C , 50-C ) :   1.0639 B( 49-C , 52-C ) :   1.6179
B( 50-C , 51-N ) :   3.0391 B( 52-C , 53-C ) :   1.1084 B( 52-C ,104-H ) :   1.0105
B( 53-C , 54-C ) :   1.4538 B( 54-C , 55-C ) :   1.0313 B( 54-C , 58-C ) :   1.1377
B( 55-C , 56-C ) :   1.5858 B( 55-C , 61-C ) :   1.1370 B( 56-C , 57-C ) :   1.1090
B( 56-C ,105-H ) :   1.0213 B( 57-C , 58-C ) :   1.5906 B( 57-C , 59-C ) :   1.0667
B( 58-C ,106-H ) :   1.0140 B( 59-C , 60-N ) :   3.0376 B( 61-C , 62-C ) :   1.6580
B( 61-C ,107-H ) :   0.9659 B( 62-C , 63-N ) :   1.1260 B( 62-C ,108-H ) :   0.9477
B( 63-N , 64-C ) :   1.2297 B( 63-N ,109-H ) :   0.9165 B( 64-C , 65-S ) :   1.1399
B( 64-C , 71-C ) :   1.3612 B( 65-S , 66-C ) :   1.0632 B( 66-C , 67-N ) :   0.9975
B( 66-C , 70-C ) :   1.4757 B( 67-N , 68-O ) :   1.5376 B( 67-N , 69-O ) :   1.4450
B( 68-O , 69-O ) :   0.2426 B( 70-C , 71-C ) :   1.2526 B( 70-C ,110-H ) :   1.0003
B( 71-C , 72-C ) :   1.0599 B( 72-C , 73-C ) :   1.9737 B( 72-C ,111-H ) :   0.9633
B( 73-C ,112-H ) :   0.9536 B( 73-C ,113-H ) :   0.9476

-----------------------------------------------------------------------------
         ABSORPTION SPECTRUM VIA TRANSITION ELECTRIC DIPOLE MOMENTS
-----------------------------------------------------------------------------
State   Energy  Wavelength   fosc         T2         TX        TY        TZ
        (cm-1)    (nm)                  (au**2)     (au)      (au)      (au)
-----------------------------------------------------------------------------
   0    6007.9   1664.5   0.022130125   1.21266  -0.76126  -0.76199   0.22919
   1    7403.1   1350.8   0.105448820   4.68927   0.87702   1.86116  -0.67542
   2   10496.2    952.7   0.048602707   1.52442  -0.84654   0.85174   0.28694
   3   11772.2    849.5   0.016748647   0.46838   0.16575  -0.57605   0.33027
   4   13042.2    766.7   0.035566683   0.89777   0.29027   0.08711   0.89774
   5   14778.1    676.7   0.013839103   0.30829  -0.37196   0.18105   0.37036
   6   15649.9    639.0   0.021748783   0.45751  -0.18259  -0.50053  -0.41670
   7   19157.6    522.0   0.007094721   0.12192  -0.13866  -0.32004  -0.01635
   8   20194.9    495.2   0.003512007   0.05725  -0.14277  -0.18831  -0.03749
   9   20210.9    494.8   0.001279813   0.02085   0.07519   0.11043   0.05476
  10   22007.8    454.4   0.017931532   0.26824  -0.08685   0.46028  -0.22099
  11   22151.1    451.4   0.022704704   0.33744  -0.24035   0.52269   0.08043
  12   22386.7    446.7   0.109037574   1.60347   0.19081  -0.52978  -1.13420
  13   22702.1    440.5   0.002230062   0.03234   0.04658   0.17337  -0.01065
  14   24117.3    414.6   0.000996131   0.01360  -0.05315   0.04739   0.09234
  15   24420.0    409.5   0.048498916   0.65383   0.36189   0.72309  -0.00248
  16   24832.6    402.7   0.259064062   3.43447  -0.79419  -1.61210   0.45264
  17   25595.4    390.7   0.241756543   3.10951  -0.42872  -1.14823  -1.26778
  18   26098.9    383.2   0.143870264   1.81478   0.57451   1.11693   0.48702
  19   26295.5    380.3   0.046725029   0.58498  -0.14845  -0.73248  -0.16256
  20   26972.4    370.7   0.318940992   3.89284  -1.05547  -1.44972   0.82288
  21   27313.9    366.1   0.064367960   0.77582  -0.51951  -0.69149  -0.16668
  22   27742.5    360.5   0.113800985   1.35044   0.72127   0.90849   0.06971
  23   28192.8    354.7   0.075264421   0.87887   0.02081  -0.37320   0.85975
  24   28642.6    349.1   0.036692799   0.42174  -0.05814   0.24431   0.59889
  25   28793.8    347.3   0.502830865   5.74909   0.77253   0.58821   2.19232
  26   29226.2    342.2   0.419581595   4.72628  -0.35552   0.43721  -2.09970
  27   29363.8    340.6   0.085623894   0.95997   0.44522  -0.25518  -0.83464
  28   29599.9    337.8   0.339287719   3.77357   0.08953   1.91642   0.30481
  29   29706.6    336.6   0.040905677   0.45332   0.06570  -0.30584  -0.59621
  30   29791.3    335.7   0.028376056   0.31357   0.16607   0.33959   0.41312
  31   29877.0    334.7   0.115371220   1.27127  -0.03003   1.11760  -0.14604
  32   30454.5    328.4   0.021709772   0.23468   0.41560  -0.04739   0.24437
  33   30658.7    326.2   0.002071660   0.02225  -0.12055  -0.00957  -0.08730
  34   31076.4    321.8   0.421574700   4.46601   1.27921  -1.18714  -1.19178
  35   31214.2    320.4   0.010637541   0.11219   0.02443  -0.16120  -0.29259
  36   31756.1    314.9   0.121317253   1.25768   0.38866   1.04211   0.14361
  37   31969.5    312.8   0.001759451   0.01812  -0.03938   0.08312   0.09828
  38   32137.9    311.2   0.025600414   0.26224  -0.27135  -0.03656   0.43276
  39   32458.7    308.1   0.021499185   0.21806  -0.07887   0.44036   0.13386
  40   32672.8    306.1   0.348834940   3.51487  -0.12271  -1.79692  -0.52047
  41   32825.5    304.6   0.001651464   0.01656   0.12332   0.03145  -0.01909
  42   33036.1    302.7   0.001790935   0.01785  -0.04051  -0.09405   0.08579
  43   33104.0    302.1   0.107329393   1.06737  -0.53309  -0.85569   0.22575
  44   33301.7    300.3   0.005492633   0.05430   0.20171  -0.07360  -0.09053
  45   33352.7    299.8   0.008419402   0.08310   0.12455   0.25961   0.01388
  46   33641.6    297.3   0.003219301   0.03150   0.12241  -0.11946  -0.04743
  47   34770.1    287.6   0.001884420   0.01784   0.09659  -0.09220   0.00329
  48   34837.5    287.0   0.363512288   3.43517   1.06056  -0.76182  -1.31530
  49   35040.6    285.4   0.265939757   2.49854  -0.86818   1.26779  -0.37084
  50   35164.3    284.4   0.014614382   0.13682   0.01455  -0.17327   0.32648
  51   35611.7    280.8   0.000813321   0.00752  -0.07459   0.04422   0.00044
  52   35959.5    278.1   0.026525111   0.24284   0.37855  -0.11847   0.29241
  53   36115.8    276.9   0.124854875   1.13811  -0.22710   0.39739   0.96365
  54   36524.1    273.8   0.007893775   0.07115   0.24039  -0.04560  -0.10623
  55   36708.1    272.4   0.078019586   0.69971  -0.33809   0.72046   0.25757
  56   36797.5    271.8   0.055249058   0.49429  -0.52019   0.13236   0.45406
  57   37072.0    269.7   0.047117611   0.41842  -0.06172   0.64382  -0.01018
  58   37705.2    265.2   0.371215230   3.24116   0.15702   1.78247  -0.19829
  59   37821.8    264.4   0.018490736   0.16095   0.13301   0.32014   0.20191
  60   37911.3    263.8   0.023683217   0.20566   0.17005  -0.41752  -0.04918
  61   38143.6    262.2   0.000751246   0.00648  -0.04683   0.05059   0.04162
  62   38395.5    260.4   0.000409346   0.00351  -0.04540  -0.00934   0.03689
  63   38644.5    258.8   0.016425546   0.13993  -0.26560  -0.20503   0.16537
  64   38806.3    257.7   0.318013853   2.69786  -0.72996   0.35496   1.42794
  65   39044.1    256.1   0.008453683   0.07128  -0.00331   0.15598   0.21665
  66   39349.0    254.1   0.000117265   0.00098  -0.01958   0.02399   0.00473
  67   39780.8    251.4   0.165450453   1.36921   0.01484  -1.06902  -0.47559
  68   40002.6    250.0   0.201221522   1.65601   0.34291  -1.11165  -0.55014
  69   40171.0    248.9   0.002175626   0.01783   0.00673   0.13301   0.00969

FINAL SINGLE POINT ENERGY     -3874.365300860161

DIPOLE MOMENT
-------------
                                X             Y             Z
Electronic contribution:      0.75705     -35.70294      18.59423
Nuclear contribution   :      2.11307      38.12682     -16.40218
                        -----------------------------------------
Total Dipole Moment    :      2.87012       2.42388       2.19205
                        -----------------------------------------
Magnitude (a.u.)       :      4.34947
Magnitude (Debye)      :     11.05547

Rotational constants in cm-1:     0.001152     0.000309     0.000290
Rotational constants in MHz :    34.535196     9.253477     8.702771

                             ****ORCA TERMINATED NORMALLY****
TOTAL RUN TIME: 0 days 0 hours 13 minutes 50 seconds 918 msec
