                         Program Version 4.2.0 -  RELEASE  -
|  1> # ORCA input file
|  2> # SCF done       -207.461717937631          0.000625025474
|  3> ! CAM-B3LYP def2-SVP def2/J RIJCOSX Grid4 TightSCF
|  4> %maxcore 5000
|  5> %tddft
|  6>     Mode sTDDFT
|  7>     Ethresh 5.0
|  8>     maxcore 5000
|  9> end
| 10>
| 11> %pal
| 12>   nprocs 6
| 13>   end
| 14> * xyz 0 1
| 15>    C        7.92900        -0.80800        11.71121
| 16>    C        7.29636        -1.14365        12.87549
| 17>    F        6.90440        -0.17193        13.72038
| 18>    C        7.03431        -2.47335        13.23225
| 19>    C        7.42401        -3.47412        12.38621
| 20>    C        8.07987        -3.18520        11.17205
| 21>    C        8.33993        -1.82639        10.82915
| 22>    C        9.00788        -1.51160         9.62301
| 23>    C        9.40018        -2.52357         8.78894
| 24>    C        9.11939        -3.87882         9.12714
| 25>    C        8.48197        -4.21109        10.28737
| 26>    C        9.60559        -4.76214         8.04785
| 27>    O        9.58108        -5.97084         8.01156
| 28>    C       10.08199        -3.84463         6.97661
| 29>    C       10.13020        -2.50396         7.52413
| 30>    C       10.92079        -1.47116         7.09037
| 31>    C       11.82940        -1.55376         6.01529
| 32>    N       12.63153        -1.55428         5.19364
| 33>    C       10.98623        -0.21546         7.72705
| 34>    N       11.06185         0.83110         8.19348
| 35>    C       10.31914        -4.31872         5.72624
| 36>    C       10.42735        -3.56746         4.51367
| 37>    C       11.27041        -4.02398         3.46969
| 38>    N       11.99988        -5.13633         3.46762
| 39>    S       12.84192        -5.19721         2.09978
| 40>    N       12.32836        -3.82313         1.44704
| 41>    C       11.46748        -3.23851         2.28108
| 42>    C       10.76711        -2.01930         2.08815
| 43>    C        9.87161        -1.66727         3.08852
| 44>    C        9.72407        -2.39595         4.26395
| 45>    C       11.02511        -1.15915         0.94584
| 46>    C       12.28712        -1.12105         0.40092
| 47>    C       12.59615        -0.19676        -0.61787
| 48>    C       13.78364         0.07974        -1.28590
| 49>    C       15.12164        -0.57654        -1.19395
| 50>    C       15.90243        -0.13018         0.06349
| 51>    N       15.24663        -0.56219         1.28134
| 52>    C       15.04170        -2.11039        -1.26104
| 53>    N       14.36288        -2.51287        -2.48404
| 54>    C       13.51185         1.20062        -2.15847
| 55>    C       14.32372         1.91839        -2.95575
| 56>    C       13.83317         3.11144        -3.70116
| 57>    C       12.36247         3.36352        -3.57462
| 58>    C       11.56178         2.63038        -2.77884
| 59>    C       12.09331         1.56021        -2.02154
| 60>    C       11.54856         0.70449        -1.08654
| 61>    C       10.24473         0.59753        -0.54882
| 62>    C        9.99674        -0.30023         0.43759
| 63>    C       14.20244         3.01619        -5.15767
| 64>    C       15.01111         3.89201        -5.75793
| 65>    C       15.38057         3.92019        -7.15339
| 66>    C       16.28520         4.92475        -7.58312
| 67>    N       16.90134         5.81923        -6.81085
| 68>    S       17.83889         6.74408        -7.72587
| 69>    N       17.51514         6.06432        -9.14925
| 70>    C       16.64057         5.07587        -8.96666
| 71>    C       16.09637         4.20581        -9.94748
| 72>    C       15.28009         3.18566        -9.47365
| 73>    C       14.91619         3.05939        -8.13507
| 74>    C       16.38924         4.31808       -11.34503
| 75>    C       16.74979         5.41085       -12.06302
| 76>    C       17.38868         5.22857       -13.39919
| 77>    O       17.41453         4.21367       -14.05603
| 78>    C       18.02058         6.52656       -13.70412
| 79>    C       18.83733         6.86192       -14.74539
| 80>    C       19.35835         8.17332       -14.81851
| 81>    C       19.02636         9.11445       -13.80043
| 82>    C       19.55766        10.41690       -13.87436
| 83>    C       20.37353        10.75087       -14.91910
| 84>    C       20.70892         9.84142       -15.93143
| 85>    C       20.20387         8.57227       -15.87407
| 86>    F       20.88127        11.99488       -14.99152
| 87>    C       18.17095         8.74184       -12.73770
| 88>    C       17.66941         7.46910       -12.69445
| 89>    C       16.75553         6.82583       -11.75710
| 90>    C       15.90232         7.47841       -10.90843
| 91>    C       14.85849         6.84410       -10.20575
| 92>    N       13.97731         6.38315        -9.63221
| 93>    C       15.93298         8.86784       -10.67575
| 94>    N       15.93130         9.98800       -10.42426
| 95>    H        8.11852         0.22650        11.47078
| 96>    H        6.53203        -2.67756        14.16449
| 97>    H        7.23306        -4.50617        12.63925
| 98>    H        9.18563        -0.47477         9.38498
| 99>    H        8.28744        -5.24526        10.52902
|100>    H       10.40458        -5.39591         5.63034
|101>    H        9.30510        -0.75410         2.98594
|102>    H        9.02287        -2.04225         5.00693
|103>    H       13.05808        -1.75497         0.80285
|104>    H       15.70509        -0.25232        -2.06173
|105>    H       16.04398         0.96346         0.00749
|106>    H       16.88956        -0.59946         0.03022
|107>    H       14.42026        -0.00254         1.46010
|108>    H       15.86442        -0.46554         2.07813
|109>    H       14.57259        -2.49392        -0.34726
|110>    H       16.06089        -2.50579        -1.30580
|111>    H       13.40303        -2.18161        -2.46474
|112>    H       14.33632        -3.52473        -2.54738
|113>    H       15.37188         1.68062        -3.07641
|114>    H       14.36407         3.98397        -3.28698
|115>    H       11.97708         4.18494        -4.15880
|116>    H       10.50822         2.85661        -2.70024
|117>    H        9.46077         1.23794        -0.92600
|118>    H        8.99992        -0.39483         0.84138
|119>    H       13.74184         2.19807        -5.69124
|120>    H       15.45452         4.69217        -5.17854
|121>    H       14.86596         2.49070       -10.18967
|122>    H       14.23578         2.26771        -7.86357
|123>    H       16.37332         3.38764       -11.90540
|124>    H       19.08466         6.13554       -15.50506
|125>    H       19.31754        11.14419       -13.11460
|126>    H       21.35692        10.16210       -16.73162
|127>    H       20.44840         7.85402       -16.64213
|128>    H       17.94113         9.47049       -11.97652
|129> *
|130>
|131>                          ****END OF INPUT****

CARTESIAN COORDINATES (ANGSTROEM)
---------------------------------
  C      7.929000   -0.808000   11.711210
  C      7.296360   -1.143650   12.875490
  F      6.904400   -0.171930   13.720380
  C      7.034310   -2.473350   13.232250
  C      7.424010   -3.474120   12.386210
  C      8.079870   -3.185200   11.172050
  C      8.339930   -1.826390   10.829150
  C      9.007880   -1.511600    9.623010
  C      9.400180   -2.523570    8.788940
  C      9.119390   -3.878820    9.127140
  C      8.481970   -4.211090   10.287370
  C      9.605590   -4.762140    8.047850
  O      9.581080   -5.970840    8.011560
  C     10.081990   -3.844630    6.976610
  C     10.130200   -2.503960    7.524130
  C     10.920790   -1.471160    7.090370
  C     11.829400   -1.553760    6.015290
  N     12.631530   -1.554280    5.193640
  C     10.986230   -0.215460    7.727050
  N     11.061850    0.831100    8.193480
  C     10.319140   -4.318720    5.726240
  C     10.427350   -3.567460    4.513670
  C     11.270410   -4.023980    3.469690
  N     11.999880   -5.136330    3.467620
  S     12.841920   -5.197210    2.099780
  N     12.328360   -3.823130    1.447040
  C     11.467480   -3.238510    2.281080
  C     10.767110   -2.019300    2.088150
  C      9.871610   -1.667270    3.088520
  C      9.724070   -2.395950    4.263950
  C     11.025110   -1.159150    0.945840
  C     12.287120   -1.121050    0.400920
  C     12.596150   -0.196760   -0.617870
  C     13.783640    0.079740   -1.285900
  C     15.121640   -0.576540   -1.193950
  C     15.902430   -0.130180    0.063490
  N     15.246630   -0.562190    1.281340
  C     15.041700   -2.110390   -1.261040
  N     14.362880   -2.512870   -2.484040
  C     13.511850    1.200620   -2.158470
  C     14.323720    1.918390   -2.955750
  C     13.833170    3.111440   -3.701160
  C     12.362470    3.363520   -3.574620
  C     11.561780    2.630380   -2.778840
  C     12.093310    1.560210   -2.021540
  C     11.548560    0.704490   -1.086540
  C     10.244730    0.597530   -0.548820
  C      9.996740   -0.300230    0.437590
  C     14.202440    3.016190   -5.157670
  C     15.011110    3.892010   -5.757930
  C     15.380570    3.920190   -7.153390
  C     16.285200    4.924750   -7.583120
  N     16.901340    5.819230   -6.810850
  S     17.838890    6.744080   -7.725870
  N     17.515140    6.064320   -9.149250
  C     16.640570    5.075870   -8.966660
  C     16.096370    4.205810   -9.947480
  C     15.280090    3.185660   -9.473650
  C     14.916190    3.059390   -8.135070
  C     16.389240    4.318080  -11.345030
  C     16.749790    5.410850  -12.063020
  C     17.388680    5.228570  -13.399190
  O     17.414530    4.213670  -14.056030
  C     18.020580    6.526560  -13.704120
  C     18.837330    6.861920  -14.745390
  C     19.358350    8.173320  -14.818510
  C     19.026360    9.114450  -13.800430
  C     19.557660   10.416900  -13.874360
  C     20.373530   10.750870  -14.919100
  C     20.708920    9.841420  -15.931430
  C     20.203870    8.572270  -15.874070
  F     20.881270   11.994880  -14.991520
  C     18.170950    8.741840  -12.737700
  C     17.669410    7.469100  -12.694450
  C     16.755530    6.825830  -11.757100
  C     15.902320    7.478410  -10.908430
  C     14.858490    6.844100  -10.205750
  N     13.977310    6.383150   -9.632210
  C     15.932980    8.867840  -10.675750
  N     15.931300    9.988000  -10.424260
  H      8.118520    0.226500   11.470780
  H      6.532030   -2.677560   14.164490
  H      7.233060   -4.506170   12.639250
  H      9.185630   -0.474770    9.384980
  H      8.287440   -5.245260   10.529020
  H     10.404580   -5.395910    5.630340
  H      9.305100   -0.754100    2.985940
  H      9.022870   -2.042250    5.006930
  H     13.058080   -1.754970    0.802850
  H     15.705090   -0.252320   -2.061730
  H     16.043980    0.963460    0.007490
  H     16.889560   -0.599460    0.030220
  H     14.420260   -0.002540    1.460100
  H     15.864420   -0.465540    2.078130
  H     14.572590   -2.493920   -0.347260
  H     16.060890   -2.505790   -1.305800
  H     13.403030   -2.181610   -2.464740
  H     14.336320   -3.524730   -2.547380
  H     15.371880    1.680620   -3.076410
  H     14.364070    3.983970   -3.286980
  H     11.977080    4.184940   -4.158800
  H     10.508220    2.856610   -2.700240
  H      9.460770    1.237940   -0.926000
  H      8.999920   -0.394830    0.841380
  H     13.741840    2.198070   -5.691240
  H     15.454520    4.692170   -5.178540
  H     14.865960    2.490700  -10.189670
  H     14.235780    2.267710   -7.863570
  H     16.373320    3.387640  -11.905400
  H     19.084660    6.135540  -15.505060
  H     19.317540   11.144190  -13.114600
  H     21.356920   10.162100  -16.731620
  H     20.448400    7.854020  -16.642130
  H     17.941130    9.470490  -11.976520

 Total Charge           Charge          ....    0
 Multiplicity           Mult            ....    1
 Number of Electrons    NEL             ....  554
 Basis Dimension        Dim             .... 1298

ORBITAL ENERGIES
----------------

  NO   OCC          E(Eh)            E(eV)
   0   2.0000     -89.030517     -2422.6435
   1   2.0000     -89.021404     -2422.3955
   2   2.0000     -24.785703      -674.4533
   3   2.0000     -24.784751      -674.4274
   4   2.0000     -19.213136      -522.8160
   5   2.0000     -19.211313      -522.7664
   6   2.0000     -14.445532      -393.0829
   7   2.0000     -14.441742      -392.9798
   8   2.0000     -14.436481      -392.8366
   9   2.0000     -14.434383      -392.7795
  10   2.0000     -14.415340      -392.2613
  11   2.0000     -14.413798      -392.2194
  12   2.0000     -14.413607      -392.2142
  13   2.0000     -14.412998      -392.1976
  14   2.0000     -14.373210      -391.1149
  15   2.0000     -14.361254      -390.7896
  16   2.0000     -10.369379      -282.1652
  17   2.0000     -10.368300      -282.1358
  18   2.0000     -10.363978      -282.0182
  19   2.0000     -10.363122      -281.9949
  20   2.0000     -10.342305      -281.4284
  21   2.0000     -10.341330      -281.4019
  22   2.0000     -10.338315      -281.3199
  23   2.0000     -10.335996      -281.2567
  24   2.0000     -10.328617      -281.0560
  25   2.0000     -10.327005      -281.0121
  26   2.0000     -10.321554      -280.8638
  27   2.0000     -10.320491      -280.8348
  28   2.0000     -10.318074      -280.7691
  29   2.0000     -10.316410      -280.7238
  30   2.0000     -10.316017      -280.7131
  31   2.0000     -10.314778      -280.6794
  32   2.0000     -10.314192      -280.6634
  33   2.0000     -10.313330      -280.6400
  34   2.0000     -10.307599      -280.4840
  35   2.0000     -10.305973      -280.4398
  36   2.0000     -10.305757      -280.4339
  37   2.0000     -10.304588      -280.4021
  38   2.0000     -10.303384      -280.3693
  39   2.0000     -10.303276      -280.3664
  40   2.0000     -10.302937      -280.3572
  41   2.0000     -10.301781      -280.3257
  42   2.0000     -10.301043      -280.3056
  43   2.0000     -10.300400      -280.2881
  44   2.0000     -10.299570      -280.2655
  45   2.0000     -10.299283      -280.2577
  46   2.0000     -10.298451      -280.2351
  47   2.0000     -10.298264      -280.2300
  48   2.0000     -10.297674      -280.2140
  49   2.0000     -10.296485      -280.1816
  50   2.0000     -10.296282      -280.1761
  51   2.0000     -10.296020      -280.1690
  52   2.0000     -10.295592      -280.1573
  53   2.0000     -10.295531      -280.1556
  54   2.0000     -10.295360      -280.1510
  55   2.0000     -10.294995      -280.1411
  56   2.0000     -10.294490      -280.1273
  57   2.0000     -10.293135      -280.0904
  58   2.0000     -10.293091      -280.0892
  59   2.0000     -10.292789      -280.0810
  60   2.0000     -10.289092      -279.9804
  61   2.0000     -10.289014      -279.9783
  62   2.0000     -10.288031      -279.9515
  63   2.0000     -10.287600      -279.9398
  64   2.0000     -10.284059      -279.8435
  65   2.0000     -10.282577      -279.8031
  66   2.0000     -10.278787      -279.7000
  67   2.0000     -10.277211      -279.6571
  68   2.0000     -10.273001      -279.5426
  69   2.0000     -10.272795      -279.5370
  70   2.0000     -10.270328      -279.4698
  71   2.0000     -10.268404      -279.4175
  72   2.0000     -10.267207      -279.3849
  73   2.0000     -10.264593      -279.3138
  74   2.0000     -10.264175      -279.3024
  75   2.0000     -10.263023      -279.2710
  76   2.0000     -10.262170      -279.2479
  77   2.0000     -10.261775      -279.2371
  78   2.0000     -10.261459      -279.2285
  79   2.0000     -10.258007      -279.1346
  80   2.0000      -8.121989      -221.0106
  81   2.0000      -8.113211      -220.7717
  82   2.0000      -6.093199      -165.8044
  83   2.0000      -6.085478      -165.5943
  84   2.0000      -6.084431      -165.5658
  85   2.0000      -6.084367      -165.5640
  86   2.0000      -6.076679      -165.3549
  87   2.0000      -6.075663      -165.3272
  88   2.0000      -1.300330       -35.3838
  89   2.0000      -1.299541       -35.3623
  90   2.0000      -1.130160       -30.7532
  91   2.0000      -1.128140       -30.6983
  92   2.0000      -1.126443       -30.6521
  93   2.0000      -1.121578       -30.5197
  94   2.0000      -1.018314       -27.7097
  95   2.0000      -1.016984       -27.6735
  96   2.0000      -0.999929       -27.2095
  97   2.0000      -0.998601       -27.1733
  98   2.0000      -0.993295       -27.0289
  99   2.0000      -0.993217       -27.0268
 100   2.0000      -0.985730       -26.8231
 101   2.0000      -0.984208       -26.7817
 102   2.0000      -0.978893       -26.6370
 103   2.0000      -0.976353       -26.5679
 104   2.0000      -0.975241       -26.5376
 105   2.0000      -0.970417       -26.4064
 106   2.0000      -0.966962       -26.3124
 107   2.0000      -0.958392       -26.0792
 108   2.0000      -0.942262       -25.6403
 109   2.0000      -0.938822       -25.5467
 110   2.0000      -0.927149       -25.2290
 111   2.0000      -0.924972       -25.1698
 112   2.0000      -0.915647       -24.9160
 113   2.0000      -0.905895       -24.6506
 114   2.0000      -0.899037       -24.4640
 115   2.0000      -0.890384       -24.2286
 116   2.0000      -0.886667       -24.1274
 117   2.0000      -0.883264       -24.0348
 118   2.0000      -0.878508       -23.9054
 119   2.0000      -0.871641       -23.7186
 120   2.0000      -0.866237       -23.5715
 121   2.0000      -0.860159       -23.4061
 122   2.0000      -0.859063       -23.3763
 123   2.0000      -0.844693       -22.9853
 124   2.0000      -0.834644       -22.7118
 125   2.0000      -0.834219       -22.7003
 126   2.0000      -0.832039       -22.6409
 127   2.0000      -0.828171       -22.5357
 128   2.0000      -0.823964       -22.4212
 129   2.0000      -0.806026       -21.9331
 130   2.0000      -0.791323       -21.5330
 131   2.0000      -0.777459       -21.1557
 132   2.0000      -0.762327       -20.7440
 133   2.0000      -0.758847       -20.6493
 134   2.0000      -0.757122       -20.6023
 135   2.0000      -0.750277       -20.4161
 136   2.0000      -0.743963       -20.2443
 137   2.0000      -0.729567       -19.8525
 138   2.0000      -0.725398       -19.7391
 139   2.0000      -0.722622       -19.6635
 140   2.0000      -0.716566       -19.4988
 141   2.0000      -0.710779       -19.3413
 142   2.0000      -0.710126       -19.3235
 143   2.0000      -0.707747       -19.2588
 144   2.0000      -0.705897       -19.2084
 145   2.0000      -0.702672       -19.1207
 146   2.0000      -0.698793       -19.0151
 147   2.0000      -0.683815       -18.6075
 148   2.0000      -0.678196       -18.4546
 149   2.0000      -0.677697       -18.4411
 150   2.0000      -0.676016       -18.3953
 151   2.0000      -0.669269       -18.2117
 152   2.0000      -0.658738       -17.9252
 153   2.0000      -0.654821       -17.8186
 154   2.0000      -0.651392       -17.7253
 155   2.0000      -0.636590       -17.3225
 156   2.0000      -0.633677       -17.2432
 157   2.0000      -0.630038       -17.1442
 158   2.0000      -0.628026       -17.0895
 159   2.0000      -0.625054       -17.0086
 160   2.0000      -0.623765       -16.9735
 161   2.0000      -0.614066       -16.7096
 162   2.0000      -0.608091       -16.5470
 163   2.0000      -0.607802       -16.5391
 164   2.0000      -0.598050       -16.2738
 165   2.0000      -0.595943       -16.2164
 166   2.0000      -0.592841       -16.1320
 167   2.0000      -0.589206       -16.0331
 168   2.0000      -0.586849       -15.9690
 169   2.0000      -0.581141       -15.8136
 170   2.0000      -0.575812       -15.6686
 171   2.0000      -0.575298       -15.6547
 172   2.0000      -0.569926       -15.5085
 173   2.0000      -0.565023       -15.3751
 174   2.0000      -0.564830       -15.3698
 175   2.0000      -0.562943       -15.3185
 176   2.0000      -0.559785       -15.2325
 177   2.0000      -0.558180       -15.1888
 178   2.0000      -0.557997       -15.1839
 179   2.0000      -0.557088       -15.1591
 180   2.0000      -0.555107       -15.1052
 181   2.0000      -0.550926       -14.9915
 182   2.0000      -0.549895       -14.9634
 183   2.0000      -0.547655       -14.9025
 184   2.0000      -0.545356       -14.8399
 185   2.0000      -0.542995       -14.7757
 186   2.0000      -0.537870       -14.6362
 187   2.0000      -0.533756       -14.5242
 188   2.0000      -0.532336       -14.4856
 189   2.0000      -0.528992       -14.3946
 190   2.0000      -0.527298       -14.3485
 191   2.0000      -0.526974       -14.3397
 192   2.0000      -0.525594       -14.3022
 193   2.0000      -0.523448       -14.2437
 194   2.0000      -0.521945       -14.2028
 195   2.0000      -0.517019       -14.0688
 196   2.0000      -0.515450       -14.0261
 197   2.0000      -0.513302       -13.9677
 198   2.0000      -0.508627       -13.8405
 199   2.0000      -0.504281       -13.7222
 200   2.0000      -0.501894       -13.6572
 201   2.0000      -0.500818       -13.6279
 202   2.0000      -0.498098       -13.5539
 203   2.0000      -0.496875       -13.5207
 204   2.0000      -0.495074       -13.4716
 205   2.0000      -0.492858       -13.4113
 206   2.0000      -0.490295       -13.3416
 207   2.0000      -0.489151       -13.3105
 208   2.0000      -0.488193       -13.2844
 209   2.0000      -0.487020       -13.2525
 210   2.0000      -0.482500       -13.1295
 211   2.0000      -0.481636       -13.1060
 212   2.0000      -0.480263       -13.0686
 213   2.0000      -0.475060       -12.9270
 214   2.0000      -0.472115       -12.8469
 215   2.0000      -0.470111       -12.7924
 216   2.0000      -0.467398       -12.7185
 217   2.0000      -0.466102       -12.6833
 218   2.0000      -0.462574       -12.5873
 219   2.0000      -0.461607       -12.5610
 220   2.0000      -0.460863       -12.5407
 221   2.0000      -0.457208       -12.4413
 222   2.0000      -0.455415       -12.3925
 223   2.0000      -0.453313       -12.3353
 224   2.0000      -0.449921       -12.2430
 225   2.0000      -0.449285       -12.2257
 226   2.0000      -0.445573       -12.1247
 227   2.0000      -0.442534       -12.0420
 228   2.0000      -0.441493       -12.0136
 229   2.0000      -0.440943       -11.9987
 230   2.0000      -0.439053       -11.9472
 231   2.0000      -0.438271       -11.9260
 232   2.0000      -0.437841       -11.9142
 233   2.0000      -0.435698       -11.8559
 234   2.0000      -0.435521       -11.8511
 235   2.0000      -0.432090       -11.7578
 236   2.0000      -0.430188       -11.7060
 237   2.0000      -0.427465       -11.6319
 238   2.0000      -0.426510       -11.6059
 239   2.0000      -0.425257       -11.5718
 240   2.0000      -0.424767       -11.5585
 241   2.0000      -0.417636       -11.3644
 242   2.0000      -0.416424       -11.3315
 243   2.0000      -0.416096       -11.3225
 244   2.0000      -0.411482       -11.1970
 245   2.0000      -0.404952       -11.0193
 246   2.0000      -0.404519       -11.0075
 247   2.0000      -0.403789       -10.9876
 248   2.0000      -0.396661       -10.7937
 249   2.0000      -0.394932       -10.7466
 250   2.0000      -0.392835       -10.6896
 251   2.0000      -0.391008       -10.6399
 252   2.0000      -0.386039       -10.5047
 253   2.0000      -0.383796       -10.4436
 254   2.0000      -0.379795       -10.3348
 255   2.0000      -0.379269       -10.3204
 256   2.0000      -0.373464       -10.1625
 257   2.0000      -0.368675       -10.0322
 258   2.0000      -0.364411        -9.9161
 259   2.0000      -0.359693        -9.7877
 260   2.0000      -0.350939        -9.5495
 261   2.0000      -0.344431        -9.3724
 262   2.0000      -0.339165        -9.2291
 263   2.0000      -0.333221        -9.0674
 264   2.0000      -0.332467        -9.0469
 265   2.0000      -0.331868        -9.0306
 266   2.0000      -0.328328        -8.9343
 267   2.0000      -0.317886        -8.6501
 268   2.0000      -0.311309        -8.4712
 269   2.0000      -0.308259        -8.3881
 270   2.0000      -0.304524        -8.2865
 271   2.0000      -0.298168        -8.1136
 272   2.0000      -0.295272        -8.0348
 273   2.0000      -0.280581        -7.6350
 274   2.0000      -0.279720        -7.6116
 275   2.0000      -0.273798        -7.4504
 276   2.0000      -0.221606        -6.0302
 277   0.0000      -0.099165        -2.6984
 278   0.0000      -0.096787        -2.6337
 279   0.0000      -0.068648        -1.8680
 280   0.0000      -0.060048        -1.6340
 281   0.0000      -0.055023        -1.4972

MULLIKEN ATOMIC CHARGES
-----------------------
   0 C :   -0.102290
   1 C :    0.305403
   2 F :   -0.190511
   3 C :   -0.026111
   4 C :   -0.012786
   5 C :    0.104860
   6 C :    0.104905
   7 C :   -0.090812
   8 C :    0.038526
   9 C :    0.012828
  10 C :   -0.086185
  11 C :    0.137738
  12 O :   -0.139083
  13 C :   -0.121026
  14 C :    0.270878
  15 C :   -0.343253
  16 C :   -0.184818
  17 N :    0.172703
  18 C :   -0.185815
  19 N :    0.153219
  20 C :    0.034452
  21 C :    0.001841
  22 C :    0.043281
  23 N :   -0.271484
  24 S :    0.513760
  25 N :   -0.277554
  26 C :    0.012392
  27 C :    0.112291
  28 C :   -0.045564
  29 C :   -0.002908
  30 C :    0.068432
  31 C :   -0.092374
  32 C :    0.014299
  33 C :   -0.080760
  34 C :    0.008465
  35 C :    0.146532
  36 N :   -0.226666
  37 C :    0.126415
  38 N :   -0.224818
  39 C :    0.107088
  40 C :   -0.128785
  41 C :    0.133196
  42 C :   -0.049155
  43 C :    0.023477
  44 C :    0.014364
  45 C :    0.042832
  46 C :   -0.006251
  47 C :   -0.019836
  48 C :   -0.028416
  49 C :   -0.004592
  50 C :    0.096592
  51 C :    0.025733
  52 N :   -0.268850
  53 S :    0.520914
  54 N :   -0.282651
  55 C :   -0.001707
  56 C :    0.079278
  57 C :    0.011991
  58 C :   -0.040567
  59 C :   -0.004181
  60 C :   -0.111767
  61 C :    0.133342
  62 O :   -0.142913
  63 C :    0.013171
  64 C :   -0.082458
  65 C :    0.100413
  66 C :    0.103768
  67 C :   -0.098476
  68 C :    0.303908
  69 C :   -0.031267
  70 C :   -0.009798
  71 F :   -0.190903
  72 C :   -0.090497
  73 C :    0.039919
  74 C :    0.331154
  75 C :   -0.334378
  76 C :   -0.207730
  77 N :    0.171406
  78 C :   -0.193708
  79 N :    0.154400
  80 H :   -0.002338
  81 H :    0.002977
  82 H :   -0.008531
  83 H :   -0.004693
  84 H :   -0.010967
  85 H :    0.037729
  86 H :   -0.014801
  87 H :   -0.004736
  88 H :    0.011076
  89 H :   -0.025955
  90 H :   -0.020044
  91 H :   -0.008919
  92 H :    0.106728
  93 H :    0.098932
  94 H :    0.005381
  95 H :   -0.020700
  96 H :    0.096586
  97 H :    0.086590
  98 H :   -0.001869
  99 H :    0.043554
 100 H :   -0.006088
 101 H :   -0.033112
 102 H :   -0.038080
 103 H :   -0.029102
 104 H :    0.013209
 105 H :    0.000859
 106 H :   -0.008265
 107 H :   -0.014654
 108 H :    0.020227
 109 H :   -0.012008
 110 H :   -0.003018
 111 H :    0.003085
 112 H :   -0.008961
 113 H :   -0.006557
Sum of atomic charges:   -0.0000000

LOEWDIN ATOMIC CHARGES
----------------------
   0 C :   -0.042143
   1 C :    0.093258
   2 F :   -0.065416
   3 C :   -0.036311
   4 C :    0.004754
   5 C :   -0.018118
   6 C :    0.003046
   7 C :    0.010734
   8 C :   -0.018578
   9 C :   -0.059123
  10 C :    0.034202
  11 C :    0.082573
  12 O :   -0.140962
  13 C :   -0.091713
  14 C :    0.067938
  15 C :   -0.137403
  16 C :   -0.014997
  17 N :   -0.048507
  18 C :   -0.019284
  19 N :   -0.053945
  20 C :    0.094012
  21 C :   -0.059547
  22 C :   -0.034673
  23 N :   -0.287941
  24 S :    0.648660
  25 N :   -0.272839
  26 C :   -0.038008
  27 C :    0.016424
  28 C :   -0.024311
  29 C :    0.019065
  30 C :   -0.031762
  31 C :    0.011743
  32 C :   -0.030132
  33 C :   -0.028303
  34 C :   -0.040443
  35 C :    0.028773
  36 N :   -0.110669
  37 C :    0.026861
  38 N :   -0.126449
  39 C :   -0.014979
  40 C :    0.067706
  41 C :   -0.028671
  42 C :   -0.033065
  43 C :   -0.014314
  44 C :   -0.036740
  45 C :   -0.030707
  46 C :   -0.010807
  47 C :   -0.029374
  48 C :    0.022952
  49 C :   -0.031720
  50 C :    0.004248
  51 C :   -0.040848
  52 N :   -0.276806
  53 S :    0.651682
  54 N :   -0.284418
  55 C :   -0.042785
  56 C :   -0.049904
  57 C :    0.031337
  58 C :   -0.011358
  59 C :    0.071876
  60 C :   -0.079035
  61 C :    0.085197
  62 O :   -0.142818
  63 C :   -0.059402
  64 C :    0.034392
  65 C :   -0.019192
  66 C :    0.004032
  67 C :   -0.042882
  68 C :    0.093137
  69 C :   -0.037862
  70 C :    0.004622
  71 F :   -0.065460
  72 C :    0.009401
  73 C :   -0.012697
  74 C :    0.079311
  75 C :   -0.134773
  76 C :   -0.019135
  77 N :   -0.052643
  78 C :   -0.019827
  79 N :   -0.055728
  80 H :    0.043113
  81 H :    0.041937
  82 H :    0.035922
  83 H :    0.038893
  84 H :    0.039892
  85 H :    0.051876
  86 H :    0.033356
  87 H :    0.034469
  88 H :    0.028363
  89 H :    0.025506
  90 H :   -0.001832
  91 H :    0.016056
  92 H :    0.056899
  93 H :    0.059204
  94 H :    0.002924
  95 H :    0.014282
  96 H :    0.050199
  97 H :    0.052246
  98 H :    0.031874
  99 H :    0.062788
 100 H :    0.027296
 101 H :    0.030549
 102 H :    0.027018
 103 H :    0.024438
 104 H :    0.028267
 105 H :    0.034272
 106 H :    0.038339
 107 H :    0.033960
 108 H :    0.047086
 109 H :    0.039494
 110 H :    0.042883
 111 H :    0.041714
 112 H :    0.035681
 113 H :    0.038625

  Mayer bond orders larger than 0.100000
B(  0-C ,  1-C ) :   1.4423 B(  0-C ,  6-C ) :   1.1989 B(  0-C , 80-H ) :   1.0079
B(  1-C ,  2-F ) :   1.0891 B(  1-C ,  3-C ) :   1.2528 B(  3-C ,  4-C ) :   1.4619
B(  3-C , 81-H ) :   0.9927 B(  4-C ,  5-C ) :   1.2336 B(  4-C , 82-H ) :   0.9977
B(  5-C ,  6-C ) :   1.2554 B(  5-C , 10-C ) :   1.1898 B(  6-C ,  7-C ) :   1.2050
B(  7-C ,  8-C ) :   1.4546 B(  7-C , 83-H ) :   0.9955 B(  8-C ,  9-C ) :   1.2200
B(  8-C , 14-C ) :   0.9978 B(  9-C , 10-C ) :   1.4678 B(  9-C , 11-C ) :   0.9156
B( 10-C , 84-H ) :   1.0168 B( 11-C , 12-O ) :   2.2821 B( 11-C , 13-C ) :   0.9348
B( 13-C , 14-C ) :   1.0301 B( 13-C , 20-C ) :   1.6670 B( 14-C , 15-C ) :   1.6571
B( 15-C , 16-C ) :   1.1632 B( 15-C , 18-C ) :   1.1372 B( 16-C , 17-N ) :   2.9989
B( 18-C , 19-N ) :   2.9850 B( 20-C , 21-C ) :   1.0622 B( 20-C , 85-H ) :   0.9496
B( 21-C , 22-C ) :   1.1890 B( 21-C , 27-C ) :   0.1126 B( 21-C , 29-C ) :   1.4259
B( 22-C , 23-N ) :   1.5719 B( 22-C , 26-C ) :   1.1598 B( 23-N , 24-S ) :   1.2569
B( 23-N , 25-N ) :   0.1461 B( 24-S , 25-N ) :   1.2749 B( 25-N , 26-C ) :   1.5311
B( 26-C , 27-C ) :   1.1917 B( 27-C , 28-C ) :   1.4596 B( 27-C , 30-C ) :   1.0113
B( 28-C , 29-C ) :   1.2405 B( 28-C , 86-H ) :   0.9936 B( 29-C , 87-H ) :   0.9944
B( 30-C , 31-C ) :   1.5370 B( 30-C , 47-C ) :   1.1224 B( 31-C , 32-C ) :   1.1295
B( 31-C , 88-H ) :   0.9840 B( 32-C , 33-C ) :   1.4620 B( 32-C , 45-C ) :   1.1222
B( 33-C , 34-C ) :   1.0432 B( 33-C , 39-C ) :   1.1123 B( 34-C , 35-C ) :   1.0409
B( 34-C , 37-C ) :   1.0315 B( 34-C , 89-H ) :   0.8736 B( 35-C , 36-N ) :   1.1038
B( 35-C , 90-H ) :   0.9393 B( 35-C , 91-H ) :   0.9381 B( 36-N , 92-H ) :   0.9566
B( 36-N , 93-H ) :   0.9681 B( 37-C , 38-N ) :   1.0899 B( 37-C , 94-H ) :   0.9412
B( 37-C , 95-H ) :   0.9344 B( 38-N , 96-H ) :   0.9705 B( 38-N , 97-H ) :   0.9686
B( 39-C , 40-C ) :   1.6413 B( 39-C , 44-C ) :   1.0465 B( 40-C , 41-C ) :   0.9628
B( 40-C , 98-H ) :   0.9781 B( 41-C , 42-C ) :   0.9825 B( 41-C , 48-C ) :   0.9652
B( 41-C , 99-H ) :   0.8615 B( 42-C , 43-C ) :   1.7020 B( 42-C ,100-H ) :   0.9792
B( 43-C , 44-C ) :   1.1299 B( 43-C ,101-H ) :   0.9891 B( 44-C , 45-C ) :   1.4389
B( 45-C , 46-C ) :   1.1414 B( 46-C , 47-C ) :   1.6065 B( 46-C ,102-H ) :   0.9905
B( 47-C ,103-H ) :   0.9823 B( 48-C , 49-C ) :   1.7715 B( 48-C ,104-H ) :   0.9644
B( 49-C , 50-C ) :   1.0907 B( 49-C ,105-H ) :   0.9776 B( 50-C , 51-C ) :   1.1743
B( 50-C , 56-C ) :   0.1051 B( 50-C , 58-C ) :   1.4471 B( 51-C , 52-N ) :   1.5441
B( 51-C , 55-C ) :   1.1668 B( 52-N , 53-S ) :   1.2769 B( 52-N , 54-N ) :   0.1421
B( 53-S , 54-N ) :   1.2488 B( 54-N , 55-C ) :   1.5320 B( 55-C , 56-C ) :   1.1770
B( 56-C , 57-C ) :   1.4257 B( 56-C , 59-C ) :   1.0667 B( 57-C , 58-C ) :   1.2418
B( 57-C ,106-H ) :   0.9945 B( 58-C ,107-H ) :   0.9921 B( 59-C , 60-C ) :   1.6912
B( 59-C ,108-H ) :   0.9454 B( 60-C , 61-C ) :   0.9352 B( 60-C , 74-C ) :   1.0275
B( 61-C , 62-O ) :   2.2710 B( 61-C , 63-C ) :   0.9195 B( 63-C , 64-C ) :   1.4695
B( 63-C , 73-C ) :   1.2144 B( 64-C , 65-C ) :   1.1935 B( 64-C ,109-H ) :   1.0144
B( 65-C , 66-C ) :   1.2545 B( 65-C , 70-C ) :   1.2344 B( 66-C , 67-C ) :   1.2015
B( 66-C , 72-C ) :   1.2031 B( 67-C , 68-C ) :   1.4419 B( 67-C ,110-H ) :   1.0062
B( 68-C , 69-C ) :   1.2546 B( 68-C , 71-F ) :   1.0883 B( 69-C , 70-C ) :   1.4611
B( 69-C ,111-H ) :   0.9931 B( 70-C ,112-H ) :   0.9965 B( 72-C , 73-C ) :   1.4606
B( 72-C ,113-H ) :   0.9941 B( 73-C , 74-C ) :   1.0067 B( 74-C , 75-C ) :   1.6479
B( 75-C , 76-C ) :   1.1658 B( 75-C , 78-C ) :   1.1446 B( 76-C , 77-N ) :   3.0090
B( 78-C , 79-N ) :   2.9853

-----------------------------------------------------------------------------
         ABSORPTION SPECTRUM VIA TRANSITION ELECTRIC DIPOLE MOMENTS
-----------------------------------------------------------------------------
State   Energy  Wavelength   fosc         T2         TX        TY        TZ
        (cm-1)    (nm)                  (au**2)     (au)      (au)      (au)
-----------------------------------------------------------------------------
   0   12611.8    792.9   0.187358034   4.89071  -1.08686  -0.51393   1.85616
   1   15434.3    647.9   0.008163216   0.17412  -0.37255  -0.01078  -0.18765
   2   16408.5    609.4   0.389982756   7.82443   0.12111   1.40791  -2.41403
   3   21088.2    474.2   0.138189224   2.15730   0.28666  -0.56451  -1.32531
   4   21882.8    457.0   0.701198316  10.54906   0.79463   1.34495  -2.84758
   5   22370.7    447.0   0.285081112   4.19532   0.58366   1.30940  -1.46292
   6   23605.1    423.6   0.008105014   0.11304  -0.14437   0.01247  -0.30338
   7   25336.7    394.7   0.001201182   0.01561  -0.11461   0.02741  -0.04147
   8   25800.6    387.6   0.169885882   2.16772   0.76002   0.48903  -1.16230
   9   26572.9    376.3   0.037345594   0.46267  -0.16865  -0.28826   0.59257
  10   27225.6    367.3   0.099759024   1.20629   0.63009   0.11872  -0.89173
  11   27670.0    361.4   0.009758793   0.11611   0.00378  -0.29226  -0.17516
  12   27775.2    360.0   0.087405222   1.03599  -0.56041  -0.58419   0.61697
  13   28185.8    354.8   0.230290644   2.68981  -0.91949  -0.95132   0.96919
  14   28208.7    354.5   0.033391634   0.38970  -0.40655  -0.42085   0.21751
  15   29088.3    343.8   0.040215414   0.45514  -0.19785  -0.33725   0.54979
  16   29240.2    342.0   0.002953905   0.03326  -0.12740  -0.12588  -0.03436
  17   29308.4    341.2   0.005800395   0.06515  -0.00897  -0.25510   0.00003
  18   29746.3    336.2   0.073270820   0.81091  -0.62703  -0.07244   0.64226
  19   29820.0    335.3   0.015260300   0.16847   0.04820   0.17301  -0.36908
  20   29971.9    333.6   0.082235044   0.90327  -0.56395  -0.36229   0.67378
  21   30165.5    331.5   0.070718242   0.77179   0.53617  -0.01881  -0.69567
  22   30555.0    327.3   0.037509608   0.40414   0.34800  -0.41997  -0.32660
  23   30982.4    322.8   0.228033620   2.42303   0.63972   0.59869  -1.28661
  24   32223.9    310.3   0.237984089   2.43134   0.62178   0.54859  -1.32052
  25   32531.6    307.4   0.075383866   0.76287  -0.00306   0.20870  -0.84812
  26   32857.2    304.3   0.136898392   1.37165  -0.50548   0.92807   0.50480
  27   33017.3    302.9   0.465690275   4.64335  -0.94206  -1.04533   1.63192
  28   33205.4    301.2   0.053857499   0.53396  -0.68279  -0.02184   0.25940
  29   33274.1    300.5   0.128629465   1.27265   0.69353   0.88830   0.05101
  30   33441.5    299.0   0.294575177   2.89992  -0.72987  -0.47910   1.46208
  31   33543.0    298.1   0.005785536   0.05678  -0.13162  -0.10882   0.16619
  32   33882.3    295.1   0.028715787   0.27901  -0.00496   0.50520  -0.15415
  33   34105.4    293.2   0.028279929   0.27298  -0.20829   0.08274   0.47197
  34   34284.6    291.7   0.106853139   1.02604  -0.65560  -0.54689   0.54510
  35   34403.8    290.7   0.415133849   3.97244  -1.45576  -0.23867   1.34023
  36   34561.1    289.3   0.002901824   0.02764  -0.10772  -0.06814   0.10674
  37   34786.5    287.5   0.121938986   1.15400   0.70966   0.71044  -0.38166
  38   35112.4    284.8   0.180536115   1.69269  -0.69698   0.39928   1.02347
  39   35192.6    284.2   0.157558809   1.47390  -0.67874  -0.19351   0.98781
  40   35395.1    282.5   0.002465246   0.02293   0.06691  -0.09364   0.09840
  41   35794.9    279.4   0.004638546   0.04266  -0.02228   0.20430   0.02070
  42   36495.5    274.0   0.022180099   0.20008   0.07445  -0.41234   0.15655
  43   36917.7    270.9   0.015973622   0.14244   0.06472  -0.22412  -0.29669
  44   37191.0    268.9   0.016770406   0.14845  -0.09291   0.31181   0.20639
  45   37310.5    268.0   0.187624819   1.65552  -0.56585  -0.63810   0.96341
  46   37543.9    266.4   0.035886020   0.31467  -0.46565   0.10499   0.29465
  47   37832.3    264.3   0.150078740   1.30597   0.63029  -0.53935  -0.78600
  48   37871.0    264.1   0.177413310   1.54225   0.67894  -0.41140  -0.95501
  49   38294.6    261.1   0.017931844   0.15416   0.27041  -0.01591  -0.28422
  50   38596.3    259.1   0.033768273   0.28803  -0.22203   0.18067   0.45397
  51   38752.9    258.0   0.068490624   0.58184  -0.45452  -0.39049   0.47199
  52   38893.2    257.1   0.073808085   0.62475   0.36563   0.26916  -0.64701
  53   39098.7    255.8   0.025397109   0.21384  -0.13164  -0.04946   0.44053
  54   39359.4    254.1   0.001741876   0.01457   0.03788   0.01111  -0.11407
  55   39425.2    253.6   0.000621151   0.00519  -0.01886   0.01686   0.06743
  56   39620.2    252.4   0.009029621   0.07503  -0.22956  -0.13161   0.07079
  57   39884.2    250.7   0.238616602   1.96959  -0.66561  -1.06751   0.62207
  58   39894.8    250.7   0.259832226   2.14414  -0.40111  -1.40766   0.04180
  59   40157.4    249.0   0.021940830   0.17987   0.30537  -0.14885  -0.25390

FINAL SINGLE POINT ENERGY     -4148.695220748681

DIPOLE MOMENT
-------------
                                X             Y             Z
Electronic contribution:      1.47591      24.27459      -4.97866
Nuclear contribution   :     -1.34788     -25.22054       4.72885
                        -----------------------------------------
Total Dipole Moment    :      0.12803      -0.94595      -0.24981
                        -----------------------------------------
Magnitude (a.u.)       :      0.98672
Magnitude (Debye)      :      2.50805

Rotational constants in cm-1:     0.002605     0.000147     0.000142
Rotational constants in MHz :    78.083639     4.398024     4.269244

                             ****ORCA TERMINATED NORMALLY****
TOTAL RUN TIME: 0 days 0 hours 24 minutes 59 seconds 873 msec
