                         Program Version 4.2.0 -  RELEASE  -
|  1> # ORCA input file
|  2> # SCF done       -185.346107365101          0.000972412705
|  3> ! CAM-B3LYP def2-SVP def2/J RIJCOSX Grid4 TightSCF
|  4> %maxcore 5000
|  5> %tddft
|  6>     Mode sTDDFT
|  7>     Ethresh 5.0
|  8>     maxcore 5000
|  9> end
| 10>
| 11> %pal
| 12>   nprocs 6
| 13>   end
| 14> * xyz 0 1
| 15>    C        0.55204        -3.51344         1.90435
| 16>    O        0.14700        -4.61900         2.18724
| 17>    C        1.58823        -2.77058         2.65202
| 18>    C        1.77318        -1.49890         2.08525
| 19>    C        2.71507        -0.64000         2.62972
| 20>    C        3.44934        -1.06566         3.73099
| 21>    C        3.25055        -2.32986         4.29179
| 22>    C        2.30993        -3.19454         3.74871
| 23>   Br        4.26094        -2.87801         5.79109
| 24>   Br        4.74000         0.10007         4.47076
| 25>    C        0.86076        -1.34981         0.95396
| 26>    C        0.73127        -0.21450         0.20036
| 27>    C        1.48003         0.96464         0.41606
| 28>    N        2.05463         1.94990         0.53765
| 29>    C       -0.15590        -0.02361        -0.88191
| 30>    N       -0.84322         0.22279        -1.76768
| 31>    C        0.13584        -2.60524         0.80244
| 32>    C       -0.75366        -2.86315        -0.20311
| 33>    C       -1.45442        -4.05429        -0.49272
| 34>    O       -1.29404        -5.19047         0.22072
| 35>    C       -2.06599        -6.15389        -0.29212
| 36>    C       -2.76430        -5.61841        -1.39171
| 37>    C       -2.36616        -4.28179        -1.51744
| 38>    N       -3.71973        -6.27332        -2.21300
| 39>    O       -4.08465        -7.38058        -1.88141
| 40>    O       -4.11034        -5.66599        -3.18762
| 41>    C       -2.03052        -7.44645         0.28691
| 42>    C       -1.33103        -7.63793         1.44068
| 43>    C       -1.17741        -8.88844         2.07988
| 44>    N       -0.58345        -9.03780         3.31148
| 45>    C       -0.12822        -7.97549         4.17674
| 46>    C       -1.29107        -7.26844         4.86743
| 47>    C       -0.51960       -10.38764         3.70767
| 48>    O       -0.04441       -10.76646         4.75566
| 49>    C       -1.11770       -11.10342         2.59873
| 50>    C       -1.51497       -10.16348         1.62418
| 51>    C       -2.06930       -10.90091         0.50815
| 52>    O       -2.53949       -10.54719        -0.54858
| 53>    N       -1.96464       -12.25965         0.89537
| 54>    C       -2.46285       -13.28484         0.00946
| 55>    C       -1.38168       -13.77539        -0.95162
| 56>    C       -1.38722       -12.39032         2.13229
| 57>    C       -1.07929       -13.55686         2.88712
| 58>    C       -1.03936       -14.84860         2.49031
| 59>    C       -0.69332       -15.94580         3.35111
| 60>    C       -0.67168       -15.89613         4.75747
| 61>    N       -0.34873       -16.92987         5.49451
| 62>    C       -0.07630       -18.08231         4.87853
| 63>    N       -0.07125       -18.24332         3.55112
| 64>    C       -0.35857       -17.19982         2.81172
| 65>    C        0.29040       -19.18506         5.73228
| 66>    C        0.46209       -20.48350         5.40439
| 67>    C        1.21868       -21.38235         6.33274
| 68>    O        1.46269       -21.18647         7.49580
| 69>    C        1.64963       -22.51598         5.48725
| 70>    C        1.08022       -22.39528         4.20484
| 71>    C        0.20274       -21.22810         4.18162
| 72>    C       -0.81685       -21.01799         3.30090
| 73>    C       -1.82756       -20.04556         3.47722
| 74>    N       -2.73505       -19.35410         3.59972
| 75>    C       -1.04335       -21.81938         2.16050
| 76>    N       -1.24870       -22.43032         1.21191
| 77>    C        1.37832       -23.33135         3.22829
| 78>    C        2.23264       -24.37933         3.55013
| 79>    C        2.78030       -24.50186         4.83071
| 80>    C        2.49024       -23.56202         5.81096
| 81>   Br        3.92673       -25.94519         5.24217
| 82>   Br        2.65494       -25.64830         2.21664
| 83>    H        2.89865         0.34289         2.22801
| 84>    H        2.14773        -4.17389         4.17147
| 85>    H       -0.96416        -2.07360        -0.91098
| 86>    H       -2.70850        -3.58285        -2.25337
| 87>    H       -2.56842        -8.24170        -0.21013
| 88>    H       -0.85756        -6.77899         1.89772
| 89>    H        0.46454        -7.26097         3.59949
| 90>    H        0.51243        -8.45132         4.92445
| 91>    H       -1.94547        -6.79628         4.13846
| 92>    H       -0.90823        -6.50373         5.53710
| 93>    H       -1.87087        -7.98097         5.44916
| 94>    H       -3.26657       -12.82253        -0.57179
| 95>    H       -2.88270       -14.10058         0.60142
| 96>    H       -1.07155       -12.95836        -1.59799
| 97>    H       -1.77500       -14.57654        -1.57115
| 98>    H       -0.50703       -14.13829        -0.41530
| 99>    H       -0.78924       -13.31240         3.90129
|100>    H       -1.22944       -15.12629         1.46436
|101>    H       -0.93281       -14.99735         5.29990
|102>    H       -0.32609       -17.35689         1.73992
|103>    H        0.52879       -18.90140         6.75088
|104>    H        0.97728       -23.26302         2.22976
|105>    H        2.90977       -23.64561         6.80156
|106> *
|107>
|108>                          ****END OF INPUT****

CARTESIAN COORDINATES (ANGSTROEM)
---------------------------------
  C      0.552040   -3.513440    1.904350
  O      0.147000   -4.619000    2.187240
  C      1.588230   -2.770580    2.652020
  C      1.773180   -1.498900    2.085250
  C      2.715070   -0.640000    2.629720
  C      3.449340   -1.065660    3.730990
  C      3.250550   -2.329860    4.291790
  C      2.309930   -3.194540    3.748710
  Br     4.260940   -2.878010    5.791090
  Br     4.740000    0.100070    4.470760
  C      0.860760   -1.349810    0.953960
  C      0.731270   -0.214500    0.200360
  C      1.480030    0.964640    0.416060
  N      2.054630    1.949900    0.537650
  C     -0.155900   -0.023610   -0.881910
  N     -0.843220    0.222790   -1.767680
  C      0.135840   -2.605240    0.802440
  C     -0.753660   -2.863150   -0.203110
  C     -1.454420   -4.054290   -0.492720
  O     -1.294040   -5.190470    0.220720
  C     -2.065990   -6.153890   -0.292120
  C     -2.764300   -5.618410   -1.391710
  C     -2.366160   -4.281790   -1.517440
  N     -3.719730   -6.273320   -2.213000
  O     -4.084650   -7.380580   -1.881410
  O     -4.110340   -5.665990   -3.187620
  C     -2.030520   -7.446450    0.286910
  C     -1.331030   -7.637930    1.440680
  C     -1.177410   -8.888440    2.079880
  N     -0.583450   -9.037800    3.311480
  C     -0.128220   -7.975490    4.176740
  C     -1.291070   -7.268440    4.867430
  C     -0.519600  -10.387640    3.707670
  O     -0.044410  -10.766460    4.755660
  C     -1.117700  -11.103420    2.598730
  C     -1.514970  -10.163480    1.624180
  C     -2.069300  -10.900910    0.508150
  O     -2.539490  -10.547190   -0.548580
  N     -1.964640  -12.259650    0.895370
  C     -2.462850  -13.284840    0.009460
  C     -1.381680  -13.775390   -0.951620
  C     -1.387220  -12.390320    2.132290
  C     -1.079290  -13.556860    2.887120
  C     -1.039360  -14.848600    2.490310
  C     -0.693320  -15.945800    3.351110
  C     -0.671680  -15.896130    4.757470
  N     -0.348730  -16.929870    5.494510
  C     -0.076300  -18.082310    4.878530
  N     -0.071250  -18.243320    3.551120
  C     -0.358570  -17.199820    2.811720
  C      0.290400  -19.185060    5.732280
  C      0.462090  -20.483500    5.404390
  C      1.218680  -21.382350    6.332740
  O      1.462690  -21.186470    7.495800
  C      1.649630  -22.515980    5.487250
  C      1.080220  -22.395280    4.204840
  C      0.202740  -21.228100    4.181620
  C     -0.816850  -21.017990    3.300900
  C     -1.827560  -20.045560    3.477220
  N     -2.735050  -19.354100    3.599720
  C     -1.043350  -21.819380    2.160500
  N     -1.248700  -22.430320    1.211910
  C      1.378320  -23.331350    3.228290
  C      2.232640  -24.379330    3.550130
  C      2.780300  -24.501860    4.830710
  C      2.490240  -23.562020    5.810960
  Br     3.926730  -25.945190    5.242170
  Br     2.654940  -25.648300    2.216640
  H      2.898650    0.342890    2.228010
  H      2.147730   -4.173890    4.171470
  H     -0.964160   -2.073600   -0.910980
  H     -2.708500   -3.582850   -2.253370
  H     -2.568420   -8.241700   -0.210130
  H     -0.857560   -6.778990    1.897720
  H      0.464540   -7.260970    3.599490
  H      0.512430   -8.451320    4.924450
  H     -1.945470   -6.796280    4.138460
  H     -0.908230   -6.503730    5.537100
  H     -1.870870   -7.980970    5.449160
  H     -3.266570  -12.822530   -0.571790
  H     -2.882700  -14.100580    0.601420
  H     -1.071550  -12.958360   -1.597990
  H     -1.775000  -14.576540   -1.571150
  H     -0.507030  -14.138290   -0.415300
  H     -0.789240  -13.312400    3.901290
  H     -1.229440  -15.126290    1.464360
  H     -0.932810  -14.997350    5.299900
  H     -0.326090  -17.356890    1.739920
  H      0.528790  -18.901400    6.750880
  H      0.977280  -23.263020    2.229760
  H      2.909770  -23.645610    6.801560

 Total Charge           Charge          ....    0
 Multiplicity           Mult            ....    1
 Number of Electrons    NEL             ....  570
 Basis Dimension        Dim             .... 1139

ORBITAL ENERGIES
----------------

  NO   OCC          E(Eh)            E(eV)
   0   2.0000    -482.886836    -13140.0188
   1   2.0000    -482.884341    -13139.9509
   2   2.0000    -482.881302    -13139.8682
   3   2.0000    -482.880654    -13139.8506
   4   2.0000     -62.564451     -1702.4653
   5   2.0000     -62.561950     -1702.3972
   6   2.0000     -62.558923     -1702.3148
   7   2.0000     -62.558303     -1702.2980
   8   2.0000     -56.398407     -1534.6787
   9   2.0000     -56.395922     -1534.6110
  10   2.0000     -56.395748     -1534.6063
  11   2.0000     -56.395640     -1534.6034
  12   2.0000     -56.393237     -1534.5380
  13   2.0000     -56.393138     -1534.5353
  14   2.0000     -56.392875     -1534.5281
  15   2.0000     -56.392263     -1534.5115
  16   2.0000     -56.390213     -1534.4557
  17   2.0000     -56.390126     -1534.4533
  18   2.0000     -56.389591     -1534.4388
  19   2.0000     -56.389495     -1534.4362
  20   2.0000     -19.329386      -525.9793
  21   2.0000     -19.251756      -523.8669
  22   2.0000     -19.251004      -523.8465
  23   2.0000     -19.238758      -523.5132
  24   2.0000     -19.231290      -523.3100
  25   2.0000     -19.207880      -522.6730
  26   2.0000     -19.200116      -522.4617
  27   2.0000     -14.662912      -398.9981
  28   2.0000     -14.468073      -393.6963
  29   2.0000     -14.463408      -393.5693
  30   2.0000     -14.436965      -392.8498
  31   2.0000     -14.435303      -392.8046
  32   2.0000     -14.433162      -392.7463
  33   2.0000     -14.430278      -392.6678
  34   2.0000     -14.427457      -392.5911
  35   2.0000     -14.421621      -392.4323
  36   2.0000     -10.391848      -282.7766
  37   2.0000     -10.390141      -282.7301
  38   2.0000     -10.388921      -282.6969
  39   2.0000     -10.384775      -282.5841
  40   2.0000     -10.381833      -282.5041
  41   2.0000     -10.375314      -282.3267
  42   2.0000     -10.366028      -282.0740
  43   2.0000     -10.364751      -282.0392
  44   2.0000     -10.364157      -282.0230
  45   2.0000     -10.363155      -281.9958
  46   2.0000     -10.361319      -281.9458
  47   2.0000     -10.360166      -281.9145
  48   2.0000     -10.358872      -281.8792
  49   2.0000     -10.357370      -281.8384
  50   2.0000     -10.355581      -281.7897
  51   2.0000     -10.352379      -281.7026
  52   2.0000     -10.351187      -281.6701
  53   2.0000     -10.349864      -281.6341
  54   2.0000     -10.344328      -281.4835
  55   2.0000     -10.343493      -281.4608
  56   2.0000     -10.341864      -281.4164
  57   2.0000     -10.336990      -281.2838
  58   2.0000     -10.332388      -281.1586
  59   2.0000     -10.329869      -281.0900
  60   2.0000     -10.328509      -281.0530
  61   2.0000     -10.328109      -281.0421
  62   2.0000     -10.325654      -280.9753
  63   2.0000     -10.325501      -280.9712
  64   2.0000     -10.324461      -280.9429
  65   2.0000     -10.323389      -280.9137
  66   2.0000     -10.322275      -280.8834
  67   2.0000     -10.319502      -280.8079
  68   2.0000     -10.319179      -280.7991
  69   2.0000     -10.318050      -280.7684
  70   2.0000     -10.317928      -280.7651
  71   2.0000     -10.317243      -280.7464
  72   2.0000     -10.316491      -280.7260
  73   2.0000     -10.315879      -280.7093
  74   2.0000     -10.315234      -280.6918
  75   2.0000     -10.314452      -280.6705
  76   2.0000     -10.313373      -280.6412
  77   2.0000     -10.312159      -280.6081
  78   2.0000     -10.310750      -280.5698
  79   2.0000     -10.310312      -280.5579
  80   2.0000     -10.278565      -279.6940
  81   2.0000     -10.275943      -279.6226
  82   2.0000     -10.273286      -279.5503
  83   2.0000     -10.269455      -279.4461
  84   2.0000      -8.793779      -239.2909
  85   2.0000      -8.791272      -239.2227
  86   2.0000      -8.788260      -239.1407
  87   2.0000      -8.787652      -239.1242
  88   2.0000      -6.629943      -180.4099
  89   2.0000      -6.627487      -180.3431
  90   2.0000      -6.624414      -180.2595
  91   2.0000      -6.623839      -180.2438
  92   2.0000      -6.615894      -180.0276
  93   2.0000      -6.615087      -180.0057
  94   2.0000      -6.613354      -179.9585
  95   2.0000      -6.612565      -179.9371
  96   2.0000      -6.610365      -179.8772
  97   2.0000      -6.609756      -179.8606
  98   2.0000      -6.609591      -179.8561
  99   2.0000      -6.608954      -179.8388
 100   2.0000      -2.745821       -74.7176
 101   2.0000      -2.743365       -74.6507
 102   2.0000      -2.742069       -74.6155
 103   2.0000      -2.741468       -74.5991
 104   2.0000      -2.740295       -74.5672
 105   2.0000      -2.739711       -74.5513
 106   2.0000      -2.739582       -74.5478
 107   2.0000      -2.738964       -74.5310
 108   2.0000      -2.736558       -74.4655
 109   2.0000      -2.735976       -74.4497
 110   2.0000      -2.735933       -74.4485
 111   2.0000      -2.735330       -74.4321
 112   2.0000      -2.730280       -74.2947
 113   2.0000      -2.730266       -74.2943
 114   2.0000      -2.727731       -74.2253
 115   2.0000      -2.727716       -74.2249
 116   2.0000      -2.724773       -74.1448
 117   2.0000      -2.724747       -74.1441
 118   2.0000      -2.724138       -74.1276
 119   2.0000      -2.724115       -74.1269
 120   2.0000      -1.334471       -36.3128
 121   2.0000      -1.258106       -34.2348
 122   2.0000      -1.154305       -31.4102
 123   2.0000      -1.153233       -31.3811
 124   2.0000      -1.148167       -31.2432
 125   2.0000      -1.147595       -31.2276
 126   2.0000      -1.138919       -30.9916
 127   2.0000      -1.107846       -30.1460
 128   2.0000      -1.077131       -29.3102
 129   2.0000      -1.067709       -29.0538
 130   2.0000      -1.039071       -28.2746
 131   2.0000      -1.031909       -28.0797
 132   2.0000      -1.022720       -27.8296
 133   2.0000      -1.015606       -27.6361
 134   2.0000      -1.010799       -27.5052
 135   2.0000      -1.006121       -27.3779
 136   2.0000      -0.998612       -27.1736
 137   2.0000      -0.991322       -26.9752
 138   2.0000      -0.984053       -26.7774
 139   2.0000      -0.968000       -26.3406
 140   2.0000      -0.956342       -26.0234
 141   2.0000      -0.951660       -25.8960
 142   2.0000      -0.940748       -25.5991
 143   2.0000      -0.933477       -25.4012
 144   2.0000      -0.927098       -25.2276
 145   2.0000      -0.924367       -25.1533
 146   2.0000      -0.919772       -25.0283
 147   2.0000      -0.918776       -25.0012
 148   2.0000      -0.912765       -24.8376
 149   2.0000      -0.895328       -24.3631
 150   2.0000      -0.889451       -24.2032
 151   2.0000      -0.880452       -23.9583
 152   2.0000      -0.864624       -23.5276
 153   2.0000      -0.860222       -23.4078
 154   2.0000      -0.859006       -23.3747
 155   2.0000      -0.857903       -23.3447
 156   2.0000      -0.842159       -22.9163
 157   2.0000      -0.830806       -22.6074
 158   2.0000      -0.818684       -22.2775
 159   2.0000      -0.809319       -22.0227
 160   2.0000      -0.788033       -21.4435
 161   2.0000      -0.782731       -21.2992
 162   2.0000      -0.776547       -21.1309
 163   2.0000      -0.771701       -20.9991
 164   2.0000      -0.770348       -20.9622
 165   2.0000      -0.769252       -20.9324
 166   2.0000      -0.749462       -20.3939
 167   2.0000      -0.738006       -20.0822
 168   2.0000      -0.730469       -19.8771
 169   2.0000      -0.721371       -19.6295
 170   2.0000      -0.717305       -19.5189
 171   2.0000      -0.710384       -19.3305
 172   2.0000      -0.707181       -19.2434
 173   2.0000      -0.701751       -19.0956
 174   2.0000      -0.698026       -18.9942
 175   2.0000      -0.696780       -18.9604
 176   2.0000      -0.683544       -18.6002
 177   2.0000      -0.682112       -18.5612
 178   2.0000      -0.668388       -18.1878
 179   2.0000      -0.662321       -18.0227
 180   2.0000      -0.653778       -17.7902
 181   2.0000      -0.648128       -17.6365
 182   2.0000      -0.645342       -17.5606
 183   2.0000      -0.643806       -17.5189
 184   2.0000      -0.632591       -17.2137
 185   2.0000      -0.627092       -17.0640
 186   2.0000      -0.625477       -17.0201
 187   2.0000      -0.615578       -16.7507
 188   2.0000      -0.605911       -16.4877
 189   2.0000      -0.602206       -16.3869
 190   2.0000      -0.600023       -16.3275
 191   2.0000      -0.597818       -16.2675
 192   2.0000      -0.596733       -16.2379
 193   2.0000      -0.593913       -16.1612
 194   2.0000      -0.588272       -16.0077
 195   2.0000      -0.584723       -15.9111
 196   2.0000      -0.581018       -15.8103
 197   2.0000      -0.577853       -15.7242
 198   2.0000      -0.575604       -15.6630
 199   2.0000      -0.572874       -15.5887
 200   2.0000      -0.563268       -15.3273
 201   2.0000      -0.561188       -15.2707
 202   2.0000      -0.558402       -15.1949
 203   2.0000      -0.554507       -15.0889
 204   2.0000      -0.553146       -15.0519
 205   2.0000      -0.552614       -15.0374
 206   2.0000      -0.549613       -14.9557
 207   2.0000      -0.548218       -14.9178
 208   2.0000      -0.543585       -14.7917
 209   2.0000      -0.541271       -14.7287
 210   2.0000      -0.540079       -14.6963
 211   2.0000      -0.538504       -14.6534
 212   2.0000      -0.535225       -14.5642
 213   2.0000      -0.534282       -14.5386
 214   2.0000      -0.528260       -14.3747
 215   2.0000      -0.525815       -14.3081
 216   2.0000      -0.521845       -14.2001
 217   2.0000      -0.516451       -14.0533
 218   2.0000      -0.515875       -14.0377
 219   2.0000      -0.514617       -14.0035
 220   2.0000      -0.514277       -13.9942
 221   2.0000      -0.510036       -13.8788
 222   2.0000      -0.504871       -13.7382
 223   2.0000      -0.504379       -13.7248
 224   2.0000      -0.496944       -13.5225
 225   2.0000      -0.492531       -13.4025
 226   2.0000      -0.489622       -13.3233
 227   2.0000      -0.489098       -13.3090
 228   2.0000      -0.481668       -13.1069
 229   2.0000      -0.479214       -13.0401
 230   2.0000      -0.477716       -12.9993
 231   2.0000      -0.474557       -12.9134
 232   2.0000      -0.472045       -12.8450
 233   2.0000      -0.469469       -12.7749
 234   2.0000      -0.468366       -12.7449
 235   2.0000      -0.465811       -12.6754
 236   2.0000      -0.465130       -12.6568
 237   2.0000      -0.464165       -12.6306
 238   2.0000      -0.460014       -12.5176
 239   2.0000      -0.458500       -12.4764
 240   2.0000      -0.457545       -12.4504
 241   2.0000      -0.456603       -12.4248
 242   2.0000      -0.452687       -12.3182
 243   2.0000      -0.451800       -12.2941
 244   2.0000      -0.446248       -12.1430
 245   2.0000      -0.443770       -12.0756
 246   2.0000      -0.443504       -12.0683
 247   2.0000      -0.442411       -12.0386
 248   2.0000      -0.438779       -11.9398
 249   2.0000      -0.436076       -11.8662
 250   2.0000      -0.434605       -11.8262
 251   2.0000      -0.434099       -11.8124
 252   2.0000      -0.425952       -11.5907
 253   2.0000      -0.425663       -11.5829
 254   2.0000      -0.424453       -11.5500
 255   2.0000      -0.418208       -11.3800
 256   2.0000      -0.410200       -11.1621
 257   2.0000      -0.408802       -11.1241
 258   2.0000      -0.408371       -11.1123
 259   2.0000      -0.405315       -11.0292
 260   2.0000      -0.399592       -10.8735
 261   2.0000      -0.398002       -10.8302
 262   2.0000      -0.397350       -10.8124
 263   2.0000      -0.395005       -10.7486
 264   2.0000      -0.393910       -10.7188
 265   2.0000      -0.388813       -10.5801
 266   2.0000      -0.387443       -10.5428
 267   2.0000      -0.378682       -10.3045
 268   2.0000      -0.364699        -9.9240
 269   2.0000      -0.362185        -9.8556
 270   2.0000      -0.361069        -9.8252
 271   2.0000      -0.360040        -9.7972
 272   2.0000      -0.354211        -9.6386
 273   2.0000      -0.353427        -9.6172
 274   2.0000      -0.348644        -9.4871
 275   2.0000      -0.345554        -9.4030
 276   2.0000      -0.343980        -9.3602
 277   2.0000      -0.342357        -9.3160
 278   2.0000      -0.340726        -9.2716
 279   2.0000      -0.328961        -8.9515
 280   2.0000      -0.324014        -8.8169
 281   2.0000      -0.321518        -8.7490
 282   2.0000      -0.312964        -8.5162
 283   2.0000      -0.305407        -8.3105
 284   2.0000      -0.251770        -6.8510
 285   0.0000      -0.124483        -3.3874
 286   0.0000      -0.105504        -2.8709
 287   0.0000      -0.091473        -2.4891
 288   0.0000      -0.080506        -2.1907
 289   0.0000      -0.073142        -1.9903

MULLIKEN ATOMIC CHARGES
-----------------------
   0 C :    0.148001
   1 O :   -0.124691
   2 C :   -0.018036
   3 C :    0.040213
   4 C :   -0.004171
   5 C :   -0.027121
   6 C :   -0.014794
   7 C :   -0.020936
   8 Br:    0.021028
   9 Br:    0.029503
  10 C :    0.308935
  11 C :   -0.344164
  12 C :   -0.186563
  13 N :    0.165971
  14 C :   -0.179175
  15 N :    0.156358
  16 C :   -0.064440
  17 C :   -0.018493
  18 C :    0.155044
  19 O :   -0.158935
  20 C :    0.125162
  21 C :    0.156122
  22 C :   -0.046538
  23 N :    0.262712
  24 O :   -0.223021
  25 O :   -0.236947
  26 C :   -0.066452
  27 C :   -0.014159
  28 C :    0.148442
  29 N :   -0.263005
  30 C :    0.090585
  31 C :    0.007524
  32 C :    0.152041
  33 O :   -0.189816
  34 C :   -0.050175
  35 C :   -0.039637
  36 C :    0.151554
  37 O :   -0.179836
  38 N :   -0.267170
  39 C :    0.103185
  40 C :    0.002185
  41 C :    0.111484
  42 C :   -0.011979
  43 C :    0.013834
  44 C :    0.027769
  45 C :    0.047299
  46 N :   -0.035945
  47 C :   -0.074212
  48 N :   -0.083037
  49 C :    0.051985
  50 C :    0.087608
  51 C :   -0.082996
  52 C :    0.140129
  53 O :   -0.118778
  54 C :   -0.008629
  55 C :    0.026904
  56 C :    0.273283
  57 C :   -0.280076
  58 C :   -0.183810
  59 N :    0.163284
  60 C :   -0.194658
  61 N :    0.164426
  62 C :   -0.008811
  63 C :   -0.021709
  64 C :   -0.017277
  65 C :   -0.016909
  66 Br:    0.018005
  67 Br:    0.024958
  68 H :    0.007864
  69 H :    0.000697
  70 H :    0.012301
  71 H :    0.024634
  72 H :    0.049291
  73 H :    0.015976
  74 H :    0.033781
  75 H :    0.043108
  76 H :    0.017341
  77 H :    0.023998
  78 H :    0.027876
  79 H :    0.045331
  80 H :    0.029067
  81 H :    0.035170
  82 H :    0.026849
  83 H :    0.015195
  84 H :    0.016285
  85 H :   -0.007459
  86 H :    0.024531
  87 H :    0.011190
  88 H :    0.028324
  89 H :    0.010874
  90 H :    0.009341
Sum of atomic charges:   -0.0000000

LOEWDIN ATOMIC CHARGES
----------------------
   0 C :    0.084638
   1 O :   -0.137982
   2 C :   -0.043384
   3 C :   -0.012579
   4 C :   -0.005066
   5 C :   -0.117587
   6 C :   -0.121383
   7 C :    0.005063
   8 Br:    0.142489
   9 Br:    0.146892
  10 C :    0.073074
  11 C :   -0.128355
  12 C :   -0.019696
  13 N :   -0.037852
  14 C :   -0.022357
  15 N :   -0.039602
  16 C :   -0.089120
  17 C :    0.051042
  18 C :    0.017315
  19 O :    0.055759
  20 C :    0.084400
  21 C :   -0.072829
  22 C :    0.011822
  23 N :    0.283223
  24 O :   -0.190918
  25 O :   -0.201784
  26 C :   -0.009284
  27 C :    0.002865
  28 C :    0.070271
  29 N :   -0.000862
  30 C :    0.035773
  31 C :   -0.058981
  32 C :    0.077281
  33 O :   -0.193837
  34 C :   -0.112384
  35 C :   -0.107873
  36 C :    0.083771
  37 O :   -0.174384
  38 N :   -0.001720
  39 C :    0.036653
  40 C :   -0.062653
  41 C :    0.075605
  42 C :   -0.015840
  43 C :   -0.002421
  44 C :   -0.057104
  45 C :    0.065818
  46 N :   -0.057916
  47 C :    0.018237
  48 N :   -0.057602
  49 C :    0.062139
  50 C :    0.058068
  51 C :   -0.055249
  52 C :    0.085790
  53 O :   -0.120206
  54 C :   -0.046700
  55 C :   -0.006096
  56 C :    0.066408
  57 C :   -0.105830
  58 C :   -0.017126
  59 N :   -0.050668
  60 C :   -0.019719
  61 N :   -0.038862
  62 C :   -0.009528
  63 C :   -0.116333
  64 C :   -0.124015
  65 C :    0.009485
  66 Br:    0.140561
  67 Br:    0.145237
  68 H :    0.045149
  69 H :    0.043791
  70 H :    0.056029
  71 H :    0.053278
  72 H :    0.047477
  73 H :    0.039362
  74 H :    0.025296
  75 H :    0.037469
  76 H :    0.023494
  77 H :    0.031637
  78 H :    0.031049
  79 H :    0.039691
  80 H :    0.025085
  81 H :    0.035363
  82 H :    0.032509
  83 H :    0.019174
  84 H :    0.047133
  85 H :    0.033566
  86 H :    0.032156
  87 H :    0.028530
  88 H :    0.054312
  89 H :    0.044947
  90 H :    0.047506

  Mayer bond orders larger than 0.100000
B(  0-C ,  1-O ) :   2.2089 B(  0-C ,  2-C ) :   0.9486 B(  0-C , 16-C ) :   0.9306
B(  2-C ,  3-C ) :   1.3260 B(  2-C ,  7-C ) :   1.3660 B(  3-C ,  4-C ) :   1.3632
B(  3-C , 10-C ) :   0.9927 B(  4-C ,  5-C ) :   1.3736 B(  4-C , 68-H ) :   0.9782
B(  5-C ,  6-C ) :   1.4150 B(  5-C ,  9-Br) :   1.0630 B(  6-C ,  7-C ) :   1.3593
B(  6-C ,  8-Br) :   1.0374 B(  7-C , 69-H ) :   1.0085 B( 10-C , 11-C ) :   1.6449
B( 10-C , 16-C ) :   1.0732 B( 11-C , 12-C ) :   1.1419 B( 11-C , 14-C ) :   1.1365
B( 12-C , 13-N ) :   2.9695 B( 14-C , 15-N ) :   2.9568 B( 16-C , 17-C ) :   1.5491
B( 17-C , 18-C ) :   1.2030 B( 17-C , 70-H ) :   0.9260 B( 18-C , 19-O ) :   1.1230
B( 18-C , 22-C ) :   1.3307 B( 19-O , 20-C ) :   1.2180 B( 20-C , 21-C ) :   1.2859
B( 20-C , 26-C ) :   1.1806 B( 21-C , 22-C ) :   1.2835 B( 21-C , 23-N ) :   0.9259
B( 22-C , 71-H ) :   1.0249 B( 23-N , 24-O ) :   1.5344 B( 23-N , 25-O ) :   1.5410
B( 24-O , 25-O ) :   0.2744 B( 26-C , 27-C ) :   1.5476 B( 26-C , 72-H ) :   0.9502
B( 27-C , 28-C ) :   1.1327 B( 27-C , 73-H ) :   0.9575 B( 28-C , 29-N ) :   1.1682
B( 28-C , 35-C ) :   1.3406 B( 29-N , 30-C ) :   0.9386 B( 29-N , 32-C ) :   1.0406
B( 30-C , 31-C ) :   1.1218 B( 30-C , 74-H ) :   0.9466 B( 30-C , 75-H ) :   0.9287
B( 31-C , 76-H ) :   0.9677 B( 31-C , 77-H ) :   0.9675 B( 31-C , 78-H ) :   0.9647
B( 32-C , 33-O ) :   2.1332 B( 32-C , 34-C ) :   0.9738 B( 34-C , 35-C ) :   1.2539
B( 34-C , 41-C ) :   1.3362 B( 35-C , 36-C ) :   0.9723 B( 36-C , 37-O ) :   2.0822
B( 36-C , 38-N ) :   1.0401 B( 38-N , 39-C ) :   0.9384 B( 38-N , 41-C ) :   1.1831
B( 39-C , 40-C ) :   1.1164 B( 39-C , 79-H ) :   0.9280 B( 39-C , 80-H ) :   0.9510
B( 40-C , 81-H ) :   0.9605 B( 40-C , 82-H ) :   0.9691 B( 40-C , 83-H ) :   0.9663
B( 41-C , 42-C ) :   1.1749 B( 42-C , 43-C ) :   1.6220 B( 42-C , 84-H ) :   0.9422
B( 43-C , 44-C ) :   1.0742 B( 43-C , 85-H ) :   0.9817 B( 44-C , 45-C ) :   1.3010
B( 44-C , 49-C ) :   1.2953 B( 45-C , 46-N ) :   1.5836 B( 45-C , 86-H ) :   0.9809
B( 46-N , 47-C ) :   1.5115 B( 47-C , 48-N ) :   1.4620 B( 47-C , 50-C ) :   1.0304
B( 48-N , 49-C ) :   1.5543 B( 49-C , 87-H ) :   0.9882 B( 50-C , 51-C ) :   1.6863
B( 50-C , 88-H ) :   0.9513 B( 51-C , 52-C ) :   0.9238 B( 51-C , 56-C ) :   1.0067
B( 52-C , 53-O ) :   2.2934 B( 52-C , 54-C ) :   0.9188 B( 54-C , 55-C ) :   1.3259
B( 54-C , 65-C ) :   1.3701 B( 55-C , 56-C ) :   1.0073 B( 55-C , 62-C ) :   1.3654
B( 56-C , 57-C ) :   1.7112 B( 57-C , 58-C ) :   1.1500 B( 57-C , 60-C ) :   1.1327
B( 58-C , 59-N ) :   2.9821 B( 60-C , 61-N ) :   2.9908 B( 62-C , 63-C ) :   1.3749
B( 62-C , 89-H ) :   0.9824 B( 63-C , 64-C ) :   1.4145 B( 63-C , 67-Br) :   1.0539
B( 64-C , 65-C ) :   1.3634 B( 64-C , 66-Br) :   1.0356 B( 65-C , 90-H ) :   1.0072

-----------------------------------------------------------------------------
         ABSORPTION SPECTRUM VIA TRANSITION ELECTRIC DIPOLE MOMENTS
-----------------------------------------------------------------------------
State   Energy  Wavelength   fosc         T2         TX        TY        TZ
        (cm-1)    (nm)                  (au**2)     (au)      (au)      (au)
-----------------------------------------------------------------------------
   0   12940.0    772.8   1.053821239  26.81066   0.38449   5.13915  -0.50193
   1   19167.3    521.7   0.086383668   1.48370  -0.82888   0.76994  -0.45149
   2   21715.5    460.5   0.085074268   1.28975  -0.50265  -1.00344  -0.17381
   3   23528.2    425.0   0.024068194   0.33677  -0.17402   0.39000  -0.39291
   4   23930.3    417.9   0.366343543   5.03983  -0.85267  -2.07563   0.06728
   5   24989.0    400.2   0.011105724   0.14631   0.02113  -0.33336   0.18636
   6   25466.6    392.7   0.013920873   0.17996  -0.24769  -0.34166   0.04333
   7   26691.2    374.7   0.034414049   0.42447  -0.26308   0.42234  -0.42057
   8   27014.7    370.2   0.012713566   0.15493  -0.01459  -0.34850  -0.18240
   9   27789.4    359.8   0.102787987   1.21769   0.26477   1.06213  -0.13957
  10   27838.1    359.2   0.001630950   0.01929  -0.03347   0.12929  -0.03809
  11   28188.9    354.7   0.095187729   1.11168   0.64628   0.02547   0.83267
  12   28934.8    345.6   0.491765543   5.59517   0.85488  -2.16735   0.40861
  13   29465.9    339.4   0.186837615   2.08747  -0.18736  -1.41609  -0.21694
  14   29761.3    336.0   0.258000546   2.85394  -0.96336   0.82314  -1.11727
  15   30201.6    331.1   0.015810933   0.17235   0.25085   0.23231  -0.23549
  16   30546.8    327.4   0.001251958   0.01349   0.03293  -0.10378   0.04048
  17   31234.1    320.2   0.256536917   2.70394  -1.04935  -0.11288  -1.26097
  18   31946.6    313.0   0.006771199   0.06978  -0.18389   0.04074  -0.18520
  19   32223.5    310.3   0.170274578   1.73961  -0.87726   0.37930  -0.90893
  20   32701.3    305.8   0.033247628   0.33471  -0.43053  -0.06299  -0.38130
  21   33370.6    299.7   0.023393777   0.23079  -0.20430   0.43177  -0.05121
  22   33699.1    296.7   0.050960226   0.49784   0.42067  -0.49906   0.26799
  23   33879.8    295.2   0.002808625   0.02729  -0.10320  -0.03337  -0.12461
  24   34134.5    293.0   0.253137496   2.44140   0.99608  -0.76910   0.92613
  25   34419.7    290.5   0.538389753   5.14950  -0.60440   1.36011  -1.71298
  26   34541.7    289.5   0.074240842   0.70758  -0.20523   0.80252  -0.14635
  27   35011.6    285.6   0.040977316   0.38531  -0.02036   0.62007  -0.02025
  28   35286.6    283.4   0.319724347   2.98292  -1.13261   0.81693  -1.01625
  29   35408.4    282.4   0.041649103   0.38724  -0.41949   0.44610  -0.11071
  30   35931.2    278.3   0.014256212   0.13062   0.20328   0.08776   0.28565
  31   36012.3    277.7   0.016778118   0.15338   0.33789   0.10620   0.16712
  32   36133.0    276.8   0.040221446   0.36646  -0.32589   0.13063  -0.49314
  33   36553.3    273.6   0.000045033   0.00041   0.00502  -0.01576  -0.01149
  34   36904.6    271.0   0.195469659   1.74371   0.30223  -1.20933  -0.43577
  35   37309.2    268.0   0.286510461   2.52813   1.06086  -0.23377   1.16106
  36   37751.2    264.9   0.007790920   0.06794   0.18966  -0.17880  -0.00024
  37   37967.2    263.4   0.128975067   1.11834   0.21549   1.02839   0.11967
  38   38128.0    262.3   0.004451362   0.03843   0.14396  -0.09958  -0.08828
  39   38288.4    261.2   0.026269833   0.22587   0.21309   0.14833  -0.39808
  40   38446.5    260.1   0.025498743   0.21834  -0.36005  -0.03898  -0.29527
  41   38560.6    259.3   0.047182796   0.40282  -0.20760  -0.44275  -0.40459
  42   38897.7    257.1   0.243275311   2.05897  -1.18442  -0.40102  -0.70377
  43   38916.5    257.0   0.231150922   1.95541  -0.49644   0.46810  -1.22059
  44   39273.5    254.6   0.065510136   0.54914  -0.50521   0.27780  -0.46554
  45   39401.3    253.8   0.037095611   0.30995   0.27983  -0.06677   0.47664
  46   39422.7    253.7   0.020365212   0.17007   0.12342  -0.23023  -0.31910
  47   39840.3    251.0   0.000153415   0.00127   0.01595   0.00458   0.03150
  48   40190.7    248.8   0.013492852   0.11052   0.10633  -0.09931   0.29892

FINAL SINGLE POINT ENERGY    -13154.405596490544

DIPOLE MOMENT
-------------
                                X             Y             Z
Electronic contribution:    147.62887     -81.57492      71.99655
Nuclear contribution   :   -145.93834      81.22392     -71.00140
                        -----------------------------------------
Total Dipole Moment    :      1.69053      -0.35101       0.99514
                        -----------------------------------------
Magnitude (a.u.)       :      1.99284
Magnitude (Debye)      :      5.06539

Rotational constants in cm-1:     0.001288     0.000164     0.000151
Rotational constants in MHz :    38.619229     4.919543     4.514500

                             ****ORCA TERMINATED NORMALLY****
TOTAL RUN TIME: 0 days 0 hours 9 minutes 45 seconds 368 msec
