                         Program Version 4.2.0 -  RELEASE  -
|  1> # ORCA input file
|  2> # SCF done       -154.795756887814          0.000431930347
|  3> ! CAM-B3LYP def2-SVP def2/J RIJCOSX Grid4 TightSCF
|  4> %maxcore 5000
|  5> %tddft
|  6>     Mode sTDDFT
|  7>     Ethresh 5.0
|  8>     maxcore 5000
|  9> end
| 10>
| 11> %pal
| 12>   nprocs 6
| 13>   end
| 14> * xyz 0 1
| 15>    C        1.36505        -0.05902        -0.14281
| 16>    O        0.44832        -0.30484        -0.88466
| 17>    C        2.18594         1.17613        -0.14577
| 18>    C        3.11056         1.14435         0.91182
| 19>    C        3.97105         2.21411         1.10307
| 20>    C        3.89442         3.29381         0.23153
| 21>    C        2.97308         3.31493        -0.81824
| 22>    C        2.10519         2.24796        -1.01013
| 23>   Br        2.89359         4.79687        -1.98687
| 24>   Br        5.06446         4.75528         0.49253
| 25>    C        2.95448        -0.11150         1.63998
| 26>    C        3.75490        -0.54142         2.66436
| 27>    C        4.82333         0.20991         3.20077
| 28>    N        5.69854         0.77638         3.67971
| 29>    C        3.65182        -1.79262         3.31072
| 30>    N        3.64324        -2.79235         3.87455
| 31>    C        1.85969        -0.84194         1.02542
| 32>    C        1.27763        -1.96508         1.52886
| 33>    C        0.30544        -2.77217         0.89269
| 34>    S       -0.68589        -3.89432         1.84816
| 35>    C       -1.36950        -4.38785         0.31078
| 36>    N       -0.82979        -3.74826        -0.70387
| 37>    N        0.06612        -2.88004        -0.38255
| 38>    C       -2.37513        -5.37665         0.20523
| 39>    C       -2.86430        -5.77588        -0.99736
| 40>    C       -3.85318        -6.76716        -1.18723
| 41>    N       -4.23939        -7.14819        -2.45785
| 42>    C       -5.17643        -8.12229        -2.35279
| 43>    C       -5.99100        -8.98371        -3.07922
| 44>    C       -6.70358        -9.73308        -2.13394
| 45>    N       -6.33613        -9.33573        -0.86368
| 46>    C       -5.39981        -8.35869        -0.96824
| 47>    C       -4.57269        -7.51410        -0.24094
| 48>    C       -7.65753       -10.76816        -2.31599
| 49>    C       -8.02650       -11.28369        -3.51146
| 50>    C       -8.96621       -12.34621        -3.70275
| 51>    C       -9.76193       -12.92714        -2.69651
| 52>    N      -10.58634       -13.91844        -2.92429
| 53>    C      -10.70155       -14.36523        -4.17835
| 54>    N      -10.00594       -13.88030        -5.21443
| 55>    C       -9.15887       -12.91054        -4.97817
| 56>    C      -11.58571       -15.48281        -4.37595
| 57>    C      -11.98290       -16.04552        -5.54013
| 58>    C      -12.54796       -17.42805        -5.53677
| 59>    O      -12.97654       -18.03995        -4.59038
| 60>    C      -12.40095       -17.89731        -6.93250
| 61>    C      -11.92554       -16.84518        -7.73840
| 62>    C      -11.81480       -15.63726        -6.92492
| 63>    C      -11.79790       -14.35836        -7.39944
| 64>    C      -11.99996       -13.21608        -6.59153
| 65>    N      -12.26436       -12.25417        -6.02441
| 66>    C      -11.68558       -14.03212        -8.76774
| 67>    N      -11.57426       -13.72402        -9.86725
| 68>    C      -11.67292       -17.06627        -9.08208
| 69>    C      -11.90698       -18.33352        -9.60264
| 70>    C      -12.39537       -19.36820        -8.80017
| 71>    C      -12.64457       -19.15294        -7.45106
| 72>   Br      -12.71732       -21.07774        -9.53770
| 73>   Br      -11.54680       -18.64234       -11.43151
| 74>    H        4.69056         2.23666         1.90534
| 75>    H        1.38654         2.25183        -1.81494
| 76>    H        1.55861        -2.30042         2.51892
| 77>    H       -2.73233        -5.81074         1.12594
| 78>    H       -2.45547        -5.30653        -1.88233
| 79>    H       -3.86309        -6.75872        -3.30544
| 80>    H       -6.07588        -9.06989        -4.14291
| 81>    H       -6.70451        -9.72723        -0.01375
| 82>    H       -4.48515        -7.42966         0.82274
| 83>    H       -8.08822       -11.16776        -1.40706
| 84>    H       -7.57428       -10.89584        -4.41379
| 85>    H       -9.73055       -12.57814        -1.67268
| 86>    H       -8.60101       -12.54968        -5.83435
| 87>    H      -11.89445       -15.97829        -3.46290
| 88>    H      -11.29196       -16.29048        -9.72680
| 89>    H      -13.01818       -19.94629        -6.82233
| 90> *
| 91>
| 92>                          ****END OF INPUT****

CARTESIAN COORDINATES (ANGSTROEM)
---------------------------------
  C      1.365050   -0.059020   -0.142810
  O      0.448320   -0.304840   -0.884660
  C      2.185940    1.176130   -0.145770
  C      3.110560    1.144350    0.911820
  C      3.971050    2.214110    1.103070
  C      3.894420    3.293810    0.231530
  C      2.973080    3.314930   -0.818240
  C      2.105190    2.247960   -1.010130
  Br     2.893590    4.796870   -1.986870
  Br     5.064460    4.755280    0.492530
  C      2.954480   -0.111500    1.639980
  C      3.754900   -0.541420    2.664360
  C      4.823330    0.209910    3.200770
  N      5.698540    0.776380    3.679710
  C      3.651820   -1.792620    3.310720
  N      3.643240   -2.792350    3.874550
  C      1.859690   -0.841940    1.025420
  C      1.277630   -1.965080    1.528860
  C      0.305440   -2.772170    0.892690
  S     -0.685890   -3.894320    1.848160
  C     -1.369500   -4.387850    0.310780
  N     -0.829790   -3.748260   -0.703870
  N      0.066120   -2.880040   -0.382550
  C     -2.375130   -5.376650    0.205230
  C     -2.864300   -5.775880   -0.997360
  C     -3.853180   -6.767160   -1.187230
  N     -4.239390   -7.148190   -2.457850
  C     -5.176430   -8.122290   -2.352790
  C     -5.991000   -8.983710   -3.079220
  C     -6.703580   -9.733080   -2.133940
  N     -6.336130   -9.335730   -0.863680
  C     -5.399810   -8.358690   -0.968240
  C     -4.572690   -7.514100   -0.240940
  C     -7.657530  -10.768160   -2.315990
  C     -8.026500  -11.283690   -3.511460
  C     -8.966210  -12.346210   -3.702750
  C     -9.761930  -12.927140   -2.696510
  N    -10.586340  -13.918440   -2.924290
  C    -10.701550  -14.365230   -4.178350
  N    -10.005940  -13.880300   -5.214430
  C     -9.158870  -12.910540   -4.978170
  C    -11.585710  -15.482810   -4.375950
  C    -11.982900  -16.045520   -5.540130
  C    -12.547960  -17.428050   -5.536770
  O    -12.976540  -18.039950   -4.590380
  C    -12.400950  -17.897310   -6.932500
  C    -11.925540  -16.845180   -7.738400
  C    -11.814800  -15.637260   -6.924920
  C    -11.797900  -14.358360   -7.399440
  C    -11.999960  -13.216080   -6.591530
  N    -12.264360  -12.254170   -6.024410
  C    -11.685580  -14.032120   -8.767740
  N    -11.574260  -13.724020   -9.867250
  C    -11.672920  -17.066270   -9.082080
  C    -11.906980  -18.333520   -9.602640
  C    -12.395370  -19.368200   -8.800170
  C    -12.644570  -19.152940   -7.451060
  Br   -12.717320  -21.077740   -9.537700
  Br   -11.546800  -18.642340  -11.431510
  H      4.690560    2.236660    1.905340
  H      1.386540    2.251830   -1.814940
  H      1.558610   -2.300420    2.518920
  H     -2.732330   -5.810740    1.125940
  H     -2.455470   -5.306530   -1.882330
  H     -3.863090   -6.758720   -3.305440
  H     -6.075880   -9.069890   -4.142910
  H     -6.704510   -9.727230   -0.013750
  H     -4.485150   -7.429660    0.822740
  H     -8.088220  -11.167760   -1.407060
  H     -7.574280  -10.895840   -4.413790
  H     -9.730550  -12.578140   -1.672680
  H     -8.601010  -12.549680   -5.834350
  H    -11.894450  -15.978290   -3.462900
  H    -11.291960  -16.290480   -9.726800
  H    -13.018180  -19.946290   -6.822330

 Total Charge           Charge          ....    0
 Multiplicity           Mult            ....    1
 Number of Electrons    NEL             ....  510
 Basis Dimension        Dim             ....  982

ORBITAL ENERGIES
----------------

  NO   OCC          E(Eh)            E(eV)
   0   2.0000    -482.878347    -13139.7878
   1   2.0000    -482.877636    -13139.7685
   2   2.0000    -482.877522    -13139.7654
   3   2.0000    -482.875701    -13139.7158
   4   2.0000     -88.977651     -2421.2050
   5   2.0000     -62.555953     -1702.2340
   6   2.0000     -62.555275     -1702.2156
   7   2.0000     -62.555106     -1702.2110
   8   2.0000     -62.553304     -1702.1619
   9   2.0000     -56.389902     -1534.4472
  10   2.0000     -56.389231     -1534.4290
  11   2.0000     -56.389052     -1534.4241
  12   2.0000     -56.387266     -1534.3755
  13   2.0000     -56.387245     -1534.3750
  14   2.0000     -56.387160     -1534.3726
  15   2.0000     -56.386566     -1534.3565
  16   2.0000     -56.386471     -1534.3539
  17   2.0000     -56.386411     -1534.3522
  18   2.0000     -56.386309     -1534.3495
  19   2.0000     -56.384595     -1534.3028
  20   2.0000     -56.384504     -1534.3003
  21   2.0000     -19.225970      -523.1652
  22   2.0000     -19.218609      -522.9649
  23   2.0000     -14.476453      -393.9243
  24   2.0000     -14.475420      -393.8962
  25   2.0000     -14.448917      -393.1750
  26   2.0000     -14.439974      -392.9317
  27   2.0000     -14.430211      -392.6660
  28   2.0000     -14.427838      -392.6014
  29   2.0000     -14.424432      -392.5087
  30   2.0000     -14.422854      -392.4658
  31   2.0000     -14.422052      -392.4440
  32   2.0000     -14.415993      -392.2791
  33   2.0000     -10.376870      -282.3690
  34   2.0000     -10.371991      -282.2362
  35   2.0000     -10.356507      -281.8149
  36   2.0000     -10.356417      -281.8124
  37   2.0000     -10.355235      -281.7803
  38   2.0000     -10.354500      -281.7603
  39   2.0000     -10.353829      -281.7420
  40   2.0000     -10.353145      -281.7234
  41   2.0000     -10.352571      -281.7078
  42   2.0000     -10.351644      -281.6825
  43   2.0000     -10.350292      -281.6458
  44   2.0000     -10.345597      -281.5180
  45   2.0000     -10.344451      -281.4868
  46   2.0000     -10.334379      -281.2128
  47   2.0000     -10.333934      -281.2006
  48   2.0000     -10.329823      -281.0888
  49   2.0000     -10.326579      -281.0005
  50   2.0000     -10.325946      -280.9833
  51   2.0000     -10.324186      -280.9354
  52   2.0000     -10.324118      -280.9335
  53   2.0000     -10.322489      -280.8892
  54   2.0000     -10.320978      -280.8481
  55   2.0000     -10.320106      -280.8244
  56   2.0000     -10.318678      -280.7855
  57   2.0000     -10.314587      -280.6742
  58   2.0000     -10.314190      -280.6634
  59   2.0000     -10.313250      -280.6378
  60   2.0000     -10.312986      -280.6306
  61   2.0000     -10.312343      -280.6131
  62   2.0000     -10.311868      -280.6002
  63   2.0000     -10.311513      -280.5905
  64   2.0000     -10.311236      -280.5830
  65   2.0000     -10.310906      -280.5740
  66   2.0000     -10.308931      -280.5203
  67   2.0000     -10.307449      -280.4799
  68   2.0000     -10.306669      -280.4587
  69   2.0000     -10.306397      -280.4513
  70   2.0000     -10.303574      -280.3745
  71   2.0000     -10.297293      -280.2036
  72   2.0000     -10.294179      -280.1188
  73   2.0000     -10.284545      -279.8567
  74   2.0000     -10.282328      -279.7964
  75   2.0000      -8.785272      -239.0594
  76   2.0000      -8.784614      -239.0415
  77   2.0000      -8.784407      -239.0359
  78   2.0000      -8.782611      -238.9870
  79   2.0000      -8.073959      -219.7036
  80   2.0000      -6.621395      -180.1773
  81   2.0000      -6.620770      -180.1603
  82   2.0000      -6.620505      -180.1531
  83   2.0000      -6.618773      -180.1060
  84   2.0000      -6.607390      -179.7962
  85   2.0000      -6.606720      -179.7780
  86   2.0000      -6.606629      -179.7755
  87   2.0000      -6.606559      -179.7736
  88   2.0000      -6.605938      -179.7567
  89   2.0000      -6.605751      -179.7516
  90   2.0000      -6.604696      -179.7229
  91   2.0000      -6.603957      -179.7028
  92   2.0000      -6.042535      -164.4257
  93   2.0000      -6.039357      -164.3393
  94   2.0000      -6.036343      -164.2572
  95   2.0000      -2.737312       -74.4861
  96   2.0000      -2.736697       -74.4693
  97   2.0000      -2.736459       -74.4628
  98   2.0000      -2.734682       -74.4145
  99   2.0000      -2.733511       -74.3826
 100   2.0000      -2.732953       -74.3674
 101   2.0000      -2.732897       -74.3659
 102   2.0000      -2.732666       -74.3596
 103   2.0000      -2.732270       -74.3489
 104   2.0000      -2.732034       -74.3424
 105   2.0000      -2.730905       -74.3117
 106   2.0000      -2.730276       -74.2946
 107   2.0000      -2.721794       -74.0638
 108   2.0000      -2.721790       -74.0637
 109   2.0000      -2.721107       -74.0451
 110   2.0000      -2.721098       -74.0448
 111   2.0000      -2.720948       -74.0408
 112   2.0000      -2.720930       -74.0403
 113   2.0000      -2.719110       -73.9907
 114   2.0000      -2.719090       -73.9902
 115   2.0000      -1.151573       -31.3359
 116   2.0000      -1.141910       -31.0729
 117   2.0000      -1.135641       -30.9024
 118   2.0000      -1.108210       -30.1559
 119   2.0000      -1.100260       -29.9396
 120   2.0000      -1.071745       -29.1637
 121   2.0000      -1.028365       -27.9832
 122   2.0000      -1.027115       -27.9492
 123   2.0000      -1.011882       -27.5347
 124   2.0000      -1.010986       -27.5103
 125   2.0000      -1.001534       -27.2531
 126   2.0000      -1.000362       -27.2212
 127   2.0000      -0.992250       -27.0005
 128   2.0000      -0.980877       -26.6910
 129   2.0000      -0.979503       -26.6536
 130   2.0000      -0.952775       -25.9263
 131   2.0000      -0.943400       -25.6712
 132   2.0000      -0.935020       -25.4432
 133   2.0000      -0.922608       -25.1054
 134   2.0000      -0.922278       -25.0965
 135   2.0000      -0.915552       -24.9134
 136   2.0000      -0.912934       -24.8422
 137   2.0000      -0.909272       -24.7425
 138   2.0000      -0.901561       -24.5327
 139   2.0000      -0.892364       -24.2825
 140   2.0000      -0.888313       -24.1722
 141   2.0000      -0.879909       -23.9435
 142   2.0000      -0.867880       -23.6162
 143   2.0000      -0.855168       -23.2703
 144   2.0000      -0.854475       -23.2514
 145   2.0000      -0.851348       -23.1663
 146   2.0000      -0.845010       -22.9939
 147   2.0000      -0.809975       -22.0405
 148   2.0000      -0.792729       -21.5713
 149   2.0000      -0.785697       -21.3799
 150   2.0000      -0.773462       -21.0470
 151   2.0000      -0.768738       -20.9184
 152   2.0000      -0.762983       -20.7618
 153   2.0000      -0.760546       -20.6955
 154   2.0000      -0.737276       -20.0623
 155   2.0000      -0.729843       -19.8600
 156   2.0000      -0.715626       -19.4732
 157   2.0000      -0.711704       -19.3664
 158   2.0000      -0.711072       -19.3492
 159   2.0000      -0.699515       -19.0348
 160   2.0000      -0.695839       -18.9348
 161   2.0000      -0.692950       -18.8561
 162   2.0000      -0.690401       -18.7868
 163   2.0000      -0.682408       -18.5693
 164   2.0000      -0.677606       -18.4386
 165   2.0000      -0.662326       -18.0228
 166   2.0000      -0.653469       -17.7818
 167   2.0000      -0.650985       -17.7142
 168   2.0000      -0.641641       -17.4599
 169   2.0000      -0.624418       -16.9913
 170   2.0000      -0.619669       -16.8620
 171   2.0000      -0.618129       -16.8201
 172   2.0000      -0.610768       -16.6199
 173   2.0000      -0.606010       -16.4904
 174   2.0000      -0.595322       -16.1995
 175   2.0000      -0.588850       -16.0234
 176   2.0000      -0.581075       -15.8119
 177   2.0000      -0.579567       -15.7708
 178   2.0000      -0.568823       -15.4785
 179   2.0000      -0.568528       -15.4704
 180   2.0000      -0.556782       -15.1508
 181   2.0000      -0.554188       -15.0802
 182   2.0000      -0.552719       -15.0403
 183   2.0000      -0.551994       -15.0205
 184   2.0000      -0.550359       -14.9760
 185   2.0000      -0.548062       -14.9135
 186   2.0000      -0.547213       -14.8904
 187   2.0000      -0.542759       -14.7692
 188   2.0000      -0.541094       -14.7239
 189   2.0000      -0.537637       -14.6298
 190   2.0000      -0.535042       -14.5592
 191   2.0000      -0.532758       -14.4971
 192   2.0000      -0.530370       -14.4321
 193   2.0000      -0.524348       -14.2682
 194   2.0000      -0.521595       -14.1933
 195   2.0000      -0.520806       -14.1719
 196   2.0000      -0.513924       -13.9846
 197   2.0000      -0.509062       -13.8523
 198   2.0000      -0.508561       -13.8386
 199   2.0000      -0.505050       -13.7431
 200   2.0000      -0.502844       -13.6831
 201   2.0000      -0.498742       -13.5715
 202   2.0000      -0.493571       -13.4308
 203   2.0000      -0.492116       -13.3911
 204   2.0000      -0.491714       -13.3802
 205   2.0000      -0.485663       -13.2156
 206   2.0000      -0.484258       -13.1773
 207   2.0000      -0.472838       -12.8666
 208   2.0000      -0.469205       -12.7677
 209   2.0000      -0.465458       -12.6658
 210   2.0000      -0.463868       -12.6225
 211   2.0000      -0.462343       -12.5810
 212   2.0000      -0.461729       -12.5643
 213   2.0000      -0.458864       -12.4863
 214   2.0000      -0.455704       -12.4003
 215   2.0000      -0.454339       -12.3632
 216   2.0000      -0.449924       -12.2431
 217   2.0000      -0.446914       -12.1611
 218   2.0000      -0.443518       -12.0687
 219   2.0000      -0.437908       -11.9161
 220   2.0000      -0.436342       -11.8735
 221   2.0000      -0.434911       -11.8345
 222   2.0000      -0.432404       -11.7663
 223   2.0000      -0.431057       -11.7296
 224   2.0000      -0.428144       -11.6504
 225   2.0000      -0.426268       -11.5993
 226   2.0000      -0.417409       -11.3583
 227   2.0000      -0.417064       -11.3489
 228   2.0000      -0.403654       -10.9840
 229   2.0000      -0.402137       -10.9427
 230   2.0000      -0.401858       -10.9351
 231   2.0000      -0.400227       -10.8907
 232   2.0000      -0.397812       -10.8250
 233   2.0000      -0.394172       -10.7260
 234   2.0000      -0.391628       -10.6568
 235   2.0000      -0.391551       -10.6547
 236   2.0000      -0.390329       -10.6214
 237   2.0000      -0.378524       -10.3001
 238   2.0000      -0.375679       -10.2227
 239   2.0000      -0.365323        -9.9409
 240   2.0000      -0.351996        -9.5783
 241   2.0000      -0.348651        -9.4873
 242   2.0000      -0.348144        -9.4735
 243   2.0000      -0.343911        -9.3583
 244   2.0000      -0.342309        -9.3147
 245   2.0000      -0.338590        -9.2135
 246   2.0000      -0.336364        -9.1529
 247   2.0000      -0.333695        -9.0803
 248   2.0000      -0.322554        -8.7771
 249   2.0000      -0.317789        -8.6475
 250   2.0000      -0.312717        -8.5095
 251   2.0000      -0.309688        -8.4270
 252   2.0000      -0.306605        -8.3431
 253   2.0000      -0.295382        -8.0377
 254   2.0000      -0.239350        -6.5130
 255   0.0000      -0.107099        -2.9143
 256   0.0000      -0.097951        -2.6654
 257   0.0000      -0.073425        -1.9980
 258   0.0000      -0.068635        -1.8677
 259   0.0000      -0.051911        -1.4126

MULLIKEN ATOMIC CHARGES
-----------------------
   0 C :    0.145194
   1 O :   -0.093855
   2 C :   -0.026824
   3 C :    0.040210
   4 C :   -0.012752
   5 C :   -0.023729
   6 C :   -0.012878
   7 C :   -0.020054
   8 Br:    0.015404
   9 Br:    0.020867
  10 C :    0.297762
  11 C :   -0.332383
  12 C :   -0.187445
  13 N :    0.160482
  14 C :   -0.195937
  15 N :    0.161656
  16 C :   -0.077734
  17 C :    0.058559
  18 C :   -0.143756
  19 S :    0.103434
  20 C :   -0.073932
  21 N :   -0.072663
  22 N :    0.019982
  23 C :    0.027303
  24 C :    0.029682
  25 C :    0.100172
  26 N :   -0.025518
  27 C :    0.114757
  28 C :   -0.165302
  29 C :    0.097931
  30 N :   -0.030842
  31 C :    0.115806
  32 C :   -0.158104
  33 C :    0.037049
  34 C :   -0.011396
  35 C :    0.048944
  36 C :    0.030126
  37 N :   -0.036401
  38 C :   -0.077010
  39 N :   -0.080510
  40 C :    0.044630
  41 C :    0.087636
  42 C :   -0.088416
  43 C :    0.139446
  44 O :   -0.124278
  45 C :   -0.006399
  46 C :    0.026126
  47 C :    0.272287
  48 C :   -0.278140
  49 C :   -0.185572
  50 N :    0.160672
  51 C :   -0.194421
  52 N :    0.161868
  53 C :   -0.009804
  54 C :   -0.021781
  55 C :   -0.017841
  56 C :   -0.017933
  57 Br:    0.014709
  58 Br:    0.021738
  59 H :    0.008673
  60 H :    0.008943
  61 H :    0.023937
  62 H :   -0.014528
  63 H :    0.007518
  64 H :    0.128133
  65 H :   -0.026271
  66 H :    0.124908
  67 H :   -0.026799
  68 H :   -0.025318
  69 H :   -0.012244
  70 H :    0.003265
  71 H :    0.005595
  72 H :    0.024169
  73 H :    0.010512
  74 H :    0.008684
Sum of atomic charges:   -0.0000000

LOEWDIN ATOMIC CHARGES
----------------------
   0 C :    0.076178
   1 O :   -0.100360
   2 C :   -0.039062
   3 C :   -0.014897
   4 C :   -0.007119
   5 C :   -0.119959
   6 C :   -0.121147
   7 C :    0.006204
   8 Br:    0.139168
   9 Br:    0.140839
  10 C :    0.072595
  11 C :   -0.129712
  12 C :   -0.019683
  13 N :   -0.041908
  14 C :   -0.022980
  15 N :   -0.043658
  16 C :   -0.072034
  17 C :    0.037103
  18 C :   -0.173315
  19 S :    0.389450
  20 C :   -0.127062
  21 N :   -0.089925
  22 N :   -0.016428
  23 C :   -0.078464
  24 C :    0.025627
  25 C :   -0.008794
  26 N :    0.077284
  27 C :   -0.010635
  28 C :   -0.085122
  29 C :    0.001391
  30 N :    0.072340
  31 C :   -0.017145
  32 C :   -0.075653
  33 C :   -0.011352
  34 C :   -0.029535
  35 C :   -0.049568
  36 C :    0.049478
  37 N :   -0.058927
  38 C :    0.007410
  39 N :   -0.055440
  40 C :    0.054103
  41 C :    0.060340
  42 C :   -0.062123
  43 C :    0.085196
  44 O :   -0.125371
  45 C :   -0.046197
  46 C :   -0.005910
  47 C :    0.066482
  48 C :   -0.107280
  49 C :   -0.017173
  50 N :   -0.051763
  51 C :   -0.019481
  52 N :   -0.042255
  53 C :   -0.010331
  54 C :   -0.116737
  55 C :   -0.124758
  56 C :    0.008162
  57 Br:    0.137670
  58 Br:    0.142602
  59 H :    0.044545
  60 H :    0.046951
  61 H :    0.046219
  62 H :    0.029605
  63 H :    0.040470
  64 H :    0.094075
  65 H :    0.026701
  66 H :    0.091114
  67 H :    0.026533
  68 H :    0.027880
  69 H :    0.031482
  70 H :    0.023022
  71 H :    0.026632
  72 H :    0.052722
  73 H :    0.044668
  74 H :    0.047017

  Mayer bond orders larger than 0.100000
B(  0-C ,  1-O ) :   2.2927 B(  0-C ,  2-C ) :   0.9314 B(  0-C , 16-C ) :   0.9179
B(  2-C ,  3-C ) :   1.3295 B(  2-C ,  7-C ) :   1.3764 B(  3-C ,  4-C ) :   1.3579
B(  3-C , 10-C ) :   0.9965 B(  4-C ,  5-C ) :   1.3768 B(  4-C , 59-H ) :   0.9796
B(  5-C ,  6-C ) :   1.4154 B(  5-C ,  9-Br) :   1.0560 B(  6-C ,  7-C ) :   1.3537
B(  6-C ,  8-Br) :   1.0351 B(  7-C , 60-H ) :   1.0075 B( 10-C , 11-C ) :   1.6475
B( 10-C , 16-C ) :   1.0705 B( 11-C , 12-C ) :   1.1392 B( 11-C , 14-C ) :   1.1382
B( 12-C , 13-N ) :   2.9726 B( 14-C , 15-N ) :   2.9847 B( 16-C , 17-C ) :   1.6578
B( 17-C , 18-C ) :   1.1495 B( 17-C , 61-H ) :   0.9204 B( 18-C , 19-S ) :   1.0527
B( 18-C , 22-N ) :   1.6288 B( 19-S , 20-C ) :   1.1244 B( 19-S , 22-N ) :   0.1090
B( 20-C , 21-N ) :   1.5871 B( 20-C , 23-C ) :   1.1457 B( 21-N , 22-N ) :   1.2837
B( 23-C , 24-C ) :   1.6530 B( 23-C , 62-H ) :   0.9535 B( 24-C , 25-C ) :   1.1239
B( 24-C , 63-H ) :   0.9702 B( 25-C , 26-N ) :   1.1649 B( 25-C , 32-C ) :   1.3784
B( 26-N , 27-C ) :   1.1827 B( 26-N , 64-H ) :   0.9351 B( 27-C , 28-C ) :   1.2663
B( 27-C , 31-C ) :   1.2932 B( 28-C , 29-C ) :   1.4037 B( 28-C , 65-H ) :   1.0311
B( 29-C , 30-N ) :   1.1723 B( 29-C , 33-C ) :   1.1163 B( 30-N , 31-C ) :   1.1676
B( 30-N , 66-H ) :   0.9352 B( 31-C , 32-C ) :   1.2815 B( 32-C , 67-H ) :   1.0301
B( 33-C , 34-C ) :   1.6742 B( 33-C , 68-H ) :   0.9571 B( 34-C , 35-C ) :   1.0968
B( 34-C , 69-H ) :   0.9833 B( 35-C , 36-C ) :   1.2888 B( 35-C , 40-C ) :   1.2865
B( 36-C , 37-N ) :   1.5933 B( 36-C , 70-H ) :   0.9825 B( 37-N , 38-C ) :   1.5042
B( 38-C , 39-N ) :   1.4554 B( 38-C , 41-C ) :   1.0398 B( 39-N , 40-C ) :   1.5631
B( 40-C , 71-H ) :   0.9875 B( 41-C , 42-C ) :   1.6667 B( 41-C , 72-H ) :   0.9532
B( 42-C , 43-C ) :   0.9291 B( 42-C , 47-C ) :   1.0119 B( 43-C , 44-O ) :   2.2891
B( 43-C , 45-C ) :   0.9193 B( 45-C , 46-C ) :   1.3270 B( 45-C , 56-C ) :   1.3706
B( 46-C , 47-C ) :   1.0058 B( 46-C , 53-C ) :   1.3695 B( 47-C , 48-C ) :   1.7107
B( 48-C , 49-C ) :   1.1468 B( 48-C , 51-C ) :   1.1347 B( 49-C , 50-N ) :   2.9841
B( 51-C , 52-N ) :   2.9889 B( 53-C , 54-C ) :   1.3723 B( 53-C , 73-H ) :   0.9814
B( 54-C , 55-C ) :   1.4180 B( 54-C , 58-Br) :   1.0530 B( 55-C , 56-C ) :   1.3634
B( 55-C , 57-Br) :   1.0331 B( 56-C , 74-H ) :   1.0060

-----------------------------------------------------------------------------
         ABSORPTION SPECTRUM VIA TRANSITION ELECTRIC DIPOLE MOMENTS
-----------------------------------------------------------------------------
State   Energy  Wavelength   fosc         T2         TX        TY        TZ
        (cm-1)    (nm)                  (au**2)     (au)      (au)      (au)
-----------------------------------------------------------------------------
   0   15441.6    647.6   2.349046737  50.08133  -4.58528  -4.81699  -2.41932
   1   18937.4    528.1   0.023730326   0.41253   0.09172   0.27287   0.57416
   2   22237.7    449.7   0.005429937   0.08039  -0.20591   0.11755  -0.15547
   3   24385.4    410.1   0.275779913   3.72313  -1.09260  -1.57402  -0.22764
   4   25674.8    389.5   0.049881063   0.63959  -0.59076  -0.44765  -0.30033
   5   25933.9    385.6   0.095704717   1.21490  -0.53649  -0.94565  -0.18115
   6   26946.6    371.1   0.013158376   0.16076   0.36568   0.06000   0.15309
   7   28123.2    355.6   0.241652445   2.82880   1.20436   1.03691   0.55058
   8   28692.3    348.5   0.056206885   0.64491  -0.54691   0.28005  -0.51708
   9   28972.1    345.2   0.168830914   1.91844   0.28940  -1.09140   0.80220
  10   29376.9    340.4   0.045723106   0.51239   0.01747   0.13566  -0.70263
  11   29878.2    334.7   0.075552200   0.83247   0.17593   0.25504   0.85818
  12   30078.1    332.5   0.224360087   2.45567  -0.49673  -0.92688  -1.16182
  13   30763.4    325.1   0.059022909   0.63163  -0.21730  -0.75035  -0.14625
  14   31154.1    321.0   0.028260817   0.29864   0.50590  -0.04952   0.20061
  15   32772.9    305.1   0.006563592   0.06593  -0.04243   0.03593   0.25068
  16   33192.4    301.3   0.025269958   0.25064  -0.03231  -0.43097   0.25269
  17   33394.3    299.5   0.053557584   0.52799  -0.17651  -0.70450   0.02252
  18   33511.2    298.4   0.062145722   0.61052   0.18048   0.75979   0.02576
  19   34188.9    292.5   0.044014327   0.42382  -0.00424  -0.63337  -0.15050
  20   34245.1    292.0   0.015351342   0.14758   0.12690  -0.05312   0.35868
  21   34510.4    289.8   0.020518983   0.19574  -0.28952   0.20186  -0.26677
  22   34753.7    287.7   0.103157451   0.97718   0.31135  -0.12448   0.92992
  23   35433.6    282.2   1.034004209   9.60689   0.46684   3.02492  -0.48870
  24   35759.2    279.6   0.025152735   0.23157  -0.00407   0.44587   0.18097
  25   36135.1    276.7   0.127565582   1.16220   0.40030  -0.50647   0.86339
  26   36679.0    272.6   0.401354620   3.60235   1.16093   0.23784   1.48257
  27   37411.5    267.3   0.004078683   0.03589  -0.12666   0.01624   0.13995
  28   37536.3    266.4   0.106780461   0.93652   0.17626  -0.36943  -0.87691
  29   37752.9    264.9   0.015299427   0.13341   0.06634  -0.07445   0.35138
  30   38131.6    262.2   0.098020013   0.84626  -0.18771  -0.78014   0.44990
  31   38659.6    258.7   0.017081942   0.14546  -0.08704   0.34162  -0.14554
  32   38797.4    257.7   0.004218198   0.03579   0.00842  -0.18473   0.03997
  33   39278.9    254.6   0.038469889   0.32243  -0.07056  -0.07397   0.55855
  34   39724.6    251.7   0.085164184   0.70579   0.57260   0.19690   0.58236
  35   39876.8    250.8   0.072809870   0.60110   0.36656   0.50821   0.45657
  36   40246.3    248.5   0.066292462   0.54227  -0.16377  -0.71325   0.08196
  37   40306.6    248.1   0.053433299   0.43643  -0.00866   0.65567  -0.08033

FINAL SINGLE POINT ENERGY    -12998.934431353160

DIPOLE MOMENT
-------------
                                X             Y             Z
Electronic contribution:     33.05445      26.78107     -98.18927
Nuclear contribution   :    -33.77547     -27.82412      98.54497
                        -----------------------------------------
Total Dipole Moment    :     -0.72102      -1.04305       0.35571
                        -----------------------------------------
Magnitude (a.u.)       :      1.31695
Magnitude (Debye)      :      3.34741

Rotational constants in cm-1:     0.002554     0.000115     0.000113
Rotational constants in MHz :    76.563638     3.453169     3.372722

                             ****ORCA TERMINATED NORMALLY****
TOTAL RUN TIME: 0 days 0 hours 6 minutes 12 seconds 366 msec
