                         Program Version 4.2.0 -  RELEASE  -
|  1> # ORCA input file
|  2> # SCF done       -189.865382916034          0.000721341861
|  3> ! CAM-B3LYP def2-SVP def2/J RIJCOSX Grid4 TightSCF
|  4> %maxcore 5000
|  5> %tddft
|  6>     Mode sTDDFT
|  7>     Ethresh 5.0
|  8>     maxcore 5000
|  9> end
| 10>
| 11> %pal
| 12>   nprocs 6
| 13>   end
| 14> * xyz 0 1
| 15>    C        3.54339        -3.59108        -1.30343
| 16>    O        3.07813        -4.64997        -0.96918
| 17>    C        4.94306        -3.14814        -1.11380
| 18>    C        5.14222        -1.89646        -1.72164
| 19>    C        6.39459        -1.30323        -1.67350
| 20>    C        7.42199        -1.96790        -1.01475
| 21>    C        7.21278        -3.21184        -0.41178
| 22>    C        5.96241        -3.81339        -0.46407
| 23>   Br        8.62810        -4.09077         0.47640
| 24>   Br        9.12858        -1.16017        -0.94779
| 25>    C        3.88697        -1.45172        -2.31874
| 26>    C        3.67514        -0.24099        -2.91871
| 27>    C        4.67380         0.74495        -3.08413
| 28>    N        5.44328         1.57888        -3.25180
| 29>    C        2.44058         0.20738        -3.43897
| 30>    N        1.47164         0.64588        -3.86971
| 31>    C        2.89729        -2.49397        -2.08781
| 32>    C        1.65021        -2.54504        -2.62184
| 33>    C        0.64118        -3.48889        -2.28770
| 34>    S       -0.65896        -3.86512        -3.42181
| 35>    C       -1.26904        -4.91980        -2.16263
| 36>    N       -0.53185        -4.88080        -1.07731
| 37>    N        0.49871        -4.10989        -1.15018
| 38>    C       -2.42415        -5.72502        -2.33261
| 39>    C       -2.87133        -6.54480        -1.34676
| 40>    C       -4.00203        -7.38215        -1.50928
| 41>    N       -4.49067        -8.21175        -0.53154
| 42>    C       -4.01829        -8.31127         0.82924
| 43>    C       -4.50613        -7.14270         1.68149
| 44>    C       -5.60825        -8.95022        -0.97385
| 45>    O       -6.20494        -9.75200        -0.28998
| 46>    C       -5.79128        -8.51648        -2.34380
| 47>    C       -4.79994        -7.56089        -2.64390
| 48>    C       -5.00222        -7.14257        -4.01458
| 49>    O       -4.41586        -6.34062        -4.71224
| 50>    N       -6.11702        -7.88381        -4.45483
| 51>    C       -6.58886        -7.72335        -5.80998
| 52>    C       -6.09424        -8.84206        -6.72389
| 53>    C       -6.59630        -8.71445        -3.46779
| 54>    C       -7.68456        -9.61539        -3.46920
| 55>    C       -8.53940        -9.95771        -4.47015
| 56>    C       -9.59441       -10.87918        -4.29725
| 57>    S       -9.92389       -11.66430        -2.78718
| 58>    C      -11.28433       -12.51821        -3.45628
| 59>    C      -11.43858       -12.21404        -4.80997
| 60>    C      -10.50730       -11.28299        -5.27468
| 61>    S      -10.39811       -10.62653        -6.89817
| 62>    C      -11.59665       -11.42964        -7.92119
| 63>    O      -11.60065       -11.12908        -9.08090
| 64>    C      -12.60845       -12.43834        -7.41145
| 65>    O      -13.39043       -12.91917        -8.18030
| 66>    S      -12.75132       -12.93773        -5.71589
| 67>    C      -12.03642       -13.46781        -2.73002
| 68>    C      -12.17431       -13.58734        -1.38178
| 69>    C      -12.58994       -14.89105        -0.79153
| 70>    O      -13.05469       -15.83857        -1.37532
| 71>    C      -12.24486       -14.77990         0.64336
| 72>    C      -11.79449       -13.47528         0.92224
| 73>    C      -11.89458       -12.67292        -0.29410
| 74>    C      -12.00036       -11.30863        -0.33808
| 75>    C      -12.39337       -10.60550        -1.49649
| 76>    N      -12.75355       -10.01479        -2.41219
| 77>    C      -11.83148       -10.47264         0.78565
| 78>    N      -11.69209        -9.75712         1.67105
| 79>    C      -11.38096       -13.14398         2.20059
| 80>    C      -11.43004       -14.12227         3.18755
| 81>    C      -11.89355       -15.41085         2.90804
| 82>    C      -12.30458       -15.74805         1.62430
| 83>   Br      -11.96190       -16.71606         4.27145
| 84>   Br      -10.85280       -13.68101         4.93057
| 85>    H        6.59627        -0.34867        -2.13169
| 86>    H        5.78671        -4.77480        -0.00685
| 87>    H        1.36362        -1.82548        -3.37765
| 88>    H       -2.93337        -5.67015        -3.28502
| 89>    H       -2.33508        -6.56320        -0.40932
| 90>    H       -2.92682        -8.36797         0.83450
| 91>    H       -4.42394        -9.24772         1.22187
| 92>    H       -4.13999        -6.19571         1.29146
| 93>    H       -4.15202        -7.26058         2.70144
| 94>    H       -5.59310        -7.11821         1.69247
| 95>    H       -6.17864        -6.77002        -6.15667
| 96>    H       -7.67890        -7.65154        -5.81080
| 97>    H       -5.00975        -8.80929        -6.79124
| 98>    H       -6.50713        -8.71153        -7.72015
| 99>    H       -6.38485        -9.82032        -6.34767
|100>    H       -7.82507       -10.09199        -2.50479
|101>    H       -8.46053        -9.54265        -5.46256
|102>    H      -12.50486       -14.24977        -3.32159
|103>    H      -11.01287       -12.16042         2.44541
|104>    H      -12.66148       -16.74101         1.39890
|105> *
|106>
|107>                          ****END OF INPUT****

CARTESIAN COORDINATES (ANGSTROEM)
---------------------------------
  C      3.543390   -3.591080   -1.303430
  O      3.078130   -4.649970   -0.969180
  C      4.943060   -3.148140   -1.113800
  C      5.142220   -1.896460   -1.721640
  C      6.394590   -1.303230   -1.673500
  C      7.421990   -1.967900   -1.014750
  C      7.212780   -3.211840   -0.411780
  C      5.962410   -3.813390   -0.464070
  Br     8.628100   -4.090770    0.476400
  Br     9.128580   -1.160170   -0.947790
  C      3.886970   -1.451720   -2.318740
  C      3.675140   -0.240990   -2.918710
  C      4.673800    0.744950   -3.084130
  N      5.443280    1.578880   -3.251800
  C      2.440580    0.207380   -3.438970
  N      1.471640    0.645880   -3.869710
  C      2.897290   -2.493970   -2.087810
  C      1.650210   -2.545040   -2.621840
  C      0.641180   -3.488890   -2.287700
  S     -0.658960   -3.865120   -3.421810
  C     -1.269040   -4.919800   -2.162630
  N     -0.531850   -4.880800   -1.077310
  N      0.498710   -4.109890   -1.150180
  C     -2.424150   -5.725020   -2.332610
  C     -2.871330   -6.544800   -1.346760
  C     -4.002030   -7.382150   -1.509280
  N     -4.490670   -8.211750   -0.531540
  C     -4.018290   -8.311270    0.829240
  C     -4.506130   -7.142700    1.681490
  C     -5.608250   -8.950220   -0.973850
  O     -6.204940   -9.752000   -0.289980
  C     -5.791280   -8.516480   -2.343800
  C     -4.799940   -7.560890   -2.643900
  C     -5.002220   -7.142570   -4.014580
  O     -4.415860   -6.340620   -4.712240
  N     -6.117020   -7.883810   -4.454830
  C     -6.588860   -7.723350   -5.809980
  C     -6.094240   -8.842060   -6.723890
  C     -6.596300   -8.714450   -3.467790
  C     -7.684560   -9.615390   -3.469200
  C     -8.539400   -9.957710   -4.470150
  C     -9.594410  -10.879180   -4.297250
  S     -9.923890  -11.664300   -2.787180
  C    -11.284330  -12.518210   -3.456280
  C    -11.438580  -12.214040   -4.809970
  C    -10.507300  -11.282990   -5.274680
  S    -10.398110  -10.626530   -6.898170
  C    -11.596650  -11.429640   -7.921190
  O    -11.600650  -11.129080   -9.080900
  C    -12.608450  -12.438340   -7.411450
  O    -13.390430  -12.919170   -8.180300
  S    -12.751320  -12.937730   -5.715890
  C    -12.036420  -13.467810   -2.730020
  C    -12.174310  -13.587340   -1.381780
  C    -12.589940  -14.891050   -0.791530
  O    -13.054690  -15.838570   -1.375320
  C    -12.244860  -14.779900    0.643360
  C    -11.794490  -13.475280    0.922240
  C    -11.894580  -12.672920   -0.294100
  C    -12.000360  -11.308630   -0.338080
  C    -12.393370  -10.605500   -1.496490
  N    -12.753550  -10.014790   -2.412190
  C    -11.831480  -10.472640    0.785650
  N    -11.692090   -9.757120    1.671050
  C    -11.380960  -13.143980    2.200590
  C    -11.430040  -14.122270    3.187550
  C    -11.893550  -15.410850    2.908040
  C    -12.304580  -15.748050    1.624300
  Br   -11.961900  -16.716060    4.271450
  Br   -10.852800  -13.681010    4.930570
  H      6.596270   -0.348670   -2.131690
  H      5.786710   -4.774800   -0.006850
  H      1.363620   -1.825480   -3.377650
  H     -2.933370   -5.670150   -3.285020
  H     -2.335080   -6.563200   -0.409320
  H     -2.926820   -8.367970    0.834500
  H     -4.423940   -9.247720    1.221870
  H     -4.139990   -6.195710    1.291460
  H     -4.152020   -7.260580    2.701440
  H     -5.593100   -7.118210    1.692470
  H     -6.178640   -6.770020   -6.156670
  H     -7.678900   -7.651540   -5.810800
  H     -5.009750   -8.809290   -6.791240
  H     -6.507130   -8.711530   -7.720150
  H     -6.384850   -9.820320   -6.347670
  H     -7.825070  -10.091990   -2.504790
  H     -8.460530   -9.542650   -5.462560
  H    -12.504860  -14.249770   -3.321590
  H    -11.012870  -12.160420    2.445410
  H    -12.661480  -16.741010    1.398900

 Total Charge           Charge          ....    0
 Multiplicity           Mult            ....    1
 Number of Electrons    NEL             ....  616
 Basis Dimension        Dim             .... 1168

ORBITAL ENERGIES
----------------

  NO   OCC          E(Eh)            E(eV)
   0   2.0000    -482.883648    -13139.9321
   1   2.0000    -482.882234    -13139.8936
   2   2.0000    -482.881920    -13139.8851
   3   2.0000    -482.881401    -13139.8710
   4   2.0000     -88.995214     -2421.6829
   5   2.0000     -88.993282     -2421.6303
   6   2.0000     -88.987482     -2421.4725
   7   2.0000     -88.986601     -2421.4485
   8   2.0000     -62.561263     -1702.3785
   9   2.0000     -62.559828     -1702.3395
  10   2.0000     -62.559540     -1702.3316
  11   2.0000     -62.558991     -1702.3167
  12   2.0000     -56.395215     -1534.5918
  13   2.0000     -56.393780     -1534.5528
  14   2.0000     -56.393510     -1534.5454
  15   2.0000     -56.392957     -1534.5304
  16   2.0000     -56.392563     -1534.5197
  17   2.0000     -56.392456     -1534.5167
  18   2.0000     -56.391122     -1534.4804
  19   2.0000     -56.391027     -1534.4779
  20   2.0000     -56.390827     -1534.4724
  21   2.0000     -56.390730     -1534.4698
  22   2.0000     -56.390283     -1534.4576
  23   2.0000     -56.390187     -1534.4550
  24   2.0000     -19.256786      -524.0038
  25   2.0000     -19.255561      -523.9705
  26   2.0000     -19.231196      -523.3074
  27   2.0000     -19.229646      -523.2653
  28   2.0000     -19.208532      -522.6907
  29   2.0000     -19.208503      -522.6899
  30   2.0000     -14.470020      -393.7493
  31   2.0000     -14.469566      -393.7369
  32   2.0000     -14.459646      -393.4670
  33   2.0000     -14.456959      -393.3939
  34   2.0000     -14.433300      -392.7501
  35   2.0000     -14.430741      -392.6804
  36   2.0000     -14.427674      -392.5970
  37   2.0000     -14.427597      -392.5949
  38   2.0000     -10.421266      -283.5771
  39   2.0000     -10.421090      -283.5723
  40   2.0000     -10.391293      -282.7615
  41   2.0000     -10.391037      -282.7545
  42   2.0000     -10.382752      -282.5291
  43   2.0000     -10.382697      -282.5275
  44   2.0000     -10.363804      -282.0134
  45   2.0000     -10.362636      -281.9817
  46   2.0000     -10.361985      -281.9639
  47   2.0000     -10.361416      -281.9485
  48   2.0000     -10.360690      -281.9287
  49   2.0000     -10.360139      -281.9137
  50   2.0000     -10.359992      -281.9097
  51   2.0000     -10.359975      -281.9093
  52   2.0000     -10.359823      -281.9051
  53   2.0000     -10.359739      -281.9028
  54   2.0000     -10.357017      -281.8288
  55   2.0000     -10.355880      -281.7978
  56   2.0000     -10.355325      -281.7827
  57   2.0000     -10.350203      -281.6433
  58   2.0000     -10.349484      -281.6238
  59   2.0000     -10.344965      -281.5008
  60   2.0000     -10.339712      -281.3579
  61   2.0000     -10.338034      -281.3122
  62   2.0000     -10.334773      -281.2235
  63   2.0000     -10.332215      -281.1539
  64   2.0000     -10.329272      -281.0738
  65   2.0000     -10.329057      -281.0679
  66   2.0000     -10.327464      -281.0246
  67   2.0000     -10.326423      -280.9963
  68   2.0000     -10.324453      -280.9427
  69   2.0000     -10.322396      -280.8867
  70   2.0000     -10.320990      -280.8484
  71   2.0000     -10.319972      -280.8207
  72   2.0000     -10.319259      -280.8013
  73   2.0000     -10.319036      -280.7953
  74   2.0000     -10.318838      -280.7899
  75   2.0000     -10.318800      -280.7888
  76   2.0000     -10.318619      -280.7839
  77   2.0000     -10.315621      -280.7023
  78   2.0000     -10.315021      -280.6860
  79   2.0000     -10.313606      -280.6475
  80   2.0000     -10.312195      -280.6091
  81   2.0000     -10.311917      -280.6015
  82   2.0000     -10.282080      -279.7896
  83   2.0000     -10.279579      -279.7216
  84   2.0000     -10.275170      -279.6016
  85   2.0000     -10.271612      -279.5048
  86   2.0000      -8.790594      -239.2042
  87   2.0000      -8.789153      -239.1650
  88   2.0000      -8.788869      -239.1573
  89   2.0000      -8.788302      -239.1418
  90   2.0000      -8.089968      -220.1392
  91   2.0000      -8.089454      -220.1252
  92   2.0000      -8.084093      -219.9794
  93   2.0000      -8.083065      -219.9514
  94   2.0000      -6.626744      -180.3229
  95   2.0000      -6.625264      -180.2826
  96   2.0000      -6.625081      -180.2776
  97   2.0000      -6.624461      -180.2607
  98   2.0000      -6.612745      -179.9419
  99   2.0000      -6.611877      -179.9183
 100   2.0000      -6.611285      -179.9022
 101   2.0000      -6.610949      -179.8931
 102   2.0000      -6.610490      -179.8806
 103   2.0000      -6.610415      -179.8785
 104   2.0000      -6.610165      -179.8717
 105   2.0000      -6.609610      -179.8566
 106   2.0000      -6.059296      -164.8818
 107   2.0000      -6.057956      -164.8454
 108   2.0000      -6.055333      -164.7740
 109   2.0000      -6.054658      -164.7556
 110   2.0000      -6.053975      -164.7370
 111   2.0000      -6.052939      -164.7088
 112   2.0000      -6.052054      -164.6848
 113   2.0000      -6.051770      -164.6770
 114   2.0000      -6.049323      -164.6104
 115   2.0000      -6.048395      -164.5852
 116   2.0000      -6.044894      -164.4899
 117   2.0000      -6.043881      -164.4624
 118   2.0000      -2.742667       -74.6318
 119   2.0000      -2.741225       -74.5925
 120   2.0000      -2.740921       -74.5842
 121   2.0000      -2.740397       -74.5700
 122   2.0000      -2.738860       -74.5282
 123   2.0000      -2.738265       -74.5120
 124   2.0000      -2.737400       -74.4884
 125   2.0000      -2.737185       -74.4826
 126   2.0000      -2.736788       -74.4718
 127   2.0000      -2.736595       -74.4665
 128   2.0000      -2.736572       -74.4659
 129   2.0000      -2.735959       -74.4492
 130   2.0000      -2.727098       -74.2081
 131   2.0000      -2.727087       -74.2078
 132   2.0000      -2.725655       -74.1688
 133   2.0000      -2.725651       -74.1687
 134   2.0000      -2.725337       -74.1602
 135   2.0000      -2.725312       -74.1595
 136   2.0000      -2.724776       -74.1449
 137   2.0000      -2.724764       -74.1446
 138   2.0000      -1.194978       -32.5170
 139   2.0000      -1.165717       -31.7208
 140   2.0000      -1.162623       -31.6366
 141   2.0000      -1.150768       -31.3140
 142   2.0000      -1.147467       -31.2242
 143   2.0000      -1.146853       -31.2075
 144   2.0000      -1.144162       -31.1342
 145   2.0000      -1.080839       -29.4111
 146   2.0000      -1.071570       -29.1589
 147   2.0000      -1.043799       -28.4032
 148   2.0000      -1.037195       -28.2235
 149   2.0000      -1.032846       -28.1052
 150   2.0000      -1.020125       -27.7590
 151   2.0000      -1.016869       -27.6704
 152   2.0000      -1.010033       -27.4844
 153   2.0000      -1.005808       -27.3694
 154   2.0000      -0.989643       -26.9296
 155   2.0000      -0.986865       -26.8540
 156   2.0000      -0.965685       -26.2776
 157   2.0000      -0.956826       -26.0366
 158   2.0000      -0.950815       -25.8730
 159   2.0000      -0.948389       -25.8070
 160   2.0000      -0.943560       -25.6756
 161   2.0000      -0.930990       -25.3335
 162   2.0000      -0.928848       -25.2752
 163   2.0000      -0.920098       -25.0371
 164   2.0000      -0.919207       -25.0129
 165   2.0000      -0.916186       -24.9307
 166   2.0000      -0.908558       -24.7231
 167   2.0000      -0.908005       -24.7081
 168   2.0000      -0.898045       -24.4371
 169   2.0000      -0.884332       -24.0639
 170   2.0000      -0.874793       -23.8043
 171   2.0000      -0.862497       -23.4697
 172   2.0000      -0.860346       -23.4112
 173   2.0000      -0.859056       -23.3761
 174   2.0000      -0.852767       -23.2050
 175   2.0000      -0.845585       -23.0095
 176   2.0000      -0.833720       -22.6867
 177   2.0000      -0.818530       -22.2733
 178   2.0000      -0.806809       -21.9544
 179   2.0000      -0.795211       -21.6388
 180   2.0000      -0.781624       -21.2691
 181   2.0000      -0.777676       -21.1616
 182   2.0000      -0.773323       -21.0432
 183   2.0000      -0.770452       -20.9651
 184   2.0000      -0.766526       -20.8582
 185   2.0000      -0.742745       -20.2111
 186   2.0000      -0.739098       -20.1119
 187   2.0000      -0.733488       -19.9592
 188   2.0000      -0.722847       -19.6697
 189   2.0000      -0.715791       -19.4777
 190   2.0000      -0.715247       -19.4628
 191   2.0000      -0.705424       -19.1956
 192   2.0000      -0.705080       -19.1862
 193   2.0000      -0.701534       -19.0897
 194   2.0000      -0.691240       -18.8096
 195   2.0000      -0.689500       -18.7622
 196   2.0000      -0.675873       -18.3914
 197   2.0000      -0.670222       -18.2377
 198   2.0000      -0.664458       -18.0808
 199   2.0000      -0.662357       -18.0237
 200   2.0000      -0.651614       -17.7313
 201   2.0000      -0.632544       -17.2124
 202   2.0000      -0.628737       -17.1088
 203   2.0000      -0.627426       -17.0731
 204   2.0000      -0.620804       -16.8929
 205   2.0000      -0.618273       -16.8241
 206   2.0000      -0.610930       -16.6242
 207   2.0000      -0.606421       -16.5016
 208   2.0000      -0.601833       -16.3767
 209   2.0000      -0.597173       -16.2499
 210   2.0000      -0.590498       -16.0683
 211   2.0000      -0.589574       -16.0431
 212   2.0000      -0.585941       -15.9443
 213   2.0000      -0.582056       -15.8385
 214   2.0000      -0.575908       -15.6713
 215   2.0000      -0.567566       -15.4443
 216   2.0000      -0.565803       -15.3963
 217   2.0000      -0.564302       -15.3554
 218   2.0000      -0.561451       -15.2779
 219   2.0000      -0.561006       -15.2657
 220   2.0000      -0.558895       -15.2083
 221   2.0000      -0.555442       -15.1144
 222   2.0000      -0.553861       -15.0713
 223   2.0000      -0.551995       -15.0205
 224   2.0000      -0.551655       -15.0113
 225   2.0000      -0.547719       -14.9042
 226   2.0000      -0.544731       -14.8229
 227   2.0000      -0.542960       -14.7747
 228   2.0000      -0.540980       -14.7208
 229   2.0000      -0.538765       -14.6605
 230   2.0000      -0.535633       -14.5753
 231   2.0000      -0.531657       -14.4671
 232   2.0000      -0.530779       -14.4432
 233   2.0000      -0.529556       -14.4100
 234   2.0000      -0.525729       -14.3058
 235   2.0000      -0.522902       -14.2289
 236   2.0000      -0.522464       -14.2170
 237   2.0000      -0.517996       -14.0954
 238   2.0000      -0.514250       -13.9934
 239   2.0000      -0.513379       -13.9698
 240   2.0000      -0.512684       -13.9508
 241   2.0000      -0.504917       -13.7395
 242   2.0000      -0.503014       -13.6877
 243   2.0000      -0.497697       -13.5430
 244   2.0000      -0.496491       -13.5102
 245   2.0000      -0.495591       -13.4857
 246   2.0000      -0.492002       -13.3881
 247   2.0000      -0.487596       -13.2682
 248   2.0000      -0.483566       -13.1585
 249   2.0000      -0.481119       -13.0919
 250   2.0000      -0.480054       -13.0629
 251   2.0000      -0.471466       -12.8292
 252   2.0000      -0.471192       -12.8218
 253   2.0000      -0.470188       -12.7945
 254   2.0000      -0.470149       -12.7934
 255   2.0000      -0.468858       -12.7583
 256   2.0000      -0.468007       -12.7351
 257   2.0000      -0.463574       -12.6145
 258   2.0000      -0.463036       -12.5999
 259   2.0000      -0.460530       -12.5317
 260   2.0000      -0.459094       -12.4926
 261   2.0000      -0.458385       -12.4733
 262   2.0000      -0.456755       -12.4289
 263   2.0000      -0.456570       -12.4239
 264   2.0000      -0.452920       -12.3246
 265   2.0000      -0.446211       -12.1420
 266   2.0000      -0.444685       -12.1005
 267   2.0000      -0.443811       -12.0767
 268   2.0000      -0.443082       -12.0569
 269   2.0000      -0.440749       -11.9934
 270   2.0000      -0.439805       -11.9677
 271   2.0000      -0.437426       -11.9030
 272   2.0000      -0.436871       -11.8879
 273   2.0000      -0.435679       -11.8554
 274   2.0000      -0.429350       -11.6832
 275   2.0000      -0.425655       -11.5827
 276   2.0000      -0.424350       -11.5471
 277   2.0000      -0.420963       -11.4550
 278   2.0000      -0.412021       -11.2117
 279   2.0000      -0.411521       -11.1981
 280   2.0000      -0.406512       -11.0618
 281   2.0000      -0.405949       -11.0464
 282   2.0000      -0.405099       -11.0233
 283   2.0000      -0.402426       -10.9506
 284   2.0000      -0.396459       -10.7882
 285   2.0000      -0.395580       -10.7643
 286   2.0000      -0.390172       -10.6171
 287   2.0000      -0.386709       -10.5229
 288   2.0000      -0.376971       -10.2579
 289   2.0000      -0.365965        -9.9584
 290   2.0000      -0.362453        -9.8628
 291   2.0000      -0.358707        -9.7609
 292   2.0000      -0.356525        -9.7015
 293   2.0000      -0.356437        -9.6992
 294   2.0000      -0.353549        -9.6206
 295   2.0000      -0.351591        -9.5673
 296   2.0000      -0.349198        -9.5022
 297   2.0000      -0.348830        -9.4922
 298   2.0000      -0.343241        -9.3401
 299   2.0000      -0.340190        -9.2570
 300   2.0000      -0.332996        -9.0613
 301   2.0000      -0.332704        -9.0533
 302   2.0000      -0.322279        -8.7697
 303   2.0000      -0.320093        -8.7102
 304   2.0000      -0.317993        -8.6530
 305   2.0000      -0.312982        -8.5167
 306   2.0000      -0.299472        -8.1491
 307   2.0000      -0.251316        -6.8387
 308   0.0000      -0.129006        -3.5104
 309   0.0000      -0.110688        -3.0120
 310   0.0000      -0.091114        -2.4793
 311   0.0000      -0.078108        -2.1254
 312   0.0000      -0.072175        -1.9640

MULLIKEN ATOMIC CHARGES
-----------------------
   0 C :    0.148804
   1 O :   -0.093598
   2 C :   -0.025543
   3 C :    0.039517
   4 C :   -0.006538
   5 C :   -0.024078
   6 C :   -0.016010
   7 C :   -0.014149
   8 Br:    0.021914
   9 Br:    0.027418
  10 C :    0.297910
  11 C :   -0.332820
  12 C :   -0.183031
  13 N :    0.165797
  14 C :   -0.193979
  15 N :    0.171151
  16 C :   -0.066847
  17 C :    0.040438
  18 C :   -0.127938
  19 S :    0.150116
  20 C :   -0.099584
  21 N :   -0.050875
  22 N :    0.012873
  23 C :    0.080491
  24 C :   -0.021713
  25 C :    0.154441
  26 N :   -0.264724
  27 C :    0.092418
  28 C :    0.001619
  29 C :    0.157699
  30 O :   -0.182415
  31 C :   -0.041782
  32 C :   -0.061732
  33 C :    0.168390
  34 O :   -0.207385
  35 N :   -0.267322
  36 C :    0.094872
  37 C :    0.001756
  38 C :    0.119022
  39 C :   -0.031398
  40 C :   -0.007070
  41 C :   -0.080619
  42 S :    0.186005
  43 C :   -0.148101
  44 C :    0.029887
  45 C :   -0.021082
  46 S :    0.075768
  47 C :    0.086700
  48 O :   -0.120898
  49 C :    0.075243
  50 O :   -0.117286
  51 S :    0.115177
  52 C :    0.026959
  53 C :   -0.130865
  54 C :    0.142697
  55 O :   -0.126404
  56 C :   -0.002119
  57 C :    0.022611
  58 C :    0.237339
  59 C :   -0.308787
  60 C :   -0.201169
  61 N :    0.176652
  62 C :   -0.176595
  63 N :    0.167526
  64 C :   -0.005076
  65 C :   -0.023279
  66 C :   -0.018300
  67 C :   -0.018749
  68 Br:    0.019032
  69 Br:    0.025600
  70 H :    0.008290
  71 H :    0.008639
  72 H :    0.032630
  73 H :    0.015234
  74 H :    0.010703
  75 H :    0.032879
  76 H :    0.046265
  77 H :    0.020288
  78 H :    0.029559
  79 H :    0.033393
  80 H :    0.046774
  81 H :    0.029914
  82 H :    0.031003
  83 H :    0.029029
  84 H :    0.019190
  85 H :    0.017700
  86 H :    0.010095
  87 H :    0.039948
  88 H :    0.014454
  89 H :    0.010028
Sum of atomic charges:   -0.0000000

LOEWDIN ATOMIC CHARGES
----------------------
   0 C :    0.078283
   1 O :   -0.098248
   2 C :   -0.040314
   3 C :   -0.014452
   4 C :   -0.005965
   5 C :   -0.118238
   6 C :   -0.120130
   7 C :    0.008568
   8 Br:    0.143947
   9 Br:    0.145703
  10 C :    0.070504
  11 C :   -0.121907
  12 C :   -0.019359
  13 N :   -0.035026
  14 C :   -0.022770
  15 N :   -0.036263
  16 C :   -0.058643
  17 C :    0.033255
  18 C :   -0.161786
  19 S :    0.429178
  20 C :   -0.141476
  21 N :   -0.069181
  22 N :   -0.024096
  23 C :   -0.003768
  24 C :   -0.005223
  25 C :    0.083322
  26 N :    0.000772
  27 C :    0.037162
  28 C :   -0.059432
  29 C :    0.081734
  30 O :   -0.183945
  31 C :   -0.099535
  32 C :   -0.119878
  33 C :    0.083309
  34 O :   -0.195658
  35 N :   -0.001027
  36 C :    0.035417
  37 C :   -0.062652
  38 C :    0.063668
  39 C :   -0.013768
  40 C :   -0.038786
  41 C :   -0.158569
  42 S :    0.502007
  43 C :   -0.197336
  44 C :   -0.183013
  45 C :   -0.214618
  46 S :    0.388947
  47 C :   -0.108298
  48 O :   -0.094253
  49 C :   -0.106531
  50 O :   -0.089062
  51 S :    0.406076
  52 C :    0.036930
  53 C :   -0.088596
  54 C :    0.083752
  55 O :   -0.128321
  56 C :   -0.044593
  57 C :   -0.008728
  58 C :    0.056986
  59 C :   -0.130973
  60 C :   -0.033793
  61 N :   -0.042851
  62 C :   -0.021663
  63 N :   -0.036379
  64 C :   -0.007493
  65 C :   -0.117262
  66 C :   -0.123042
  67 C :    0.008516
  68 Br:    0.141475
  69 Br:    0.145948
  70 H :    0.044881
  71 H :    0.047558
  72 H :    0.047965
  73 H :    0.039278
  74 H :    0.040638
  75 H :    0.027070
  76 H :    0.038834
  77 H :    0.024188
  78 H :    0.033771
  79 H :    0.033343
  80 H :    0.039435
  81 H :    0.023507
  82 H :    0.033984
  83 H :    0.033807
  84 H :    0.020955
  85 H :    0.041146
  86 H :    0.029407
  87 H :    0.048147
  88 H :    0.045950
  89 H :    0.047578

  Mayer bond orders larger than 0.100000
B(  0-C ,  1-O ) :   2.2900 B(  0-C ,  2-C ) :   0.9367 B(  0-C , 16-C ) :   0.9094
B(  2-C ,  3-C ) :   1.3279 B(  2-C ,  7-C ) :   1.3729 B(  3-C ,  4-C ) :   1.3554
B(  3-C , 10-C ) :   1.0003 B(  4-C ,  5-C ) :   1.3796 B(  4-C , 70-H ) :   0.9785
B(  5-C ,  6-C ) :   1.4123 B(  5-C ,  9-Br) :   1.0604 B(  6-C ,  7-C ) :   1.3558
B(  6-C ,  8-Br) :   1.0402 B(  7-C , 71-H ) :   1.0073 B( 10-C , 11-C ) :   1.6629
B( 10-C , 16-C ) :   1.0570 B( 11-C , 12-C ) :   1.1365 B( 11-C , 14-C ) :   1.1385
B( 12-C , 13-N ) :   2.9738 B( 14-C , 15-N ) :   2.9833 B( 16-C , 17-C ) :   1.6994
B( 17-C , 18-C ) :   1.1130 B( 17-C , 72-H ) :   0.9237 B( 18-C , 19-S ) :   1.0881
B( 18-C , 22-N ) :   1.6200 B( 19-S , 20-C ) :   1.1339 B( 19-S , 22-N ) :   0.1048
B( 20-C , 21-N ) :   1.6098 B( 20-C , 23-C ) :   1.1146 B( 21-N , 22-N ) :   1.2862
B( 23-C , 24-C ) :   1.6437 B( 23-C , 73-H ) :   0.9252 B( 24-C , 25-C ) :   1.1346
B( 24-C , 74-H ) :   0.9724 B( 25-C , 26-N ) :   1.1765 B( 25-C , 32-C ) :   1.3177
B( 26-N , 27-C ) :   0.9383 B( 26-N , 29-C ) :   1.0337 B( 27-C , 28-C ) :   1.1204
B( 27-C , 75-H ) :   0.9500 B( 27-C , 76-H ) :   0.9292 B( 28-C , 77-H ) :   0.9688
B( 28-C , 78-H ) :   0.9681 B( 28-C , 79-H ) :   0.9642 B( 29-C , 30-O ) :   2.1362
B( 29-C , 31-C ) :   0.9686 B( 31-C , 32-C ) :   1.2648 B( 31-C , 38-C ) :   1.3372
B( 32-C , 33-C ) :   0.9850 B( 33-C , 34-O ) :   2.0257 B( 33-C , 35-N ) :   1.0634
B( 34-O , 73-H ) :   0.1111 B( 35-N , 36-C ) :   0.9391 B( 35-N , 38-C ) :   1.1608
B( 36-C , 37-C ) :   1.1155 B( 36-C , 80-H ) :   0.9242 B( 36-C , 81-H ) :   0.9513
B( 37-C , 82-H ) :   0.9606 B( 37-C , 83-H ) :   0.9686 B( 37-C , 84-H ) :   0.9681
B( 38-C , 39-C ) :   1.2090 B( 39-C , 40-C ) :   1.5495 B( 39-C , 85-H ) :   0.9433
B( 40-C , 41-C ) :   1.1950 B( 40-C , 86-H ) :   0.9656 B( 41-C , 42-S ) :   1.1394
B( 41-C , 43-C ) :   0.1041 B( 41-C , 45-C ) :   1.4932 B( 42-S , 43-C ) :   1.1166
B( 43-C , 44-C ) :   1.4969 B( 43-C , 52-C ) :   1.1427 B( 44-C , 45-C ) :   1.3346
B( 44-C , 51-S ) :   0.9987 B( 45-C , 46-S ) :   0.9698 B( 46-S , 47-C ) :   1.0466
B( 46-S , 48-O ) :   0.1374 B( 47-C , 48-O ) :   2.1686 B( 47-C , 49-C ) :   0.7709
B( 49-C , 50-O ) :   2.1716 B( 49-C , 51-S ) :   1.0366 B( 50-O , 51-S ) :   0.1329
B( 52-C , 53-C ) :   1.6688 B( 52-C , 87-H ) :   0.9316 B( 53-C , 54-C ) :   0.9381
B( 53-C , 58-C ) :   1.0363 B( 54-C , 55-O ) :   2.2826 B( 54-C , 56-C ) :   0.9203
B( 56-C , 57-C ) :   1.3256 B( 56-C , 67-C ) :   1.3770 B( 57-C , 58-C ) :   1.0063
B( 57-C , 64-C ) :   1.3715 B( 58-C , 59-C ) :   1.6695 B( 59-C , 60-C ) :   1.1537
B( 59-C , 62-C ) :   1.1300 B( 60-C , 61-N ) :   3.0235 B( 62-C , 63-N ) :   2.9950
B( 64-C , 65-C ) :   1.3693 B( 64-C , 88-H ) :   0.9830 B( 65-C , 66-C ) :   1.4183
B( 65-C , 69-Br) :   1.0542 B( 66-C , 67-C ) :   1.3564 B( 66-C , 68-Br) :   1.0381
B( 67-C , 89-H ) :   1.0072

-----------------------------------------------------------------------------
         ABSORPTION SPECTRUM VIA TRANSITION ELECTRIC DIPOLE MOMENTS
-----------------------------------------------------------------------------
State   Energy  Wavelength   fosc         T2         TX        TY        TZ
        (cm-1)    (nm)                  (au**2)     (au)      (au)      (au)
-----------------------------------------------------------------------------
   0   12066.7    828.7   1.000292654  27.29056   4.38458   2.80371   0.45309
   1   17503.2    571.3   0.138169579   2.59878   0.86160   0.63587   1.20503
   2   21571.0    463.6   0.321360599   4.90454   0.38570   0.32100  -2.15702
   3   21832.3    458.0   0.017394664   0.26230  -0.17138  -0.48255   0.00873
   4   22202.0    450.4   0.062521360   0.92707  -0.77820  -0.51523   0.23665
   5   24522.4    407.8   0.155584335   2.08871   1.01330   0.96143  -0.37093
   6   25217.4    396.6   0.024316598   0.31745  -0.08961  -0.19698   0.52022
   7   25541.0    391.5   0.110391178   1.42289  -0.30249   0.17467  -1.14056
   8   25650.1    389.9   0.306033264   3.92785  -1.49778  -1.28835   0.15707
   9   25910.5    385.9   0.040887801   0.51951   0.08572  -0.07725   0.71147
  10   26625.6    375.6   0.162981883   2.01519   0.58735   1.23261  -0.38843
  11   26807.7    373.0   0.147738052   1.81430  -0.62708   0.16257  -1.18095
  12   27280.7    366.6   0.003638964   0.04391  -0.00350  -0.07509  -0.19561
  13   27630.0    361.9   0.177268403   2.11215  -0.46960  -1.20702   0.65934
  14   28147.5    355.3   0.406596742   4.75554   2.14001   0.34526   0.23814
  15   28405.5    352.0   0.161124957   1.86739  -0.51267  -0.81949  -0.96593
  16   29082.8    343.8   0.008837959   0.10004   0.06979  -0.18348   0.24801
  17   29427.6    339.8   0.101698597   1.13772  -0.20123  -0.76938   0.71083
  18   29672.0    337.0   0.000937550   0.01040  -0.03255  -0.06372   0.07268
  19   30093.0    332.3   0.039460511   0.43169  -0.28254  -0.19872  -0.55890
  20   30721.4    325.5   0.007440189   0.07973   0.25667   0.11565   0.02180
  21   31187.2    320.6   0.042365956   0.44722  -0.47625  -0.46935   0.01064
  22   31590.4    316.6   0.013847266   0.14431   0.27525   0.11529   0.23505
  23   31762.3    314.8   0.014125271   0.14641  -0.32923   0.08575   0.17511
  24   32278.1    309.8   0.053980636   0.55056   0.60420   0.36890  -0.22230
  25   32316.5    309.4   0.026614609   0.27113  -0.44729  -0.13307  -0.23098
  26   32639.0    306.4   0.035809853   0.36119  -0.25026   0.41180  -0.35915
  27   32811.1    304.8   0.025279154   0.25364  -0.10485  -0.49259   0.00103
  28   33990.2    294.2   0.093633884   0.90689   0.22034  -0.35536   0.85561
  29   34172.2    292.6   0.104758420   1.00923  -0.21173  -0.95156   0.24276
  30   34626.0    288.8   0.119465047   1.13583  -0.39378  -0.96239  -0.23359
  31   34700.8    288.2   0.161626800   1.53338   0.05170   0.57490  -1.09554
  32   34772.6    287.6   0.129795950   1.22885  -0.76578   0.79852  -0.06923
  33   34915.8    286.4   0.744828041   7.02280   1.36974  -1.31843   1.84617
  34   35220.8    283.9   0.159784642   1.49352   0.00766   1.15924  -0.38680
  35   35275.3    283.5   0.058469052   0.54567  -0.06558  -0.71076  -0.19024
  36   35561.5    281.2   0.145780616   1.34957  -0.19676  -0.99670   0.56342
  37   35825.4    279.1   0.077938152   0.71620  -0.17746  -0.82729  -0.01710
  38   36090.7    277.1   0.000251601   0.00230   0.01124   0.04061  -0.02279
  39   36246.1    275.9   0.005585097   0.05073   0.01649   0.21755  -0.05592
  40   36391.0    274.8   0.066803122   0.60434  -0.05786  -0.68347   0.36587
  41   36698.6    272.5   0.133337421   1.19613   0.59823   0.91518  -0.02627
  42   36957.0    270.6   0.044694224   0.39813  -0.55796  -0.16732   0.24253
  43   37088.4    269.6   0.030960878   0.27482  -0.07910  -0.49317  -0.15920
  44   37482.7    266.8   0.144751894   1.27136   0.66236   0.56206  -0.71884
  45   37602.1    265.9   0.002487757   0.02178  -0.10934  -0.07513   0.06467
  46   37885.4    264.0   0.028275352   0.24570   0.40921  -0.14016   0.24209
  47   38104.6    262.4   0.117054202   1.01131  -0.47545  -0.40373  -0.78883
  48   38384.9    260.5   0.004162134   0.03570  -0.00240  -0.16631  -0.08963
  49   38458.8    260.0   0.002023228   0.01732   0.00784  -0.03196   0.12742
  50   38820.4    257.6   0.018409573   0.15612   0.17192   0.29170  -0.20366
  51   38880.1    257.2   0.067885738   0.57481  -0.72160  -0.12362  -0.19703
  52   39450.7    253.5   0.026496011   0.22111   0.26167   0.24653  -0.30308
  53   39848.4    251.0   0.053406762   0.44123  -0.46335  -0.21170  -0.42628
  54   40090.3    249.4   0.041472455   0.34056  -0.00802  -0.58292  -0.02659

FINAL SINGLE POINT ENERGY    -14615.117639679682

DIPOLE MOMENT
-------------
                                X             Y             Z
Electronic contribution:    127.13045     -26.68484     145.48462
Nuclear contribution   :   -125.51152      24.99363    -144.62759
                        -----------------------------------------
Total Dipole Moment    :      1.61892      -1.69121       0.85703
                        -----------------------------------------
Magnitude (a.u.)       :      2.49311
Magnitude (Debye)      :      6.33698

Rotational constants in cm-1:     0.000947     0.000157     0.000139
Rotational constants in MHz :    28.401587     4.693080     4.171798

                             ****ORCA TERMINATED NORMALLY****
TOTAL RUN TIME: 0 days 0 hours 10 minutes 26 seconds 989 msec
