                         Program Version 4.2.0 -  RELEASE  -
|  1> # ORCA input file
|  2> # SCF done       -195.246754766218          0.000678643257
|  3> ! CAM-B3LYP def2-SVP def2/J RIJCOSX Grid4 TightSCF
|  4> %maxcore 5000
|  5> %tddft
|  6>     Mode sTDDFT
|  7>     Ethresh 5.0
|  8>     maxcore 5000
|  9> end
| 10>
| 11> %pal
| 12>   nprocs 6
| 13>   end
| 14> * xyz 0 1
| 15>    C        2.59683        -2.30127         0.88538
| 16>    O        1.88914        -3.10488         1.43546
| 17>    C        3.75214        -1.59373         1.48585
| 18>    C        4.39029        -0.79926         0.51788
| 19>    C        5.51442        -0.06580         0.86482
| 20>    C        5.97558        -0.13332         2.17393
| 21>    C        5.32988        -0.92098         3.13107
| 22>    C        4.20881        -1.66420         2.78575
| 23>   Br        5.97561        -0.98772         4.90436
| 24>   Br        7.50907         0.86424         2.64715
| 25>    C        3.67347        -0.92446        -0.74723
| 26>    C        3.93203        -0.20667        -1.88289
| 27>    C        4.98161         0.73115        -2.00344
| 28>    N        5.81955         1.49816        -2.16222
| 29>    C        3.18221        -0.27279        -3.07833
| 30>    N        2.61579        -0.25991        -4.07622
| 31>    C        2.59160        -1.87622        -0.54707
| 32>    C        1.81516        -2.41055        -1.52590
| 33>    C        0.67606        -3.23683        -1.34239
| 34>    S        0.09436        -4.26788        -2.65668
| 35>    C       -1.19689        -4.70866        -1.55914
| 36>    N       -1.11109        -4.08158        -0.40808
| 37>    N       -0.09935        -3.29150        -0.29549
| 38>    C       -2.21164        -5.63577        -1.90843
| 39>    C       -3.20744        -5.96176        -1.04539
| 40>    C       -4.23092        -6.88403        -1.37878
| 41>    N       -5.26785        -7.21391        -0.54295
| 42>    C       -5.53370        -6.66000         0.76314
| 43>    C       -6.16414        -5.27268         0.67356
| 44>    C       -6.14249        -8.15565        -1.12892
| 45>    O       -7.13832        -8.57777        -0.58793
| 46>    C       -5.54934        -8.41883        -2.42467
| 47>    C       -4.39027        -7.62311        -2.55325
| 48>    C       -3.81803        -7.90211        -3.85240
| 49>    O       -2.83667        -7.46153        -4.41662
| 50>    N       -4.68011        -8.85845        -4.42715
| 51>    C       -4.36248        -9.41484        -5.72167
| 52>    C       -3.74486       -10.80581        -5.60125
| 53>    C       -5.71023        -9.18394        -3.57716
| 54>    C       -6.78231       -10.10576        -3.72880
| 55>    C       -7.10539       -10.87779        -4.78956
| 56>    C       -8.24656       -11.75304        -4.79009
| 57>    C       -9.02353       -11.97696        -5.94661
| 58>    C       -8.70110       -11.38952        -7.26150
| 59>    O       -7.78580       -10.67323        -7.54873
| 60>    S       -9.91938       -11.91834        -8.46179
| 61>    C      -10.85848       -12.84963        -7.24636
| 62>    O      -11.86116       -13.43602        -7.52493
| 63>    C      -10.18203       -12.75488        -5.93854
| 64>    C      -10.67573       -13.37347        -4.77376
| 65>    C       -9.83272       -13.24504        -3.65683
| 66>    C       -8.67248       -12.48110        -3.66399
| 67>    C       -7.95608       -12.75986        -2.39091
| 68>    O       -6.88238       -12.40960        -2.01376
| 69>    O       -8.73712       -13.63247        -1.67386
| 70>    C       -9.86809       -13.98291        -2.36707
| 71>    O      -10.64496       -14.78601        -1.95491
| 72>    C      -11.92080       -14.09976        -4.73372
| 73>    C      -12.77350       -14.00836        -3.70109
| 74>    C      -14.05430       -14.67692        -3.62850
| 75>    C      -15.13007       -14.01203        -3.03364
| 76>    C      -15.19310       -12.66861        -2.41872
| 77>    O      -14.32415       -11.85071        -2.28803
| 78>    O      -16.46088       -12.46775        -1.98954
| 79>    C      -17.29199       -13.58123        -2.27605
| 80>    C      -16.40047       -14.56770        -2.95979
| 81>    C      -16.64885       -15.82642        -3.47353
| 82>    C      -15.58830       -16.51021        -4.04315
| 83>    C      -14.30168       -15.97017        -4.13101
| 84>    C      -13.20987       -16.78211        -4.66491
| 85>    C      -13.32861       -17.64535        -5.66486
| 86>    H        6.04221         0.54806         0.15313
| 87>    H        3.70332        -2.28023         3.51325
| 88>    H        2.06347        -2.21425        -2.56094
| 89>    H       -2.16489        -6.07609        -2.89503
| 90>    H       -3.21626        -5.49872        -0.06954
| 91>    H       -4.60756        -6.62981         1.34293
| 92>    H       -6.23165        -7.34975         1.24580
| 93>    H       -5.50278        -4.57478         0.16507
| 94>    H       -6.36610        -4.89751         1.67272
| 95>    H       -7.10222        -5.32531         0.12640
| 96>    H       -3.63212        -8.73145        -6.16557
| 97>    H       -5.25396        -9.42116        -6.35263
| 98>    H       -2.79918       -10.74489        -5.06804
| 99>    H       -3.55920       -11.21147        -6.59177
|100>    H       -4.40080       -11.48294        -5.05896
|101>    H       -7.41344       -10.13143        -2.84983
|102>    H       -6.56919       -10.81382        -5.72144
|103>    H      -12.19264       -14.65087        -5.62297
|104>    H      -12.57291       -13.31905        -2.89234
|105>    H      -18.12087       -13.24745        -2.91028
|106>    H      -17.70452       -13.96417        -1.33595
|107>    H      -17.63134       -16.26920        -3.42224
|108>    H      -15.74951       -17.50956        -4.41812
|109>    H      -12.25417       -16.64345        -4.17570
|110>    H      -14.25362       -17.78035        -6.20038
|111>    H      -12.49275       -18.23265        -6.00350
|112> *
|113>
|114>                          ****END OF INPUT****

CARTESIAN COORDINATES (ANGSTROEM)
---------------------------------
  C      2.596830   -2.301270    0.885380
  O      1.889140   -3.104880    1.435460
  C      3.752140   -1.593730    1.485850
  C      4.390290   -0.799260    0.517880
  C      5.514420   -0.065800    0.864820
  C      5.975580   -0.133320    2.173930
  C      5.329880   -0.920980    3.131070
  C      4.208810   -1.664200    2.785750
  Br     5.975610   -0.987720    4.904360
  Br     7.509070    0.864240    2.647150
  C      3.673470   -0.924460   -0.747230
  C      3.932030   -0.206670   -1.882890
  C      4.981610    0.731150   -2.003440
  N      5.819550    1.498160   -2.162220
  C      3.182210   -0.272790   -3.078330
  N      2.615790   -0.259910   -4.076220
  C      2.591600   -1.876220   -0.547070
  C      1.815160   -2.410550   -1.525900
  C      0.676060   -3.236830   -1.342390
  S      0.094360   -4.267880   -2.656680
  C     -1.196890   -4.708660   -1.559140
  N     -1.111090   -4.081580   -0.408080
  N     -0.099350   -3.291500   -0.295490
  C     -2.211640   -5.635770   -1.908430
  C     -3.207440   -5.961760   -1.045390
  C     -4.230920   -6.884030   -1.378780
  N     -5.267850   -7.213910   -0.542950
  C     -5.533700   -6.660000    0.763140
  C     -6.164140   -5.272680    0.673560
  C     -6.142490   -8.155650   -1.128920
  O     -7.138320   -8.577770   -0.587930
  C     -5.549340   -8.418830   -2.424670
  C     -4.390270   -7.623110   -2.553250
  C     -3.818030   -7.902110   -3.852400
  O     -2.836670   -7.461530   -4.416620
  N     -4.680110   -8.858450   -4.427150
  C     -4.362480   -9.414840   -5.721670
  C     -3.744860  -10.805810   -5.601250
  C     -5.710230   -9.183940   -3.577160
  C     -6.782310  -10.105760   -3.728800
  C     -7.105390  -10.877790   -4.789560
  C     -8.246560  -11.753040   -4.790090
  C     -9.023530  -11.976960   -5.946610
  C     -8.701100  -11.389520   -7.261500
  O     -7.785800  -10.673230   -7.548730
  S     -9.919380  -11.918340   -8.461790
  C    -10.858480  -12.849630   -7.246360
  O    -11.861160  -13.436020   -7.524930
  C    -10.182030  -12.754880   -5.938540
  C    -10.675730  -13.373470   -4.773760
  C     -9.832720  -13.245040   -3.656830
  C     -8.672480  -12.481100   -3.663990
  C     -7.956080  -12.759860   -2.390910
  O     -6.882380  -12.409600   -2.013760
  O     -8.737120  -13.632470   -1.673860
  C     -9.868090  -13.982910   -2.367070
  O    -10.644960  -14.786010   -1.954910
  C    -11.920800  -14.099760   -4.733720
  C    -12.773500  -14.008360   -3.701090
  C    -14.054300  -14.676920   -3.628500
  C    -15.130070  -14.012030   -3.033640
  C    -15.193100  -12.668610   -2.418720
  O    -14.324150  -11.850710   -2.288030
  O    -16.460880  -12.467750   -1.989540
  C    -17.291990  -13.581230   -2.276050
  C    -16.400470  -14.567700   -2.959790
  C    -16.648850  -15.826420   -3.473530
  C    -15.588300  -16.510210   -4.043150
  C    -14.301680  -15.970170   -4.131010
  C    -13.209870  -16.782110   -4.664910
  C    -13.328610  -17.645350   -5.664860
  H      6.042210    0.548060    0.153130
  H      3.703320   -2.280230    3.513250
  H      2.063470   -2.214250   -2.560940
  H     -2.164890   -6.076090   -2.895030
  H     -3.216260   -5.498720   -0.069540
  H     -4.607560   -6.629810    1.342930
  H     -6.231650   -7.349750    1.245800
  H     -5.502780   -4.574780    0.165070
  H     -6.366100   -4.897510    1.672720
  H     -7.102220   -5.325310    0.126400
  H     -3.632120   -8.731450   -6.165570
  H     -5.253960   -9.421160   -6.352630
  H     -2.799180  -10.744890   -5.068040
  H     -3.559200  -11.211470   -6.591770
  H     -4.400800  -11.482940   -5.058960
  H     -7.413440  -10.131430   -2.849830
  H     -6.569190  -10.813820   -5.721440
  H    -12.192640  -14.650870   -5.622970
  H    -12.572910  -13.319050   -2.892340
  H    -18.120870  -13.247450   -2.910280
  H    -17.704520  -13.964170   -1.335950
  H    -17.631340  -16.269200   -3.422240
  H    -15.749510  -17.509560   -4.418120
  H    -12.254170  -16.643450   -4.175700
  H    -14.253620  -17.780350   -6.200380
  H    -12.492750  -18.232650   -6.003500

 Total Charge           Charge          ....    0
 Multiplicity           Mult            ....    1
 Number of Electrons    NEL             ....  556
 Basis Dimension        Dim             .... 1168

ORBITAL ENERGIES
----------------

  NO   OCC          E(Eh)            E(eV)
   0   2.0000    -482.880273    -13139.8402
   1   2.0000    -482.878863    -13139.8019
   2   2.0000     -88.987651     -2421.4771
   3   2.0000     -88.959462     -2420.7100
   4   2.0000     -62.557907     -1702.2872
   5   2.0000     -62.556464     -1702.2479
   6   2.0000     -56.391857     -1534.5005
   7   2.0000     -56.390432     -1534.4617
   8   2.0000     -56.389206     -1534.4283
   9   2.0000     -56.389101     -1534.4254
  10   2.0000     -56.387753     -1534.3888
  11   2.0000     -56.387658     -1534.3862
  12   2.0000     -19.295104      -525.0465
  13   2.0000     -19.260218      -524.0972
  14   2.0000     -19.253404      -523.9118
  15   2.0000     -19.251735      -523.8663
  16   2.0000     -19.241579      -523.5900
  17   2.0000     -19.241204      -523.5798
  18   2.0000     -19.224910      -523.1364
  19   2.0000     -19.200491      -522.4719
  20   2.0000     -19.200117      -522.4617
  21   2.0000     -19.198146      -522.4081
  22   2.0000     -14.459987      -393.4763
  23   2.0000     -14.459914      -393.4743
  24   2.0000     -14.454933      -393.3387
  25   2.0000     -14.451391      -393.2423
  26   2.0000     -14.429278      -392.6406
  27   2.0000     -14.427009      -392.5789
  28   2.0000     -10.436726      -283.9978
  29   2.0000     -10.436453      -283.9903
  30   2.0000     -10.415459      -283.4191
  31   2.0000     -10.413790      -283.3736
  32   2.0000     -10.400281      -283.0060
  33   2.0000     -10.381915      -282.5063
  34   2.0000     -10.381300      -282.4895
  35   2.0000     -10.378163      -282.4042
  36   2.0000     -10.359585      -281.8986
  37   2.0000     -10.358321      -281.8643
  38   2.0000     -10.357892      -281.8526
  39   2.0000     -10.357701      -281.8474
  40   2.0000     -10.355693      -281.7927
  41   2.0000     -10.354792      -281.7682
  42   2.0000     -10.351096      -281.6676
  43   2.0000     -10.345495      -281.5152
  44   2.0000     -10.344114      -281.4777
  45   2.0000     -10.341232      -281.3992
  46   2.0000     -10.339364      -281.3484
  47   2.0000     -10.335693      -281.2485
  48   2.0000     -10.334822      -281.2248
  49   2.0000     -10.333592      -281.1913
  50   2.0000     -10.333225      -281.1813
  51   2.0000     -10.332104      -281.1508
  52   2.0000     -10.330900      -281.1181
  53   2.0000     -10.328668      -281.0574
  54   2.0000     -10.323496      -280.9166
  55   2.0000     -10.319629      -280.8114
  56   2.0000     -10.316429      -280.7243
  57   2.0000     -10.315337      -280.6946
  58   2.0000     -10.311212      -280.5823
  59   2.0000     -10.308357      -280.5046
  60   2.0000     -10.308326      -280.5038
  61   2.0000     -10.307539      -280.4824
  62   2.0000     -10.306902      -280.4651
  63   2.0000     -10.305390      -280.4239
  64   2.0000     -10.303492      -280.3723
  65   2.0000     -10.300095      -280.2798
  66   2.0000     -10.299959      -280.2761
  67   2.0000     -10.296977      -280.1950
  68   2.0000     -10.294152      -280.1181
  69   2.0000     -10.293314      -280.0953
  70   2.0000     -10.292767      -280.0804
  71   2.0000     -10.291324      -280.0412
  72   2.0000     -10.288296      -279.9588
  73   2.0000     -10.279881      -279.7298
  74   2.0000     -10.271323      -279.4969
  75   2.0000     -10.271084      -279.4904
  76   2.0000     -10.270447      -279.4731
  77   2.0000     -10.265006      -279.3250
  78   2.0000     -10.263897      -279.2948
  79   2.0000      -8.787251      -239.1133
  80   2.0000      -8.785774      -239.0731
  81   2.0000      -8.083834      -219.9723
  82   2.0000      -8.058737      -219.2894
  83   2.0000      -6.623405      -180.2320
  84   2.0000      -6.621970      -180.1930
  85   2.0000      -6.609386      -179.8505
  86   2.0000      -6.608552      -179.8278
  87   2.0000      -6.607853      -179.8088
  88   2.0000      -6.607086      -179.7879
  89   2.0000      -6.052319      -164.6920
  90   2.0000      -6.049057      -164.6032
  91   2.0000      -6.046432      -164.5318
  92   2.0000      -6.027635      -164.0203
  93   2.0000      -6.024306      -163.9297
  94   2.0000      -6.019768      -163.8062
  95   2.0000      -2.739269       -74.5393
  96   2.0000      -2.737853       -74.5008
  97   2.0000      -2.735575       -74.4388
  98   2.0000      -2.734918       -74.4209
  99   2.0000      -2.734059       -74.3975
 100   2.0000      -2.733479       -74.3818
 101   2.0000      -2.723766       -74.1174
 102   2.0000      -2.723743       -74.1168
 103   2.0000      -2.722251       -74.0762
 104   2.0000      -2.722235       -74.0758
 105   2.0000      -1.245380       -33.8885
 106   2.0000      -1.194830       -32.5130
 107   2.0000      -1.177644       -32.0453
 108   2.0000      -1.173465       -31.9316
 109   2.0000      -1.170167       -31.8418
 110   2.0000      -1.160460       -31.5777
 111   2.0000      -1.142153       -31.0796
 112   2.0000      -1.141271       -31.0556
 113   2.0000      -1.134730       -30.8776
 114   2.0000      -1.132159       -30.8076
 115   2.0000      -1.106336       -30.1049
 116   2.0000      -1.071281       -29.1510
 117   2.0000      -1.061733       -28.8912
 118   2.0000      -1.033354       -28.1190
 119   2.0000      -1.023133       -27.8409
 120   2.0000      -1.016341       -27.6560
 121   2.0000      -1.006273       -27.3821
 122   2.0000      -0.985777       -26.8244
 123   2.0000      -0.983194       -26.7541
 124   2.0000      -0.960098       -26.1256
 125   2.0000      -0.959995       -26.1228
 126   2.0000      -0.944846       -25.7106
 127   2.0000      -0.942898       -25.6576
 128   2.0000      -0.934039       -25.4165
 129   2.0000      -0.927132       -25.2285
 130   2.0000      -0.916614       -24.9423
 131   2.0000      -0.913905       -24.8686
 132   2.0000      -0.903643       -24.5894
 133   2.0000      -0.901009       -24.5177
 134   2.0000      -0.893346       -24.3092
 135   2.0000      -0.885998       -24.1092
 136   2.0000      -0.883115       -24.0308
 137   2.0000      -0.872803       -23.7502
 138   2.0000      -0.858593       -23.3635
 139   2.0000      -0.854705       -23.2577
 140   2.0000      -0.847753       -23.0685
 141   2.0000      -0.843632       -22.9564
 142   2.0000      -0.824285       -22.4299
 143   2.0000      -0.818098       -22.2616
 144   2.0000      -0.808223       -21.9929
 145   2.0000      -0.804292       -21.8859
 146   2.0000      -0.797326       -21.6963
 147   2.0000      -0.790836       -21.5197
 148   2.0000      -0.775051       -21.0902
 149   2.0000      -0.773755       -21.0549
 150   2.0000      -0.763991       -20.7893
 151   2.0000      -0.763481       -20.7754
 152   2.0000      -0.745974       -20.2990
 153   2.0000      -0.735081       -20.0026
 154   2.0000      -0.730262       -19.8714
 155   2.0000      -0.722889       -19.6708
 156   2.0000      -0.719963       -19.5912
 157   2.0000      -0.710797       -19.3418
 158   2.0000      -0.709087       -19.2953
 159   2.0000      -0.707195       -19.2438
 160   2.0000      -0.701127       -19.0786
 161   2.0000      -0.694375       -18.8949
 162   2.0000      -0.683694       -18.6043
 163   2.0000      -0.679231       -18.4828
 164   2.0000      -0.660690       -17.9783
 165   2.0000      -0.658249       -17.9119
 166   2.0000      -0.654024       -17.7969
 167   2.0000      -0.646558       -17.5937
 168   2.0000      -0.642636       -17.4870
 169   2.0000      -0.636361       -17.3163
 170   2.0000      -0.634801       -17.2738
 171   2.0000      -0.624572       -16.9955
 172   2.0000      -0.623225       -16.9588
 173   2.0000      -0.615239       -16.7415
 174   2.0000      -0.610639       -16.6163
 175   2.0000      -0.606148       -16.4941
 176   2.0000      -0.601372       -16.3642
 177   2.0000      -0.598920       -16.2974
 178   2.0000      -0.591264       -16.0891
 179   2.0000      -0.590471       -16.0675
 180   2.0000      -0.588169       -16.0049
 181   2.0000      -0.585506       -15.9324
 182   2.0000      -0.584795       -15.9131
 183   2.0000      -0.577845       -15.7240
 184   2.0000      -0.577191       -15.7062
 185   2.0000      -0.573392       -15.6028
 186   2.0000      -0.569742       -15.5035
 187   2.0000      -0.564154       -15.3514
 188   2.0000      -0.563928       -15.3453
 189   2.0000      -0.560904       -15.2630
 190   2.0000      -0.557447       -15.1689
 191   2.0000      -0.556397       -15.1403
 192   2.0000      -0.554639       -15.0925
 193   2.0000      -0.551707       -15.0127
 194   2.0000      -0.547109       -14.8876
 195   2.0000      -0.547066       -14.8864
 196   2.0000      -0.540574       -14.7098
 197   2.0000      -0.539511       -14.6808
 198   2.0000      -0.535860       -14.5815
 199   2.0000      -0.534440       -14.5429
 200   2.0000      -0.532766       -14.4973
 201   2.0000      -0.531017       -14.4497
 202   2.0000      -0.529505       -14.4086
 203   2.0000      -0.527315       -14.3490
 204   2.0000      -0.523865       -14.2551
 205   2.0000      -0.520996       -14.1770
 206   2.0000      -0.518711       -14.1148
 207   2.0000      -0.517265       -14.0755
 208   2.0000      -0.516869       -14.0647
 209   2.0000      -0.514697       -14.0056
 210   2.0000      -0.510972       -13.9042
 211   2.0000      -0.508980       -13.8501
 212   2.0000      -0.508843       -13.8463
 213   2.0000      -0.507329       -13.8051
 214   2.0000      -0.506200       -13.7744
 215   2.0000      -0.501371       -13.6430
 216   2.0000      -0.497993       -13.5511
 217   2.0000      -0.494989       -13.4693
 218   2.0000      -0.491861       -13.3842
 219   2.0000      -0.486784       -13.2461
 220   2.0000      -0.484541       -13.1850
 221   2.0000      -0.482361       -13.1257
 222   2.0000      -0.473853       -12.8942
 223   2.0000      -0.472452       -12.8561
 224   2.0000      -0.471668       -12.8347
 225   2.0000      -0.471096       -12.8192
 226   2.0000      -0.467882       -12.7317
 227   2.0000      -0.467465       -12.7204
 228   2.0000      -0.466627       -12.6976
 229   2.0000      -0.466363       -12.6904
 230   2.0000      -0.459832       -12.5127
 231   2.0000      -0.459519       -12.5042
 232   2.0000      -0.457785       -12.4570
 233   2.0000      -0.454310       -12.3624
 234   2.0000      -0.453022       -12.3274
 235   2.0000      -0.452756       -12.3201
 236   2.0000      -0.450114       -12.2482
 237   2.0000      -0.443858       -12.0780
 238   2.0000      -0.440372       -11.9831
 239   2.0000      -0.439422       -11.9573
 240   2.0000      -0.439171       -11.9504
 241   2.0000      -0.436593       -11.8803
 242   2.0000      -0.431400       -11.7390
 243   2.0000      -0.430130       -11.7044
 244   2.0000      -0.424378       -11.5479
 245   2.0000      -0.422005       -11.4833
 246   2.0000      -0.418841       -11.3972
 247   2.0000      -0.416630       -11.3371
 248   2.0000      -0.411750       -11.2043
 249   2.0000      -0.406511       -11.0617
 250   2.0000      -0.403014       -10.9666
 251   2.0000      -0.400796       -10.9062
 252   2.0000      -0.396649       -10.7934
 253   2.0000      -0.393181       -10.6990
 254   2.0000      -0.386452       -10.5159
 255   2.0000      -0.382217       -10.4006
 256   2.0000      -0.381655       -10.3854
 257   2.0000      -0.379987       -10.3400
 258   2.0000      -0.376174       -10.2362
 259   2.0000      -0.371017       -10.0959
 260   2.0000      -0.367133        -9.9902
 261   2.0000      -0.356589        -9.7033
 262   2.0000      -0.355788        -9.6815
 263   2.0000      -0.353919        -9.6306
 264   2.0000      -0.352589        -9.5944
 265   2.0000      -0.351580        -9.5670
 266   2.0000      -0.347734        -9.4623
 267   2.0000      -0.347121        -9.4456
 268   2.0000      -0.340310        -9.2603
 269   2.0000      -0.339698        -9.2437
 270   2.0000      -0.338662        -9.2155
 271   2.0000      -0.326396        -8.8817
 272   2.0000      -0.322706        -8.7813
 273   2.0000      -0.318914        -8.6781
 274   2.0000      -0.318255        -8.6602
 275   2.0000      -0.307413        -8.3651
 276   2.0000      -0.292870        -7.9694
 277   2.0000      -0.247811        -6.7433
 278   0.0000      -0.117421        -3.1952
 279   0.0000      -0.100464        -2.7338
 280   0.0000      -0.094450        -2.5701
 281   0.0000      -0.074534        -2.0282
 282   0.0000      -0.063409        -1.7254

MULLIKEN ATOMIC CHARGES
-----------------------
   0 C :    0.151343
   1 O :   -0.091077
   2 C :   -0.026893
   3 C :    0.039995
   4 C :   -0.008163
   5 C :   -0.025827
   6 C :   -0.013796
   7 C :   -0.017461
   8 Br:    0.020088
   9 Br:    0.025222
  10 C :    0.294038
  11 C :   -0.329794
  12 C :   -0.184540
  13 N :    0.165679
  14 C :   -0.195463
  15 N :    0.168503
  16 C :   -0.067704
  17 C :    0.046327
  18 C :   -0.134649
  19 S :    0.147116
  20 C :   -0.096106
  21 N :   -0.052609
  22 N :    0.014929
  23 C :    0.078242
  24 C :   -0.020400
  25 C :    0.148448
  26 N :   -0.265291
  27 C :    0.094329
  28 C :    0.002105
  29 C :    0.160355
  30 O :   -0.177394
  31 C :   -0.032270
  32 C :   -0.061242
  33 C :    0.169095
  34 O :   -0.208251
  35 N :   -0.263444
  36 C :    0.091514
  37 C :   -0.001207
  38 C :    0.084269
  39 C :    0.034532
  40 C :   -0.044081
  41 C :    0.034981
  42 C :    0.036034
  43 C :    0.040040
  44 O :   -0.135610
  45 S :    0.026739
  46 C :    0.033752
  47 O :   -0.119846
  48 C :    0.040704
  49 C :    0.035275
  50 C :   -0.079475
  51 C :   -0.075231
  52 C :    0.225863
  53 O :   -0.089821
  54 O :   -0.222976
  55 C :    0.229458
  56 O :   -0.095556
  57 C :   -0.059810
  58 C :    0.031367
  59 C :    0.021964
  60 C :   -0.061080
  61 C :    0.208727
  62 O :   -0.168375
  63 O :   -0.287531
  64 C :    0.332247
  65 C :   -0.101844
  66 C :   -0.027195
  67 C :   -0.006896
  68 C :    0.047215
  69 C :   -0.045432
  70 C :   -0.016779
  71 H :    0.008473
  72 H :    0.009673
  73 H :    0.029317
  74 H :    0.014763
  75 H :    0.009625
  76 H :    0.030687
  77 H :    0.047612
  78 H :    0.019133
  79 H :    0.027832
  80 H :    0.030076
  81 H :    0.044164
  82 H :    0.040932
  83 H :    0.026035
  84 H :    0.023708
  85 H :    0.025918
  86 H :    0.013405
  87 H :    0.023674
  88 H :    0.041928
  89 H :    0.029614
  90 H :    0.043759
  91 H :    0.044329
  92 H :   -0.019704
  93 H :   -0.012836
  94 H :    0.030379
  95 H :    0.020513
  96 H :    0.027617
Sum of atomic charges:   -0.0000000

LOEWDIN ATOMIC CHARGES
----------------------
   0 C :    0.077402
   1 O :   -0.096463
   2 C :   -0.039947
   3 C :   -0.014723
   4 C :   -0.006467
   5 C :   -0.118679
   6 C :   -0.120505
   7 C :    0.008082
   8 Br:    0.142470
   9 Br:    0.144093
  10 C :    0.071098
  11 C :   -0.123554
  12 C :   -0.019545
  13 N :   -0.036755
  14 C :   -0.023342
  15 N :   -0.037566
  16 C :   -0.061211
  17 C :    0.034161
  18 C :   -0.163979
  19 S :    0.427190
  20 C :   -0.138896
  21 N :   -0.071279
  22 N :   -0.022071
  23 C :   -0.008097
  24 C :   -0.002183
  25 C :    0.081137
  26 N :   -0.001093
  27 C :    0.037068
  28 C :   -0.060006
  29 C :    0.083484
  30 O :   -0.179692
  31 C :   -0.099510
  32 C :   -0.118829
  33 C :    0.083645
  34 O :   -0.196407
  35 N :    0.001421
  36 C :    0.035147
  37 C :   -0.062484
  38 C :    0.069232
  39 C :    0.013516
  40 C :   -0.024927
  41 C :    0.026205
  42 C :   -0.052461
  43 C :   -0.041720
  44 O :   -0.118836
  45 S :    0.311611
  46 C :   -0.040696
  47 O :   -0.105426
  48 C :   -0.053082
  49 C :    0.034107
  50 C :   -0.042672
  51 C :   -0.042957
  52 C :    0.105738
  53 O :   -0.089820
  54 O :   -0.050652
  55 C :    0.107098
  56 O :   -0.095009
  57 C :   -0.032796
  58 C :    0.037011
  59 C :    0.004331
  60 C :   -0.066807
  61 C :    0.087106
  62 O :   -0.158166
  63 O :   -0.085112
  64 C :    0.103123
  65 C :   -0.024716
  66 C :   -0.020913
  67 C :    0.011211
  68 C :   -0.009916
  69 C :   -0.019417
  70 C :   -0.040512
  71 H :    0.044745
  72 H :    0.047628
  73 H :    0.047527
  74 H :    0.039160
  75 H :    0.040223
  76 H :    0.026369
  77 H :    0.039415
  78 H :    0.023631
  79 H :    0.032933
  80 H :    0.032270
  81 H :    0.037738
  82 H :    0.027153
  83 H :    0.031682
  84 H :    0.031605
  85 H :    0.023468
  86 H :    0.045264
  87 H :    0.032698
  88 H :    0.038332
  89 H :    0.036060
  90 H :    0.036827
  91 H :    0.037161
  92 H :    0.031982
  93 H :    0.033286
  94 H :    0.036938
  95 H :    0.021912
  96 H :    0.027206

  Mayer bond orders larger than 0.100000
B(  0-C ,  1-O ) :   2.2933 B(  0-C ,  2-C ) :   0.9343 B(  0-C , 16-C ) :   0.9100
B(  2-C ,  3-C ) :   1.3276 B(  2-C ,  7-C ) :   1.3740 B(  3-C ,  4-C ) :   1.3535
B(  3-C , 10-C ) :   1.0002 B(  4-C ,  5-C ) :   1.3794 B(  4-C , 71-H ) :   0.9797
B(  5-C ,  6-C ) :   1.4134 B(  5-C ,  9-Br) :   1.0596 B(  6-C ,  7-C ) :   1.3536
B(  6-C ,  8-Br) :   1.0385 B(  7-C , 72-H ) :   1.0082 B( 10-C , 11-C ) :   1.6614
B( 10-C , 16-C ) :   1.0599 B( 11-C , 12-C ) :   1.1348 B( 11-C , 14-C ) :   1.1381
B( 12-C , 13-N ) :   2.9757 B( 14-C , 15-N ) :   2.9857 B( 16-C , 17-C ) :   1.6857
B( 17-C , 18-C ) :   1.1262 B( 17-C , 73-H ) :   0.9236 B( 18-C , 19-S ) :   1.0835
B( 18-C , 22-N ) :   1.6208 B( 19-S , 20-C ) :   1.1371 B( 19-S , 22-N ) :   0.1063
B( 20-C , 21-N ) :   1.6025 B( 20-C , 23-C ) :   1.1153 B( 21-N , 22-N ) :   1.2856
B( 23-C , 24-C ) :   1.6462 B( 23-C , 74-H ) :   0.9244 B( 24-C , 25-C ) :   1.1301
B( 24-C , 75-H ) :   0.9727 B( 25-C , 26-N ) :   1.1767 B( 25-C , 32-C ) :   1.3284
B( 26-N , 27-C ) :   0.9390 B( 26-N , 29-C ) :   1.0287 B( 27-C , 28-C ) :   1.1227
B( 27-C , 76-H ) :   0.9502 B( 27-C , 77-H ) :   0.9289 B( 28-C , 78-H ) :   0.9688
B( 28-C , 79-H ) :   0.9676 B( 28-C , 80-H ) :   0.9638 B( 29-C , 30-O ) :   2.1409
B( 29-C , 31-C ) :   0.9663 B( 31-C , 32-C ) :   1.2550 B( 31-C , 38-C ) :   1.3604
B( 32-C , 33-C ) :   0.9849 B( 33-C , 34-O ) :   2.0221 B( 33-C , 35-N ) :   1.0646
B( 34-O , 74-H ) :   0.1122 B( 35-N , 36-C ) :   0.9357 B( 35-N , 38-C ) :   1.1645
B( 36-C , 37-C ) :   1.1177 B( 36-C , 81-H ) :   0.9241 B( 36-C , 82-H ) :   0.9500
B( 37-C , 83-H ) :   0.9610 B( 37-C , 84-H ) :   0.9679 B( 37-C , 85-H ) :   0.9686
B( 38-C , 39-C ) :   1.2067 B( 39-C , 40-C ) :   1.6115 B( 39-C , 86-H ) :   0.9339
B( 40-C , 41-C ) :   1.1035 B( 40-C , 87-H ) :   0.9456 B( 41-C , 42-C ) :   1.3630
B( 41-C , 51-C ) :   1.3112 B( 42-C , 43-C ) :   0.8562 B( 42-C , 48-C ) :   1.3083
B( 43-C , 44-O ) :   2.1417 B( 43-C , 45-S ) :   1.0404 B( 44-O , 45-S ) :   0.1049
B( 45-S , 46-C ) :   1.0282 B( 45-S , 47-O ) :   0.1046 B( 46-C , 47-O ) :   2.1707
B( 46-C , 48-C ) :   0.8488 B( 48-C , 49-C ) :   1.3668 B( 49-C , 50-C ) :   1.3211
B( 49-C , 57-C ) :   1.0915 B( 50-C , 51-C ) :   1.3758 B( 50-C , 55-C ) :   0.9032
B( 51-C , 52-C ) :   0.9022 B( 52-C , 53-O ) :   2.2670 B( 52-C , 54-O ) :   1.0513
B( 54-O , 55-C ) :   1.0599 B( 55-C , 56-O ) :   2.2507 B( 57-C , 58-C ) :   1.7144
B( 57-C , 88-H ) :   0.9381 B( 58-C , 59-C ) :   1.1037 B( 58-C , 89-H ) :   0.9431
B( 59-C , 60-C ) :   1.3261 B( 59-C , 68-C ) :   1.3607 B( 60-C , 61-C ) :   0.9153
B( 60-C , 65-C ) :   1.4261 B( 61-C , 62-O ) :   2.1656 B( 61-C , 63-O ) :   1.1350
B( 63-O , 64-C ) :   0.9731 B( 64-C , 65-C ) :   1.0081 B( 64-C , 90-H ) :   0.9267
B( 64-C , 91-H ) :   0.9265 B( 65-C , 66-C ) :   1.3499 B( 66-C , 67-C ) :   1.3741
B( 66-C , 92-H ) :   1.0093 B( 67-C , 68-C ) :   1.3691 B( 67-C , 93-H ) :   0.9884
B( 68-C , 69-C ) :   1.0308 B( 69-C , 70-C ) :   1.9653 B( 69-C , 94-H ) :   0.9506
B( 70-C , 95-H ) :   0.9588 B( 70-C , 96-H ) :   0.9522

-----------------------------------------------------------------------------
         ABSORPTION SPECTRUM VIA TRANSITION ELECTRIC DIPOLE MOMENTS
-----------------------------------------------------------------------------
State   Energy  Wavelength   fosc         T2         TX        TY        TZ
        (cm-1)    (nm)                  (au**2)     (au)      (au)      (au)
-----------------------------------------------------------------------------
   0   13940.7    717.3   1.039510554  24.54813  -3.23218  -3.27723  -1.83328
   1   16692.6    599.1   0.018294197   0.36080   0.11476  -0.14366   0.57183
   2   20009.7    499.8   0.051096919   0.84068   0.03156  -0.39984  -0.82451
   3   21603.2    462.9   0.044579738   0.67935   0.58013   0.56039  -0.16959
   4   23443.7    426.6   0.031330207   0.43996  -0.10855   0.11582  -0.64402
   5   24499.1    408.2   0.245582402   3.30007  -1.50898  -0.96005   0.31833
   6   25658.8    389.7   0.171164325   2.19610   1.20676   0.83615  -0.20174
   7   25726.4    388.7   0.139984400   1.79133  -1.00288  -0.88046  -0.10175
   8   26763.7    373.6   0.433827612   5.33638  -1.96562  -1.19106   0.23256
   9   27041.8    369.8   0.083118713   1.01190   0.58262   0.78201   0.24682
  10   27439.4    364.4   0.003738781   0.04486  -0.20069  -0.05125   0.04419
  11   27851.0    359.1   0.145343703   1.71803   0.72751   0.73623  -0.80420
  12   28360.9    352.6   0.171248118   1.98784  -1.11496  -0.37801  -0.77577
  13   28369.2    352.5   0.265295412   3.07863   1.41579   0.67598   0.78563
  14   29479.4    339.2   0.030204779   0.33731   0.11076   0.13141  -0.55478
  15   30051.7    332.8   0.016818730   0.18425  -0.39338  -0.02227   0.17031
  16   30782.3    324.9   0.020298743   0.21709  -0.06137   0.04893  -0.45927
  17   31010.8    322.5   0.009978439   0.10593  -0.20630  -0.20666  -0.14374
  18   31493.6    317.5   0.026820067   0.28036  -0.30235  -0.43345   0.03256
  19   31699.4    315.5   0.019438146   0.20187  -0.01414   0.09800  -0.43826
  20   32100.8    311.5   0.100205258   1.02766  -0.76244  -0.34894  -0.56973
  21   32390.2    308.7   0.028418571   0.28884   0.50062   0.19543   0.00583
  22   32588.0    306.9   0.001664178   0.01681  -0.12028  -0.02785   0.03962
  23   33052.2    302.6   0.019434692   0.19358   0.38818   0.11550  -0.17190
  24   33306.2    300.2   0.134478738   1.32924  -1.03784  -0.48101   0.14410
  25   33864.8    295.3   0.000148558   0.00144  -0.03136  -0.00878  -0.01959
  26   34095.5    293.3   0.038301068   0.36982  -0.28802   0.05472  -0.53279
  27   34582.6    289.2   0.073550327   0.70017  -0.67233  -0.18956  -0.46067
  28   34940.6    286.2   0.003694614   0.03481   0.12424   0.10125  -0.09552
  29   35051.3    285.3   0.405555126   3.80910   0.17055  -0.72826   1.80268
  30   35126.2    284.7   0.097763829   0.91627   0.62749   0.72007   0.06351
  31   35465.1    282.0   0.140315891   1.30251   0.23761   0.21658  -1.09505
  32   36001.2    277.8   0.209592570   1.91661  -0.76202  -0.40495   1.08257
  33   36184.5    276.4   0.015966154   0.14526  -0.37753  -0.03313  -0.04046
  34   36350.4    275.1   0.000882322   0.00799  -0.05367  -0.06360  -0.03265
  35   36411.4    274.6   0.052550992   0.47514   0.56291   0.29194  -0.27026
  36   36664.8    272.7   0.000614804   0.00552  -0.04581  -0.04951   0.03115
  37   37085.4    269.6   0.028256554   0.25084   0.16271  -0.29648  -0.36941
  38   37272.3    268.3   0.002165616   0.01913  -0.06154   0.03384   0.11915
  39   37394.6    267.4   0.002247975   0.01979  -0.11003  -0.04150   0.07721
  40   37758.5    264.8   0.039508832   0.34447   0.28107  -0.15923  -0.49002
  41   37797.5    264.6   0.022090920   0.19241  -0.28365  -0.20720  -0.26272
  42   37934.8    263.6   0.010760488   0.09338   0.15053   0.19426  -0.18163
  43   38055.7    262.8   0.004523252   0.03913  -0.14994  -0.00057  -0.12903
  44   38528.1    259.6   0.003265073   0.02790  -0.02962  -0.16307  -0.02075
  45   38826.5    257.6   0.038600584   0.32730   0.15705  -0.41442  -0.36178
  46   39190.7    255.2   0.046097687   0.38723   0.60173  -0.03564   0.15456
  47   39559.4    252.8   0.100418003   0.83568  -0.10469   0.08970  -0.90370
  48   39700.9    251.9   0.079410932   0.65850   0.63358   0.47968  -0.16428
  49   39883.6    250.7   0.086875892   0.71710  -0.64390  -0.47289  -0.28084
  50   40082.5    249.5   0.041251774   0.33882   0.49343  -0.00036   0.30878

FINAL SINGLE POINT ENERGY     -8980.137334197794

DIPOLE MOMENT
-------------
                                X             Y             Z
Electronic contribution:    279.50411     196.24849     126.82653
Nuclear contribution   :   -281.45805    -198.95102    -127.12462
                        -----------------------------------------
Total Dipole Moment    :     -1.95394      -2.70253      -0.29809
                        -----------------------------------------
Magnitude (a.u.)       :      3.34819
Magnitude (Debye)      :      8.51042

Rotational constants in cm-1:     0.002262     0.000160     0.000154
Rotational constants in MHz :    67.806578     4.793500     4.616513

                             ****ORCA TERMINATED NORMALLY****
TOTAL RUN TIME: 0 days 0 hours 8 minutes 51 seconds 561 msec
