                         Program Version 4.2.0 -  RELEASE  -
|  1> # ORCA input file
|  2> # SCF done       -218.685902589932          0.000882748470
|  3> ! CAM-B3LYP def2-SVP def2/J RIJCOSX Grid4 TightSCF
|  4> %maxcore 5000
|  5> %tddft
|  6>     Mode sTDDFT
|  7>     Ethresh 5.0
|  8>     maxcore 5000
|  9> end
| 10>
| 11> %pal
| 12>   nprocs 6
| 13>   end
| 14> * xyz 0 1
| 15>    C        2.24587         5.51386         2.91213
| 16>    C        1.49388         6.46228         3.55128
| 17>    C        2.00479         7.70431         3.98269
| 18>    N        2.37161         8.73253         4.33600
| 19>    C        0.14967         6.26416         3.93089
| 20>    N       -0.93055         6.12114         4.29183
| 21>    C        3.69413         5.53933         2.76064
| 22>    C        4.15284         4.20180         2.56868
| 23>    C        5.48287         3.91065         2.46213
| 24>    C        6.42616         4.96027         2.53158
| 25>    C        5.97107         6.30156         2.69462
| 26>    C        4.58910         6.57419         2.80974
| 27>    C        6.92284         7.33998         2.75056
| 28>    C        8.26079         7.06830         2.65958
| 29>    C        8.70832         5.74747         2.50617
| 30>    C        7.81090         4.71617         2.44245
| 31>    C        2.99908         3.28806         2.51165
| 32>    O        2.99575         2.08624         2.40643
| 33>    C        1.79808         4.18364         2.53876
| 34>    C        0.59003         3.71699         2.14843
| 35>    C       -0.55890         4.46660         1.76783
| 36>    S       -0.47427         6.02976         0.96804
| 37>    C       -1.87646         4.10140         1.90364
| 38>    C       -2.63683         2.97115         2.47458
| 39>    O       -2.24755         1.93876         2.95392
| 40>    N       -3.97031         3.33270         2.31624
| 41>    C       -5.06544         2.51320         2.79118
| 42>    C       -5.40207         2.83416         4.24277
| 43>    C       -4.15706         4.57132         1.71258
| 44>    O       -5.22392         5.07625         1.46973
| 45>    C       -2.79521         5.06361         1.44599
| 46>    C       -2.22029         6.18608         0.89109
| 47>    C       -2.89269         7.30792         0.35327
| 48>    C       -2.28252         8.35313        -0.25802
| 49>    C       -2.95887         9.48630        -0.77930
| 50>    C       -2.39492        10.49608        -1.52505
| 51>    C       -3.39433        11.46474        -1.84222
| 52>    C       -4.64171        10.97646        -1.21790
| 53>    C       -4.37519         9.79587        -0.60604
| 54>    C       -5.90110        11.58609        -1.27024
| 55>    N       -6.94833        12.05699        -1.29764
| 56>    C       -3.25513        12.60845        -2.58720
| 57>    C       -4.23877        13.61889        -2.82586
| 58>    C       -3.71478        14.57600        -3.65683
| 59>    C       -2.34752        14.19054        -3.98051
| 60>    C       -2.05403        13.03357        -3.33203
| 61>    C       -0.82964        12.35962        -3.39808
| 62>    N        0.18520        11.82588        -3.47028
| 63>    C       -4.39731        15.74917        -4.10170
| 64>    C       -3.98237        16.54533        -5.10286
| 65>    C       -4.70254        17.71014        -5.56638
| 66>    S       -5.15767        17.76292        -7.23875
| 67>    C       -5.98393        19.26739        -7.03756
| 68>    C       -5.85717        19.73152        -5.74872
| 69>    C       -5.14453        18.83376        -4.90392
| 70>    C       -4.77581        19.18641        -3.49111
| 71>    F       -4.45435        18.12687        -2.73659
| 72>    F       -3.70407        19.99650        -3.45140
| 73>    F       -5.76630        19.80885        -2.84205
| 74>    C       -6.31858        21.09307        -5.31945
| 75>    F       -6.60777        21.87936        -6.36912
| 76>    F       -7.43264        21.05644        -4.56672
| 77>    F       -5.39454        21.74993        -4.61396
| 78>    C       -6.60841        19.83775        -8.20871
| 79>    N       -7.91686        20.22279        -8.32598
| 80>    C       -8.98283        20.01539        -7.37507
| 81>    C       -9.25193        18.53282        -7.13556
| 82>    C       -8.19006        20.71490        -9.62665
| 83>    O       -9.28977        21.09542        -9.96870
| 84>    C       -6.92971        20.61706       -10.32080
| 85>    C       -5.98472        20.04386        -9.41822
| 86>    C       -4.71396        19.93630       -10.09984
| 87>    O       -3.63833        19.49999        -9.75102
| 88>    N       -4.97710        20.45055       -11.38477
| 89>    C       -3.92200        20.57000       -12.36206
| 90>    C       -3.37069        21.99211       -12.42773
| 91>    C       -6.28236        20.86158       -11.52136
| 92>    C       -6.81206        21.41851       -12.73422
| 93>    C       -8.07781        21.82596       -12.84808
| 94>    H        5.81204         2.89077         2.33000
| 95>    H        4.26846         7.59778         2.92617
| 96>    H        6.57347         8.35451         2.87296
| 97>    H        8.98221         7.87006         2.70660
| 98>    H        9.76777         5.55129         2.43843
| 99>    H        8.14988         3.69758         2.32387
|100>    H        0.48406         2.63768         2.08434
|101>    H       -4.75875         1.46908         2.69336
|102>    H       -5.92453         2.71139         2.14596
|103>    H       -4.53527         2.66000         4.87598
|104>    H       -6.21586         2.19877         4.58010
|105>    H       -5.70577         3.87414         4.33775
|106>    H       -3.96896         7.26902         0.45577
|107>    H       -1.20549         8.33808        -0.37764
|108>    H       -1.36644        10.56019        -1.82201
|109>    H       -5.08179         9.19071        -0.07007
|110>    H       -5.22668        13.61948        -2.40959
|111>    H       -1.67821        14.74703        -4.60942
|112>    H       -5.32391        15.96835        -3.58906
|113>    H       -3.11887        16.27663        -5.69620
|114>    H       -9.86211        20.48813        -7.82169
|115>    H       -8.76397        20.51906        -6.43309
|116>    H       -9.48105        18.03399        -8.07445
|117>    H      -10.10040        18.42317        -6.46659
|118>    H       -8.39132        18.04508        -6.68204
|119>    H       -4.28764        20.24628       -13.34029
|120>    H       -3.13287        19.88564       -12.03772
|121>    H       -4.14673        22.69961       -12.71146
|122>    H       -2.56641        22.04211       -13.15633
|123>    H       -2.97796        22.28175       -11.45622
|124>    H       -6.13570        21.49493       -13.57410
|125>    H       -8.76915        21.75887       -12.02461
|126>    H       -8.44901        22.23690       -13.77104
|127> *
|128>
|129>                          ****END OF INPUT****

CARTESIAN COORDINATES (ANGSTROEM)
---------------------------------
  C      2.245870    5.513860    2.912130
  C      1.493880    6.462280    3.551280
  C      2.004790    7.704310    3.982690
  N      2.371610    8.732530    4.336000
  C      0.149670    6.264160    3.930890
  N     -0.930550    6.121140    4.291830
  C      3.694130    5.539330    2.760640
  C      4.152840    4.201800    2.568680
  C      5.482870    3.910650    2.462130
  C      6.426160    4.960270    2.531580
  C      5.971070    6.301560    2.694620
  C      4.589100    6.574190    2.809740
  C      6.922840    7.339980    2.750560
  C      8.260790    7.068300    2.659580
  C      8.708320    5.747470    2.506170
  C      7.810900    4.716170    2.442450
  C      2.999080    3.288060    2.511650
  O      2.995750    2.086240    2.406430
  C      1.798080    4.183640    2.538760
  C      0.590030    3.716990    2.148430
  C     -0.558900    4.466600    1.767830
  S     -0.474270    6.029760    0.968040
  C     -1.876460    4.101400    1.903640
  C     -2.636830    2.971150    2.474580
  O     -2.247550    1.938760    2.953920
  N     -3.970310    3.332700    2.316240
  C     -5.065440    2.513200    2.791180
  C     -5.402070    2.834160    4.242770
  C     -4.157060    4.571320    1.712580
  O     -5.223920    5.076250    1.469730
  C     -2.795210    5.063610    1.445990
  C     -2.220290    6.186080    0.891090
  C     -2.892690    7.307920    0.353270
  C     -2.282520    8.353130   -0.258020
  C     -2.958870    9.486300   -0.779300
  C     -2.394920   10.496080   -1.525050
  C     -3.394330   11.464740   -1.842220
  C     -4.641710   10.976460   -1.217900
  C     -4.375190    9.795870   -0.606040
  C     -5.901100   11.586090   -1.270240
  N     -6.948330   12.056990   -1.297640
  C     -3.255130   12.608450   -2.587200
  C     -4.238770   13.618890   -2.825860
  C     -3.714780   14.576000   -3.656830
  C     -2.347520   14.190540   -3.980510
  C     -2.054030   13.033570   -3.332030
  C     -0.829640   12.359620   -3.398080
  N      0.185200   11.825880   -3.470280
  C     -4.397310   15.749170   -4.101700
  C     -3.982370   16.545330   -5.102860
  C     -4.702540   17.710140   -5.566380
  S     -5.157670   17.762920   -7.238750
  C     -5.983930   19.267390   -7.037560
  C     -5.857170   19.731520   -5.748720
  C     -5.144530   18.833760   -4.903920
  C     -4.775810   19.186410   -3.491110
  F     -4.454350   18.126870   -2.736590
  F     -3.704070   19.996500   -3.451400
  F     -5.766300   19.808850   -2.842050
  C     -6.318580   21.093070   -5.319450
  F     -6.607770   21.879360   -6.369120
  F     -7.432640   21.056440   -4.566720
  F     -5.394540   21.749930   -4.613960
  C     -6.608410   19.837750   -8.208710
  N     -7.916860   20.222790   -8.325980
  C     -8.982830   20.015390   -7.375070
  C     -9.251930   18.532820   -7.135560
  C     -8.190060   20.714900   -9.626650
  O     -9.289770   21.095420   -9.968700
  C     -6.929710   20.617060  -10.320800
  C     -5.984720   20.043860   -9.418220
  C     -4.713960   19.936300  -10.099840
  O     -3.638330   19.499990   -9.751020
  N     -4.977100   20.450550  -11.384770
  C     -3.922000   20.570000  -12.362060
  C     -3.370690   21.992110  -12.427730
  C     -6.282360   20.861580  -11.521360
  C     -6.812060   21.418510  -12.734220
  C     -8.077810   21.825960  -12.848080
  H      5.812040    2.890770    2.330000
  H      4.268460    7.597780    2.926170
  H      6.573470    8.354510    2.872960
  H      8.982210    7.870060    2.706600
  H      9.767770    5.551290    2.438430
  H      8.149880    3.697580    2.323870
  H      0.484060    2.637680    2.084340
  H     -4.758750    1.469080    2.693360
  H     -5.924530    2.711390    2.145960
  H     -4.535270    2.660000    4.875980
  H     -6.215860    2.198770    4.580100
  H     -5.705770    3.874140    4.337750
  H     -3.968960    7.269020    0.455770
  H     -1.205490    8.338080   -0.377640
  H     -1.366440   10.560190   -1.822010
  H     -5.081790    9.190710   -0.070070
  H     -5.226680   13.619480   -2.409590
  H     -1.678210   14.747030   -4.609420
  H     -5.323910   15.968350   -3.589060
  H     -3.118870   16.276630   -5.696200
  H     -9.862110   20.488130   -7.821690
  H     -8.763970   20.519060   -6.433090
  H     -9.481050   18.033990   -8.074450
  H    -10.100400   18.423170   -6.466590
  H     -8.391320   18.045080   -6.682040
  H     -4.287640   20.246280  -13.340290
  H     -3.132870   19.885640  -12.037720
  H     -4.146730   22.699610  -12.711460
  H     -2.566410   22.042110  -13.156330
  H     -2.977960   22.281750  -11.456220
  H     -6.135700   21.494930  -13.574100
  H     -8.769150   21.758870  -12.024610
  H     -8.449010   22.236900  -13.771040

 Total Charge           Charge          ....    0
 Multiplicity           Mult            ....    1
 Number of Electrons    NEL             ....  562
 Basis Dimension        Dim             .... 1279

ORBITAL ENERGIES
----------------

  NO   OCC          E(Eh)            E(eV)
   0   2.0000     -88.988750     -2421.5070
   1   2.0000     -88.988109     -2421.4895
   2   2.0000     -24.806592      -675.0217
   3   2.0000     -24.804960      -674.9773
   4   2.0000     -24.804117      -674.9543
   5   2.0000     -24.803133      -674.9276
   6   2.0000     -24.802456      -674.9091
   7   2.0000     -24.795277      -674.7138
   8   2.0000     -19.222451      -523.0695
   9   2.0000     -19.218468      -522.9611
  10   2.0000     -19.218408      -522.9595
  11   2.0000     -19.194853      -522.3185
  12   2.0000     -19.190799      -522.2082
  13   2.0000     -14.460315      -393.4852
  14   2.0000     -14.457753      -393.4155
  15   2.0000     -14.455764      -393.3613
  16   2.0000     -14.423532      -392.4843
  17   2.0000     -14.422356      -392.4523
  18   2.0000     -14.414774      -392.2459
  19   2.0000     -14.414297      -392.2330
  20   2.0000     -10.529473      -286.5215
  21   2.0000     -10.526584      -286.4429
  22   2.0000     -10.401410      -283.0367
  23   2.0000     -10.401247      -283.0323
  24   2.0000     -10.379477      -282.4399
  25   2.0000     -10.374470      -282.3037
  26   2.0000     -10.373871      -282.2874
  27   2.0000     -10.353431      -281.7312
  28   2.0000     -10.349826      -281.6331
  29   2.0000     -10.349006      -281.6108
  30   2.0000     -10.346038      -281.5300
  31   2.0000     -10.344082      -281.4768
  32   2.0000     -10.343445      -281.4594
  33   2.0000     -10.343040      -281.4484
  34   2.0000     -10.340728      -281.3855
  35   2.0000     -10.330818      -281.1158
  36   2.0000     -10.329640      -281.0838
  37   2.0000     -10.329558      -281.0816
  38   2.0000     -10.325250      -280.9643
  39   2.0000     -10.324230      -280.9366
  40   2.0000     -10.323682      -280.9217
  41   2.0000     -10.323532      -280.9176
  42   2.0000     -10.322598      -280.8922
  43   2.0000     -10.321112      -280.8517
  44   2.0000     -10.316733      -280.7326
  45   2.0000     -10.316144      -280.7165
  46   2.0000     -10.315989      -280.7123
  47   2.0000     -10.315980      -280.7121
  48   2.0000     -10.312388      -280.6143
  49   2.0000     -10.311841      -280.5994
  50   2.0000     -10.311471      -280.5894
  51   2.0000     -10.311385      -280.5870
  52   2.0000     -10.310499      -280.5629
  53   2.0000     -10.310197      -280.5547
  54   2.0000     -10.309171      -280.5268
  55   2.0000     -10.308577      -280.5106
  56   2.0000     -10.308037      -280.4959
  57   2.0000     -10.307766      -280.4886
  58   2.0000     -10.305211      -280.4191
  59   2.0000     -10.303684      -280.3775
  60   2.0000     -10.303464      -280.3715
  61   2.0000     -10.303359      -280.3686
  62   2.0000     -10.303191      -280.3641
  63   2.0000     -10.303098      -280.3615
  64   2.0000     -10.302134      -280.3353
  65   2.0000     -10.296286      -280.1762
  66   2.0000     -10.293467      -280.0995
  67   2.0000     -10.292610      -280.0762
  68   2.0000     -10.291722      -280.0520
  69   2.0000     -10.291201      -280.0378
  70   2.0000     -10.290859      -280.0285
  71   2.0000     -10.290600      -280.0214
  72   2.0000     -10.290144      -280.0091
  73   2.0000     -10.285613      -279.8858
  74   2.0000     -10.267507      -279.3931
  75   2.0000     -10.267140      -279.3831
  76   2.0000     -10.262297      -279.2513
  77   2.0000     -10.261423      -279.2275
  78   2.0000     -10.258802      -279.1562
  79   2.0000      -8.083764      -219.9704
  80   2.0000      -8.083238      -219.9561
  81   2.0000      -6.053030      -164.7113
  82   2.0000      -6.052667      -164.7014
  83   2.0000      -6.048624      -164.5914
  84   2.0000      -6.048440      -164.5864
  85   2.0000      -6.045946      -164.5186
  86   2.0000      -6.045220      -164.4988
  87   2.0000      -1.398317       -38.0501
  88   2.0000      -1.392824       -37.9007
  89   2.0000      -1.300213       -35.3806
  90   2.0000      -1.296947       -35.2917
  91   2.0000      -1.295023       -35.2394
  92   2.0000      -1.290635       -35.1200
  93   2.0000      -1.164617       -31.6908
  94   2.0000      -1.141487       -31.0614
  95   2.0000      -1.138394       -30.9773
  96   2.0000      -1.136744       -30.9324
  97   2.0000      -1.129056       -30.7232
  98   2.0000      -1.067981       -29.0612
  99   2.0000      -1.059876       -28.8407
 100   2.0000      -1.057219       -28.7684
 101   2.0000      -1.028158       -27.9776
 102   2.0000      -1.023385       -27.8477
 103   2.0000      -1.021979       -27.8095
 104   2.0000      -1.013282       -27.5728
 105   2.0000      -1.006512       -27.3886
 106   2.0000      -1.005222       -27.3535
 107   2.0000      -1.000275       -27.2189
 108   2.0000      -0.991672       -26.9848
 109   2.0000      -0.988024       -26.8855
 110   2.0000      -0.978094       -26.6153
 111   2.0000      -0.937464       -25.5097
 112   2.0000      -0.932084       -25.3633
 113   2.0000      -0.929831       -25.3020
 114   2.0000      -0.926550       -25.2127
 115   2.0000      -0.915145       -24.9024
 116   2.0000      -0.903104       -24.5747
 117   2.0000      -0.900677       -24.5087
 118   2.0000      -0.895763       -24.3750
 119   2.0000      -0.891009       -24.2456
 120   2.0000      -0.887324       -24.1453
 121   2.0000      -0.883643       -24.0451
 122   2.0000      -0.872011       -23.7286
 123   2.0000      -0.864492       -23.5240
 124   2.0000      -0.858136       -23.3511
 125   2.0000      -0.846939       -23.0464
 126   2.0000      -0.834470       -22.7071
 127   2.0000      -0.834078       -22.6964
 128   2.0000      -0.831608       -22.6292
 129   2.0000      -0.825401       -22.4603
 130   2.0000      -0.821587       -22.3565
 131   2.0000      -0.802661       -21.8415
 132   2.0000      -0.792250       -21.5582
 133   2.0000      -0.784359       -21.3435
 134   2.0000      -0.778530       -21.1849
 135   2.0000      -0.768378       -20.9086
 136   2.0000      -0.766610       -20.8605
 137   2.0000      -0.762699       -20.7541
 138   2.0000      -0.758907       -20.6509
 139   2.0000      -0.752878       -20.4869
 140   2.0000      -0.741716       -20.1831
 141   2.0000      -0.739080       -20.1114
 142   2.0000      -0.724275       -19.7085
 143   2.0000      -0.716790       -19.5048
 144   2.0000      -0.714362       -19.4388
 145   2.0000      -0.712140       -19.3783
 146   2.0000      -0.708773       -19.2867
 147   2.0000      -0.704523       -19.1710
 148   2.0000      -0.702545       -19.1172
 149   2.0000      -0.694442       -18.8967
 150   2.0000      -0.684936       -18.6380
 151   2.0000      -0.683527       -18.5997
 152   2.0000      -0.679516       -18.4906
 153   2.0000      -0.679124       -18.4799
 154   2.0000      -0.675706       -18.3869
 155   2.0000      -0.674631       -18.3576
 156   2.0000      -0.672695       -18.3050
 157   2.0000      -0.669439       -18.2164
 158   2.0000      -0.662476       -18.0269
 159   2.0000      -0.658494       -17.9185
 160   2.0000      -0.654717       -17.8158
 161   2.0000      -0.650888       -17.7116
 162   2.0000      -0.644675       -17.5425
 163   2.0000      -0.642269       -17.4770
 164   2.0000      -0.635814       -17.3014
 165   2.0000      -0.632992       -17.2246
 166   2.0000      -0.615401       -16.7459
 167   2.0000      -0.613666       -16.6987
 168   2.0000      -0.609257       -16.5787
 169   2.0000      -0.601040       -16.3551
 170   2.0000      -0.597129       -16.2487
 171   2.0000      -0.589327       -16.0364
 172   2.0000      -0.585156       -15.9229
 173   2.0000      -0.582687       -15.8557
 174   2.0000      -0.577421       -15.7124
 175   2.0000      -0.575131       -15.6501
 176   2.0000      -0.572580       -15.5807
 177   2.0000      -0.567450       -15.4411
 178   2.0000      -0.563782       -15.3413
 179   2.0000      -0.559354       -15.2208
 180   2.0000      -0.558706       -15.2032
 181   2.0000      -0.557640       -15.1742
 182   2.0000      -0.555300       -15.1105
 183   2.0000      -0.554265       -15.0823
 184   2.0000      -0.552003       -15.0208
 185   2.0000      -0.550435       -14.9781
 186   2.0000      -0.548994       -14.9389
 187   2.0000      -0.546571       -14.8729
 188   2.0000      -0.544583       -14.8189
 189   2.0000      -0.540467       -14.7069
 190   2.0000      -0.538541       -14.6545
 191   2.0000      -0.534240       -14.5374
 192   2.0000      -0.532585       -14.4924
 193   2.0000      -0.532463       -14.4890
 194   2.0000      -0.529511       -14.4087
 195   2.0000      -0.527781       -14.3617
 196   2.0000      -0.526283       -14.3209
 197   2.0000      -0.524870       -14.2824
 198   2.0000      -0.523183       -14.2365
 199   2.0000      -0.522320       -14.2130
 200   2.0000      -0.521588       -14.1931
 201   2.0000      -0.519271       -14.1301
 202   2.0000      -0.518197       -14.1009
 203   2.0000      -0.516735       -14.0611
 204   2.0000      -0.516655       -14.0589
 205   2.0000      -0.513612       -13.9761
 206   2.0000      -0.512752       -13.9527
 207   2.0000      -0.511401       -13.9159
 208   2.0000      -0.509603       -13.8670
 209   2.0000      -0.508201       -13.8288
 210   2.0000      -0.504918       -13.7395
 211   2.0000      -0.504227       -13.7207
 212   2.0000      -0.501659       -13.6508
 213   2.0000      -0.500241       -13.6123
 214   2.0000      -0.498278       -13.5588
 215   2.0000      -0.496701       -13.5159
 216   2.0000      -0.494597       -13.4587
 217   2.0000      -0.492897       -13.4124
 218   2.0000      -0.490589       -13.3496
 219   2.0000      -0.490333       -13.3426
 220   2.0000      -0.488802       -13.3010
 221   2.0000      -0.488659       -13.2971
 222   2.0000      -0.485560       -13.2128
 223   2.0000      -0.483785       -13.1645
 224   2.0000      -0.475615       -12.9421
 225   2.0000      -0.474011       -12.8985
 226   2.0000      -0.473314       -12.8795
 227   2.0000      -0.471339       -12.8258
 228   2.0000      -0.468799       -12.7567
 229   2.0000      -0.468225       -12.7411
 230   2.0000      -0.467658       -12.7256
 231   2.0000      -0.466474       -12.6934
 232   2.0000      -0.461945       -12.5702
 233   2.0000      -0.457189       -12.4407
 234   2.0000      -0.457081       -12.4378
 235   2.0000      -0.452815       -12.3217
 236   2.0000      -0.452101       -12.3023
 237   2.0000      -0.452023       -12.3002
 238   2.0000      -0.449616       -12.2347
 239   2.0000      -0.447581       -12.1793
 240   2.0000      -0.446916       -12.1612
 241   2.0000      -0.445372       -12.1192
 242   2.0000      -0.445220       -12.1151
 243   2.0000      -0.443931       -12.0800
 244   2.0000      -0.442212       -12.0332
 245   2.0000      -0.440633       -11.9902
 246   2.0000      -0.439860       -11.9692
 247   2.0000      -0.437768       -11.9123
 248   2.0000      -0.436526       -11.8785
 249   2.0000      -0.432842       -11.7782
 250   2.0000      -0.430581       -11.7167
 251   2.0000      -0.428567       -11.6619
 252   2.0000      -0.427124       -11.6226
 253   2.0000      -0.424737       -11.5577
 254   2.0000      -0.422527       -11.4975
 255   2.0000      -0.421917       -11.4809
 256   2.0000      -0.412366       -11.2210
 257   2.0000      -0.406981       -11.0745
 258   2.0000      -0.404012       -10.9937
 259   2.0000      -0.402325       -10.9478
 260   2.0000      -0.389189       -10.5904
 261   2.0000      -0.380733       -10.3603
 262   2.0000      -0.370510       -10.0821
 263   2.0000      -0.364744        -9.9252
 264   2.0000      -0.358869        -9.7653
 265   2.0000      -0.358128        -9.7452
 266   2.0000      -0.354036        -9.6338
 267   2.0000      -0.352200        -9.5838
 268   2.0000      -0.346905        -9.4398
 269   2.0000      -0.344819        -9.3830
 270   2.0000      -0.340759        -9.2725
 271   2.0000      -0.339293        -9.2326
 272   2.0000      -0.333308        -9.0698
 273   2.0000      -0.330953        -9.0057
 274   2.0000      -0.325151        -8.8478
 275   2.0000      -0.319663        -8.6985
 276   2.0000      -0.317743        -8.6462
 277   2.0000      -0.300985        -8.1902
 278   2.0000      -0.298145        -8.1129
 279   2.0000      -0.274810        -7.4780
 280   2.0000      -0.252923        -6.8824
 281   0.0000      -0.131147        -3.5687
 282   0.0000      -0.103324        -2.8116
 283   0.0000      -0.072290        -1.9671
 284   0.0000      -0.063657        -1.7322
 285   0.0000      -0.052961        -1.4411

MULLIKEN ATOMIC CHARGES
-----------------------
   0 C :    0.249313
   1 C :   -0.325522
   2 C :   -0.176269
   3 N :    0.162935
   4 C :   -0.188552
   5 N :    0.173995
   6 C :    0.039607
   7 C :    0.004928
   8 C :   -0.072723
   9 C :    0.091143
  10 C :    0.091770
  11 C :   -0.075782
  12 C :   -0.015040
  13 C :    0.035657
  14 C :    0.034507
  15 C :   -0.010878
  16 C :    0.144909
  17 O :   -0.129216
  18 C :   -0.125415
  19 C :    0.045248
  20 C :   -0.221766
  21 S :    0.169987
  22 C :    0.109193
  23 C :    0.188345
  24 O :   -0.150824
  25 N :   -0.313774
  26 C :    0.130469
  27 C :   -0.008572
  28 C :    0.194108
  29 O :   -0.163893
  30 C :    0.026164
  31 C :   -0.106184
  32 C :   -0.005895
  33 C :    0.009870
  34 C :    0.111433
  35 C :   -0.097934
  36 C :    0.115963
  37 C :   -0.095629
  38 C :   -0.001286
  39 C :   -0.173668
  40 N :    0.137217
  41 C :    0.104632
  42 C :   -0.091987
  43 C :    0.091056
  44 C :   -0.001243
  45 C :   -0.094689
  46 C :   -0.177299
  47 N :    0.135573
  48 C :    0.066412
  49 C :   -0.029109
  50 C :   -0.130345
  51 S :    0.247232
  52 C :   -0.250783
  53 C :   -0.013257
  54 C :   -0.082706
  55 C :    0.512521
  56 F :   -0.147817
  57 F :   -0.154656
  58 F :   -0.153820
  59 C :    0.531860
  60 F :   -0.154344
  61 F :   -0.158150
  62 F :   -0.146589
  63 C :    0.091615
  64 N :   -0.250564
  65 C :    0.098804
  66 C :   -0.006395
  67 C :    0.166814
  68 O :   -0.201406
  69 C :   -0.076513
  70 C :   -0.028365
  71 C :    0.139188
  72 O :   -0.186334
  73 N :   -0.267789
  74 C :    0.096041
  75 C :    0.004705
  76 C :    0.124067
  77 C :   -0.038549
  78 C :    0.019726
  79 H :   -0.008312
  80 H :   -0.003050
  81 H :   -0.009209
  82 H :   -0.000795
  83 H :   -0.001846
  84 H :   -0.015180
  85 H :    0.050117
  86 H :    0.033726
  87 H :    0.033412
  88 H :    0.032633
  89 H :    0.024694
  90 H :    0.028974
  91 H :    0.018911
  92 H :    0.002666
  93 H :    0.004641
  94 H :    0.012403
  95 H :    0.004759
  96 H :    0.003572
  97 H :    0.007606
  98 H :    0.023986
  99 H :    0.046473
 100 H :    0.025120
 101 H :    0.023518
 102 H :    0.027476
 103 H :    0.019210
 104 H :    0.024589
 105 H :    0.043375
 106 H :    0.016518
 107 H :    0.025146
 108 H :    0.031029
 109 H :   -0.016086
 110 H :    0.061084
 111 H :    0.033364
Sum of atomic charges:   -0.0000000

LOEWDIN ATOMIC CHARGES
----------------------
   0 C :    0.060611
   1 C :   -0.132580
   2 C :   -0.019061
   3 N :   -0.043331
   4 C :   -0.030527
   5 N :   -0.045882
   6 C :   -0.024010
   7 C :   -0.058711
   8 C :    0.036148
   9 C :   -0.008205
  10 C :   -0.004338
  11 C :    0.018039
  12 C :   -0.005344
  13 C :   -0.010309
  14 C :   -0.010784
  15 C :   -0.007799
  16 C :    0.084578
  17 O :   -0.129190
  18 C :   -0.074005
  19 C :    0.050655
  20 C :   -0.145802
  21 S :    0.471883
  22 C :   -0.056896
  23 C :    0.091227
  24 O :   -0.150743
  25 N :   -0.029898
  26 C :    0.043831
  27 C :   -0.058542
  28 C :    0.091557
  29 O :   -0.162320
  30 C :   -0.082139
  31 C :   -0.118565
  32 C :   -0.020488
  33 C :   -0.000974
  34 C :   -0.013788
  35 C :   -0.016807
  36 C :    0.039004
  37 C :   -0.075818
  38 C :    0.058047
  39 C :   -0.030016
  40 N :   -0.057471
  41 C :    0.036742
  42 C :   -0.014113
  43 C :   -0.016963
  44 C :    0.055126
  45 C :   -0.079198
  46 C :   -0.030044
  47 N :   -0.061926
  48 C :    0.014150
  49 C :   -0.049706
  50 C :   -0.143818
  51 S :    0.524903
  52 C :   -0.158039
  53 C :   -0.100984
  54 C :   -0.109865
  55 C :    0.160718
  56 F :   -0.046737
  57 F :   -0.059738
  58 F :   -0.050977
  59 C :    0.161909
  60 F :   -0.048780
  61 F :   -0.056310
  62 F :   -0.043008
  63 C :    0.033718
  64 N :    0.004795
  65 C :    0.031734
  66 C :   -0.061570
  67 C :    0.082548
  68 O :   -0.193985
  69 C :   -0.131901
  70 C :   -0.116761
  71 C :    0.078108
  72 O :   -0.191935
  73 N :   -0.004307
  74 C :    0.036005
  75 C :   -0.060715
  76 C :    0.092851
  77 C :   -0.055906
  78 C :    0.034716
  79 H :    0.040782
  80 H :    0.039440
  81 H :    0.035019
  82 H :    0.034480
  83 H :    0.033954
  84 H :    0.032763
  85 H :    0.061088
  86 H :    0.033136
  87 H :    0.032978
  88 H :    0.030615
  89 H :    0.031119
  90 H :    0.029451
  91 H :    0.044496
  92 H :    0.033057
  93 H :    0.036465
  94 H :    0.040594
  95 H :    0.036961
  96 H :    0.037080
  97 H :    0.038523
  98 H :    0.035576
  99 H :    0.038258
 100 H :    0.016659
 101 H :    0.028463
 102 H :    0.033347
 103 H :    0.019737
 104 H :    0.023175
 105 H :    0.037651
 106 H :    0.022738
 107 H :    0.031146
 108 H :    0.032917
 109 H :    0.030404
 110 H :    0.034609
 111 H :    0.031351

  Mayer bond orders larger than 0.100000
B(  0-C ,  1-C ) :   1.6725 B(  0-C ,  6-C ) :   1.0071 B(  0-C , 18-C ) :   1.0157
B(  1-C ,  2-C ) :   1.1342 B(  1-C ,  4-C ) :   1.1563 B(  2-C ,  3-N ) :   2.9934
B(  4-C ,  5-N ) :   3.0141 B(  6-C ,  7-C ) :   1.2124 B(  6-C , 11-C ) :   1.4516
B(  7-C ,  8-C ) :   1.4743 B(  7-C , 16-C ) :   0.9219 B(  8-C ,  9-C ) :   1.1875
B(  8-C , 79-H ) :   1.0160 B(  9-C , 10-C ) :   1.2544 B(  9-C , 15-C ) :   1.2461
B( 10-C , 11-C ) :   1.2098 B( 10-C , 12-C ) :   1.2384 B( 11-C , 80-H ) :   0.9949
B( 12-C , 13-C ) :   1.4914 B( 12-C , 81-H ) :   0.9982 B( 13-C , 14-C ) :   1.2596
B( 13-C , 82-H ) :   0.9889 B( 14-C , 15-C ) :   1.4881 B( 14-C , 83-H ) :   0.9895
B( 15-C , 84-H ) :   0.9982 B( 16-C , 17-O ) :   2.2881 B( 16-C , 18-C ) :   0.9207
B( 18-C , 19-C ) :   1.7097 B( 19-C , 20-C ) :   1.0824 B( 19-C , 85-H ) :   0.9435
B( 20-C , 21-S ) :   1.1269 B( 20-C , 22-C ) :   1.5165 B( 21-S , 31-C ) :   1.1137
B( 22-C , 23-C ) :   0.8773 B( 22-C , 30-C ) :   1.2682 B( 23-C , 24-O ) :   2.2051
B( 23-C , 25-N ) :   1.0736 B( 25-N , 26-C ) :   0.9156 B( 25-N , 28-C ) :   1.0737
B( 26-C , 27-C ) :   1.1276 B( 26-C , 86-H ) :   0.9412 B( 26-C , 87-H ) :   0.9408
B( 27-C , 88-H ) :   0.9689 B( 27-C , 89-H ) :   0.9701 B( 27-C , 90-H ) :   0.9686
B( 28-C , 29-O ) :   2.1797 B( 28-C , 30-C ) :   0.8921 B( 30-C , 31-C ) :   1.4932
B( 31-C , 32-C ) :   1.1786 B( 32-C , 33-C ) :   1.6010 B( 32-C , 91-H ) :   0.9684
B( 33-C , 34-C ) :   1.1240 B( 33-C , 92-H ) :   0.9783 B( 34-C , 35-C ) :   1.5244
B( 34-C , 38-C ) :   1.0418 B( 35-C , 36-C ) :   1.1059 B( 35-C , 93-H ) :   1.0088
B( 36-C , 37-C ) :   1.1004 B( 36-C , 41-C ) :   1.4289 B( 37-C , 38-C ) :   1.6879
B( 37-C , 39-C ) :   1.0899 B( 38-C , 94-H ) :   1.0156 B( 39-C , 40-N ) :   2.9685
B( 41-C , 42-C ) :   1.1008 B( 41-C , 45-C ) :   1.1063 B( 42-C , 43-C ) :   1.5462
B( 42-C , 95-H ) :   1.0075 B( 43-C , 44-C ) :   1.0480 B( 43-C , 48-C ) :   1.1149
B( 44-C , 45-C ) :   1.6766 B( 44-C , 96-H ) :   1.0139 B( 45-C , 46-C ) :   1.0923
B( 46-C , 47-N ) :   2.9688 B( 48-C , 49-C ) :   1.7576 B( 48-C , 97-H ) :   0.9689
B( 49-C , 50-C ) :   1.0143 B( 49-C , 98-H ) :   0.9489 B( 50-C , 51-S ) :   1.1640
B( 50-C , 52-C ) :   0.1136 B( 50-C , 54-C ) :   1.5954 B( 51-S , 52-C ) :   1.1903
B( 52-C , 53-C ) :   1.5918 B( 52-C , 63-C ) :   1.0001 B( 53-C , 54-C ) :   1.2477
B( 53-C , 59-C ) :   0.9378 B( 54-C , 55-C ) :   0.9394 B( 55-C , 56-F ) :   1.1515
B( 55-C , 57-F ) :   1.1968 B( 55-C , 58-F ) :   1.1482 B( 59-C , 60-F ) :   1.1427
B( 59-C , 61-F ) :   1.1384 B( 59-C , 62-F ) :   1.1603 B( 63-C , 64-N ) :   1.2133
B( 63-C , 70-C ) :   1.4704 B( 64-N , 65-C ) :   0.9413 B( 64-N , 67-C ) :   1.0338
B( 65-C , 66-C ) :   1.1132 B( 65-C , 99-H ) :   0.9271 B( 65-C ,100-H ) :   0.9422
B( 66-C ,101-H ) :   0.9655 B( 66-C ,102-H ) :   0.9666 B( 66-C ,103-H ) :   0.9688
B( 67-C , 68-O ) :   2.0500 B( 67-C , 69-C ) :   0.9977 B( 69-C , 70-C ) :   1.1994
B( 69-C , 76-C ) :   1.3869 B( 70-C , 71-C ) :   0.9497 B( 71-C , 72-O ) :   2.1647
B( 71-C , 73-N ) :   1.0303 B( 73-N , 74-C ) :   0.9453 B( 73-N , 76-C ) :   1.1682
B( 74-C , 75-C ) :   1.1205 B( 74-C ,104-H ) :   0.9508 B( 74-C ,105-H ) :   0.9281
B( 75-C ,106-H ) :   0.9686 B( 75-C ,107-H ) :   0.9678 B( 75-C ,108-H ) :   0.9637
B( 76-C , 77-C ) :   1.1249 B( 77-C , 78-C ) :   1.8872 B( 77-C ,109-H ) :   0.9546
B( 78-C ,110-H ) :   0.9270 B( 78-C ,111-H ) :   0.9444

-----------------------------------------------------------------------------
         ABSORPTION SPECTRUM VIA TRANSITION ELECTRIC DIPOLE MOMENTS
-----------------------------------------------------------------------------
State   Energy  Wavelength   fosc         T2         TX        TY        TZ
        (cm-1)    (nm)                  (au**2)     (au)      (au)      (au)
-----------------------------------------------------------------------------
   0   14873.5    672.3   0.826507095  18.29406   0.74920  -3.35028   2.55115
   1   16918.5    591.1   0.009638901   0.18756   0.26211  -0.34221  -0.04185
   2   19087.5    523.9   0.008619145   0.14866  -0.26949   0.04085  -0.27270
   3   20959.5    477.1   0.345590319   5.42820   2.01760  -0.47030   1.06598
   4   22199.7    450.5   0.343563763   5.09489  -0.68916  -0.70497   2.03051
   5   23911.1    418.2   0.091818032   1.26416   0.31062   0.88153  -0.62496
   6   24668.2    405.4   0.302819921   4.04132   0.87725  -1.66574   0.70503
   7   26740.5    374.0   0.141868842   1.74660   0.16219  -1.27598   0.30360
   8   26963.2    370.9   0.004829480   0.05897  -0.24065   0.00003  -0.03247
   9   27591.4    362.4   0.277437678   3.31030   0.43782   1.50260  -0.92779
  10   28256.1    353.9   0.026223593   0.30553  -0.12888  -0.51518   0.15332
  11   28772.2    347.6   0.001242268   0.01421  -0.09312   0.04982   0.05531
  12   28946.3    345.5   0.048574265   0.55244  -0.69534   0.14296   0.22023
  13   30287.4    330.2   0.198392960   2.15645   0.77935  -1.21878   0.25227
  14   30613.4    326.7   0.086132697   0.92626  -0.46269   0.84355  -0.02473
  15   30712.1    325.6   0.050824852   0.54481   0.49094  -0.55095  -0.01573
  16   31042.0    322.1   0.005035793   0.05341  -0.15554   0.08079   0.15062
  17   31298.8    319.5   0.030876038   0.32477   0.24861  -0.41351   0.30326
  18   31713.1    315.3   0.260264323   2.70179  -1.60033  -0.29595  -0.23057
  19   31783.4    314.6   0.035232929   0.36494  -0.58922   0.13314   0.00636
  20   32167.6    310.9   0.033262597   0.34042   0.17392   0.49819  -0.24895
  21   32500.3    307.7   0.485561599   4.91850  -0.21386  -1.87514   1.16474
  22   32738.8    305.4   0.080508385   0.80957  -0.49045   0.55600  -0.50980
  23   32895.3    304.0   0.098966105   0.99044   0.95159   0.18908   0.22172
  24   33024.1    302.8   0.177508964   1.76956  -1.22659  -0.00572   0.51478
  25   33633.5    297.3   0.038094153   0.37287   0.55482   0.24430   0.07323
  26   33666.3    297.0   0.062820223   0.61430  -0.66944  -0.37288  -0.16462
  27   33860.4    295.3   0.108429838   1.05422  -0.95548  -0.25084   0.27993
  28   34188.2    292.5   0.448656743   4.32029  -2.04109   0.26435   0.29043
  29   34656.5    288.5   0.004635283   0.04403   0.13272   0.12041   0.10918
  30   34753.3    287.7   0.076790662   0.72742  -0.82519  -0.13528   0.16786
  31   35164.3    284.4   0.061663777   0.57730   0.64162   0.37135  -0.16652
  32   35852.7    278.9   0.001551144   0.01424  -0.00281   0.08834   0.08019
  33   35913.2    278.4   0.001577493   0.01446   0.08425   0.01359   0.08472
  34   36300.2    275.5   0.052858872   0.47939   0.39054  -0.56942   0.05117
  35   37002.3    270.3   0.052342290   0.46569  -0.67651   0.08189   0.03630
  36   37366.0    267.6   0.015419638   0.13585   0.18954  -0.30365   0.08792
  37   37450.3    267.0   0.013626363   0.11978  -0.24923   0.15931  -0.17968
  38   37661.4    265.5   0.023564526   0.20599  -0.14235  -0.42091   0.09249
  39   37704.9    265.2   0.020366080   0.17782   0.17501   0.37862  -0.06197
  40   37826.8    264.4   0.077267538   0.67247  -0.38705   0.58746  -0.42137
  41   38037.1    262.9   0.021606011   0.18700  -0.07078  -0.03792  -0.42491
  42   38309.8    261.0   0.018925001   0.16263   0.20987  -0.34200  -0.04027
  43   38585.7    259.2   0.032654838   0.27861   0.09249  -0.44398  -0.27007
  44   38837.6    257.5   0.000127894   0.00108   0.01388   0.00537  -0.02937
  45   39157.1    255.4   0.001461010   0.01228  -0.09068   0.02849  -0.05701
  46   39738.0    251.6   0.039209101   0.32483  -0.33750  -0.42983   0.16177
  47   39840.3    251.0   0.105735308   0.87372  -0.06180   0.77361  -0.52099
  48   40075.4    249.5   0.090602125   0.74428  -0.04343  -0.80362  -0.31078
  49   40137.3    249.1   0.016259638   0.13336   0.12387  -0.08094   0.33387

FINAL SINGLE POINT ENERGY     -4418.261095237052

DIPOLE MOMENT
-------------
                                X             Y             Z
Electronic contribution:     -4.82889      38.70040      23.91514
Nuclear contribution   :      6.93928     -39.34967     -26.39236
                        -----------------------------------------
Total Dipole Moment    :      2.11039      -0.64927      -2.47722
                        -----------------------------------------
Magnitude (a.u.)       :      3.31842
Magnitude (Debye)      :      8.43475

Rotational constants in cm-1:     0.001350     0.000184     0.000173
Rotational constants in MHz :    40.485088     5.515803     5.182268

                             ****ORCA TERMINATED NORMALLY****
TOTAL RUN TIME: 0 days 0 hours 17 minutes 27 seconds 846 msec
