                         Program Version 4.2.0 -  RELEASE  -
|  1> # ORCA input file
|  2> # SCF done       -206.802961377165          0.000811978108
|  3> ! CAM-B3LYP def2-SVP def2/J RIJCOSX Grid4 TightSCF
|  4> %maxcore 5000
|  5> %tddft
|  6>     Mode sTDDFT
|  7>     Ethresh 5.0
|  8>     maxcore 5000
|  9> end
| 10>
| 11> %pal
| 12>   nprocs 6
| 13>   end
| 14> * xyz 0 1
| 15>    C        2.36351         1.61012         0.94037
| 16>    C        2.67818         0.60988         0.05781
| 17>    C        3.59346        -0.42820         0.33565
| 18>    N        4.32439        -1.29888         0.49440
| 19>    C        2.16110         0.46287        -1.24645
| 20>    N        1.79131         0.27329        -2.31733
| 21>    C        2.92643         1.75928         2.27854
| 22>    C        2.39464         2.94289         2.86650
| 23>    C        2.74050         3.34754         4.12381
| 24>    C        3.65110         2.56774         4.87050
| 25>    C        4.18545         1.37956         4.29324
| 26>    C        3.81021         0.98877         2.98683
| 27>    C        5.09003         0.60619         5.04844
| 28>    C        5.45079         0.98681         6.31268
| 29>    C        4.92466         2.15717         6.87938
| 30>    C        4.04382         2.93125         6.17346
| 31>    C        1.46889         3.57697         1.92109
| 32>    O        0.84975         4.61244         2.09732
| 33>    C        1.43947         2.71309         0.72859
| 34>    C        0.65047         2.89868        -0.37352
| 35>    C       -0.28876         3.90927        -0.65837
| 36>    S       -0.69664         5.27885         0.33764
| 37>    C       -1.87558         5.82836        -0.81359
| 38>    C       -1.93336         4.97240        -1.92644
| 39>    C       -1.04165         3.90890        -1.83101
| 40>    C       -2.79071         5.16707        -3.02645
| 41>    N       -3.47214         5.30042        -3.93801
| 42>    C       -2.66500         6.97770        -0.59818
| 43>    C       -2.50920         7.76939         0.50202
| 44>    C       -3.30857         8.89556         0.77847
| 45>    N       -3.12888         9.70702         1.87501
| 46>    C       -2.06492         9.61871         2.84618
| 47>    C       -0.74624        10.15459         2.29484
| 48>    C       -4.09238        10.72514         1.94099
| 49>    O       -4.12788        11.55776         2.82571
| 50>    C       -4.93280        10.50028         0.78268
| 51>    C       -4.42314         9.38559         0.08796
| 52>    C       -5.26879         9.14822        -1.06579
| 53>    O       -5.21829         8.31805        -1.94810
| 54>    N       -6.24852        10.15093        -0.98744
| 55>    C       -7.31815        10.22561        -1.95536
| 56>    C       -8.60202         9.58450        -1.43547
| 57>    C       -6.07736        10.96015         0.11090
| 58>    C       -6.93928        12.01803         0.45357
| 59>    C       -6.73962        12.79854         1.55915
| 60>    C       -7.60663        13.82900         1.97618
| 61>    C       -8.81696        14.23606         1.43812
| 62>    C       -9.35895        15.27451         2.23522
| 63>    C       -8.38081        15.51875         3.31488
| 64>    C       -7.34895        14.65322         3.15005
| 65>    C       -8.46268        16.48222         4.32726
| 66>    N       -8.48348        17.26428         5.16796
| 67>    C      -10.57508        15.90936         2.07152
| 68>    C      -11.16755        16.88197         2.91785
| 69>    C      -12.40824        17.23138         2.41211
| 70>    C      -12.61636        16.47002         1.18949
| 71>    C      -11.53656        15.67300         0.97724
| 72>    C      -11.38220        14.79433        -0.09931
| 73>    N      -11.28135        14.07526        -0.99044
| 74>    C      -13.36248        18.13384         2.93754
| 75>    C      -13.22829        18.80956         4.11518
| 76>    C      -14.23420        19.67895         4.58636
| 77>    C      -14.18490        20.35792         5.77351
| 78>    C      -15.18554        21.26428         6.30259
| 79>    C      -16.39422        21.58214         5.73500
| 80>    C      -17.32783        22.47142         6.30736
| 81>    N      -18.13392        23.18019         6.71517
| 82>    C      -16.89242        21.07670         4.51669
| 83>    N      -17.37433        20.71159         3.54001
| 84>    C      -14.68949        21.78459         7.57283
| 85>    C      -13.41917        21.19971         7.84029
| 86>    C      -13.05883        20.28375         6.74519
| 87>    O      -12.05404        19.61066         6.66664
| 88>    C      -12.70739        21.49659         8.96630
| 89>    C      -13.24369        22.41349         9.89755
| 90>    C      -14.51362        23.00529         9.63833
| 91>    C      -15.22741        22.67688         8.46278
| 92>    C      -15.03957        23.91952        10.57385
| 93>    C      -14.34617        24.23482        11.71058
| 94>    C      -13.09587        23.65132        11.96451
| 95>    C      -12.55632        22.75992        11.07722
| 96>    H        2.32240         4.25019         4.54416
| 97>    H        4.23297         0.08334         2.58205
| 98>    H        5.49295        -0.29401         4.60824
| 99>    H        6.14406         0.38729         6.88315
|100>    H        5.22026         2.44240         7.87784
|101>    H        3.63498         3.83338         6.60458
|102>    H        0.72398         2.16037        -1.16284
|103>    H       -0.93838         3.14804        -2.58546
|104>    H       -3.41730         7.21497        -1.34106
|105>    H       -1.73695         7.51436         1.21558
|106>    H       -1.95481         8.58223         3.17698
|107>    H       -2.38308        10.22830         3.69654
|108>    H       -0.42555         9.58491         1.42561
|109>    H        0.02361        10.08900         3.05839
|110>    H       -0.86001        11.19616         2.00433
|111>    H       -6.96779         9.67984        -2.83577
|112>    H       -7.48759        11.26967        -2.23093
|113>    H       -8.42952         8.53412        -1.21387
|114>    H       -9.37842         9.65749        -2.19143
|115>    H       -8.94941        10.07829        -0.53066
|116>    H       -7.79195        12.20432        -0.18261
|117>    H       -5.87090        12.61707         2.17860
|118>    H       -9.29772        13.82602         0.57280
|119>    H       -6.47279        14.56944         3.76599
|120>    H      -10.71513        17.26713         3.81012
|121>    H      -13.49244        16.53687         0.57057
|122>    H      -14.26757        18.27306         2.35665
|123>    H      -12.34345        18.67992         4.71968
|124>    H      -15.10074        19.80461         3.94908
|125>    H      -11.74623        21.03687         9.14240
|126>    H      -16.18514        23.14406         8.29783
|127>    H      -16.00263        24.36620        10.37435
|128>    H      -14.75761        24.93621        12.42093
|129>    H      -12.56249        23.91175        12.86652
|130>    H      -11.59407        22.30718        11.26669
|131> *
|132>
|133>                          ****END OF INPUT****

CARTESIAN COORDINATES (ANGSTROEM)
---------------------------------
  C      2.363510    1.610120    0.940370
  C      2.678180    0.609880    0.057810
  C      3.593460   -0.428200    0.335650
  N      4.324390   -1.298880    0.494400
  C      2.161100    0.462870   -1.246450
  N      1.791310    0.273290   -2.317330
  C      2.926430    1.759280    2.278540
  C      2.394640    2.942890    2.866500
  C      2.740500    3.347540    4.123810
  C      3.651100    2.567740    4.870500
  C      4.185450    1.379560    4.293240
  C      3.810210    0.988770    2.986830
  C      5.090030    0.606190    5.048440
  C      5.450790    0.986810    6.312680
  C      4.924660    2.157170    6.879380
  C      4.043820    2.931250    6.173460
  C      1.468890    3.576970    1.921090
  O      0.849750    4.612440    2.097320
  C      1.439470    2.713090    0.728590
  C      0.650470    2.898680   -0.373520
  C     -0.288760    3.909270   -0.658370
  S     -0.696640    5.278850    0.337640
  C     -1.875580    5.828360   -0.813590
  C     -1.933360    4.972400   -1.926440
  C     -1.041650    3.908900   -1.831010
  C     -2.790710    5.167070   -3.026450
  N     -3.472140    5.300420   -3.938010
  C     -2.665000    6.977700   -0.598180
  C     -2.509200    7.769390    0.502020
  C     -3.308570    8.895560    0.778470
  N     -3.128880    9.707020    1.875010
  C     -2.064920    9.618710    2.846180
  C     -0.746240   10.154590    2.294840
  C     -4.092380   10.725140    1.940990
  O     -4.127880   11.557760    2.825710
  C     -4.932800   10.500280    0.782680
  C     -4.423140    9.385590    0.087960
  C     -5.268790    9.148220   -1.065790
  O     -5.218290    8.318050   -1.948100
  N     -6.248520   10.150930   -0.987440
  C     -7.318150   10.225610   -1.955360
  C     -8.602020    9.584500   -1.435470
  C     -6.077360   10.960150    0.110900
  C     -6.939280   12.018030    0.453570
  C     -6.739620   12.798540    1.559150
  C     -7.606630   13.829000    1.976180
  C     -8.816960   14.236060    1.438120
  C     -9.358950   15.274510    2.235220
  C     -8.380810   15.518750    3.314880
  C     -7.348950   14.653220    3.150050
  C     -8.462680   16.482220    4.327260
  N     -8.483480   17.264280    5.167960
  C    -10.575080   15.909360    2.071520
  C    -11.167550   16.881970    2.917850
  C    -12.408240   17.231380    2.412110
  C    -12.616360   16.470020    1.189490
  C    -11.536560   15.673000    0.977240
  C    -11.382200   14.794330   -0.099310
  N    -11.281350   14.075260   -0.990440
  C    -13.362480   18.133840    2.937540
  C    -13.228290   18.809560    4.115180
  C    -14.234200   19.678950    4.586360
  C    -14.184900   20.357920    5.773510
  C    -15.185540   21.264280    6.302590
  C    -16.394220   21.582140    5.735000
  C    -17.327830   22.471420    6.307360
  N    -18.133920   23.180190    6.715170
  C    -16.892420   21.076700    4.516690
  N    -17.374330   20.711590    3.540010
  C    -14.689490   21.784590    7.572830
  C    -13.419170   21.199710    7.840290
  C    -13.058830   20.283750    6.745190
  O    -12.054040   19.610660    6.666640
  C    -12.707390   21.496590    8.966300
  C    -13.243690   22.413490    9.897550
  C    -14.513620   23.005290    9.638330
  C    -15.227410   22.676880    8.462780
  C    -15.039570   23.919520   10.573850
  C    -14.346170   24.234820   11.710580
  C    -13.095870   23.651320   11.964510
  C    -12.556320   22.759920   11.077220
  H      2.322400    4.250190    4.544160
  H      4.232970    0.083340    2.582050
  H      5.492950   -0.294010    4.608240
  H      6.144060    0.387290    6.883150
  H      5.220260    2.442400    7.877840
  H      3.634980    3.833380    6.604580
  H      0.723980    2.160370   -1.162840
  H     -0.938380    3.148040   -2.585460
  H     -3.417300    7.214970   -1.341060
  H     -1.736950    7.514360    1.215580
  H     -1.954810    8.582230    3.176980
  H     -2.383080   10.228300    3.696540
  H     -0.425550    9.584910    1.425610
  H      0.023610   10.089000    3.058390
  H     -0.860010   11.196160    2.004330
  H     -6.967790    9.679840   -2.835770
  H     -7.487590   11.269670   -2.230930
  H     -8.429520    8.534120   -1.213870
  H     -9.378420    9.657490   -2.191430
  H     -8.949410   10.078290   -0.530660
  H     -7.791950   12.204320   -0.182610
  H     -5.870900   12.617070    2.178600
  H     -9.297720   13.826020    0.572800
  H     -6.472790   14.569440    3.765990
  H    -10.715130   17.267130    3.810120
  H    -13.492440   16.536870    0.570570
  H    -14.267570   18.273060    2.356650
  H    -12.343450   18.679920    4.719680
  H    -15.100740   19.804610    3.949080
  H    -11.746230   21.036870    9.142400
  H    -16.185140   23.144060    8.297830
  H    -16.002630   24.366200   10.374350
  H    -14.757610   24.936210   12.420930
  H    -12.562490   23.911750   12.866520
  H    -11.594070   22.307180   11.266690

 Total Charge           Charge          ....    0
 Multiplicity           Mult            ....    1
 Number of Electrons    NEL             ....  548
 Basis Dimension        Dim             .... 1313

ORBITAL ENERGIES
----------------

  NO   OCC          E(Eh)            E(eV)
   0   2.0000     -88.983542     -2421.3653
   1   2.0000     -19.233074      -523.3586
   2   2.0000     -19.215934      -522.8921
   3   2.0000     -19.205311      -522.6031
   4   2.0000     -19.202602      -522.5294
   5   2.0000     -14.466201      -393.6453
   6   2.0000     -14.464172      -393.5901
   7   2.0000     -14.425271      -392.5316
   8   2.0000     -14.421342      -392.4247
   9   2.0000     -14.417678      -392.3250
  10   2.0000     -14.414725      -392.2446
  11   2.0000     -14.414087      -392.2272
  12   2.0000     -14.410528      -392.1304
  13   2.0000     -14.409060      -392.0904
  14   2.0000     -10.387525      -282.6589
  15   2.0000     -10.384885      -282.5871
  16   2.0000     -10.381104      -282.4842
  17   2.0000     -10.366348      -282.0827
  18   2.0000     -10.352459      -281.7047
  19   2.0000     -10.351536      -281.6796
  20   2.0000     -10.350708      -281.6571
  21   2.0000     -10.349820      -281.6329
  22   2.0000     -10.342662      -281.4381
  23   2.0000     -10.340987      -281.3926
  24   2.0000     -10.335875      -281.2535
  25   2.0000     -10.334674      -281.2208
  26   2.0000     -10.334611      -281.2191
  27   2.0000     -10.331076      -281.1229
  28   2.0000     -10.327730      -281.0318
  29   2.0000     -10.327584      -281.0279
  30   2.0000     -10.326888      -281.0089
  31   2.0000     -10.324138      -280.9341
  32   2.0000     -10.320522      -280.8357
  33   2.0000     -10.320454      -280.8338
  34   2.0000     -10.319355      -280.8039
  35   2.0000     -10.318920      -280.7921
  36   2.0000     -10.317581      -280.7556
  37   2.0000     -10.316782      -280.7339
  38   2.0000     -10.316472      -280.7255
  39   2.0000     -10.315882      -280.7094
  40   2.0000     -10.313481      -280.6441
  41   2.0000     -10.312655      -280.6216
  42   2.0000     -10.312286      -280.6116
  43   2.0000     -10.312056      -280.6053
  44   2.0000     -10.311632      -280.5938
  45   2.0000     -10.311309      -280.5850
  46   2.0000     -10.310380      -280.5597
  47   2.0000     -10.309931      -280.5475
  48   2.0000     -10.309062      -280.5238
  49   2.0000     -10.308930      -280.5202
  50   2.0000     -10.308265      -280.5022
  51   2.0000     -10.307768      -280.4886
  52   2.0000     -10.306486      -280.4537
  53   2.0000     -10.306335      -280.4496
  54   2.0000     -10.305712      -280.4327
  55   2.0000     -10.305419      -280.4247
  56   2.0000     -10.304639      -280.4035
  57   2.0000     -10.303186      -280.3639
  58   2.0000     -10.302341      -280.3410
  59   2.0000     -10.301303      -280.3127
  60   2.0000     -10.297869      -280.2193
  61   2.0000     -10.297021      -280.1962
  62   2.0000     -10.296766      -280.1892
  63   2.0000     -10.296061      -280.1701
  64   2.0000     -10.295272      -280.1486
  65   2.0000     -10.294088      -280.1164
  66   2.0000     -10.293602      -280.1031
  67   2.0000     -10.293413      -280.0980
  68   2.0000     -10.293075      -280.0888
  69   2.0000     -10.293053      -280.0882
  70   2.0000     -10.292548      -280.0745
  71   2.0000     -10.290326      -280.0140
  72   2.0000     -10.287181      -279.9284
  73   2.0000     -10.286039      -279.8974
  74   2.0000     -10.285410      -279.8802
  75   2.0000     -10.285245      -279.8757
  76   2.0000     -10.284802      -279.8637
  77   2.0000     -10.278179      -279.6835
  78   2.0000     -10.277544      -279.6662
  79   2.0000     -10.273272      -279.5500
  80   2.0000     -10.266300      -279.3602
  81   2.0000      -8.076756      -219.7797
  82   2.0000      -6.046067      -164.5219
  83   2.0000      -6.041629      -164.4011
  84   2.0000      -6.039100      -164.3323
  85   2.0000      -1.148121       -31.2420
  86   2.0000      -1.146754       -31.2048
  87   2.0000      -1.139771       -31.0147
  88   2.0000      -1.130945       -30.7746
  89   2.0000      -1.076795       -29.3011
  90   2.0000      -1.068014       -29.0621
  91   2.0000      -1.027240       -27.9526
  92   2.0000      -1.021106       -27.7857
  93   2.0000      -1.020702       -27.7747
  94   2.0000      -1.018534       -27.7157
  95   2.0000      -1.007727       -27.4216
  96   2.0000      -1.004735       -27.3402
  97   2.0000      -1.001321       -27.2473
  98   2.0000      -0.998567       -27.1724
  99   2.0000      -0.994144       -27.0520
 100   2.0000      -0.990017       -26.9397
 101   2.0000      -0.988670       -26.9031
 102   2.0000      -0.985996       -26.8303
 103   2.0000      -0.979806       -26.6619
 104   2.0000      -0.971231       -26.4285
 105   2.0000      -0.942171       -25.6378
 106   2.0000      -0.937732       -25.5170
 107   2.0000      -0.933270       -25.3956
 108   2.0000      -0.929026       -25.2801
 109   2.0000      -0.922734       -25.1089
 110   2.0000      -0.918562       -24.9953
 111   2.0000      -0.911677       -24.8080
 112   2.0000      -0.894839       -24.3498
 113   2.0000      -0.892667       -24.2907
 114   2.0000      -0.888605       -24.1802
 115   2.0000      -0.882842       -24.0233
 116   2.0000      -0.880472       -23.9589
 117   2.0000      -0.875224       -23.8160
 118   2.0000      -0.869368       -23.6567
 119   2.0000      -0.863838       -23.5062
 120   2.0000      -0.853923       -23.2364
 121   2.0000      -0.851073       -23.1589
 122   2.0000      -0.836553       -22.7638
 123   2.0000      -0.836125       -22.7521
 124   2.0000      -0.829674       -22.5766
 125   2.0000      -0.827554       -22.5189
 126   2.0000      -0.817239       -22.2382
 127   2.0000      -0.811461       -22.0810
 128   2.0000      -0.791842       -21.5471
 129   2.0000      -0.783727       -21.3263
 130   2.0000      -0.772263       -21.0143
 131   2.0000      -0.771854       -21.0032
 132   2.0000      -0.769280       -20.9332
 133   2.0000      -0.761371       -20.7180
 134   2.0000      -0.740824       -20.1588
 135   2.0000      -0.731840       -19.9144
 136   2.0000      -0.727900       -19.8072
 137   2.0000      -0.723209       -19.6795
 138   2.0000      -0.719859       -19.5884
 139   2.0000      -0.714932       -19.4543
 140   2.0000      -0.710824       -19.3425
 141   2.0000      -0.705279       -19.1916
 142   2.0000      -0.703859       -19.1530
 143   2.0000      -0.700428       -19.0596
 144   2.0000      -0.698488       -19.0068
 145   2.0000      -0.689182       -18.7536
 146   2.0000      -0.684845       -18.6356
 147   2.0000      -0.681387       -18.5415
 148   2.0000      -0.672190       -18.2912
 149   2.0000      -0.671026       -18.2595
 150   2.0000      -0.667288       -18.1578
 151   2.0000      -0.659186       -17.9374
 152   2.0000      -0.654107       -17.7992
 153   2.0000      -0.651445       -17.7267
 154   2.0000      -0.646625       -17.5956
 155   2.0000      -0.639148       -17.3921
 156   2.0000      -0.635888       -17.3034
 157   2.0000      -0.626729       -17.0542
 158   2.0000      -0.620477       -16.8840
 159   2.0000      -0.614875       -16.7316
 160   2.0000      -0.609164       -16.5762
 161   2.0000      -0.608929       -16.5698
 162   2.0000      -0.605750       -16.4833
 163   2.0000      -0.600730       -16.3467
 164   2.0000      -0.593969       -16.1627
 165   2.0000      -0.592770       -16.1301
 166   2.0000      -0.588244       -16.0069
 167   2.0000      -0.582565       -15.8524
 168   2.0000      -0.578229       -15.7344
 169   2.0000      -0.573894       -15.6164
 170   2.0000      -0.570908       -15.5352
 171   2.0000      -0.560379       -15.2487
 172   2.0000      -0.556624       -15.1465
 173   2.0000      -0.552853       -15.0439
 174   2.0000      -0.551012       -14.9938
 175   2.0000      -0.550251       -14.9731
 176   2.0000      -0.547040       -14.8857
 177   2.0000      -0.545885       -14.8543
 178   2.0000      -0.545484       -14.8434
 179   2.0000      -0.542028       -14.7493
 180   2.0000      -0.540490       -14.7075
 181   2.0000      -0.538815       -14.6619
 182   2.0000      -0.537555       -14.6276
 183   2.0000      -0.536592       -14.6014
 184   2.0000      -0.535479       -14.5711
 185   2.0000      -0.532666       -14.4946
 186   2.0000      -0.527818       -14.3627
 187   2.0000      -0.527256       -14.3474
 188   2.0000      -0.526031       -14.3140
 189   2.0000      -0.522951       -14.2302
 190   2.0000      -0.522192       -14.2096
 191   2.0000      -0.520173       -14.1546
 192   2.0000      -0.519829       -14.1453
 193   2.0000      -0.518570       -14.1110
 194   2.0000      -0.515437       -14.0258
 195   2.0000      -0.513667       -13.9776
 196   2.0000      -0.512898       -13.9567
 197   2.0000      -0.509141       -13.8544
 198   2.0000      -0.505961       -13.7679
 199   2.0000      -0.503378       -13.6976
 200   2.0000      -0.503117       -13.6905
 201   2.0000      -0.502768       -13.6810
 202   2.0000      -0.501460       -13.6454
 203   2.0000      -0.497053       -13.5255
 204   2.0000      -0.495803       -13.4915
 205   2.0000      -0.494755       -13.4630
 206   2.0000      -0.489241       -13.3129
 207   2.0000      -0.487721       -13.2716
 208   2.0000      -0.485908       -13.2222
 209   2.0000      -0.482799       -13.1376
 210   2.0000      -0.480023       -13.0621
 211   2.0000      -0.478736       -13.0271
 212   2.0000      -0.475792       -12.9469
 213   2.0000      -0.472374       -12.8539
 214   2.0000      -0.470274       -12.7968
 215   2.0000      -0.465078       -12.6554
 216   2.0000      -0.463782       -12.6201
 217   2.0000      -0.463286       -12.6066
 218   2.0000      -0.458890       -12.4870
 219   2.0000      -0.456659       -12.4263
 220   2.0000      -0.454490       -12.3673
 221   2.0000      -0.452467       -12.3122
 222   2.0000      -0.451816       -12.2945
 223   2.0000      -0.450143       -12.2490
 224   2.0000      -0.449928       -12.2432
 225   2.0000      -0.449474       -12.2308
 226   2.0000      -0.448934       -12.2161
 227   2.0000      -0.446257       -12.1433
 228   2.0000      -0.444849       -12.1050
 229   2.0000      -0.444675       -12.1002
 230   2.0000      -0.443092       -12.0572
 231   2.0000      -0.442861       -12.0509
 232   2.0000      -0.439631       -11.9630
 233   2.0000      -0.439019       -11.9463
 234   2.0000      -0.437978       -11.9180
 235   2.0000      -0.437287       -11.8992
 236   2.0000      -0.435234       -11.8433
 237   2.0000      -0.434088       -11.8121
 238   2.0000      -0.433472       -11.7954
 239   2.0000      -0.432647       -11.7729
 240   2.0000      -0.432475       -11.7682
 241   2.0000      -0.429533       -11.6882
 242   2.0000      -0.427221       -11.6253
 243   2.0000      -0.422922       -11.5083
 244   2.0000      -0.421607       -11.4725
 245   2.0000      -0.420138       -11.4325
 246   2.0000      -0.419673       -11.4199
 247   2.0000      -0.417950       -11.3730
 248   2.0000      -0.413822       -11.2607
 249   2.0000      -0.409791       -11.1510
 250   2.0000      -0.406349       -11.0573
 251   2.0000      -0.400928       -10.9098
 252   2.0000      -0.397667       -10.8211
 253   2.0000      -0.393330       -10.7030
 254   2.0000      -0.384044       -10.4504
 255   2.0000      -0.378780       -10.3071
 256   2.0000      -0.370765       -10.0890
 257   2.0000      -0.360885        -9.8202
 258   2.0000      -0.353199        -9.6110
 259   2.0000      -0.347616        -9.4591
 260   2.0000      -0.343818        -9.3558
 261   2.0000      -0.342983        -9.3330
 262   2.0000      -0.342681        -9.3248
 263   2.0000      -0.334591        -9.1047
 264   2.0000      -0.328732        -8.9452
 265   2.0000      -0.328079        -8.9275
 266   2.0000      -0.325860        -8.8671
 267   2.0000      -0.316179        -8.6037
 268   2.0000      -0.308526        -8.3954
 269   2.0000      -0.305361        -8.3093
 270   2.0000      -0.296006        -8.0547
 271   2.0000      -0.294323        -8.0089
 272   2.0000      -0.278920        -7.5898
 273   2.0000      -0.241509        -6.5718
 274   0.0000      -0.145573        -3.9612
 275   0.0000      -0.113243        -3.0815
 276   0.0000      -0.089579        -2.4376
 277   0.0000      -0.078466        -2.1352
 278   0.0000      -0.067170        -1.8278

MULLIKEN ATOMIC CHARGES
-----------------------
   0 C :    0.329860
   1 C :   -0.351806
   2 C :   -0.182083
   3 N :    0.150134
   4 C :   -0.188372
   5 N :    0.152958
   6 C :    0.045451
   7 C :   -0.001844
   8 C :   -0.077935
   9 C :    0.097113
  10 C :    0.095569
  11 C :   -0.080157
  12 C :   -0.017149
  13 C :    0.034628
  14 C :    0.038393
  15 C :   -0.015072
  16 C :    0.173405
  17 O :   -0.184636
  18 C :   -0.090273
  19 C :   -0.013431
  20 C :   -0.038672
  21 S :    0.178350
  22 C :   -0.026208
  23 C :   -0.031404
  24 C :    0.007527
  25 C :   -0.180888
  26 N :    0.154351
  27 C :   -0.010637
  28 C :   -0.031312
  29 C :    0.144043
  30 N :   -0.250672
  31 C :    0.092657
  32 C :    0.002458
  33 C :    0.163585
  34 O :   -0.206366
  35 C :   -0.065440
  36 C :   -0.058237
  37 C :    0.158720
  38 O :   -0.185672
  39 N :   -0.252374
  40 C :    0.091688
  41 C :    0.002699
  42 C :    0.149592
  43 C :   -0.011140
  44 C :    0.002049
  45 C :    0.112755
  46 C :   -0.122514
  47 C :    0.123911
  48 C :   -0.088420
  49 C :    0.002835
  50 C :   -0.180378
  51 N :    0.144390
  52 C :    0.108673
  53 C :   -0.103275
  54 C :    0.112651
  55 C :    0.000404
  56 C :   -0.097600
  57 C :   -0.163223
  58 N :    0.119672
  59 C :    0.017292
  60 C :    0.010429
  61 C :   -0.043485
  62 C :   -0.066086
  63 C :    0.341892
  64 C :   -0.352764
  65 C :   -0.182061
  66 N :    0.145214
  67 C :   -0.190414
  68 N :    0.148386
  69 C :    0.044540
  70 C :   -0.001705
  71 C :    0.147439
  72 O :   -0.140532
  73 C :   -0.078990
  74 C :    0.097122
  75 C :    0.096825
  76 C :   -0.082064
  77 C :   -0.017255
  78 C :    0.033531
  79 C :    0.038390
  80 C :   -0.016059
  81 H :   -0.015314
  82 H :   -0.007678
  83 H :   -0.007119
  84 H :   -0.001094
  85 H :   -0.003069
  86 H :   -0.017705
  87 H :    0.013227
  88 H :    0.021407
  89 H :    0.042363
  90 H :   -0.002762
  91 H :    0.029096
  92 H :    0.045677
  93 H :    0.019136
  94 H :    0.028374
  95 H :    0.029911
  96 H :    0.049895
  97 H :    0.032200
  98 H :    0.030964
  99 H :    0.034872
 100 H :    0.016214
 101 H :   -0.009171
 102 H :    0.006311
 103 H :    0.000545
 104 H :    0.013166
 105 H :    0.017083
 106 H :    0.001708
 107 H :    0.001781
 108 H :    0.043376
 109 H :    0.011311
 110 H :   -0.010655
 111 H :   -0.010405
 112 H :   -0.009565
 113 H :   -0.004504
 114 H :   -0.005437
 115 H :   -0.017113
Sum of atomic charges:   -0.0000000

LOEWDIN ATOMIC CHARGES
----------------------
   0 C :    0.075860
   1 C :   -0.136789
   2 C :   -0.016926
   3 N :   -0.049875
   4 C :   -0.021931
   5 N :   -0.048163
   6 C :   -0.025413
   7 C :   -0.057059
   8 C :    0.033973
   9 C :   -0.008620
  10 C :   -0.005309
  11 C :    0.021785
  12 C :   -0.003890
  13 C :   -0.011125
  14 C :   -0.010274
  15 C :   -0.009151
  16 C :    0.086699
  17 O :   -0.169998
  18 C :   -0.097762
  19 C :    0.056721
  20 C :   -0.177951
  21 S :    0.522548
  22 C :   -0.136612
  23 C :   -0.098595
  24 C :    0.013047
  25 C :   -0.035472
  26 N :   -0.034780
  27 C :    0.006362
  28 C :   -0.030998
  29 C :    0.069888
  30 N :    0.002898
  31 C :    0.036270
  32 C :   -0.060303
  33 C :    0.079944
  34 O :   -0.196638
  35 C :   -0.110082
  36 C :   -0.106612
  37 C :    0.079698
  38 O :   -0.179917
  39 N :    0.003364
  40 C :    0.037358
  41 C :   -0.059613
  42 C :    0.075922
  43 C :   -0.016592
  44 C :    0.024675
  45 C :   -0.013742
  46 C :   -0.024569
  47 C :    0.046087
  48 C :   -0.079704
  49 C :    0.062026
  50 C :   -0.034386
  51 N :   -0.053673
  52 C :    0.031191
  53 C :   -0.001056
  54 C :   -0.026545
  55 C :    0.053658
  56 C :   -0.085428
  57 C :   -0.027378
  58 N :   -0.070738
  59 C :    0.023261
  60 C :   -0.002262
  61 C :    0.062107
  62 C :   -0.082171
  63 C :    0.074723
  64 C :   -0.137428
  65 C :   -0.016703
  66 N :   -0.053276
  67 C :   -0.019909
  68 N :   -0.053545
  69 C :   -0.026082
  70 C :   -0.055466
  71 C :    0.083536
  72 O :   -0.136123
  73 C :    0.033626
  74 C :   -0.007799
  75 C :   -0.006171
  76 C :    0.019424
  77 C :   -0.005184
  78 C :   -0.013660
  79 C :   -0.011823
  80 C :   -0.009068
  81 H :    0.038391
  82 H :    0.039720
  83 H :    0.035687
  84 H :    0.034496
  85 H :    0.033726
  86 H :    0.031857
  87 H :    0.052601
  88 H :    0.048336
  89 H :    0.047216
  90 H :    0.026221
  91 H :    0.024936
  92 H :    0.038456
  93 H :    0.023285
  94 H :    0.032717
  95 H :    0.032472
  96 H :    0.040811
  97 H :    0.026588
  98 H :    0.032530
  99 H :    0.035631
 100 H :    0.022269
 101 H :    0.036295
 102 H :    0.038075
 103 H :    0.031550
 104 H :    0.043138
 105 H :    0.038574
 106 H :    0.038449
 107 H :    0.037374
 108 H :    0.038524
 109 H :    0.042048
 110 H :    0.040148
 111 H :    0.038699
 112 H :    0.034676
 113 H :    0.033226
 114 H :    0.032752
 115 H :    0.032208

  Mayer bond orders larger than 0.100000
B(  0-C ,  1-C ) :   1.6293 B(  0-C ,  6-C ) :   0.9865 B(  0-C , 18-C ) :   1.0695
B(  1-C ,  2-C ) :   1.1485 B(  1-C ,  4-C ) :   1.1437 B(  2-C ,  3-N ) :   2.9613
B(  4-C ,  5-N ) :   2.9573 B(  6-C ,  7-C ) :   1.2154 B(  6-C , 11-C ) :   1.4498
B(  7-C ,  8-C ) :   1.4626 B(  7-C , 16-C ) :   0.9651 B(  8-C ,  9-C ) :   1.1784
B(  8-C , 81-H ) :   1.0175 B(  9-C , 10-C ) :   1.2580 B(  9-C , 15-C ) :   1.2428
B( 10-C , 11-C ) :   1.2035 B( 10-C , 12-C ) :   1.2404 B( 11-C , 82-H ) :   0.9904
B( 12-C , 13-C ) :   1.4870 B( 12-C , 83-H ) :   0.9980 B( 13-C , 14-C ) :   1.2613
B( 13-C , 84-H ) :   0.9889 B( 14-C , 15-C ) :   1.4877 B( 14-C , 85-H ) :   0.9887
B( 15-C , 86-H ) :   0.9982 B( 16-C , 17-O ) :   2.1264 B( 16-C , 18-C ) :   0.9652
B( 18-C , 19-C ) :   1.5319 B( 19-C , 20-C ) :   1.2326 B( 19-C , 87-H ) :   0.9371
B( 20-C , 21-S ) :   1.1005 B( 20-C , 24-C ) :   1.3656 B( 21-S , 22-C ) :   1.1097
B( 22-C , 23-C ) :   1.3709 B( 22-C , 27-C ) :   1.2072 B( 23-C , 24-C ) :   1.3332
B( 23-C , 25-C ) :   1.0919 B( 24-C , 88-H ) :   1.0139 B( 25-C , 26-N ) :   3.0298
B( 27-C , 28-C ) :   1.5496 B( 27-C , 89-H ) :   0.9501 B( 28-C , 29-C ) :   1.1790
B( 28-C , 90-H ) :   0.9592 B( 29-C , 30-N ) :   1.1587 B( 29-C , 36-C ) :   1.3220
B( 30-N , 31-C ) :   0.9442 B( 30-N , 33-C ) :   1.0676 B( 31-C , 32-C ) :   1.1205
B( 31-C , 91-H ) :   0.9493 B( 31-C , 92-H ) :   0.9278 B( 32-C , 93-H ) :   0.9683
B( 32-C , 94-H ) :   0.9679 B( 32-C , 95-H ) :   0.9637 B( 33-C , 34-O ) :   2.0224
B( 33-C , 35-C ) :   0.9842 B( 34-O ,102-H ) :   0.1156 B( 35-C , 36-C ) :   1.2885
B( 35-C , 42-C ) :   1.2958 B( 36-C , 37-C ) :   0.9719 B( 37-C , 38-O ) :   2.0606
B( 37-C , 39-N ) :   1.0588 B( 38-O , 89-H ) :   0.1007 B( 39-N , 40-C ) :   0.9378
B( 39-N , 42-C ) :   1.1663 B( 40-C , 41-C ) :   1.1219 B( 40-C , 96-H ) :   0.9282
B( 40-C , 97-H ) :   0.9502 B( 41-C , 98-H ) :   0.9636 B( 41-C , 99-H ) :   0.9678
B( 41-C ,100-H ) :   0.9684 B( 42-C , 43-C ) :   1.1847 B( 43-C , 44-C ) :   1.5367
B( 43-C ,101-H ) :   0.9682 B( 44-C , 45-C ) :   1.1356 B( 44-C ,102-H ) :   0.9540
B( 45-C , 46-C ) :   1.4983 B( 45-C , 49-C ) :   1.0252 B( 46-C , 47-C ) :   1.1590
B( 46-C ,103-H ) :   0.9946 B( 47-C , 48-C ) :   1.0964 B( 47-C , 52-C ) :   1.3720
B( 48-C , 49-C ) :   1.6762 B( 48-C , 50-C ) :   1.0843 B( 49-C ,104-H ) :   1.0277
B( 50-C , 51-N ) :   2.9795 B( 52-C , 53-C ) :   1.1443 B( 52-C , 56-C ) :   1.1093
B( 53-C , 54-C ) :   1.5142 B( 53-C ,105-H ) :   0.9990 B( 54-C , 55-C ) :   1.0397
B( 54-C , 59-C ) :   1.0903 B( 55-C , 56-C ) :   1.6593 B( 55-C ,106-H ) :   1.0244
B( 56-C , 57-C ) :   1.0874 B( 57-C , 58-N ) :   2.9592 B( 59-C , 60-C ) :   1.5586
B( 59-C ,107-H ) :   0.9875 B( 60-C , 61-C ) :   1.1579 B( 60-C ,108-H ) :   0.9773
B( 61-C , 62-C ) :   1.5372 B( 61-C ,109-H ) :   0.9631 B( 62-C , 63-C ) :   1.0608
B( 62-C , 71-C ) :   0.9358 B( 63-C , 64-C ) :   1.6224 B( 63-C , 69-C ) :   0.9894
B( 64-C , 65-C ) :   1.1470 B( 64-C , 67-C ) :   1.1491 B( 65-C , 66-N ) :   2.9595
B( 67-C , 68-N ) :   2.9595 B( 69-C , 70-C ) :   1.2162 B( 69-C , 76-C ) :   1.4472
B( 70-C , 71-C ) :   0.9445 B( 70-C , 73-C ) :   1.4716 B( 71-C , 72-O ) :   2.2064
B( 73-C , 74-C ) :   1.1781 B( 73-C ,110-H ) :   1.0164 B( 74-C , 75-C ) :   1.2566
B( 74-C , 80-C ) :   1.2437 B( 75-C , 76-C ) :   1.2080 B( 75-C , 77-C ) :   1.2386
B( 76-C ,111-H ) :   0.9887 B( 77-C , 78-C ) :   1.4892 B( 77-C ,112-H ) :   0.9972
B( 78-C , 79-C ) :   1.2588 B( 78-C ,113-H ) :   0.9890 B( 79-C , 80-C ) :   1.4894
B( 79-C ,114-H ) :   0.9889 B( 80-C ,115-H ) :   0.9976

-----------------------------------------------------------------------------
         ABSORPTION SPECTRUM VIA TRANSITION ELECTRIC DIPOLE MOMENTS
-----------------------------------------------------------------------------
State   Energy  Wavelength   fosc         T2         TX        TY        TZ
        (cm-1)    (nm)                  (au**2)     (au)      (au)      (au)
-----------------------------------------------------------------------------
   0    7848.9   1274.1   1.061706070  44.53194  -4.65907   4.67816   0.96946
   1   14145.7    706.9   0.105829746   2.46296   1.04890  -0.86655  -0.78222
   2   14643.1    682.9   0.397117033   8.92814   1.96703  -2.18177   0.54663
   3   17300.0    578.0   0.004156337   0.07909   0.01922  -0.13926  -0.24358
   4   20888.3    478.7   0.075717646   1.19335   0.81623  -0.64895  -0.32556
   5   21887.9    456.9   0.175373647   2.63776  -0.89428   1.33738   0.22234
   6   21999.9    454.5   0.342286691   5.12207  -1.35930   1.80836   0.06479
   7   22546.9    443.5   0.891374092  13.01513   1.93635  -2.32728  -1.96200
   8   23463.3    426.2   0.026341038   0.36959   0.09196   0.18225   0.57264
   9   23537.2    424.9   0.003994967   0.05588   0.06338   0.04220   0.22378
  10   23773.2    420.6   0.000117633   0.00163  -0.00327   0.02122  -0.03418
  11   24738.5    404.2   0.046578571   0.61985  -0.50399   0.51222  -0.32169
  12   25441.7    393.1   0.080520110   1.04192  -0.32085   0.67252   0.69764
  13   25704.2    389.0   0.009977743   0.12779  -0.02297   0.26686   0.23674
  14   25895.1    386.2   0.025741407   0.32726  -0.06686  -0.14826  -0.54846
  15   26455.0    378.0   0.133165728   1.65715  -1.02236   0.69248  -0.36386
  16   26958.1    370.9   0.007267951   0.08876  -0.15252   0.09328  -0.23831
  17   27014.2    370.2   0.029835905   0.36360   0.16869  -0.24493   0.52455
  18   27682.1    361.2   0.098585982   1.17244  -0.70388   0.79585   0.20884
  19   28206.5    354.5   0.017076643   0.19931   0.21603  -0.36168  -0.14776
  20   28346.9    352.8   0.013190671   0.15319  -0.26591   0.19012  -0.21526
  21   29009.7    344.7   0.003039066   0.03449   0.10537  -0.15059   0.02663
  22   29225.8    342.2   0.015105377   0.17015   0.05025  -0.35443  -0.20496
  23   29394.2    340.2   0.064564189   0.72311   0.51933  -0.33229   0.58565
  24   29429.3    339.8   0.145448471   1.62707  -0.25643  -0.47618  -1.15523
  25   30040.6    332.9   0.377043707   4.13199   0.55618   0.79633   1.78564
  26   30415.4    328.8   0.053417730   0.57819   0.33085  -0.58347  -0.35818
  27   30859.2    324.1   0.000777488   0.00829   0.04513   0.04943   0.06176
  28   30951.6    323.1   0.031114934   0.33095  -0.04636   0.35225   0.45246
  29   31729.1    315.2   0.083600507   0.86741  -0.29009  -0.00436  -0.88501
  30   31813.9    314.3   0.107047459   1.10773  -0.35837  -0.22104  -0.96460
  31   32406.2    308.6   0.001106583   0.01124  -0.04034  -0.04931  -0.08475
  32   32871.9    304.2   0.129119672   1.29313  -0.54646  -0.10188  -0.99203
  33   33144.5    301.7   0.000964667   0.00958   0.06572   0.01359   0.07126
  34   33310.3    300.2   0.000708509   0.00700  -0.04486  -0.04929  -0.05060
  35   33792.5    295.9   0.003038345   0.02960  -0.04589   0.03241  -0.16262
  36   33932.8    294.7   0.230151459   2.23290  -0.62256  -0.14537  -1.35062
  37   34148.6    292.8   0.687100563   6.62403  -1.05235  -0.69772  -2.24272
  38   34227.0    292.2   0.022992868   0.22116  -0.06910   0.09947   0.45441
  39   34271.6    291.8   0.054253407   0.52116  -0.06400   0.44976   0.56105
  40   34508.3    289.8   0.014807709   0.14127  -0.25032  -0.00890  -0.28023
  41   34656.5    288.5   0.130896800   1.24343   0.03694   0.58552   0.94827
  42   34979.3    285.9   0.002985150   0.02810  -0.03770  -0.06569  -0.14953
  43   35266.5    283.6   0.505906178   4.72262   0.85536   0.72306   1.86230
  44   35369.1    282.7   0.022569745   0.21008   0.19435  -0.29875  -0.28819
  45   35525.6    281.5   0.050121413   0.46447  -0.14131  -0.18794  -0.63967
  46   35733.5    279.8   0.072434030   0.66733  -0.05057  -0.45981  -0.67331
  47   36030.9    277.5   0.063567789   0.58082   0.22772   0.30452   0.66047
  48   36086.6    277.1   0.010438284   0.09523   0.26530  -0.14654   0.05805
  49   36383.2    274.9   0.056000287   0.50672  -0.50529   0.41356  -0.28348
  50   37031.5    270.0   0.010334535   0.09187  -0.09353  -0.11783  -0.26314
  51   37155.6    269.1   0.044947185   0.39825   0.21494   0.19416   0.56067
  52   37290.6    268.2   0.077905226   0.68777   0.68484  -0.46688   0.02788
  53   37662.7    265.5   0.026926911   0.23537  -0.40022   0.19748  -0.19026
  54   38028.6    263.0   0.002098228   0.01816  -0.09937   0.06741   0.06121
  55   38276.4    261.3   0.069023511   0.59366   0.36972  -0.58964  -0.33060
  56   38399.7    260.4   0.130563686   1.11936   0.86503  -0.60200   0.09315
  57   38443.0    260.1   0.062586171   0.53597   0.26355   0.41784   0.54029
  58   38837.0    257.5   0.135524754   1.14881   0.90315  -0.50862   0.27283
  59   39312.7    254.4   0.032783008   0.27453   0.16163  -0.11490   0.48498
  60   39363.5    254.0   0.165687271   1.38571  -0.14318   0.99184   0.61762
  61   39714.3    251.8   0.130532164   1.08205  -0.30050   0.84316   0.52994
  62   39993.6    250.0   0.113398918   0.93346  -0.48068  -0.24127  -0.80261
  63   40210.5    248.7   0.088808009   0.72709  -0.11376   0.53014   0.65811
  64   40313.7    248.1   0.303516863   2.47860   0.66172  -1.12822  -0.87626

FINAL SINGLE POINT ENERGY     -3761.511902870727

DIPOLE MOMENT
-------------
                                X             Y             Z
Electronic contribution:     -3.44565     -10.70268     -14.69034
Nuclear contribution   :      6.27085      10.89638      18.74892
                        -----------------------------------------
Total Dipole Moment    :      2.82520       0.19370       4.05858
                        -----------------------------------------
Magnitude (a.u.)       :      4.94888
Magnitude (Debye)      :     12.57904

Rotational constants in cm-1:     0.001510     0.000145     0.000134
Rotational constants in MHz :    45.256867     4.354302     4.009806

                             ****ORCA TERMINATED NORMALLY****
TOTAL RUN TIME: 0 days 0 hours 13 minutes 20 seconds 64 msec
