                         Program Version 4.2.0 -  RELEASE  -
|  1> # ORCA input file
|  2> # SCF done       -202.692984823564          0.000736463509
|  3> ! CAM-B3LYP def2-SVP def2/J RIJCOSX Grid4 TightSCF
|  4> %maxcore 5000
|  5> %tddft
|  6>     Mode sTDDFT
|  7>     Ethresh 5.0
|  8>     maxcore 5000
|  9> end
| 10>
| 11> %pal
| 12>   nprocs 6
| 13>   end
| 14> * xyz 0 1
| 15>    C       -3.18631         7.49194         4.47347
| 16>    C       -2.91617         8.83448         4.44758
| 17>    C       -3.91198         9.82843         4.34302
| 18>    N       -4.68215        10.67346         4.24558
| 19>    C       -1.63120         9.39127         4.61509
| 20>    N       -0.61550         9.89654         4.79355
| 21>    C       -4.51387         6.89995         4.58319
| 22>    C       -4.38019         5.57709         5.10023
| 23>    C       -5.46893         4.79428         5.35743
| 24>    C       -6.76089         5.30380         5.09802
| 25>    C       -6.90018         6.61810         4.56384
| 26>    C       -5.75575         7.40801         4.31025
| 27>    C       -8.19504         7.11196         4.30505
| 28>    C       -9.30022         6.34829         4.56503
| 29>    C       -9.16218         5.05543         5.09232
| 30>    C       -7.91976         4.54428         5.35306
| 31>    C       -2.95286         5.25934         5.27549
| 32>    O       -2.45680         4.25941         5.73451
| 33>    C       -2.22325         6.42772         4.68992
| 34>    C       -0.90922         6.31838         4.38282
| 35>    C       -0.13354         7.14973         3.52978
| 36>    S       -0.77775         7.95366         2.10712
| 37>    C        0.74973         8.71941         1.74201
| 38>    C        1.69166         8.33801         2.68237
| 39>    C        1.20775         7.44034         3.65528
| 40>    C        2.26163         7.10942         4.62341
| 41>    O        2.19478         6.35915         5.56178
| 42>    C        3.48389         7.91019         4.18830
| 43>    C        3.08072         8.69842         2.94925
| 44>    O        3.77456         9.47682         2.33793
| 45>    C        0.96173         9.64490         0.69861
| 46>    C        0.05382        10.01784        -0.23339
| 47>    C        0.26879        11.05555        -1.18085
| 48>    S       -0.54990        10.97483        -2.70609
| 49>    C        0.21370        12.44103        -3.25631
| 50>    C        1.03790        12.97292        -2.26390
| 51>    C        1.06267        12.19728        -1.09638
| 52>    C        1.78615        12.62586         0.15689
| 53>    O        0.92972        12.36929         1.25275
| 54>    C        1.55630        12.36606         2.51449
| 55>    C        2.18581        14.10426         0.05840
| 56>    C        2.86126        14.36349        -1.27977
| 57>    C        1.84603        14.22412        -2.41044
| 58>    C       -0.05821        12.88150        -4.57725
| 59>    C       -0.69256        12.13167        -5.54971
| 60>    C       -0.75725        12.87077        -6.75613
| 61>    C       -0.14403        14.18201        -6.45964
| 62>    C        0.26668        14.17499        -5.16590
| 63>    C       -0.00821        15.27163        -7.32625
| 64>    N        0.12636        16.18943        -8.00399
| 65>    C       -1.24803        12.46552        -7.97892
| 66>    C       -1.22878        13.18863        -9.20274
| 67>    C       -1.78107        12.41199       -10.20370
| 68>    C       -2.18694        11.14593        -9.60807
| 69>    C       -1.87392        11.16646        -8.28577
| 70>    C       -2.11955        10.12565        -7.38301
| 71>    N       -2.33062         9.25438        -6.66456
| 72>    C       -1.90136        12.78835       -11.56160
| 73>    C       -2.41606        12.00442       -12.55127
| 74>    C       -2.46899        12.45044       -13.88898
| 75>    C       -2.95124        11.71979       -14.94030
| 76>    C       -3.00362        12.12911       -16.33113
| 77>    C       -2.59124        13.32779       -16.85594
| 78>    C       -2.66691        13.66033       -18.22498
| 79>    N       -2.70012        13.99903       -19.32159
| 80>    C       -2.03576        14.40180       -16.12995
| 81>    N       -1.57363        15.32108       -15.61926
| 82>    C       -3.57843        11.02853       -17.09776
| 83>    C       -3.88425         9.96134       -16.20580
| 84>    C       -3.50898        10.34494       -14.83477
| 85>    O       -3.63402         9.66879       -13.83434
| 86>    C       -4.43787         8.79187       -16.64102
| 87>    C       -4.71489         8.63044       -18.01691
| 88>    C       -4.40942         9.69182       -18.91692
| 89>    C       -3.83840        10.89234       -18.43597
| 90>    C       -4.68644         9.52018       -20.28849
| 91>    C       -5.23915         8.35688       -20.75062
| 92>    C       -5.54069         7.31286       -19.86335
| 93>    C       -5.28424         7.44666       -18.52565
| 94>    H       -5.34616         3.79882         5.75742
| 95>    H       -5.88808         8.39535         3.89596
| 96>    H       -8.29647         8.10907         3.90259
| 97>    H      -10.28779         6.73670         4.36649
| 98>    H      -10.04511         4.46665         5.29079
| 99>    H       -7.80724         3.54976         5.75911
|100>    H       -0.37968         5.47814         4.82389
|101>    H        4.32930         7.25154         3.97734
|102>    H        3.80429         8.58281         4.98697
|103>    H        1.95586        10.06578         0.69299
|104>    H       -0.88998         9.48955        -0.29980
|105>    H        2.71223        12.02936         0.25964
|106>    H        2.45530        11.73954         2.51198
|107>    H        0.82923        11.95064         3.21074
|108>    H        1.82724        13.37654         2.83723
|109>    H        2.85985        14.35086         0.87925
|110>    H        1.28706        14.71690         0.15498
|111>    H        3.29096        15.36584        -1.29953
|112>    H        3.67302        13.64616        -1.42014
|113>    H        2.36322        14.22096        -3.37219
|114>    H        1.16955        15.08462        -2.38991
|115>    H       -1.05206        11.12908        -5.42409
|116>    H        0.71916        15.00342        -4.65845
|117>    H       -0.83332        14.17787        -9.32651
|118>    H       -2.65679        10.33555       -10.13285
|119>    H       -1.53824        13.77829       -11.81355
|120>    H       -2.78832        11.01508       -12.33399
|121>    H       -2.08608        13.44539       -14.07793
|122>    H       -4.66083         7.99853       -15.94296
|123>    H       -3.62043        11.67548       -19.14430
|124>    H       -4.45260        10.32707       -20.96747
|125>    H       -5.44716         8.23475       -21.80304
|126>    H       -5.97700         6.40197       -20.24519
|127>    H       -5.51411         6.64601       -17.83788
|128> *
|129>
|130>                          ****END OF INPUT****

CARTESIAN COORDINATES (ANGSTROEM)
---------------------------------
  C     -3.186310    7.491940    4.473470
  C     -2.916170    8.834480    4.447580
  C     -3.911980    9.828430    4.343020
  N     -4.682150   10.673460    4.245580
  C     -1.631200    9.391270    4.615090
  N     -0.615500    9.896540    4.793550
  C     -4.513870    6.899950    4.583190
  C     -4.380190    5.577090    5.100230
  C     -5.468930    4.794280    5.357430
  C     -6.760890    5.303800    5.098020
  C     -6.900180    6.618100    4.563840
  C     -5.755750    7.408010    4.310250
  C     -8.195040    7.111960    4.305050
  C     -9.300220    6.348290    4.565030
  C     -9.162180    5.055430    5.092320
  C     -7.919760    4.544280    5.353060
  C     -2.952860    5.259340    5.275490
  O     -2.456800    4.259410    5.734510
  C     -2.223250    6.427720    4.689920
  C     -0.909220    6.318380    4.382820
  C     -0.133540    7.149730    3.529780
  S     -0.777750    7.953660    2.107120
  C      0.749730    8.719410    1.742010
  C      1.691660    8.338010    2.682370
  C      1.207750    7.440340    3.655280
  C      2.261630    7.109420    4.623410
  O      2.194780    6.359150    5.561780
  C      3.483890    7.910190    4.188300
  C      3.080720    8.698420    2.949250
  O      3.774560    9.476820    2.337930
  C      0.961730    9.644900    0.698610
  C      0.053820   10.017840   -0.233390
  C      0.268790   11.055550   -1.180850
  S     -0.549900   10.974830   -2.706090
  C      0.213700   12.441030   -3.256310
  C      1.037900   12.972920   -2.263900
  C      1.062670   12.197280   -1.096380
  C      1.786150   12.625860    0.156890
  O      0.929720   12.369290    1.252750
  C      1.556300   12.366060    2.514490
  C      2.185810   14.104260    0.058400
  C      2.861260   14.363490   -1.279770
  C      1.846030   14.224120   -2.410440
  C     -0.058210   12.881500   -4.577250
  C     -0.692560   12.131670   -5.549710
  C     -0.757250   12.870770   -6.756130
  C     -0.144030   14.182010   -6.459640
  C      0.266680   14.174990   -5.165900
  C     -0.008210   15.271630   -7.326250
  N      0.126360   16.189430   -8.003990
  C     -1.248030   12.465520   -7.978920
  C     -1.228780   13.188630   -9.202740
  C     -1.781070   12.411990  -10.203700
  C     -2.186940   11.145930   -9.608070
  C     -1.873920   11.166460   -8.285770
  C     -2.119550   10.125650   -7.383010
  N     -2.330620    9.254380   -6.664560
  C     -1.901360   12.788350  -11.561600
  C     -2.416060   12.004420  -12.551270
  C     -2.468990   12.450440  -13.888980
  C     -2.951240   11.719790  -14.940300
  C     -3.003620   12.129110  -16.331130
  C     -2.591240   13.327790  -16.855940
  C     -2.666910   13.660330  -18.224980
  N     -2.700120   13.999030  -19.321590
  C     -2.035760   14.401800  -16.129950
  N     -1.573630   15.321080  -15.619260
  C     -3.578430   11.028530  -17.097760
  C     -3.884250    9.961340  -16.205800
  C     -3.508980   10.344940  -14.834770
  O     -3.634020    9.668790  -13.834340
  C     -4.437870    8.791870  -16.641020
  C     -4.714890    8.630440  -18.016910
  C     -4.409420    9.691820  -18.916920
  C     -3.838400   10.892340  -18.435970
  C     -4.686440    9.520180  -20.288490
  C     -5.239150    8.356880  -20.750620
  C     -5.540690    7.312860  -19.863350
  C     -5.284240    7.446660  -18.525650
  H     -5.346160    3.798820    5.757420
  H     -5.888080    8.395350    3.895960
  H     -8.296470    8.109070    3.902590
  H    -10.287790    6.736700    4.366490
  H    -10.045110    4.466650    5.290790
  H     -7.807240    3.549760    5.759110
  H     -0.379680    5.478140    4.823890
  H      4.329300    7.251540    3.977340
  H      3.804290    8.582810    4.986970
  H      1.955860   10.065780    0.692990
  H     -0.889980    9.489550   -0.299800
  H      2.712230   12.029360    0.259640
  H      2.455300   11.739540    2.511980
  H      0.829230   11.950640    3.210740
  H      1.827240   13.376540    2.837230
  H      2.859850   14.350860    0.879250
  H      1.287060   14.716900    0.154980
  H      3.290960   15.365840   -1.299530
  H      3.673020   13.646160   -1.420140
  H      2.363220   14.220960   -3.372190
  H      1.169550   15.084620   -2.389910
  H     -1.052060   11.129080   -5.424090
  H      0.719160   15.003420   -4.658450
  H     -0.833320   14.177870   -9.326510
  H     -2.656790   10.335550  -10.132850
  H     -1.538240   13.778290  -11.813550
  H     -2.788320   11.015080  -12.333990
  H     -2.086080   13.445390  -14.077930
  H     -4.660830    7.998530  -15.942960
  H     -3.620430   11.675480  -19.144300
  H     -4.452600   10.327070  -20.967470
  H     -5.447160    8.234750  -21.803040
  H     -5.977000    6.401970  -20.245190
  H     -5.514110    6.646010  -17.837880

 Total Charge           Charge          ....    0
 Multiplicity           Mult            ....    1
 Number of Electrons    NEL             ....  544
 Basis Dimension        Dim             .... 1284

ORBITAL ENERGIES
----------------

  NO   OCC          E(Eh)            E(eV)
   0   2.0000     -88.989651     -2421.5315
   1   2.0000     -88.967958     -2420.9412
   2   2.0000     -19.224079      -523.1138
   3   2.0000     -19.222708      -523.0765
   4   2.0000     -19.220659      -523.0207
   5   2.0000     -19.216838      -522.9167
   6   2.0000     -19.214252      -522.8464
   7   2.0000     -14.424489      -392.5103
   8   2.0000     -14.422374      -392.4527
   9   2.0000     -14.415513      -392.2660
  10   2.0000     -14.414009      -392.2251
  11   2.0000     -14.413257      -392.2047
  12   2.0000     -14.409389      -392.0994
  13   2.0000     -10.377023      -282.3732
  14   2.0000     -10.376293      -282.3533
  15   2.0000     -10.371893      -282.2336
  16   2.0000     -10.367271      -282.1078
  17   2.0000     -10.352203      -281.6978
  18   2.0000     -10.349748      -281.6310
  19   2.0000     -10.340984      -281.3925
  20   2.0000     -10.340894      -281.3900
  21   2.0000     -10.339495      -281.3520
  22   2.0000     -10.338152      -281.3154
  23   2.0000     -10.330534      -281.1081
  24   2.0000     -10.328427      -281.0508
  25   2.0000     -10.327597      -281.0282
  26   2.0000     -10.327107      -281.0149
  27   2.0000     -10.324452      -280.9426
  28   2.0000     -10.323132      -280.9067
  29   2.0000     -10.322818      -280.8982
  30   2.0000     -10.319327      -280.8032
  31   2.0000     -10.318174      -280.7718
  32   2.0000     -10.317731      -280.7597
  33   2.0000     -10.316555      -280.7277
  34   2.0000     -10.316475      -280.7256
  35   2.0000     -10.316197      -280.7180
  36   2.0000     -10.315999      -280.7126
  37   2.0000     -10.315673      -280.7037
  38   2.0000     -10.314773      -280.6793
  39   2.0000     -10.311374      -280.5868
  40   2.0000     -10.309788      -280.5436
  41   2.0000     -10.309122      -280.5255
  42   2.0000     -10.308939      -280.5205
  43   2.0000     -10.308602      -280.5113
  44   2.0000     -10.305754      -280.4338
  45   2.0000     -10.303218      -280.3648
  46   2.0000     -10.303098      -280.3615
  47   2.0000     -10.302856      -280.3550
  48   2.0000     -10.302749      -280.3521
  49   2.0000     -10.302590      -280.3477
  50   2.0000     -10.302208      -280.3373
  51   2.0000     -10.301939      -280.3300
  52   2.0000     -10.301490      -280.3178
  53   2.0000     -10.301023      -280.3051
  54   2.0000     -10.299010      -280.2503
  55   2.0000     -10.297738      -280.2157
  56   2.0000     -10.297149      -280.1997
  57   2.0000     -10.296853      -280.1916
  58   2.0000     -10.295997      -280.1683
  59   2.0000     -10.295598      -280.1575
  60   2.0000     -10.295339      -280.1504
  61   2.0000     -10.295115      -280.1443
  62   2.0000     -10.293116      -280.0899
  63   2.0000     -10.291472      -280.0452
  64   2.0000     -10.290802      -280.0270
  65   2.0000     -10.290627      -280.0222
  66   2.0000     -10.290438      -280.0170
  67   2.0000     -10.290193      -280.0104
  68   2.0000     -10.289771      -279.9989
  69   2.0000     -10.288058      -279.9523
  70   2.0000     -10.287721      -279.9431
  71   2.0000     -10.287606      -279.9400
  72   2.0000     -10.286279      -279.9039
  73   2.0000     -10.285688      -279.8878
  74   2.0000     -10.285415      -279.8804
  75   2.0000     -10.284847      -279.8649
  76   2.0000     -10.282370      -279.7975
  77   2.0000     -10.277887      -279.6755
  78   2.0000     -10.270392      -279.4716
  79   2.0000      -8.084127      -219.9803
  80   2.0000      -8.063605      -219.4219
  81   2.0000      -6.053392      -164.7212
  82   2.0000      -6.049163      -164.6061
  83   2.0000      -6.046442      -164.5321
  84   2.0000      -6.032771      -164.1600
  85   2.0000      -6.028734      -164.0502
  86   2.0000      -6.025778      -163.9698
  87   2.0000      -1.141786       -31.0696
  88   2.0000      -1.136498       -30.9257
  89   2.0000      -1.136364       -30.9220
  90   2.0000      -1.130894       -30.7732
  91   2.0000      -1.117579       -30.4109
  92   2.0000      -1.028776       -27.9944
  93   2.0000      -1.021523       -27.7971
  94   2.0000      -1.017086       -27.6763
  95   2.0000      -1.016983       -27.6735
  96   2.0000      -1.006814       -27.3968
  97   2.0000      -1.005137       -27.3512
  98   2.0000      -1.001124       -27.2420
  99   2.0000      -1.000556       -27.2265
 100   2.0000      -0.997742       -27.1499
 101   2.0000      -0.992553       -27.0087
 102   2.0000      -0.987699       -26.8767
 103   2.0000      -0.982707       -26.7408
 104   2.0000      -0.977539       -26.6002
 105   2.0000      -0.970804       -26.4169
 106   2.0000      -0.936264       -25.4770
 107   2.0000      -0.935289       -25.4505
 108   2.0000      -0.931764       -25.3546
 109   2.0000      -0.926187       -25.2028
 110   2.0000      -0.921367       -25.0717
 111   2.0000      -0.918331       -24.9890
 112   2.0000      -0.905711       -24.6456
 113   2.0000      -0.894603       -24.3434
 114   2.0000      -0.890011       -24.2184
 115   2.0000      -0.886432       -24.1210
 116   2.0000      -0.880489       -23.9593
 117   2.0000      -0.874356       -23.7924
 118   2.0000      -0.867927       -23.6175
 119   2.0000      -0.857080       -23.3223
 120   2.0000      -0.853009       -23.2116
 121   2.0000      -0.841268       -22.8921
 122   2.0000      -0.836035       -22.7497
 123   2.0000      -0.834494       -22.7077
 124   2.0000      -0.833601       -22.6834
 125   2.0000      -0.830717       -22.6050
 126   2.0000      -0.827601       -22.5202
 127   2.0000      -0.808886       -22.0109
 128   2.0000      -0.799962       -21.7681
 129   2.0000      -0.786641       -21.4056
 130   2.0000      -0.771622       -20.9969
 131   2.0000      -0.766937       -20.8694
 132   2.0000      -0.765415       -20.8280
 133   2.0000      -0.761085       -20.7102
 134   2.0000      -0.742666       -20.2090
 135   2.0000      -0.734991       -20.0001
 136   2.0000      -0.731224       -19.8976
 137   2.0000      -0.722907       -19.6713
 138   2.0000      -0.713917       -19.4267
 139   2.0000      -0.710956       -19.3461
 140   2.0000      -0.707026       -19.2391
 141   2.0000      -0.706314       -19.2198
 142   2.0000      -0.703631       -19.1468
 143   2.0000      -0.701494       -19.0886
 144   2.0000      -0.697086       -18.9687
 145   2.0000      -0.684782       -18.6339
 146   2.0000      -0.684162       -18.6170
 147   2.0000      -0.682014       -18.5585
 148   2.0000      -0.676693       -18.4138
 149   2.0000      -0.669013       -18.2048
 150   2.0000      -0.661628       -18.0038
 151   2.0000      -0.650565       -17.7028
 152   2.0000      -0.646465       -17.5912
 153   2.0000      -0.643924       -17.5221
 154   2.0000      -0.639610       -17.4047
 155   2.0000      -0.635237       -17.2857
 156   2.0000      -0.630988       -17.1700
 157   2.0000      -0.628876       -17.1126
 158   2.0000      -0.613666       -16.6987
 159   2.0000      -0.612842       -16.6763
 160   2.0000      -0.608508       -16.5583
 161   2.0000      -0.605852       -16.4861
 162   2.0000      -0.603499       -16.4220
 163   2.0000      -0.594789       -16.1850
 164   2.0000      -0.588241       -16.0068
 165   2.0000      -0.584719       -15.9110
 166   2.0000      -0.574599       -15.6356
 167   2.0000      -0.572174       -15.5697
 168   2.0000      -0.570527       -15.5248
 169   2.0000      -0.563153       -15.3242
 170   2.0000      -0.562042       -15.2939
 171   2.0000      -0.556519       -15.1437
 172   2.0000      -0.554912       -15.0999
 173   2.0000      -0.553525       -15.0622
 174   2.0000      -0.550891       -14.9905
 175   2.0000      -0.549793       -14.9606
 176   2.0000      -0.545744       -14.8504
 177   2.0000      -0.543882       -14.7998
 178   2.0000      -0.543342       -14.7851
 179   2.0000      -0.540586       -14.7101
 180   2.0000      -0.539300       -14.6751
 181   2.0000      -0.536411       -14.5965
 182   2.0000      -0.534198       -14.5363
 183   2.0000      -0.531828       -14.4718
 184   2.0000      -0.529016       -14.3953
 185   2.0000      -0.526864       -14.3367
 186   2.0000      -0.524729       -14.2786
 187   2.0000      -0.522895       -14.2287
 188   2.0000      -0.519683       -14.1413
 189   2.0000      -0.518519       -14.1096
 190   2.0000      -0.518114       -14.0986
 191   2.0000      -0.515299       -14.0220
 192   2.0000      -0.515010       -14.0141
 193   2.0000      -0.514253       -13.9935
 194   2.0000      -0.513742       -13.9796
 195   2.0000      -0.511755       -13.9256
 196   2.0000      -0.509541       -13.8653
 197   2.0000      -0.508266       -13.8306
 198   2.0000      -0.506369       -13.7790
 199   2.0000      -0.503437       -13.6992
 200   2.0000      -0.502380       -13.6705
 201   2.0000      -0.500277       -13.6132
 202   2.0000      -0.496011       -13.4972
 203   2.0000      -0.494765       -13.4632
 204   2.0000      -0.492274       -13.3954
 205   2.0000      -0.491215       -13.3666
 206   2.0000      -0.488827       -13.3017
 207   2.0000      -0.487477       -13.2649
 208   2.0000      -0.485828       -13.2200
 209   2.0000      -0.484860       -13.1937
 210   2.0000      -0.480782       -13.0828
 211   2.0000      -0.480352       -13.0710
 212   2.0000      -0.474605       -12.9147
 213   2.0000      -0.472370       -12.8538
 214   2.0000      -0.467817       -12.7300
 215   2.0000      -0.465181       -12.6582
 216   2.0000      -0.463071       -12.6008
 217   2.0000      -0.459302       -12.4983
 218   2.0000      -0.457417       -12.4470
 219   2.0000      -0.456462       -12.4210
 220   2.0000      -0.452078       -12.3017
 221   2.0000      -0.448073       -12.1927
 222   2.0000      -0.447789       -12.1849
 223   2.0000      -0.447180       -12.1684
 224   2.0000      -0.444983       -12.1086
 225   2.0000      -0.443460       -12.0672
 226   2.0000      -0.443446       -12.0668
 227   2.0000      -0.443166       -12.0592
 228   2.0000      -0.441507       -12.0140
 229   2.0000      -0.439489       -11.9591
 230   2.0000      -0.438652       -11.9363
 231   2.0000      -0.438485       -11.9318
 232   2.0000      -0.436509       -11.8780
 233   2.0000      -0.434650       -11.8274
 234   2.0000      -0.432927       -11.7805
 235   2.0000      -0.432036       -11.7563
 236   2.0000      -0.431837       -11.7509
 237   2.0000      -0.428691       -11.6653
 238   2.0000      -0.426077       -11.5941
 239   2.0000      -0.423795       -11.5320
 240   2.0000      -0.421735       -11.4760
 241   2.0000      -0.420803       -11.4506
 242   2.0000      -0.419016       -11.4020
 243   2.0000      -0.418605       -11.3908
 244   2.0000      -0.418227       -11.3805
 245   2.0000      -0.410815       -11.1789
 246   2.0000      -0.408976       -11.1288
 247   2.0000      -0.404815       -11.0156
 248   2.0000      -0.399493       -10.8708
 249   2.0000      -0.398068       -10.8320
 250   2.0000      -0.389557       -10.6004
 251   2.0000      -0.384984       -10.4760
 252   2.0000      -0.380253       -10.3472
 253   2.0000      -0.375140       -10.2081
 254   2.0000      -0.366979        -9.9860
 255   2.0000      -0.354499        -9.6464
 256   2.0000      -0.352023        -9.5790
 257   2.0000      -0.348400        -9.4804
 258   2.0000      -0.341378        -9.2894
 259   2.0000      -0.335834        -9.1385
 260   2.0000      -0.335634        -9.1331
 261   2.0000      -0.333476        -9.0744
 262   2.0000      -0.329512        -8.9665
 263   2.0000      -0.325683        -8.8623
 264   2.0000      -0.321889        -8.7590
 265   2.0000      -0.318866        -8.6768
 266   2.0000      -0.316030        -8.5996
 267   2.0000      -0.302597        -8.2341
 268   2.0000      -0.298246        -8.1157
 269   2.0000      -0.294724        -8.0198
 270   2.0000      -0.280929        -7.6445
 271   2.0000      -0.254879        -6.9356
 272   0.0000      -0.135085        -3.6758
 273   0.0000      -0.107746        -2.9319
 274   0.0000      -0.086250        -2.3470
 275   0.0000      -0.068085        -1.8527
 276   0.0000      -0.058905        -1.6029

MULLIKEN ATOMIC CHARGES
-----------------------
   0 C :    0.265204
   1 C :   -0.328392
   2 C :   -0.180565
   3 N :    0.160445
   4 C :   -0.176750
   5 N :    0.164364
   6 C :    0.035368
   7 C :    0.006934
   8 C :   -0.073885
   9 C :    0.090377
  10 C :    0.092362
  11 C :   -0.074427
  12 C :   -0.014404
  13 C :    0.036296
  14 C :    0.035635
  15 C :   -0.010474
  16 C :    0.141321
  17 O :   -0.129133
  18 C :   -0.128703
  19 C :    0.044799
  20 C :   -0.218728
  21 S :    0.182357
  22 C :   -0.104124
  23 C :    0.027134
  24 C :    0.112853
  25 C :    0.030868
  26 O :   -0.131253
  27 C :    0.048061
  28 C :    0.038098
  29 O :   -0.162573
  30 C :    0.027381
  31 C :    0.058994
  32 C :   -0.112877
  33 S :    0.158468
  34 C :   -0.126562
  35 C :   -0.073933
  36 C :   -0.029146
  37 C :    0.171055
  38 O :   -0.381133
  39 C :    0.175557
  40 C :    0.035984
  41 C :    0.038709
  42 C :    0.084300
  43 C :    0.114050
  44 C :   -0.153947
  45 C :    0.137241
  46 C :   -0.094259
  47 C :   -0.025407
  48 C :   -0.176391
  49 N :    0.142043
  50 C :    0.104827
  51 C :   -0.090203
  52 C :    0.108247
  53 C :   -0.004086
  54 C :   -0.100505
  55 C :   -0.168607
  56 N :    0.129911
  57 C :    0.027416
  58 C :   -0.004604
  59 C :   -0.036512
  60 C :   -0.067954
  61 C :    0.340894
  62 C :   -0.356639
  63 C :   -0.180452
  64 N :    0.145753
  65 C :   -0.193103
  66 N :    0.151503
  67 C :    0.047745
  68 C :   -0.002183
  69 C :    0.150782
  70 O :   -0.154981
  71 C :   -0.080972
  72 C :    0.097641
  73 C :    0.096391
  74 C :   -0.084838
  75 C :   -0.020687
  76 C :    0.035620
  77 C :    0.037653
  78 C :   -0.015640
  79 H :   -0.009612
  80 H :   -0.005671
  81 H :   -0.009477
  82 H :   -0.002985
  83 H :   -0.002987
  84 H :   -0.016305
  85 H :    0.048931
  86 H :    0.069861
  87 H :    0.071445
  88 H :    0.010487
  89 H :    0.001468
  90 H :    0.018804
  91 H :    0.007356
  92 H :    0.039412
  93 H :    0.006014
  94 H :    0.008336
  95 H :    0.011123
  96 H :    0.007730
  97 H :    0.010968
  98 H :    0.028124
  99 H :    0.031153
 100 H :    0.010524
 101 H :   -0.003439
 102 H :    0.005781
 103 H :    0.010900
 104 H :    0.011439
 105 H :    0.025609
 106 H :    0.011331
 107 H :   -0.013681
 108 H :   -0.008492
 109 H :   -0.008512
 110 H :   -0.004307
 111 H :   -0.005723
 112 H :   -0.017218
Sum of atomic charges:   -0.0000000

LOEWDIN ATOMIC CHARGES
----------------------
   0 C :    0.063934
   1 C :   -0.136523
   2 C :   -0.018913
   3 N :   -0.045728
   4 C :   -0.024178
   5 N :   -0.053461
   6 C :   -0.024427
   7 C :   -0.058070
   8 C :    0.035509
   9 C :   -0.008022
  10 C :   -0.004907
  11 C :    0.018449
  12 C :   -0.005358
  13 C :   -0.010943
  14 C :   -0.010781
  15 C :   -0.007973
  16 C :    0.083768
  17 O :   -0.130705
  18 C :   -0.079957
  19 C :    0.053258
  20 C :   -0.154681
  21 S :    0.487064
  22 C :   -0.110001
  23 C :   -0.095770
  24 C :   -0.060728
  25 C :    0.081809
  26 O :   -0.120319
  27 C :   -0.068455
  28 C :    0.083166
  29 O :   -0.145243
  30 C :   -0.022017
  31 C :   -0.011562
  32 C :   -0.148082
  33 S :    0.471039
  34 C :   -0.173348
  35 C :   -0.029957
  36 C :   -0.054144
  37 C :    0.067016
  38 O :   -0.162328
  39 C :    0.063383
  40 C :   -0.036361
  41 C :   -0.024649
  42 C :   -0.030188
  43 C :   -0.014645
  44 C :   -0.053970
  45 C :    0.046792
  46 C :   -0.072795
  47 C :    0.049539
  48 C :   -0.032274
  49 N :   -0.057712
  50 C :    0.023757
  51 C :   -0.000142
  52 C :   -0.028827
  53 C :    0.054713
  54 C :   -0.080825
  55 C :   -0.028626
  56 N :   -0.063745
  57 C :    0.035882
  58 C :   -0.023029
  59 C :    0.067418
  60 C :   -0.087721
  61 C :    0.074494
  62 C :   -0.137858
  63 C :   -0.016598
  64 N :   -0.054190
  65 C :   -0.021087
  66 N :   -0.050901
  67 C :   -0.025368
  68 C :   -0.055826
  69 C :    0.085535
  70 O :   -0.148350
  71 C :    0.031996
  72 C :   -0.008374
  73 C :   -0.006026
  74 C :    0.019133
  75 C :   -0.005341
  76 C :   -0.013353
  77 C :   -0.012221
  78 C :   -0.009755
  79 H :    0.040542
  80 H :    0.038998
  81 H :    0.034892
  82 H :    0.033940
  83 H :    0.033707
  84 H :    0.032595
  85 H :    0.059852
  86 H :    0.063397
  87 H :    0.065626
  88 H :    0.041481
  89 H :    0.027788
  90 H :    0.016039
  91 H :    0.007000
  92 H :    0.026989
  93 H :    0.006306
  94 H :    0.026585
  95 H :    0.027212
  96 H :    0.028984
  97 H :    0.025412
  98 H :    0.035136
  99 H :    0.036073
 100 H :    0.028421
 101 H :    0.036276
 102 H :    0.037182
 103 H :    0.040810
 104 H :    0.042470
 105 H :    0.032283
 106 H :    0.042940
 107 H :    0.038763
 108 H :    0.039112
 109 H :    0.034984
 110 H :    0.033321
 111 H :    0.032648
 112 H :    0.031921

  Mayer bond orders larger than 0.100000
B(  0-C ,  1-C ) :   1.6636 B(  0-C ,  6-C ) :   1.0060 B(  0-C , 18-C ) :   1.0187
B(  1-C ,  2-C ) :   1.1343 B(  1-C ,  4-C ) :   1.1580 B(  2-C ,  3-N ) :   2.9917
B(  4-C ,  5-N ) :   2.9856 B(  6-C ,  7-C ) :   1.2112 B(  6-C , 11-C ) :   1.4506
B(  7-C ,  8-C ) :   1.4756 B(  7-C , 16-C ) :   0.9201 B(  8-C ,  9-C ) :   1.1863
B(  8-C , 79-H ) :   1.0150 B(  9-C , 10-C ) :   1.2533 B(  9-C , 15-C ) :   1.2470
B( 10-C , 11-C ) :   1.2103 B( 10-C , 12-C ) :   1.2385 B( 11-C , 80-H ) :   0.9928
B( 12-C , 13-C ) :   1.4912 B( 12-C , 81-H ) :   0.9973 B( 13-C , 14-C ) :   1.2588
B( 13-C , 82-H ) :   0.9890 B( 14-C , 15-C ) :   1.4888 B( 14-C , 83-H ) :   0.9895
B( 15-C , 84-H ) :   0.9969 B( 16-C , 17-O ) :   2.2885 B( 16-C , 18-C ) :   0.9251
B( 18-C , 19-C ) :   1.6944 B( 19-C , 20-C ) :   1.0951 B( 19-C , 85-H ) :   0.9408
B( 20-C , 21-S ) :   1.1317 B( 20-C , 24-C ) :   1.4804 B( 21-S , 22-C ) :   1.1340
B( 22-C , 23-C ) :   1.4367 B( 22-C , 30-C ) :   1.2237 B( 23-C , 24-C ) :   1.2131
B( 23-C , 28-C ) :   0.9543 B( 24-C , 25-C ) :   0.9255 B( 25-C , 26-O ) :   2.2430
B( 25-C , 27-C ) :   0.9937 B( 27-C , 28-C ) :   0.9980 B( 27-C , 86-H ) :   0.8966
B( 27-C , 87-H ) :   0.8932 B( 28-C , 29-O ) :   2.1592 B( 30-C , 31-C ) :   1.6319
B( 30-C , 88-H ) :   0.9505 B( 31-C , 32-C ) :   1.1239 B( 31-C , 89-H ) :   0.9516
B( 32-C , 33-S ) :   1.1300 B( 32-C , 34-C ) :   0.1035 B( 32-C , 36-C ) :   1.4836
B( 33-S , 34-C ) :   1.1344 B( 34-C , 35-C ) :   1.4603 B( 34-C , 43-C ) :   1.1184
B( 35-C , 36-C ) :   1.3667 B( 35-C , 42-C ) :   1.0470 B( 36-C , 37-C ) :   0.9580
B( 37-C , 38-O ) :   1.0606 B( 37-C , 40-C ) :   1.0728 B( 37-C , 90-H ) :   0.8967
B( 38-O , 39-C ) :   0.9614 B( 39-C , 91-H ) :   0.9591 B( 39-C , 92-H ) :   0.9763
B( 39-C , 93-H ) :   0.9669 B( 40-C , 41-C ) :   1.0627 B( 40-C , 94-H ) :   0.9257
B( 40-C , 95-H ) :   0.9313 B( 41-C , 42-C ) :   1.0876 B( 41-C , 96-H ) :   0.9297
B( 41-C , 97-H ) :   0.9414 B( 42-C , 98-H ) :   0.9164 B( 42-C , 99-H ) :   0.9042
B( 43-C , 44-C ) :   1.5140 B( 43-C , 47-C ) :   1.0438 B( 44-C , 45-C ) :   1.1648
B( 44-C ,100-H ) :   0.9922 B( 45-C , 46-C ) :   1.0918 B( 45-C , 50-C ) :   1.3765
B( 46-C , 47-C ) :   1.6857 B( 46-C , 48-C ) :   1.0844 B( 47-C ,101-H ) :   1.0177
B( 48-C , 49-N ) :   2.9686 B( 50-C , 51-C ) :   1.1251 B( 50-C , 54-C ) :   1.1167
B( 51-C , 52-C ) :   1.4934 B( 51-C ,102-H ) :   1.0073 B( 52-C , 53-C ) :   1.0554
B( 52-C , 57-C ) :   1.0998 B( 53-C , 54-C ) :   1.6676 B( 53-C ,103-H ) :   1.0172
B( 54-C , 55-C ) :   1.0914 B( 55-C , 56-N ) :   2.9621 B( 57-C , 58-C ) :   1.5458
B( 57-C ,104-H ) :   0.9887 B( 58-C , 59-C ) :   1.1619 B( 58-C ,105-H ) :   0.9773
B( 59-C , 60-C ) :   1.5343 B( 59-C ,106-H ) :   0.9628 B( 60-C , 61-C ) :   1.0641
B( 60-C , 69-C ) :   0.9408 B( 61-C , 62-C ) :   1.6217 B( 61-C , 67-C ) :   0.9877
B( 62-C , 63-C ) :   1.1476 B( 62-C , 65-C ) :   1.1491 B( 63-C , 64-N ) :   2.9597
B( 65-C , 66-N ) :   2.9603 B( 67-C , 68-C ) :   1.2154 B( 67-C , 74-C ) :   1.4471
B( 68-C , 69-C ) :   0.9463 B( 68-C , 71-C ) :   1.4706 B( 69-C , 70-O ) :   2.1941
B( 71-C , 72-C ) :   1.1779 B( 71-C ,107-H ) :   1.0159 B( 72-C , 73-C ) :   1.2567
B( 72-C , 78-C ) :   1.2445 B( 73-C , 74-C ) :   1.2081 B( 73-C , 75-C ) :   1.2384
B( 74-C ,108-H ) :   0.9883 B( 75-C , 76-C ) :   1.4897 B( 75-C ,109-H ) :   0.9973
B( 76-C , 77-C ) :   1.2600 B( 76-C ,110-H ) :   0.9886 B( 77-C , 78-C ) :   1.4885
B( 77-C ,111-H ) :   0.9882 B( 78-C ,112-H ) :   0.9973

-----------------------------------------------------------------------------
         ABSORPTION SPECTRUM VIA TRANSITION ELECTRIC DIPOLE MOMENTS
-----------------------------------------------------------------------------
State   Energy  Wavelength   fosc         T2         TX        TY        TZ
        (cm-1)    (nm)                  (au**2)     (au)      (au)      (au)
-----------------------------------------------------------------------------
   0   11348.2    881.2   1.053408558  30.55948  -0.96716   0.41550  -5.42692
   1   16746.1    597.2   0.087135718   1.71301   0.58786   0.71246   0.92728
   2   17666.2    566.1   0.405681478   7.55992  -1.58767  -1.31481   1.81947
   3   20793.7    480.9   0.228044011   3.61046  -0.42111   0.56857  -1.76348
   4   22576.6    442.9   0.180715180   2.63519  -0.37355   0.23160  -1.56269
   5   23732.5    421.4   0.766173418  10.62820  -0.87172  -0.16807  -3.13689
   6   24338.0    410.9   0.022207689   0.30040   0.20612  -0.48988  -0.13390
   7   24594.1    406.6   0.096576513   1.29275   0.74107  -0.02646   0.86190
   8   24924.9    401.2   0.098073516   1.29537   0.86489   0.52235   0.52392
   9   25625.9    390.2   0.001043547   0.01341  -0.05754   0.08945  -0.04577
  10   25679.1    389.4   0.229140974   2.93764   0.77256  -1.42743   0.55068
  11   26504.2    377.3   0.063024738   0.78284   0.45072   0.23989  -0.72260
  12   26848.8    372.5   0.003706511   0.04545  -0.04544   0.06157  -0.19898
  13   27079.8    369.3   0.132506285   1.61089   0.33588   1.13414   0.46023
  14   27366.5    365.4   0.147236854   1.77122  -0.31905  -0.78663   1.02501
  15   28026.0    356.8   0.003384392   0.03976  -0.06782  -0.17075   0.07747
  16   28124.1    355.6   0.008506803   0.09958   0.30173  -0.04445  -0.08099
  17   28698.8    348.4   0.028757974   0.32989  -0.29253  -0.34870   0.35032
  18   28996.9    344.9   0.023154494   0.26288   0.28607  -0.06462   0.42056
  19   29304.6    341.2   0.006885443   0.07735   0.17082  -0.21884   0.01668
  20   29457.9    339.5   0.204038703   2.28027   1.31492   0.71665   0.19409
  21   30291.1    330.1   0.100533277   1.09262  -0.23454  -0.80649  -0.62225
  22   30306.2    330.0   0.016637953   0.18074   0.31680   0.26413   0.10297
  23   30628.0    326.5   0.444679209   4.77974  -0.63513  -1.40851  -1.54676
  24   30822.6    324.4   0.027300859   0.29160  -0.35673  -0.31814  -0.25126
  25   31138.2    321.1   0.045077285   0.47658   0.63822   0.04553   0.25920
  26   32223.1    310.3   0.060307985   0.61615  -0.63594  -0.40415   0.21998
  27   32472.0    308.0   0.174022820   1.76430   1.20275   0.54788   0.13237
  28   32768.4    305.2   0.026339472   0.26462   0.21266  -0.28482   0.37185
  29   33097.3    302.1   0.000024168   0.00024  -0.00650   0.01337   0.00441
  30   33639.8    297.3   0.341751311   3.34451   1.49949   1.04284  -0.09237
  31   33774.9    296.1   0.058546070   0.57066  -0.46510  -0.59208  -0.06153
  32   34107.2    293.2   0.133418616   1.28779  -1.11484  -0.20785   0.04150
  33   34433.4    290.4   0.008256282   0.07894  -0.15620   0.22076   0.07617
  34   34482.7    290.0   0.022969806   0.21930  -0.42839  -0.17791  -0.06422
  35   34548.9    289.4   0.000029225   0.00028  -0.01406  -0.00884  -0.00166
  36   34840.0    287.0   0.014599218   0.13795   0.15778   0.11141   0.31725
  37   35094.4    284.9   0.067160220   0.63001   0.20840  -0.23120  -0.73016
  38   35299.6    283.3   0.351197817   3.27535   0.03410   1.79855   0.19850
  39   35471.4    281.9   0.369446385   3.42885  -1.56726  -0.80623  -0.56793
  40   35646.6    280.5   0.102103977   0.94298  -0.28786  -0.91836  -0.12933
  41   35738.0    279.8   0.140166669   1.29119  -0.90224  -0.60365  -0.33580
  42   36387.2    274.8   0.054660490   0.49454   0.05637  -0.21513   0.66714
  43   36456.1    274.3   0.001060664   0.00958   0.00676   0.02037  -0.09549
  44   36758.1    272.0   0.102701352   0.91981   0.39217   0.84119  -0.24168
  45   36925.4    270.8   0.016942472   0.15105  -0.12475   0.06444   0.36241
  46   36973.1    270.5   0.046140195   0.41084   0.11464   0.56683  -0.27641
  47   37135.9    269.3   0.010487546   0.09297   0.02382   0.22606   0.20322
  48   37321.5    267.9   0.103837081   0.91594   0.63195   0.52681  -0.48893
  49   37365.7    267.6   0.050802340   0.44760  -0.36470  -0.55943   0.04039
  50   37645.9    265.6   0.109148675   0.95450  -0.80235   0.16356  -0.53291
  51   37746.6    264.9   0.008064041   0.07033  -0.22745   0.01390  -0.13567
  52   37838.6    264.3   0.027180302   0.23648  -0.23989   0.13052  -0.40237
  53   38370.0    260.6   0.011231649   0.09637  -0.01882   0.13415  -0.27932
  54   38397.5    260.4   0.025069256   0.21494  -0.20886  -0.30252   0.28249
  55   38943.6    256.8   0.001855729   0.01569   0.06129  -0.08099  -0.07330
  56   38964.6    256.6   0.025052030   0.21166   0.17481   0.26584   0.33232
  57   39234.0    254.9   0.190713013   1.60027   0.37004  -1.00270   0.67671
  58   39597.3    252.5   0.053700761   0.44647  -0.07680   0.03756  -0.66269
  59   39880.8    250.7   0.311762839   2.57357   0.03263   0.90911  -1.32137
  60   40215.7    248.7   0.021171997   0.17332  -0.14430   0.27252   0.27970

FINAL SINGLE POINT ENERGY     -4031.994102210226

DIPOLE MOMENT
-------------
                                X             Y             Z
Electronic contribution:     -7.43268     -11.79550      -3.68684
Nuclear contribution   :      6.02383       9.37129       4.55457
                        -----------------------------------------
Total Dipole Moment    :     -1.40885      -2.42421       0.86773
                        -----------------------------------------
Magnitude (a.u.)       :      2.93506
Magnitude (Debye)      :      7.46034

Rotational constants in cm-1:     0.001074     0.000197     0.000177
Rotational constants in MHz :    32.202882     5.909764     5.297043

                             ****ORCA TERMINATED NORMALLY****
TOTAL RUN TIME: 0 days 0 hours 13 minutes 6 seconds 370 msec
