                         Program Version 4.2.0 -  RELEASE  -
|  1> # ORCA input file
|  2> # SCF done       -133.211732428775          0.000621702239
|  3> ! CAM-B3LYP def2-SVP def2/J RIJCOSX Grid4 TightSCF
|  4> %maxcore 5000
|  5> %tddft
|  6>     Mode sTDDFT
|  7>     Ethresh 5.0
|  8>     maxcore 5000
|  9> end
| 10>
| 11> %pal
| 12>   nprocs 6
| 13>   end
| 14> * xyz 0 1
| 15>    C        1.65289         0.63722        -2.82260
| 16>    S        1.60836        -0.49481        -1.53123
| 17>    C        2.85770        -1.46080        -2.26265
| 18>    C        3.26704        -0.90450        -3.45329
| 19>    C        2.57361         0.29348        -3.76590
| 20>    S        3.01139         1.08787        -5.25602
| 21>    C        4.25168        -0.09359        -5.74207
| 22>    O        4.88409         0.00042        -6.74414
| 23>    S        4.46895        -1.44164        -4.58650
| 24>    C        3.31049        -2.64561        -1.62673
| 25>    S        4.55982        -3.68515        -2.29033
| 26>    C        4.29504        -4.67683        -0.85248
| 27>    N        3.37744        -4.18305        -0.06994
| 28>    N        2.83910        -3.07555        -0.49006
| 29>    C        5.02234        -5.87423        -0.62169
| 30>    C        4.79984        -6.64314         0.47268
| 31>    C        5.50311        -7.84952         0.71882
| 32>    N        5.29171        -8.64387         1.82260
| 33>    C        4.40920        -8.36360         2.92924
| 34>    C        5.00722        -7.33197         3.88252
| 35>    C        6.10652        -9.78800         1.81259
| 36>    O        6.08681       -10.63414         2.68532
| 37>    C        6.87064        -9.67231         0.59055
| 38>    C        6.47834        -8.47250        -0.05618
| 39>    C        7.24558        -8.35505        -1.27668
| 40>    O        7.26591        -7.50782        -2.14804
| 41>    N        8.06173        -9.49812        -1.28562
| 42>    C        8.96084        -9.76817        -2.38163
| 43>    C        8.38804       -10.80267        -3.34709
| 44>    C        7.84645       -10.29513        -0.18461
| 45>    C        8.53677       -11.51024         0.05299
| 46>    C        8.29518       -12.29096         1.13527
| 47>    C        8.99042       -13.51049         1.34657
| 48>    S        8.69055       -14.53273         2.74816
| 49>    C        9.90910       -15.59976         2.06466
| 50>    N       10.39877       -15.14589         0.94244
| 51>    N        9.89917       -14.01095         0.55305
| 52>    C       10.28958       -16.81836         2.69344
| 53>    C       11.21955       -17.63747         2.15692
| 54>    C       11.65401       -18.87063         2.71504
| 55>    S       12.86518       -19.80659         1.87363
| 56>    C       12.85267       -21.03769         3.06668
| 57>    C       11.96833       -20.75341         4.06326
| 58>    C       11.28309       -19.52562         3.87255
| 59>    S       10.13406       -19.08660         5.10344
| 60>    C       10.37685       -20.52678         6.13139
| 61>    O        9.78513       -20.69746         7.14830
| 62>    S       11.58195       -21.67121         5.49659
| 63>    H        1.00394         1.48871        -2.82153
| 64>    H        5.76397        -6.15371        -1.35689
| 65>    H        4.04962        -6.32370         1.18099
| 66>    H        4.27317        -9.31353         3.45392
| 67>    H        3.44085        -8.02688         2.54970
| 68>    H        5.95326        -7.69549         4.27654
| 69>    H        4.32765        -7.16153         4.71271
| 70>    H        5.18254        -6.38682         3.37369
| 71>    H        9.92697       -10.09649        -1.98895
| 72>    H        9.09531        -8.81559        -2.90197
| 73>    H        8.21483       -11.75174        -2.84505
| 74>    H        9.08266       -10.96258        -4.16692
| 75>    H        7.44465       -10.44787        -3.75493
| 76>    H        9.28606       -11.83174        -0.65526
| 77>    H        7.55617       -12.00701         1.87149
| 78>    H        9.79426       -17.05761         3.62246
| 79>    H       11.68084       -17.34669         1.22365
| 80>    H       13.48760       -21.89455         2.97483
| 81> *
| 82>
| 83>                          ****END OF INPUT****

CARTESIAN COORDINATES (ANGSTROEM)
---------------------------------
  C      1.652890    0.637220   -2.822600
  S      1.608360   -0.494810   -1.531230
  C      2.857700   -1.460800   -2.262650
  C      3.267040   -0.904500   -3.453290
  C      2.573610    0.293480   -3.765900
  S      3.011390    1.087870   -5.256020
  C      4.251680   -0.093590   -5.742070
  O      4.884090    0.000420   -6.744140
  S      4.468950   -1.441640   -4.586500
  C      3.310490   -2.645610   -1.626730
  S      4.559820   -3.685150   -2.290330
  C      4.295040   -4.676830   -0.852480
  N      3.377440   -4.183050   -0.069940
  N      2.839100   -3.075550   -0.490060
  C      5.022340   -5.874230   -0.621690
  C      4.799840   -6.643140    0.472680
  C      5.503110   -7.849520    0.718820
  N      5.291710   -8.643870    1.822600
  C      4.409200   -8.363600    2.929240
  C      5.007220   -7.331970    3.882520
  C      6.106520   -9.788000    1.812590
  O      6.086810  -10.634140    2.685320
  C      6.870640   -9.672310    0.590550
  C      6.478340   -8.472500   -0.056180
  C      7.245580   -8.355050   -1.276680
  O      7.265910   -7.507820   -2.148040
  N      8.061730   -9.498120   -1.285620
  C      8.960840   -9.768170   -2.381630
  C      8.388040  -10.802670   -3.347090
  C      7.846450  -10.295130   -0.184610
  C      8.536770  -11.510240    0.052990
  C      8.295180  -12.290960    1.135270
  C      8.990420  -13.510490    1.346570
  S      8.690550  -14.532730    2.748160
  C      9.909100  -15.599760    2.064660
  N     10.398770  -15.145890    0.942440
  N      9.899170  -14.010950    0.553050
  C     10.289580  -16.818360    2.693440
  C     11.219550  -17.637470    2.156920
  C     11.654010  -18.870630    2.715040
  S     12.865180  -19.806590    1.873630
  C     12.852670  -21.037690    3.066680
  C     11.968330  -20.753410    4.063260
  C     11.283090  -19.525620    3.872550
  S     10.134060  -19.086600    5.103440
  C     10.376850  -20.526780    6.131390
  O      9.785130  -20.697460    7.148300
  S     11.581950  -21.671210    5.496590
  H      1.003940    1.488710   -2.821530
  H      5.763970   -6.153710   -1.356890
  H      4.049620   -6.323700    1.180990
  H      4.273170   -9.313530    3.453920
  H      3.440850   -8.026880    2.549700
  H      5.953260   -7.695490    4.276540
  H      4.327650   -7.161530    4.712710
  H      5.182540   -6.386820    3.373690
  H      9.926970  -10.096490   -1.988950
  H      9.095310   -8.815590   -2.901970
  H      8.214830  -11.751740   -2.845050
  H      9.082660  -10.962580   -4.166920
  H      7.444650  -10.447870   -3.754930
  H      9.286060  -11.831740   -0.655260
  H      7.556170  -12.007010    1.871490
  H      9.794260  -17.057610    3.622460
  H     11.680840  -17.346690    1.223650
  H     13.487600  -21.894550    2.974830

 Total Charge           Charge          ....    0
 Multiplicity           Mult            ....    1
 Number of Electrons    NEL             ....  400
 Basis Dimension        Dim             ....  794

ORBITAL ENERGIES
----------------

  NO   OCC          E(Eh)            E(eV)
   0   2.0000     -88.979196     -2421.2470
   1   2.0000     -88.977782     -2421.2085
   2   2.0000     -88.976849     -2421.1832
   3   2.0000     -88.972442     -2421.0632
   4   2.0000     -88.971843     -2421.0469
   5   2.0000     -88.971101     -2421.0267
   6   2.0000     -88.967799     -2420.9369
   7   2.0000     -88.967417     -2420.9265
   8   2.0000     -19.235798      -523.4327
   9   2.0000     -19.234844      -523.4067
  10   2.0000     -19.193779      -522.2893
  11   2.0000     -19.192523      -522.2551
  12   2.0000     -14.454554      -393.3284
  13   2.0000     -14.454199      -393.3188
  14   2.0000     -14.442496      -393.0003
  15   2.0000     -14.441679      -392.9781
  16   2.0000     -14.438646      -392.8955
  17   2.0000     -14.436386      -392.8340
  18   2.0000     -10.414805      -283.4013
  19   2.0000     -10.413992      -283.3791
  20   2.0000     -10.375773      -282.3391
  21   2.0000     -10.374856      -282.3142
  22   2.0000     -10.353821      -281.7418
  23   2.0000     -10.343615      -281.4641
  24   2.0000     -10.342736      -281.4402
  25   2.0000     -10.339901      -281.3630
  26   2.0000     -10.339365      -281.3484
  27   2.0000     -10.339294      -281.3465
  28   2.0000     -10.331556      -281.1359
  29   2.0000     -10.328755      -281.0597
  30   2.0000     -10.327521      -281.0261
  31   2.0000     -10.326715      -281.0042
  32   2.0000     -10.326625      -281.0017
  33   2.0000     -10.324213      -280.9361
  34   2.0000     -10.319096      -280.7969
  35   2.0000     -10.318490      -280.7804
  36   2.0000     -10.307426      -280.4793
  37   2.0000     -10.307411      -280.4789
  38   2.0000     -10.303519      -280.3730
  39   2.0000     -10.296671      -280.1867
  40   2.0000     -10.296515      -280.1824
  41   2.0000     -10.295870      -280.1649
  42   2.0000     -10.295203      -280.1467
  43   2.0000     -10.293195      -280.0921
  44   2.0000     -10.263210      -279.2761
  45   2.0000     -10.262448      -279.2554
  46   2.0000     -10.262191      -279.2484
  47   2.0000     -10.262010      -279.2435
  48   2.0000      -8.075070      -219.7338
  49   2.0000      -8.072746      -219.6706
  50   2.0000      -8.072426      -219.6619
  51   2.0000      -8.068806      -219.5634
  52   2.0000      -8.068594      -219.5576
  53   2.0000      -8.067594      -219.5304
  54   2.0000      -8.064996      -219.4597
  55   2.0000      -8.064651      -219.4503
  56   2.0000      -6.043876      -164.4622
  57   2.0000      -6.042290      -164.4191
  58   2.0000      -6.041776      -164.4051
  59   2.0000      -6.040383      -164.3672
  60   2.0000      -6.038310      -164.3108
  61   2.0000      -6.037820      -164.2974
  62   2.0000      -6.037540      -164.2898
  63   2.0000      -6.037408      -164.2862
  64   2.0000      -6.037320      -164.2838
  65   2.0000      -6.037300      -164.2833
  66   2.0000      -6.034693      -164.2123
  67   2.0000      -6.034650      -164.2112
  68   2.0000      -6.034499      -164.2071
  69   2.0000      -6.034328      -164.2024
  70   2.0000      -6.034322      -164.2023
  71   2.0000      -6.034086      -164.1958
  72   2.0000      -6.033311      -164.1747
  73   2.0000      -6.031233      -164.1182
  74   2.0000      -6.030885      -164.1087
  75   2.0000      -6.030527      -164.0990
  76   2.0000      -6.029139      -164.0612
  77   2.0000      -6.028239      -164.0367
  78   2.0000      -6.025364      -163.9585
  79   2.0000      -6.025051      -163.9500
  80   2.0000      -1.165542       -31.7160
  81   2.0000      -1.164743       -31.6943
  82   2.0000      -1.147027       -31.2122
  83   2.0000      -1.141492       -31.0616
  84   2.0000      -1.135277       -30.8925
  85   2.0000      -1.128690       -30.7132
  86   2.0000      -1.065181       -28.9850
  87   2.0000      -1.056715       -28.7547
  88   2.0000      -1.024918       -27.8894
  89   2.0000      -1.022060       -27.8117
  90   2.0000      -0.956071       -26.0160
  91   2.0000      -0.952328       -25.9142
  92   2.0000      -0.945175       -25.7195
  93   2.0000      -0.940294       -25.5867
  94   2.0000      -0.930406       -25.3176
  95   2.0000      -0.927203       -25.2305
  96   2.0000      -0.925468       -25.1833
  97   2.0000      -0.902806       -24.5666
  98   2.0000      -0.892121       -24.2758
  99   2.0000      -0.887026       -24.1372
 100   2.0000      -0.882342       -24.0097
 101   2.0000      -0.869854       -23.6699
 102   2.0000      -0.864411       -23.5218
 103   2.0000      -0.822795       -22.3894
 104   2.0000      -0.821169       -22.3452
 105   2.0000      -0.820227       -22.3195
 106   2.0000      -0.819904       -22.3107
 107   2.0000      -0.813390       -22.1335
 108   2.0000      -0.801847       -21.8194
 109   2.0000      -0.788283       -21.4503
 110   2.0000      -0.760270       -20.6880
 111   2.0000      -0.739802       -20.1310
 112   2.0000      -0.731484       -19.9047
 113   2.0000      -0.728550       -19.8249
 114   2.0000      -0.713933       -19.4271
 115   2.0000      -0.706497       -19.2248
 116   2.0000      -0.698583       -19.0094
 117   2.0000      -0.684536       -18.6272
 118   2.0000      -0.673692       -18.3321
 119   2.0000      -0.670890       -18.2558
 120   2.0000      -0.652702       -17.7609
 121   2.0000      -0.651644       -17.7321
 122   2.0000      -0.651095       -17.7172
 123   2.0000      -0.646933       -17.6039
 124   2.0000      -0.643037       -17.4979
 125   2.0000      -0.617428       -16.8011
 126   2.0000      -0.610480       -16.6120
 127   2.0000      -0.606624       -16.5071
 128   2.0000      -0.590705       -16.0739
 129   2.0000      -0.588388       -16.0109
 130   2.0000      -0.583437       -15.8761
 131   2.0000      -0.580639       -15.8000
 132   2.0000      -0.572411       -15.5761
 133   2.0000      -0.567837       -15.4516
 134   2.0000      -0.566250       -15.4085
 135   2.0000      -0.563412       -15.3312
 136   2.0000      -0.562145       -15.2967
 137   2.0000      -0.551755       -15.0140
 138   2.0000      -0.541408       -14.7325
 139   2.0000      -0.539136       -14.6706
 140   2.0000      -0.537964       -14.6387
 141   2.0000      -0.537124       -14.6159
 142   2.0000      -0.536678       -14.6038
 143   2.0000      -0.534131       -14.5345
 144   2.0000      -0.531525       -14.4635
 145   2.0000      -0.529768       -14.4157
 146   2.0000      -0.528889       -14.3918
 147   2.0000      -0.527325       -14.3492
 148   2.0000      -0.514422       -13.9981
 149   2.0000      -0.512784       -13.9536
 150   2.0000      -0.507507       -13.8100
 151   2.0000      -0.504569       -13.7300
 152   2.0000      -0.501858       -13.6563
 153   2.0000      -0.500908       -13.6304
 154   2.0000      -0.499077       -13.5806
 155   2.0000      -0.491292       -13.3687
 156   2.0000      -0.484859       -13.1937
 157   2.0000      -0.480643       -13.0790
 158   2.0000      -0.477775       -13.0009
 159   2.0000      -0.473337       -12.8802
 160   2.0000      -0.467725       -12.7274
 161   2.0000      -0.467471       -12.7205
 162   2.0000      -0.466025       -12.6812
 163   2.0000      -0.456401       -12.4193
 164   2.0000      -0.456054       -12.4099
 165   2.0000      -0.451002       -12.2724
 166   2.0000      -0.446811       -12.1583
 167   2.0000      -0.445143       -12.1130
 168   2.0000      -0.443185       -12.0597
 169   2.0000      -0.441035       -12.0012
 170   2.0000      -0.440839       -11.9958
 171   2.0000      -0.435520       -11.8511
 172   2.0000      -0.433245       -11.7892
 173   2.0000      -0.430898       -11.7253
 174   2.0000      -0.426745       -11.6123
 175   2.0000      -0.422147       -11.4872
 176   2.0000      -0.413598       -11.2546
 177   2.0000      -0.399430       -10.8690
 178   2.0000      -0.399060       -10.8590
 179   2.0000      -0.396234       -10.7821
 180   2.0000      -0.395438       -10.7604
 181   2.0000      -0.390870       -10.6361
 182   2.0000      -0.387377       -10.5411
 183   2.0000      -0.378276       -10.2934
 184   2.0000      -0.368980       -10.0405
 185   2.0000      -0.356809        -9.7093
 186   2.0000      -0.355850        -9.6832
 187   2.0000      -0.354657        -9.6507
 188   2.0000      -0.350846        -9.5470
 189   2.0000      -0.336215        -9.1489
 190   2.0000      -0.334309        -9.0970
 191   2.0000      -0.328793        -8.9469
 192   2.0000      -0.324049        -8.8178
 193   2.0000      -0.323748        -8.8096
 194   2.0000      -0.316238        -8.6053
 195   2.0000      -0.302720        -8.2374
 196   2.0000      -0.302654        -8.2356
 197   2.0000      -0.288528        -7.8513
 198   2.0000      -0.275730        -7.5030
 199   2.0000      -0.237481        -6.4622
 200   0.0000      -0.095450        -2.5973
 201   0.0000      -0.061100        -1.6626
 202   0.0000      -0.040829        -1.1110
 203   0.0000      -0.018183        -0.4948
 204   0.0000       0.008899         0.2421

MULLIKEN ATOMIC CHARGES
-----------------------
   0 C :   -0.136363
   1 S :    0.213081
   2 C :   -0.109191
   3 C :   -0.029561
   4 C :    0.010300
   5 S :    0.106582
   6 C :    0.066512
   7 O :   -0.146782
   8 S :    0.104414
   9 C :   -0.126541
  10 S :    0.115812
  11 C :   -0.090811
  12 N :   -0.046227
  13 N :   -0.052896
  14 C :    0.064948
  15 C :   -0.025369
  16 C :    0.136088
  17 N :   -0.256299
  18 C :    0.100184
  19 C :    0.002045
  20 C :    0.162038
  21 O :   -0.209427
  22 C :   -0.060365
  23 C :   -0.058445
  24 C :    0.163104
  25 O :   -0.207715
  26 N :   -0.256456
  27 C :    0.100279
  28 C :    0.001813
  29 C :    0.140064
  30 C :   -0.029299
  31 C :    0.073996
  32 C :   -0.115510
  33 S :    0.122938
  34 C :   -0.110324
  35 N :   -0.051567
  36 N :   -0.042790
  37 C :    0.044105
  38 C :    0.064895
  39 C :   -0.167422
  40 S :    0.158233
  41 C :   -0.131799
  42 C :   -0.001517
  43 C :    0.000041
  44 S :    0.086970
  45 C :    0.073889
  46 O :   -0.149198
  47 S :    0.104451
  48 H :    0.035397
  49 H :    0.012657
  50 H :    0.003694
  51 H :    0.042380
  52 H :    0.027642
  53 H :    0.026730
  54 H :    0.025707
  55 H :    0.021087
  56 H :    0.027828
  57 H :    0.042469
  58 H :    0.021862
  59 H :    0.025706
  60 H :    0.026454
  61 H :    0.003071
  62 H :    0.012046
  63 H :   -0.007708
  64 H :    0.013716
  65 H :    0.034351
Sum of atomic charges:   -0.0000000

LOEWDIN ATOMIC CHARGES
----------------------
   0 C :   -0.192758
   1 S :    0.497850
   2 C :   -0.224842
   3 C :   -0.211460
   4 C :   -0.220563
   5 S :    0.355730
   6 C :   -0.199008
   7 O :   -0.141754
   8 S :    0.353601
   9 C :   -0.165293
  10 S :    0.401620
  11 C :   -0.149281
  12 N :   -0.071729
  13 N :   -0.086021
  14 C :   -0.011250
  15 C :   -0.012969
  16 C :    0.071564
  17 N :    0.002139
  18 C :    0.037069
  19 C :   -0.060319
  20 C :    0.079810
  21 O :   -0.201753
  22 C :   -0.119228
  23 C :   -0.116819
  24 C :    0.080688
  25 O :   -0.199836
  26 N :    0.001980
  27 C :    0.037123
  28 C :   -0.060320
  29 C :    0.075125
  30 C :   -0.017580
  31 C :   -0.006338
  32 C :   -0.155843
  33 S :    0.403918
  34 C :   -0.145429
  35 N :   -0.081537
  36 N :   -0.072376
  37 C :   -0.066431
  38 C :    0.000319
  39 C :   -0.195097
  40 S :    0.468268
  41 C :   -0.199035
  42 C :   -0.217603
  43 C :   -0.208762
  44 S :    0.362708
  45 C :   -0.200579
  46 O :   -0.144128
  47 S :    0.355251
  48 H :    0.031669
  49 H :    0.037501
  50 H :    0.037542
  51 H :    0.037178
  52 H :    0.025379
  53 H :    0.031055
  54 H :    0.031731
  55 H :    0.024313
  56 H :    0.025583
  57 H :    0.037233
  58 H :    0.024524
  59 H :    0.031857
  60 H :    0.030977
  61 H :    0.037076
  62 H :    0.037448
  63 H :    0.018409
  64 H :    0.040719
  65 H :    0.030981

  Mayer bond orders larger than 0.100000
B(  0-C ,  1-S ) :   1.1703 B(  0-C ,  2-C ) :   0.1001 B(  0-C ,  4-C ) :   1.5971
B(  0-C , 48-H ) :   0.9717 B(  1-S ,  2-C ) :   1.1450 B(  2-C ,  3-C ) :   1.5743
B(  2-C ,  9-C ) :   1.1431 B(  3-C ,  4-C ) :   1.2436 B(  3-C ,  8-S ) :   1.0088
B(  4-C ,  5-S ) :   0.9827 B(  5-S ,  6-C ) :   0.9944 B(  5-S ,  7-O ) :   0.1090
B(  6-C ,  7-O ) :   2.1246 B(  6-C ,  8-S ) :   0.9642 B(  7-O ,  8-S ) :   0.1023
B(  9-C , 10-S ) :   1.1177 B(  9-C , 13-N ) :   1.7042 B( 10-S , 11-C ) :   1.0819
B( 11-C , 12-N ) :   1.6774 B( 11-C , 14-C ) :   1.1083 B( 12-N , 13-N ) :   1.2403
B( 14-C , 15-C ) :   1.6559 B( 14-C , 49-H ) :   0.9253 B( 15-C , 16-C ) :   1.1327
B( 15-C , 50-H ) :   0.9710 B( 16-C , 17-N ) :   1.1597 B( 16-C , 23-C ) :   1.3448
B( 17-N , 18-C ) :   0.9446 B( 17-N , 20-C ) :   1.0630 B( 18-C , 19-C ) :   1.1204
B( 18-C , 51-H ) :   0.9286 B( 18-C , 52-H ) :   0.9497 B( 19-C , 53-H ) :   0.9642
B( 19-C , 54-H ) :   0.9680 B( 19-C , 55-H ) :   0.9688 B( 20-C , 21-O ) :   2.0299
B( 20-C , 22-C ) :   0.9853 B( 21-O , 62-H ) :   0.1109 B( 22-C , 23-C ) :   1.2549
B( 22-C , 29-C ) :   1.3401 B( 23-C , 24-C ) :   0.9825 B( 24-C , 25-O ) :   2.0319
B( 24-C , 26-N ) :   1.0629 B( 25-O , 49-H ) :   0.1108 B( 26-N , 27-C ) :   0.9438
B( 26-N , 29-C ) :   1.1610 B( 27-C , 28-C ) :   1.1202 B( 27-C , 56-H ) :   0.9500
B( 27-C , 57-H ) :   0.9287 B( 28-C , 58-H ) :   0.9690 B( 28-C , 59-H ) :   0.9679
B( 28-C , 60-H ) :   0.9641 B( 29-C , 30-C ) :   1.1343 B( 30-C , 31-C ) :   1.6533
B( 30-C , 61-H ) :   0.9710 B( 31-C , 32-C ) :   1.1090 B( 31-C , 62-H ) :   0.9269
B( 32-C , 33-S ) :   1.0951 B( 32-C , 36-N ) :   1.6637 B( 33-S , 34-C ) :   1.1043
B( 34-C , 35-N ) :   1.6670 B( 34-C , 37-C ) :   1.1248 B( 35-N , 36-N ) :   1.2362
B( 37-C , 38-C ) :   1.7148 B( 37-C , 63-H ) :   0.9373 B( 38-C , 39-C ) :   1.1249
B( 38-C , 64-H ) :   0.9629 B( 39-C , 40-S ) :   1.1378 B( 39-C , 43-C ) :   1.5517
B( 40-S , 41-C ) :   1.1717 B( 41-C , 42-C ) :   1.5893 B( 41-C , 65-H ) :   0.9722
B( 42-C , 43-C ) :   1.2490 B( 42-C , 47-S ) :   0.9829 B( 43-C , 44-S ) :   1.0073
B( 44-S , 45-C ) :   0.9690 B( 44-S , 46-O ) :   0.1025 B( 45-C , 46-O ) :   2.1218
B( 45-C , 47-S ) :   0.9950 B( 46-O , 47-S ) :   0.1095

-----------------------------------------------------------------------------
         ABSORPTION SPECTRUM VIA TRANSITION ELECTRIC DIPOLE MOMENTS
-----------------------------------------------------------------------------
State   Energy  Wavelength   fosc         T2         TX        TY        TZ
        (cm-1)    (nm)                  (au**2)     (au)      (au)      (au)
-----------------------------------------------------------------------------
   0   15306.8    653.3   1.100804192  23.67563   2.54980  -4.11324   0.50543
   1   23791.0    420.3   0.015425414   0.21345  -0.16533   0.42352  -0.08215
   2   25459.8    392.8   0.602884439   7.79570  -0.87610   2.42856  -1.06312
   3   26685.7    374.7   0.075425363   0.93050   0.27164  -0.79989   0.46572
   4   27207.8    367.5   0.503698351   6.09470  -0.63919   2.03422  -1.24422
   5   28163.3    355.1   0.001952823   0.02283  -0.09357   0.06588  -0.09865
   6   28825.2    346.9   0.000863635   0.00986   0.04780   0.08654  -0.00950
   7   29276.2    341.6   0.420490160   4.72842   0.24664  -1.67466   1.36496
   8   29678.2    336.9   0.001184977   0.01314  -0.03716  -0.10474   0.02817
   9   32366.8    309.0   0.000324520   0.00330  -0.00067  -0.04666   0.03351
  10   32683.0    306.0   0.069208241   0.69713  -0.55462   0.18088   0.59733
  11   32819.8    304.7   0.029415154   0.29506  -0.02223  -0.34774   0.41671
  12   33575.2    297.8   0.082621358   0.81012  -0.24656   0.78365  -0.36772
  13   34073.0    293.5   0.084591040   0.81732  -0.62831   0.47231   0.44662
  14   35279.9    283.4   0.216089916   2.01643  -0.49975   1.23700  -0.48631
  15   36885.8    271.1   0.095763212   0.85470  -0.17307   0.71818  -0.55585
  16   37122.8    269.4   0.004448463   0.03945   0.11169   0.14467   0.07776
  17   38150.4    262.1   0.067165492   0.57959  -0.22460   0.62128  -0.37836
  18   39552.1    252.8   0.010145838   0.08445  -0.07675   0.24008  -0.14463
  19   39723.7    251.7   0.003808414   0.03156  -0.13873  -0.01240  -0.11029
  20   39831.6    251.1   0.068585251   0.56686  -0.26718   0.66702  -0.22486

FINAL SINGLE POINT ENERGY     -4965.789912591020

DIPOLE MOMENT
-------------
                                X             Y             Z
Electronic contribution:     -1.94280       3.53558      -3.29558
Nuclear contribution   :      2.14459      -3.84248       3.25835
                        -----------------------------------------
Total Dipole Moment    :      0.20178      -0.30690      -0.03723
                        -----------------------------------------
Magnitude (a.u.)       :      0.36918
Magnitude (Debye)      :      0.93837

Rotational constants in cm-1:     0.005596     0.000298     0.000283
Rotational constants in MHz :   167.749228     8.919378     8.487683

                             ****ORCA TERMINATED NORMALLY****
TOTAL RUN TIME: 0 days 0 hours 4 minutes 9 seconds 339 msec
