                         Program Version 4.2.0 -  RELEASE  -
|  1> # ORCA input file
|  2> # SCF done       -176.494463703584          0.000591296102
|  3> ! CAM-B3LYP def2-SVP def2/J RIJCOSX Grid4 TightSCF
|  4> %maxcore 5000
|  5> %tddft
|  6>     Mode sTDDFT
|  7>     Ethresh 5.0
|  8>     maxcore 5000
|  9> end
| 10>
| 11> %pal
| 12>   nprocs 6
| 13>   end
| 14> * xyz 0 1
| 15>    C       -0.84284        -0.74132        -4.02644
| 16>    S       -0.75011        -2.41448        -3.76415
| 17>    C       -1.01507        -2.21662        -2.04588
| 18>    C       -1.19852        -0.88062        -1.72964
| 19>    C       -1.08392        -0.03367        -2.88205
| 20>    C       -1.21291         1.45023        -2.93295
| 21>    O       -1.15369         2.04938        -3.97330
| 22>    O       -1.39730         2.07828        -1.77207
| 23>    O       -1.49572        -0.30453        -0.54465
| 24>    C       -2.11429        -1.04251         0.49513
| 25>    C       -0.91391        -3.38731        -1.23515
| 26>    S       -1.14262        -4.99419        -1.91507
| 27>    C       -0.76282        -5.58701        -0.29369
| 28>    N       -0.51618        -4.62175         0.53796
| 29>    N       -0.58680        -3.42379         0.02388
| 30>    C       -0.74838        -6.97810         0.01109
| 31>    C       -0.54306        -7.41920         1.27425
| 32>    C       -0.51533        -8.74785         1.77808
| 33>    N       -0.47521        -9.94761         1.10500
| 34>    C       -0.43228       -10.19186        -0.31644
| 35>    C       -1.83446       -10.26729        -0.91751
| 36>    C       -0.47419       -11.04434         1.99161
| 37>    O       -0.40025       -12.19840         1.62306
| 38>    C       -0.53575       -10.44860         3.30763
| 39>    C       -0.52818        -9.04341         3.13887
| 40>    C       -0.55735        -8.43035         4.45044
| 41>    O       -0.55629        -7.27596         4.81453
| 42>    N       -0.57509        -9.52996         5.33724
| 43>    C       -0.62828        -9.33675         6.76574
| 44>    C       -2.04712        -9.49233         7.30795
| 45>    C       -0.58273       -10.72849         4.67066
| 46>    C       -0.64554       -11.99695         5.31455
| 47>    C       -0.78360       -13.13753         4.60771
| 48>    C       -0.89660       -14.46688         5.14945
| 49>    C       -0.12654       -15.03082         6.18820
| 50>    C        1.01111       -14.34700         6.83805
| 51>    O        1.44439       -13.25169         6.63865
| 52>    S        1.74879       -15.44593         8.05244
| 53>    C        0.57639       -16.75987         7.72383
| 54>    O        0.58014       -17.79038         8.32923
| 55>    C       -0.32502       -16.34214         6.63236
| 56>    C       -1.30412       -17.20250         6.09678
| 57>    C       -2.01012       -16.66116         5.00855
| 58>    C       -1.81346       -15.36028         4.57014
| 59>    C       -2.74604       -15.12615         3.43899
| 60>    O       -3.00075       -14.12639         2.84593
| 61>    O       -3.35494       -16.32808         3.17095
| 62>    C       -2.94922       -17.30381         4.04893
| 63>    O       -3.29056       -18.43886         3.94005
| 64>    C       -1.56388       -18.52218         6.61091
| 65>    C       -2.81102       -19.01968         6.70823
| 66>    C       -3.12862       -20.32248         7.18615
| 67>    S       -1.89748       -21.51059         7.45767
| 68>    C       -3.06218       -22.69231         7.88652
| 69>    C       -4.33849       -22.20936         7.82818
| 70>    C       -4.39535       -20.83657         7.43285
| 71>    C       -5.63539       -20.02482         7.31551
| 72>    O       -5.62958       -18.83363         7.13400
| 73>    O       -6.78933       -20.68398         7.43115
| 74>    O       -5.47671       -22.90564         8.10283
| 75>    C       -5.34140       -24.25589         8.49281
| 76>    H       -0.72667        -0.32600        -5.00810
| 77>    H       -1.43479         1.45635        -1.02351
| 78>    H       -2.98170        -1.58796         0.11567
| 79>    H       -2.43478        -0.29798         1.22130
| 80>    H       -1.41631        -1.74722         0.95166
| 81>    H       -0.94064        -7.63479        -0.82146
| 82>    H       -0.41376        -6.66824         2.04413
| 83>    H        0.05866       -11.16198        -0.44233
| 84>    H        0.17877        -9.42589        -0.79837
| 85>    H       -2.37276       -11.10357        -0.47860
| 86>    H       -1.76937       -10.42096        -1.99126
| 87>    H       -2.39848        -9.35747        -0.72311
| 88>    H       -0.27921        -8.31597         6.94540
| 89>    H        0.05729       -10.03568         7.25226
| 90>    H       -2.70310        -8.75939         6.84482
| 91>    H       -2.05011        -9.33067         8.38225
| 92>    H       -2.43890       -10.48603         7.10138
| 93>    H       -0.61614       -12.01270         6.39344
| 94>    H       -0.90146       -13.07600         3.53186
| 95>    H       -0.71906       -19.08404         6.98578
| 96>    H       -3.67067       -18.41629         6.45375
| 97>    H       -2.73274       -23.67573         8.15346
| 98>    H       -6.66183       -21.62898         7.62085
| 99>    H       -6.35418       -24.61579         8.66251
|100>    H       -4.76139       -24.34254         9.41515
|101>    H       -4.86828       -24.84679         7.70402
|102> *
|103>
|104>                          ****END OF INPUT****

CARTESIAN COORDINATES (ANGSTROEM)
---------------------------------
  C     -0.842840   -0.741320   -4.026440
  S     -0.750110   -2.414480   -3.764150
  C     -1.015070   -2.216620   -2.045880
  C     -1.198520   -0.880620   -1.729640
  C     -1.083920   -0.033670   -2.882050
  C     -1.212910    1.450230   -2.932950
  O     -1.153690    2.049380   -3.973300
  O     -1.397300    2.078280   -1.772070
  O     -1.495720   -0.304530   -0.544650
  C     -2.114290   -1.042510    0.495130
  C     -0.913910   -3.387310   -1.235150
  S     -1.142620   -4.994190   -1.915070
  C     -0.762820   -5.587010   -0.293690
  N     -0.516180   -4.621750    0.537960
  N     -0.586800   -3.423790    0.023880
  C     -0.748380   -6.978100    0.011090
  C     -0.543060   -7.419200    1.274250
  C     -0.515330   -8.747850    1.778080
  N     -0.475210   -9.947610    1.105000
  C     -0.432280  -10.191860   -0.316440
  C     -1.834460  -10.267290   -0.917510
  C     -0.474190  -11.044340    1.991610
  O     -0.400250  -12.198400    1.623060
  C     -0.535750  -10.448600    3.307630
  C     -0.528180   -9.043410    3.138870
  C     -0.557350   -8.430350    4.450440
  O     -0.556290   -7.275960    4.814530
  N     -0.575090   -9.529960    5.337240
  C     -0.628280   -9.336750    6.765740
  C     -2.047120   -9.492330    7.307950
  C     -0.582730  -10.728490    4.670660
  C     -0.645540  -11.996950    5.314550
  C     -0.783600  -13.137530    4.607710
  C     -0.896600  -14.466880    5.149450
  C     -0.126540  -15.030820    6.188200
  C      1.011110  -14.347000    6.838050
  O      1.444390  -13.251690    6.638650
  S      1.748790  -15.445930    8.052440
  C      0.576390  -16.759870    7.723830
  O      0.580140  -17.790380    8.329230
  C     -0.325020  -16.342140    6.632360
  C     -1.304120  -17.202500    6.096780
  C     -2.010120  -16.661160    5.008550
  C     -1.813460  -15.360280    4.570140
  C     -2.746040  -15.126150    3.438990
  O     -3.000750  -14.126390    2.845930
  O     -3.354940  -16.328080    3.170950
  C     -2.949220  -17.303810    4.048930
  O     -3.290560  -18.438860    3.940050
  C     -1.563880  -18.522180    6.610910
  C     -2.811020  -19.019680    6.708230
  C     -3.128620  -20.322480    7.186150
  S     -1.897480  -21.510590    7.457670
  C     -3.062180  -22.692310    7.886520
  C     -4.338490  -22.209360    7.828180
  C     -4.395350  -20.836570    7.432850
  C     -5.635390  -20.024820    7.315510
  O     -5.629580  -18.833630    7.134000
  O     -6.789330  -20.683980    7.431150
  O     -5.476710  -22.905640    8.102830
  C     -5.341400  -24.255890    8.492810
  H     -0.726670   -0.326000   -5.008100
  H     -1.434790    1.456350   -1.023510
  H     -2.981700   -1.587960    0.115670
  H     -2.434780   -0.297980    1.221300
  H     -1.416310   -1.747220    0.951660
  H     -0.940640   -7.634790   -0.821460
  H     -0.413760   -6.668240    2.044130
  H      0.058660  -11.161980   -0.442330
  H      0.178770   -9.425890   -0.798370
  H     -2.372760  -11.103570   -0.478600
  H     -1.769370  -10.420960   -1.991260
  H     -2.398480   -9.357470   -0.723110
  H     -0.279210   -8.315970    6.945400
  H      0.057290  -10.035680    7.252260
  H     -2.703100   -8.759390    6.844820
  H     -2.050110   -9.330670    8.382250
  H     -2.438900  -10.486030    7.101380
  H     -0.616140  -12.012700    6.393440
  H     -0.901460  -13.076000    3.531860
  H     -0.719060  -19.084040    6.985780
  H     -3.670670  -18.416290    6.453750
  H     -2.732740  -23.675730    8.153460
  H     -6.661830  -21.628980    7.620850
  H     -6.354180  -24.615790    8.662510
  H     -4.761390  -24.342540    9.415150
  H     -4.868280  -24.846790    7.704020

 Total Charge           Charge          ....    0
 Multiplicity           Mult            ....    1
 Number of Electrons    NEL             ....  462
 Basis Dimension        Dim             .... 1000

ORBITAL ENERGIES
----------------

  NO   OCC          E(Eh)            E(eV)
   0   2.0000     -88.979553     -2421.2567
   1   2.0000     -88.978180     -2421.2194
   2   2.0000     -88.974965     -2421.1319
   3   2.0000     -88.957803     -2420.6649
   4   2.0000     -19.292550      -524.9770
   5   2.0000     -19.286598      -524.8150
   6   2.0000     -19.279907      -524.6329
   7   2.0000     -19.250321      -523.8279
   8   2.0000     -19.250014      -523.8195
   9   2.0000     -19.243699      -523.6477
  10   2.0000     -19.240640      -523.5644
  11   2.0000     -19.238756      -523.5132
  12   2.0000     -19.237593      -523.4815
  13   2.0000     -19.193329      -522.2770
  14   2.0000     -19.193016      -522.2685
  15   2.0000     -19.190544      -522.2012
  16   2.0000     -19.181134      -521.9452
  17   2.0000     -14.455994      -393.3676
  18   2.0000     -14.455924      -393.3657
  19   2.0000     -14.444028      -393.0420
  20   2.0000     -14.441821      -392.9819
  21   2.0000     -10.434667      -283.9417
  22   2.0000     -10.433740      -283.9165
  23   2.0000     -10.414365      -283.3893
  24   2.0000     -10.412502      -283.3386
  25   2.0000     -10.401298      -283.0337
  26   2.0000     -10.392096      -282.7833
  27   2.0000     -10.376873      -282.3691
  28   2.0000     -10.375645      -282.3357
  29   2.0000     -10.366588      -282.0892
  30   2.0000     -10.360174      -281.9147
  31   2.0000     -10.358122      -281.8588
  32   2.0000     -10.350362      -281.6477
  33   2.0000     -10.347745      -281.5764
  34   2.0000     -10.345605      -281.5182
  35   2.0000     -10.340955      -281.3917
  36   2.0000     -10.340497      -281.3792
  37   2.0000     -10.340351      -281.3753
  38   2.0000     -10.336735      -281.2769
  39   2.0000     -10.333440      -281.1872
  40   2.0000     -10.331627      -281.1379
  41   2.0000     -10.330997      -281.1207
  42   2.0000     -10.325966      -280.9838
  43   2.0000     -10.322798      -280.8976
  44   2.0000     -10.320806      -280.8434
  45   2.0000     -10.317896      -280.7642
  46   2.0000     -10.309973      -280.5486
  47   2.0000     -10.309673      -280.5405
  48   2.0000     -10.308667      -280.5131
  49   2.0000     -10.304751      -280.4065
  50   2.0000     -10.302713      -280.3511
  51   2.0000     -10.300633      -280.2945
  52   2.0000     -10.300359      -280.2870
  53   2.0000     -10.298739      -280.2429
  54   2.0000     -10.296208      -280.1741
  55   2.0000     -10.293321      -280.0955
  56   2.0000     -10.292114      -280.0627
  57   2.0000     -10.266847      -279.3751
  58   2.0000     -10.265408      -279.3360
  59   2.0000     -10.264643      -279.3151
  60   2.0000     -10.264088      -279.3000
  61   2.0000      -8.076006      -219.7593
  62   2.0000      -8.074180      -219.7096
  63   2.0000      -8.070744      -219.6161
  64   2.0000      -8.057164      -219.2466
  65   2.0000      -6.044816      -164.4878
  66   2.0000      -6.043508      -164.4522
  67   2.0000      -6.041404      -164.3950
  68   2.0000      -6.039947      -164.3553
  69   2.0000      -6.039231      -164.3358
  70   2.0000      -6.038106      -164.3052
  71   2.0000      -6.036234      -164.2543
  72   2.0000      -6.035825      -164.2431
  73   2.0000      -6.032932      -164.1644
  74   2.0000      -6.025997      -163.9757
  75   2.0000      -6.022757      -163.8876
  76   2.0000      -6.018218      -163.7640
  77   2.0000      -1.242543       -33.8113
  78   2.0000      -1.189753       -32.3748
  79   2.0000      -1.182403       -32.1748
  80   2.0000      -1.176171       -32.0053
  81   2.0000      -1.172084       -31.8940
  82   2.0000      -1.170048       -31.8386
  83   2.0000      -1.168157       -31.7872
  84   2.0000      -1.162218       -31.6256
  85   2.0000      -1.148170       -31.2433
  86   2.0000      -1.136218       -30.9181
  87   2.0000      -1.130253       -30.7557
  88   2.0000      -1.129555       -30.7368
  89   2.0000      -1.087336       -29.5879
  90   2.0000      -1.079915       -29.3860
  91   2.0000      -1.066591       -29.0234
  92   2.0000      -1.057387       -28.7730
  93   2.0000      -1.022482       -27.8232
  94   2.0000      -1.003573       -27.3086
  95   2.0000      -1.001721       -27.2582
  96   2.0000      -0.958945       -26.0942
  97   2.0000      -0.950260       -25.8579
  98   2.0000      -0.944814       -25.7097
  99   2.0000      -0.931215       -25.3397
 100   2.0000      -0.925824       -25.1930
 101   2.0000      -0.911057       -24.7911
 102   2.0000      -0.891300       -24.2535
 103   2.0000      -0.883535       -24.0422
 104   2.0000      -0.880352       -23.9556
 105   2.0000      -0.871348       -23.7106
 106   2.0000      -0.870315       -23.6825
 107   2.0000      -0.865855       -23.5611
 108   2.0000      -0.841544       -22.8996
 109   2.0000      -0.835586       -22.7375
 110   2.0000      -0.822841       -22.3906
 111   2.0000      -0.814745       -22.1703
 112   2.0000      -0.806278       -21.9399
 113   2.0000      -0.802642       -21.8410
 114   2.0000      -0.792843       -21.5744
 115   2.0000      -0.788429       -21.4543
 116   2.0000      -0.771735       -21.0000
 117   2.0000      -0.762779       -20.7563
 118   2.0000      -0.762274       -20.7425
 119   2.0000      -0.738966       -20.1083
 120   2.0000      -0.732213       -19.9245
 121   2.0000      -0.726897       -19.7799
 122   2.0000      -0.712851       -19.3977
 123   2.0000      -0.708369       -19.2757
 124   2.0000      -0.705425       -19.1956
 125   2.0000      -0.701647       -19.0928
 126   2.0000      -0.694401       -18.8956
 127   2.0000      -0.684680       -18.6311
 128   2.0000      -0.682837       -18.5809
 129   2.0000      -0.680852       -18.5269
 130   2.0000      -0.672241       -18.2926
 131   2.0000      -0.661845       -18.0097
 132   2.0000      -0.654350       -17.8058
 133   2.0000      -0.646966       -17.6048
 134   2.0000      -0.643418       -17.5083
 135   2.0000      -0.640776       -17.4364
 136   2.0000      -0.634467       -17.2647
 137   2.0000      -0.630069       -17.1450
 138   2.0000      -0.621402       -16.9092
 139   2.0000      -0.617123       -16.7928
 140   2.0000      -0.606096       -16.4927
 141   2.0000      -0.602275       -16.3887
 142   2.0000      -0.595332       -16.1998
 143   2.0000      -0.589126       -16.0309
 144   2.0000      -0.585328       -15.9276
 145   2.0000      -0.584180       -15.8963
 146   2.0000      -0.583655       -15.8821
 147   2.0000      -0.579464       -15.7680
 148   2.0000      -0.577902       -15.7255
 149   2.0000      -0.571820       -15.5600
 150   2.0000      -0.566380       -15.4120
 151   2.0000      -0.564281       -15.3549
 152   2.0000      -0.560566       -15.2538
 153   2.0000      -0.556014       -15.1299
 154   2.0000      -0.553292       -15.0558
 155   2.0000      -0.551721       -15.0131
 156   2.0000      -0.550592       -14.9824
 157   2.0000      -0.547315       -14.8932
 158   2.0000      -0.544895       -14.8273
 159   2.0000      -0.541846       -14.7444
 160   2.0000      -0.536524       -14.5996
 161   2.0000      -0.535223       -14.5642
 162   2.0000      -0.531821       -14.4716
 163   2.0000      -0.530818       -14.4443
 164   2.0000      -0.527623       -14.3574
 165   2.0000      -0.524949       -14.2846
 166   2.0000      -0.521686       -14.1958
 167   2.0000      -0.519421       -14.1342
 168   2.0000      -0.518962       -14.1217
 169   2.0000      -0.518763       -14.1162
 170   2.0000      -0.512886       -13.9563
 171   2.0000      -0.512238       -13.9387
 172   2.0000      -0.510081       -13.8800
 173   2.0000      -0.507990       -13.8231
 174   2.0000      -0.506163       -13.7734
 175   2.0000      -0.502449       -13.6723
 176   2.0000      -0.500402       -13.6166
 177   2.0000      -0.497016       -13.5245
 178   2.0000      -0.493535       -13.4298
 179   2.0000      -0.489930       -13.3317
 180   2.0000      -0.488958       -13.3052
 181   2.0000      -0.487173       -13.2567
 182   2.0000      -0.484877       -13.1942
 183   2.0000      -0.482677       -13.1343
 184   2.0000      -0.479784       -13.0556
 185   2.0000      -0.478158       -13.0114
 186   2.0000      -0.476950       -12.9785
 187   2.0000      -0.471490       -12.8299
 188   2.0000      -0.470327       -12.7982
 189   2.0000      -0.463358       -12.6086
 190   2.0000      -0.460811       -12.5393
 191   2.0000      -0.458058       -12.4644
 192   2.0000      -0.457377       -12.4459
 193   2.0000      -0.450432       -12.2569
 194   2.0000      -0.444903       -12.1064
 195   2.0000      -0.442899       -12.0519
 196   2.0000      -0.439529       -11.9602
 197   2.0000      -0.436106       -11.8670
 198   2.0000      -0.433271       -11.7899
 199   2.0000      -0.431411       -11.7393
 200   2.0000      -0.429333       -11.6827
 201   2.0000      -0.428509       -11.6603
 202   2.0000      -0.423685       -11.5291
 203   2.0000      -0.415325       -11.3016
 204   2.0000      -0.414310       -11.2740
 205   2.0000      -0.408036       -11.1032
 206   2.0000      -0.403194       -10.9715
 207   2.0000      -0.395085       -10.7508
 208   2.0000      -0.389639       -10.6026
 209   2.0000      -0.385830       -10.4990
 210   2.0000      -0.383033       -10.4229
 211   2.0000      -0.382277       -10.4023
 212   2.0000      -0.380117       -10.3435
 213   2.0000      -0.374358       -10.1868
 214   2.0000      -0.373912       -10.1747
 215   2.0000      -0.367484        -9.9997
 216   2.0000      -0.355459        -9.6725
 217   2.0000      -0.353979        -9.6323
 218   2.0000      -0.349857        -9.5201
 219   2.0000      -0.343664        -9.3516
 220   2.0000      -0.343495        -9.3470
 221   2.0000      -0.339455        -9.2370
 222   2.0000      -0.334341        -9.0979
 223   2.0000      -0.332230        -9.0404
 224   2.0000      -0.330493        -8.9932
 225   2.0000      -0.321905        -8.7595
 226   2.0000      -0.318375        -8.6634
 227   2.0000      -0.318074        -8.6552
 228   2.0000      -0.294151        -8.0043
 229   2.0000      -0.286422        -7.7940
 230   2.0000      -0.243057        -6.6139
 231   0.0000      -0.102381        -2.7859
 232   0.0000      -0.097082        -2.6417
 233   0.0000      -0.071359        -1.9418
 234   0.0000      -0.045658        -1.2424
 235   0.0000      -0.026462        -0.7201

MULLIKEN ATOMIC CHARGES
-----------------------
   0 C :   -0.060217
   1 S :    0.153804
   2 C :   -0.180877
   3 C :    0.262045
   4 C :   -0.095529
   5 C :    0.162940
   6 O :   -0.185288
   7 O :   -0.157296
   8 O :   -0.354820
   9 C :    0.173386
  10 C :   -0.082204
  11 S :    0.093515
  12 C :   -0.101809
  13 N :   -0.039441
  14 N :   -0.067277
  15 C :    0.056535
  16 C :   -0.019506
  17 C :    0.112285
  18 N :   -0.264774
  19 C :    0.106821
  20 C :   -0.001693
  21 C :    0.172157
  22 O :   -0.208173
  23 C :   -0.056848
  24 C :   -0.035557
  25 C :    0.152406
  26 O :   -0.179430
  27 N :   -0.262617
  28 C :    0.094720
  29 C :    0.001684
  30 C :    0.106516
  31 C :    0.055293
  32 C :   -0.059734
  33 C :    0.038746
  34 C :    0.032501
  35 C :    0.029157
  36 O :   -0.119642
  37 S :    0.022333
  38 C :    0.034574
  39 O :   -0.127183
  40 C :    0.039940
  41 C :    0.037161
  42 C :   -0.088803
  43 C :   -0.066399
  44 C :    0.241702
  45 O :   -0.092959
  46 O :   -0.227341
  47 C :    0.233992
  48 O :   -0.091865
  49 C :   -0.048192
  50 C :    0.076453
  51 C :   -0.156588
  52 S :    0.157609
  53 C :   -0.181385
  54 C :    0.231217
  55 C :   -0.018594
  56 C :    0.172715
  57 O :   -0.195064
  58 O :   -0.155812
  59 O :   -0.363583
  60 C :    0.176160
  61 H :    0.053266
  62 H :    0.184752
  63 H :    0.026051
  64 H :    0.034246
  65 H :    0.075750
  66 H :   -0.015159
  67 H :    0.039962
  68 H :    0.040576
  69 H :    0.021794
  70 H :    0.040086
  71 H :    0.022230
  72 H :    0.017733
  73 H :    0.044011
  74 H :    0.033139
  75 H :    0.032107
  76 H :    0.025751
  77 H :    0.013589
  78 H :   -0.018099
  79 H :    0.061263
  80 H :    0.025040
  81 H :    0.032907
  82 H :    0.022130
  83 H :    0.181353
  84 H :    0.049335
  85 H :    0.036942
  86 H :    0.037377
Sum of atomic charges:   -0.0000000

LOEWDIN ATOMIC CHARGES
----------------------
   0 C :   -0.122553
   1 S :    0.463226
   2 C :   -0.258629
   3 C :    0.049296
   4 C :   -0.138136
   5 C :    0.076100
   6 O :   -0.172172
   7 O :   -0.029698
   8 O :   -0.087457
   9 C :    0.080584
  10 C :   -0.156447
  11 S :    0.375502
  12 C :   -0.144939
  13 N :   -0.071949
  14 N :   -0.074380
  15 C :   -0.052213
  16 C :    0.011787
  17 C :    0.064179
  18 N :   -0.001196
  19 C :    0.035702
  20 C :   -0.063429
  21 C :    0.083707
  22 O :   -0.193350
  23 C :   -0.120496
  24 C :   -0.103309
  25 C :    0.081799
  26 O :   -0.182423
  27 N :   -0.001395
  28 C :    0.036492
  29 C :   -0.061208
  30 C :    0.085339
  31 C :   -0.006781
  32 C :    0.016848
  33 C :    0.022583
  34 C :   -0.053311
  35 C :   -0.043979
  36 O :   -0.109475
  37 S :    0.308160
  38 C :   -0.044260
  39 O :   -0.110667
  40 C :   -0.054046
  41 C :    0.033776
  42 C :   -0.042681
  43 C :   -0.035582
  44 C :    0.107241
  45 O :   -0.085044
  46 O :   -0.053469
  47 C :    0.107483
  48 O :   -0.089212
  49 C :   -0.039161
  50 C :    0.014842
  51 C :   -0.132440
  52 S :    0.476641
  53 C :   -0.240077
  54 C :    0.020015
  55 C :   -0.123149
  56 C :    0.086911
  57 O :   -0.171436
  58 O :   -0.026897
  59 O :   -0.102599
  60 C :    0.087249
  61 H :    0.040569
  62 H :    0.069331
  63 H :    0.019642
  64 H :    0.026647
  65 H :    0.023660
  66 H :    0.029591
  67 H :    0.055884
  68 H :    0.037405
  69 H :    0.022003
  70 H :    0.037241
  71 H :    0.030116
  72 H :    0.020198
  73 H :    0.038635
  74 H :    0.026606
  75 H :    0.033097
  76 H :    0.031524
  77 H :    0.021080
  78 H :    0.028796
  79 H :    0.045323
  80 H :    0.027547
  81 H :    0.039220
  82 H :    0.024734
  83 H :    0.066886
  84 H :    0.034208
  85 H :    0.022249
  86 H :    0.021985

  Mayer bond orders larger than 0.100000
B(  0-C ,  1-S ) :   1.1966 B(  0-C ,  4-C ) :   1.5798 B(  0-C , 61-H ) :   0.9646
B(  1-S ,  2-C ) :   1.1114 B(  2-C ,  3-C ) :   1.4931 B(  2-C , 10-C ) :   1.0832
B(  3-C ,  4-C ) :   1.1834 B(  3-C ,  8-O ) :   1.1527 B(  4-C ,  5-C ) :   0.8832
B(  5-C ,  6-O ) :   2.1876 B(  5-C ,  7-O ) :   1.2958 B(  7-O , 62-H ) :   0.9189
B(  8-O ,  9-C ) :   0.8927 B(  9-C , 63-H ) :   0.9712 B(  9-C , 64-H ) :   0.9767
B(  9-C , 65-H ) :   0.9497 B( 10-C , 11-S ) :   1.1100 B( 10-C , 14-N ) :   1.6734
B( 11-S , 12-C ) :   1.0713 B( 12-C , 13-N ) :   1.7089 B( 12-C , 15-C ) :   1.0964
B( 13-N , 14-N ) :   1.2125 B( 15-C , 16-C ) :   1.6460 B( 15-C , 66-H ) :   0.9476
B( 16-C , 17-C ) :   1.1483 B( 16-C , 67-H ) :   0.9528 B( 17-C , 18-N ) :   1.1627
B( 17-C , 24-C ) :   1.3621 B( 18-N , 19-C ) :   0.9452 B( 18-N , 21-C ) :   1.0598
B( 19-C , 20-C ) :   1.1150 B( 19-C , 68-H ) :   0.9263 B( 19-C , 69-H ) :   0.9503
B( 20-C , 70-H ) :   0.9608 B( 20-C , 71-H ) :   0.9689 B( 20-C , 72-H ) :   0.9670
B( 21-C , 22-O ) :   2.0278 B( 21-C , 23-C ) :   0.9845 B( 22-O , 79-H ) :   0.1014
B( 23-C , 24-C ) :   1.2466 B( 23-C , 30-C ) :   1.3420 B( 24-C , 25-C ) :   0.9679
B( 25-C , 26-O ) :   2.1469 B( 25-C , 27-N ) :   1.0268 B( 27-N , 28-C ) :   0.9444
B( 27-N , 30-C ) :   1.1739 B( 28-C , 29-C ) :   1.1180 B( 28-C , 73-H ) :   0.9287
B( 28-C , 74-H ) :   0.9508 B( 29-C , 75-H ) :   0.9640 B( 29-C , 76-H ) :   0.9681
B( 29-C , 77-H ) :   0.9688 B( 30-C , 31-C ) :   1.1684 B( 31-C , 32-C ) :   1.6784
B( 31-C , 78-H ) :   0.9506 B( 32-C , 33-C ) :   1.0775 B( 32-C , 79-H ) :   0.9152
B( 33-C , 34-C ) :   1.3614 B( 33-C , 43-C ) :   1.3328 B( 34-C , 35-C ) :   0.8434
B( 34-C , 40-C ) :   1.3050 B( 35-C , 36-O ) :   2.1859 B( 35-C , 37-S ) :   1.0296
B( 36-O , 37-S ) :   0.1060 B( 37-S , 38-C ) :   1.0321 B( 37-S , 39-O ) :   0.1048
B( 38-C , 39-O ) :   2.1611 B( 38-C , 40-C ) :   0.8516 B( 40-C , 41-C ) :   1.3679
B( 41-C , 42-C ) :   1.3186 B( 41-C , 49-C ) :   1.1071 B( 42-C , 43-C ) :   1.3755
B( 42-C , 47-C ) :   0.8981 B( 43-C , 44-C ) :   0.9033 B( 44-C , 45-O ) :   2.2443
B( 44-C , 46-O ) :   1.0556 B( 46-O , 47-C ) :   1.0510 B( 47-C , 48-O ) :   2.2654
B( 49-C , 50-C ) :   1.6713 B( 49-C , 80-H ) :   0.9398 B( 50-C , 51-C ) :   1.1889
B( 50-C , 81-H ) :   0.9413 B( 51-C , 52-S ) :   1.1780 B( 51-C , 55-C ) :   1.4915
B( 52-S , 53-C ) :   1.1161 B( 53-C , 54-C ) :   1.5357 B( 53-C , 82-H ) :   0.9749
B( 54-C , 55-C ) :   1.2004 B( 54-C , 59-O ) :   1.0697 B( 55-C , 56-C ) :   0.9087
B( 56-C , 57-O ) :   2.0895 B( 56-C , 58-O ) :   1.3024 B( 58-O , 83-H ) :   0.9202
B( 59-O , 60-C ) :   0.9328 B( 60-C , 84-H ) :   0.9802 B( 60-C , 85-H ) :   0.9714
B( 60-C , 86-H ) :   0.9713

-----------------------------------------------------------------------------
         ABSORPTION SPECTRUM VIA TRANSITION ELECTRIC DIPOLE MOMENTS
-----------------------------------------------------------------------------
State   Energy  Wavelength   fosc         T2         TX        TY        TZ
        (cm-1)    (nm)                  (au**2)     (au)      (au)      (au)
-----------------------------------------------------------------------------
   0   15054.2    664.3   0.570671737  12.47968   0.02590  -2.54833   2.44643
   1   16425.9    608.8   0.324535767   6.50444   0.42557   1.95568  -1.58071
   2   22324.0    447.9   0.032214787   0.47507  -0.46106   0.09810  -0.50286
   3   23163.1    431.7   0.092618904   1.31637  -0.32108   0.15249  -1.09088
   4   25927.2    385.7   0.617111213   7.83579   0.90869   2.59732  -0.51381
   5   26375.6    379.1   0.086316808   1.07738   0.21815   0.91120  -0.44667
   6   26868.2    372.2   0.041000037   0.50237  -0.46838  -0.53163  -0.01904
   7   27799.3    359.7   0.072519639   0.85881   0.24638  -0.82051   0.35337
   8   28186.7    354.8   0.330135445   3.85588  -0.05178   1.82897  -0.71279
   9   28607.0    349.6   0.096602605   1.11171   0.04468  -0.97876   0.38955
  10   29791.7    335.7   0.001795872   0.01985  -0.04640  -0.05343  -0.12181
  11   31051.2    322.0   0.014162843   0.15016  -0.17580   0.31261   0.14672
  12   31626.5    316.2   0.105965739   1.10304  -0.06697   1.04798   0.01715
  13   32002.1    312.5   0.197284059   2.02950  -0.05716   1.42335   0.01780
  14   32305.0    309.5   0.019487215   0.19859  -0.29085  -0.15924   0.29772
  15   32648.1    306.3   0.028918161   0.29160   0.34446   0.31148   0.27555
  16   32807.0    304.8   0.001693641   0.01700   0.02502  -0.10372  -0.07490
  17   33000.4    303.0   0.002936831   0.02930  -0.16330  -0.02209   0.04628
  18   33698.0    296.8   0.013866898   0.13547  -0.01375   0.34366  -0.13108
  19   33865.5    295.3   0.018826422   0.18301   0.00506   0.41090  -0.11895
  20   34402.0    290.7   0.092069774   0.88107  -0.07576  -0.84396   0.40381
  21   34522.6    289.7   0.018551182   0.17691  -0.24636   0.30606  -0.15015
  22   34628.2    288.8   0.002807388   0.02669   0.03891  -0.15867  -0.00010
  23   35339.6    283.0   0.061295204   0.57101  -0.66763  -0.30956   0.17162
  24   35452.5    282.1   0.043932205   0.40795   0.58552   0.24734  -0.06276
  25   35633.0    280.6   0.056700416   0.52385   0.01968  -0.24501   0.68076
  26   36562.4    273.5   0.000357427   0.00322  -0.00145   0.00167  -0.05669
  27   36856.5    271.3   0.003206851   0.02864  -0.07698  -0.14989   0.01584
  28   37448.6    267.0   0.006254832   0.05499  -0.14465   0.03243   0.18169
  29   37724.6    265.1   0.235600853   2.05602  -0.30048   1.26212  -0.61057
  30   38298.1    261.1   0.002133845   0.01834   0.11472   0.03847   0.06085
  31   38452.0    260.1   0.024194280   0.20714   0.31464   0.31413   0.09728
  32   38616.9    259.0   0.021519599   0.18346   0.36036  -0.04619  -0.22685
  33   39157.1    255.4   0.080412766   0.67607   0.47806   0.50174   0.44247
  34   39318.7    254.3   0.007262301   0.06081   0.19766   0.14463   0.02859
  35   39657.4    252.2   0.073794625   0.61260   0.06432  -0.52087   0.58065
  36   39697.1    251.9   0.017790815   0.14754   0.22248  -0.29426  -0.10702
  37   40091.8    249.4   0.004472799   0.03673   0.09849   0.16267   0.02381
  38   40166.6    249.0   0.012133895   0.09945  -0.18844   0.22164  -0.12172

FINAL SINGLE POINT ENERGY     -4325.852631516274

DIPOLE MOMENT
-------------
                                X             Y             Z
Electronic contribution:     14.93124      -7.34600      -5.67420
Nuclear contribution   :    -14.98835       2.36586       7.35820
                        -----------------------------------------
Total Dipole Moment    :     -0.05711      -4.98014       1.68400
                        -----------------------------------------
Magnitude (a.u.)       :      5.25746
Magnitude (Debye)      :     13.36341

Rotational constants in cm-1:     0.003361     0.000277     0.000268
Rotational constants in MHz :   100.762855     8.305158     8.038799

                             ****ORCA TERMINATED NORMALLY****
TOTAL RUN TIME: 0 days 0 hours 6 minutes 19 seconds 197 msec
