                         Program Version 4.2.0 -  RELEASE  -
|  1> # ORCA input file
|  2> # SCF done       -190.143258615983          0.000677271582
|  3> ! CAM-B3LYP def2-SVP def2/J RIJCOSX Grid4 TightSCF
|  4> %maxcore 5000
|  5> %tddft
|  6>     Mode sTDDFT
|  7>     Ethresh 5.0
|  8>     maxcore 5000
|  9> end
| 10>
| 11> %pal
| 12>   nprocs 6
| 13>   end
| 14> * xyz 0 1
| 15>    C       -0.47166        -5.10184        -9.76281
| 16>    O       -1.26142        -5.85970        -9.00034
| 17>    C       -0.46840        -6.61512        -8.19403
| 18>    C        0.84899        -6.33023        -8.45850
| 19>    C        0.85224        -5.34385        -9.48014
| 20>    C        2.07029        -4.76874       -10.07823
| 21>    O        3.17438        -5.16816        -9.83518
| 22>    O        1.88439        -3.74352       -10.93764
| 23>    C       -1.10399        -7.52012        -7.28154
| 24>    C       -0.43180        -8.29226        -6.41083
| 25>    C       -0.99138        -9.23639        -5.47101
| 26>    C       -0.12065        -9.85387        -4.55911
| 27>    C       -0.60781       -10.76223        -3.65359
| 28>    C       -1.97479       -11.09135        -3.63387
| 29>    C       -2.84652       -10.48876        -4.53060
| 30>    C       -2.35149        -9.57053        -5.43495
| 31>    C       -2.19619       -12.07493        -2.59578
| 32>    C       -0.96564       -12.34516        -1.97023
| 33>    C        0.14378       -11.53391        -2.59569
| 34>    C        0.80157       -10.59192        -1.57054
| 35>    C       -0.19859        -9.65722        -0.90095
| 36>    C        1.21743       -12.44462        -3.22038
| 37>    C        0.64593       -13.41229        -4.24955
| 38>    C       -0.88943       -13.24497        -0.94022
| 39>    C       -2.04636       -13.91781        -0.50442
| 40>    C       -3.26540       -13.63943        -1.14170
| 41>    C       -3.34763       -12.72793        -2.17459
| 42>    C       -1.89826       -14.84383         0.58229
| 43>    C       -2.83043       -15.67645         1.11200
| 44>    C       -2.62369       -16.56024         2.19867
| 45>    C       -1.55186       -16.64732         3.05025
| 46>    C       -1.41355       -17.59010         4.10624
| 47>    C       -0.27443       -17.46932         4.84035
| 48>    C        0.56527       -16.41280         4.42047
| 49>    S       -0.14821       -15.59172         3.04780
| 50>    C        1.78064       -15.99579         4.91443
| 51>    C        2.57082       -16.53428         5.95613
| 52>    C        3.73720       -15.86893         6.16199
| 53>    C        3.95045       -14.74674         5.30740
| 54>    S        2.57374       -14.59400         4.22355
| 55>    C        5.06508       -13.95984         5.31470
| 56>    C        5.37941       -12.80529         4.52723
| 57>    C        6.70472       -12.32372         4.55074
| 58>    C        7.04780       -11.22342         3.80914
| 59>    C        6.08235       -10.55112         3.03711
| 60>    C        4.77043       -11.00260         3.01421
| 61>    C        4.43278       -12.11793         3.74957
| 62>    C        6.71257        -9.42911         2.38236
| 63>    C        8.07275        -9.40789         2.73792
| 64>    C        8.39614       -10.55344         3.66965
| 65>    C        9.43016       -11.50679         3.04175
| 66>    C        8.98815       -12.04946         1.68796
| 67>    C        8.91721       -10.04524         5.02609
| 68>    C        7.94420        -9.09464         5.71317
| 69>    C        8.90569        -8.43587         2.24373
| 70>    C        8.39484        -7.44454         1.38856
| 71>    C        7.03612        -7.48167         1.04485
| 72>    C        6.19661        -8.46256         1.52970
| 73>    C        9.29603        -6.43246         0.89539
| 74>    C        8.95543        -5.31163         0.22718
| 75>    C        9.91310        -4.36494        -0.25588
| 76>    O       11.22433        -4.67886        -0.24500
| 77>    C       11.91448        -3.66346        -0.82219
| 78>    C       11.04141        -2.67877        -1.21546
| 79>    C        9.74760        -3.11047        -0.84283
| 80>    C        8.52411        -2.32230        -1.06270
| 81>    O        8.40639        -1.51643        -1.94374
| 82>    O        7.51430        -2.53390        -0.18689
| 83>    C       13.34458        -3.79032        -0.91712
| 84>    C       14.14926        -2.88822        -1.47171
| 85>    H       -0.96455        -4.45533       -10.46527
| 86>    H        1.72168        -6.74912        -8.00509
| 87>    H        0.95763        -3.49517       -11.03197
| 88>    H       -2.18226        -7.53576        -7.34141
| 89>    H        0.64709        -8.21136        -6.38879
| 90>    H        0.93057        -9.60326        -4.57857
| 91>    H       -3.89810       -10.73496        -4.52450
| 92>    H       -3.02960        -9.10851        -6.13555
| 93>    H        1.56649       -10.00106        -2.07922
| 94>    H        1.29793       -11.19739        -0.80911
| 95>    H       -0.69149        -9.02899        -1.63974
| 96>    H        0.30978        -9.01389        -0.18635
| 97>    H       -0.95980       -10.22582        -0.37137
| 98>    H        1.70285       -13.01003        -2.42209
| 99>    H        1.97574       -11.81773        -3.69439
|100>    H       -0.09705       -14.06293        -3.79348
|101>    H        1.43936       -14.03156        -4.66173
|102>    H        0.17263       -12.87055        -5.06561
|103>    H        0.05322       -13.45076        -0.45314
|104>    H       -4.16120       -14.14386        -0.81292
|105>    H       -4.29711       -12.52630        -2.64859
|106>    H       -0.89766       -14.87584         0.98777
|107>    H       -3.81938       -15.71115         0.67424
|108>    H       -3.42551       -17.26017         2.40162
|109>    H       -2.17051       -18.33426         4.28455
|110>    H       -0.01859       -18.09998         5.67336
|111>    H        2.25832       -17.40014         6.51278
|112>    H        4.46524       -16.13994         6.90683
|113>    H        5.83825       -14.26773         6.00966
|114>    H        7.44258       -12.83972         5.14922
|115>    H        4.02052       -10.48750         2.43270
|116>    H        3.40768       -12.44872         3.74407
|117>    H        9.59982       -12.33933         3.72792
|118>    H       10.37503       -10.97120         2.92655
|119>    H        8.05745       -12.60449         1.78225
|120>    H        9.74768       -12.71580         1.28543
|121>    H        8.83243       -11.23772         0.98072
|122>    H        9.87045        -9.53635         4.86727
|123>    H        9.10233       -10.90487         5.67380
|124>    H        7.75567        -8.22234         5.09107
|125>    H        8.35525        -8.75859         6.66242
|126>    H        6.99487        -9.59002         5.90428
|127>    H        9.95314        -8.41531         2.50999
|128>    H        6.63570        -6.73777         0.37352
|129>    H        5.15433        -8.47772         1.24818
|130>    H       10.34511        -6.59263         1.10897
|131>    H        7.92164        -5.09734        -0.00135
|132>    H       11.27070        -1.75186        -1.69704
|133>    H        7.76447        -3.13462         0.52712
|134>    H       13.74159        -4.70495        -0.49770
|135>    H       13.77082        -1.97676        -1.89977
|136>    H       15.21247        -3.04147        -1.51923
|137> *
|138>
|139>                          ****END OF INPUT****

CARTESIAN COORDINATES (ANGSTROEM)
---------------------------------
  C     -0.471660   -5.101840   -9.762810
  O     -1.261420   -5.859700   -9.000340
  C     -0.468400   -6.615120   -8.194030
  C      0.848990   -6.330230   -8.458500
  C      0.852240   -5.343850   -9.480140
  C      2.070290   -4.768740  -10.078230
  O      3.174380   -5.168160   -9.835180
  O      1.884390   -3.743520  -10.937640
  C     -1.103990   -7.520120   -7.281540
  C     -0.431800   -8.292260   -6.410830
  C     -0.991380   -9.236390   -5.471010
  C     -0.120650   -9.853870   -4.559110
  C     -0.607810  -10.762230   -3.653590
  C     -1.974790  -11.091350   -3.633870
  C     -2.846520  -10.488760   -4.530600
  C     -2.351490   -9.570530   -5.434950
  C     -2.196190  -12.074930   -2.595780
  C     -0.965640  -12.345160   -1.970230
  C      0.143780  -11.533910   -2.595690
  C      0.801570  -10.591920   -1.570540
  C     -0.198590   -9.657220   -0.900950
  C      1.217430  -12.444620   -3.220380
  C      0.645930  -13.412290   -4.249550
  C     -0.889430  -13.244970   -0.940220
  C     -2.046360  -13.917810   -0.504420
  C     -3.265400  -13.639430   -1.141700
  C     -3.347630  -12.727930   -2.174590
  C     -1.898260  -14.843830    0.582290
  C     -2.830430  -15.676450    1.112000
  C     -2.623690  -16.560240    2.198670
  C     -1.551860  -16.647320    3.050250
  C     -1.413550  -17.590100    4.106240
  C     -0.274430  -17.469320    4.840350
  C      0.565270  -16.412800    4.420470
  S     -0.148210  -15.591720    3.047800
  C      1.780640  -15.995790    4.914430
  C      2.570820  -16.534280    5.956130
  C      3.737200  -15.868930    6.161990
  C      3.950450  -14.746740    5.307400
  S      2.573740  -14.594000    4.223550
  C      5.065080  -13.959840    5.314700
  C      5.379410  -12.805290    4.527230
  C      6.704720  -12.323720    4.550740
  C      7.047800  -11.223420    3.809140
  C      6.082350  -10.551120    3.037110
  C      4.770430  -11.002600    3.014210
  C      4.432780  -12.117930    3.749570
  C      6.712570   -9.429110    2.382360
  C      8.072750   -9.407890    2.737920
  C      8.396140  -10.553440    3.669650
  C      9.430160  -11.506790    3.041750
  C      8.988150  -12.049460    1.687960
  C      8.917210  -10.045240    5.026090
  C      7.944200   -9.094640    5.713170
  C      8.905690   -8.435870    2.243730
  C      8.394840   -7.444540    1.388560
  C      7.036120   -7.481670    1.044850
  C      6.196610   -8.462560    1.529700
  C      9.296030   -6.432460    0.895390
  C      8.955430   -5.311630    0.227180
  C      9.913100   -4.364940   -0.255880
  O     11.224330   -4.678860   -0.245000
  C     11.914480   -3.663460   -0.822190
  C     11.041410   -2.678770   -1.215460
  C      9.747600   -3.110470   -0.842830
  C      8.524110   -2.322300   -1.062700
  O      8.406390   -1.516430   -1.943740
  O      7.514300   -2.533900   -0.186890
  C     13.344580   -3.790320   -0.917120
  C     14.149260   -2.888220   -1.471710
  H     -0.964550   -4.455330  -10.465270
  H      1.721680   -6.749120   -8.005090
  H      0.957630   -3.495170  -11.031970
  H     -2.182260   -7.535760   -7.341410
  H      0.647090   -8.211360   -6.388790
  H      0.930570   -9.603260   -4.578570
  H     -3.898100  -10.734960   -4.524500
  H     -3.029600   -9.108510   -6.135550
  H      1.566490  -10.001060   -2.079220
  H      1.297930  -11.197390   -0.809110
  H     -0.691490   -9.028990   -1.639740
  H      0.309780   -9.013890   -0.186350
  H     -0.959800  -10.225820   -0.371370
  H      1.702850  -13.010030   -2.422090
  H      1.975740  -11.817730   -3.694390
  H     -0.097050  -14.062930   -3.793480
  H      1.439360  -14.031560   -4.661730
  H      0.172630  -12.870550   -5.065610
  H      0.053220  -13.450760   -0.453140
  H     -4.161200  -14.143860   -0.812920
  H     -4.297110  -12.526300   -2.648590
  H     -0.897660  -14.875840    0.987770
  H     -3.819380  -15.711150    0.674240
  H     -3.425510  -17.260170    2.401620
  H     -2.170510  -18.334260    4.284550
  H     -0.018590  -18.099980    5.673360
  H      2.258320  -17.400140    6.512780
  H      4.465240  -16.139940    6.906830
  H      5.838250  -14.267730    6.009660
  H      7.442580  -12.839720    5.149220
  H      4.020520  -10.487500    2.432700
  H      3.407680  -12.448720    3.744070
  H      9.599820  -12.339330    3.727920
  H     10.375030  -10.971200    2.926550
  H      8.057450  -12.604490    1.782250
  H      9.747680  -12.715800    1.285430
  H      8.832430  -11.237720    0.980720
  H      9.870450   -9.536350    4.867270
  H      9.102330  -10.904870    5.673800
  H      7.755670   -8.222340    5.091070
  H      8.355250   -8.758590    6.662420
  H      6.994870   -9.590020    5.904280
  H      9.953140   -8.415310    2.509990
  H      6.635700   -6.737770    0.373520
  H      5.154330   -8.477720    1.248180
  H     10.345110   -6.592630    1.108970
  H      7.921640   -5.097340   -0.001350
  H     11.270700   -1.751860   -1.697040
  H      7.764470   -3.134620    0.527120
  H     13.741590   -4.704950   -0.497700
  H     13.770820   -1.976760   -1.899770
  H     15.212470   -3.041470   -1.519230

 Total Charge           Charge          ....    0
 Multiplicity           Mult            ....    1
 Number of Electrons    NEL             ....  504
 Basis Dimension        Dim             .... 1248

ORBITAL ENERGIES
----------------

  NO   OCC          E(Eh)            E(eV)
   0   2.0000     -88.940814     -2420.2026
   1   2.0000     -88.940683     -2420.1990
   2   2.0000     -19.298921      -525.1503
   3   2.0000     -19.293730      -525.0091
   4   2.0000     -19.251055      -523.8478
   5   2.0000     -19.249883      -523.8159
   6   2.0000     -19.188690      -522.1508
   7   2.0000     -19.186918      -522.1026
   8   2.0000     -10.396116      -282.8927
   9   2.0000     -10.394004      -282.8352
  10   2.0000     -10.342079      -281.4223
  11   2.0000     -10.340617      -281.3825
  12   2.0000     -10.330632      -281.1108
  13   2.0000     -10.329189      -281.0715
  14   2.0000     -10.305693      -280.4322
  15   2.0000     -10.304748      -280.4064
  16   2.0000     -10.303934      -280.3843
  17   2.0000     -10.300751      -280.2977
  18   2.0000     -10.286416      -279.9076
  19   2.0000     -10.284717      -279.8614
  20   2.0000     -10.284497      -279.8554
  21   2.0000     -10.283368      -279.8247
  22   2.0000     -10.282591      -279.8035
  23   2.0000     -10.282310      -279.7959
  24   2.0000     -10.281333      -279.7693
  25   2.0000     -10.281182      -279.7652
  26   2.0000     -10.280671      -279.7513
  27   2.0000     -10.280359      -279.7428
  28   2.0000     -10.278844      -279.7016
  29   2.0000     -10.278121      -279.6819
  30   2.0000     -10.277354      -279.6610
  31   2.0000     -10.276663      -279.6422
  32   2.0000     -10.275987      -279.6238
  33   2.0000     -10.275667      -279.6151
  34   2.0000     -10.273795      -279.5642
  35   2.0000     -10.273149      -279.5466
  36   2.0000     -10.272684      -279.5339
  37   2.0000     -10.272552      -279.5304
  38   2.0000     -10.272324      -279.5241
  39   2.0000     -10.272269      -279.5226
  40   2.0000     -10.271968      -279.5145
  41   2.0000     -10.271074      -279.4901
  42   2.0000     -10.270219      -279.4669
  43   2.0000     -10.269869      -279.4573
  44   2.0000     -10.269458      -279.4462
  45   2.0000     -10.268775      -279.4276
  46   2.0000     -10.268586      -279.4224
  47   2.0000     -10.268565      -279.4219
  48   2.0000     -10.268406      -279.4175
  49   2.0000     -10.267873      -279.4030
  50   2.0000     -10.267442      -279.3913
  51   2.0000     -10.267354      -279.3889
  52   2.0000     -10.267261      -279.3864
  53   2.0000     -10.266474      -279.3650
  54   2.0000     -10.266351      -279.3616
  55   2.0000     -10.266124      -279.3554
  56   2.0000     -10.265929      -279.3501
  57   2.0000     -10.265662      -279.3429
  58   2.0000     -10.264875      -279.3214
  59   2.0000     -10.263584      -279.2863
  60   2.0000     -10.262939      -279.2688
  61   2.0000     -10.262819      -279.2655
  62   2.0000     -10.262565      -279.2586
  63   2.0000     -10.261777      -279.2372
  64   2.0000     -10.259135      -279.1653
  65   2.0000     -10.258115      -279.1375
  66   2.0000     -10.245791      -278.8021
  67   2.0000     -10.244969      -278.7798
  68   2.0000     -10.242338      -278.7082
  69   2.0000     -10.240943      -278.6702
  70   2.0000      -8.036805      -218.6926
  71   2.0000      -8.036481      -218.6838
  72   2.0000      -6.006600      -163.4479
  73   2.0000      -6.006237      -163.4380
  74   2.0000      -6.002511      -163.3366
  75   2.0000      -6.002134      -163.3264
  76   2.0000      -5.997643      -163.2042
  77   2.0000      -5.997466      -163.1993
  78   2.0000      -1.217523       -33.1305
  79   2.0000      -1.212607       -32.9967
  80   2.0000      -1.172109       -31.8947
  81   2.0000      -1.169659       -31.8280
  82   2.0000      -1.087494       -29.5922
  83   2.0000      -1.084991       -29.5241
  84   2.0000      -0.990976       -26.9658
  85   2.0000      -0.987187       -26.8627
  86   2.0000      -0.982981       -26.7483
  87   2.0000      -0.968198       -26.3460
  88   2.0000      -0.946829       -25.7645
  89   2.0000      -0.942833       -25.6558
  90   2.0000      -0.924043       -25.1445
  91   2.0000      -0.919786       -25.0287
  92   2.0000      -0.909417       -24.7465
  93   2.0000      -0.904932       -24.6244
  94   2.0000      -0.904547       -24.6140
  95   2.0000      -0.896819       -24.4037
  96   2.0000      -0.895881       -24.3782
  97   2.0000      -0.887473       -24.1494
  98   2.0000      -0.878060       -23.8932
  99   2.0000      -0.870102       -23.6767
 100   2.0000      -0.858221       -23.3534
 101   2.0000      -0.844717       -22.9859
 102   2.0000      -0.840542       -22.8723
 103   2.0000      -0.836487       -22.7620
 104   2.0000      -0.834733       -22.7142
 105   2.0000      -0.832497       -22.6534
 106   2.0000      -0.831332       -22.6217
 107   2.0000      -0.828319       -22.5397
 108   2.0000      -0.826912       -22.5014
 109   2.0000      -0.822613       -22.3844
 110   2.0000      -0.817815       -22.2539
 111   2.0000      -0.811711       -22.0878
 112   2.0000      -0.795937       -21.6585
 113   2.0000      -0.783810       -21.3285
 114   2.0000      -0.764890       -20.8137
 115   2.0000      -0.760144       -20.6846
 116   2.0000      -0.756853       -20.5950
 117   2.0000      -0.742661       -20.2088
 118   2.0000      -0.739237       -20.1156
 119   2.0000      -0.737745       -20.0751
 120   2.0000      -0.726748       -19.7758
 121   2.0000      -0.721077       -19.6215
 122   2.0000      -0.716939       -19.5089
 123   2.0000      -0.710927       -19.3453
 124   2.0000      -0.696650       -18.9568
 125   2.0000      -0.688356       -18.7311
 126   2.0000      -0.686191       -18.6722
 127   2.0000      -0.680660       -18.5217
 128   2.0000      -0.677823       -18.4445
 129   2.0000      -0.673551       -18.3283
 130   2.0000      -0.673015       -18.3137
 131   2.0000      -0.670953       -18.2576
 132   2.0000      -0.669582       -18.2203
 133   2.0000      -0.663449       -18.0534
 134   2.0000      -0.661352       -17.9963
 135   2.0000      -0.658853       -17.9283
 136   2.0000      -0.658184       -17.9101
 137   2.0000      -0.653661       -17.7870
 138   2.0000      -0.648571       -17.6485
 139   2.0000      -0.636021       -17.3070
 140   2.0000      -0.627034       -17.0625
 141   2.0000      -0.620774       -16.8921
 142   2.0000      -0.617382       -16.7998
 143   2.0000      -0.609839       -16.5946
 144   2.0000      -0.600197       -16.3322
 145   2.0000      -0.597056       -16.2467
 146   2.0000      -0.592368       -16.1192
 147   2.0000      -0.589192       -16.0327
 148   2.0000      -0.586789       -15.9674
 149   2.0000      -0.577273       -15.7084
 150   2.0000      -0.575110       -15.6495
 151   2.0000      -0.571545       -15.5525
 152   2.0000      -0.563988       -15.3469
 153   2.0000      -0.561746       -15.2859
 154   2.0000      -0.561518       -15.2797
 155   2.0000      -0.558287       -15.1918
 156   2.0000      -0.550641       -14.9837
 157   2.0000      -0.543344       -14.7851
 158   2.0000      -0.542446       -14.7607
 159   2.0000      -0.541694       -14.7403
 160   2.0000      -0.539438       -14.6789
 161   2.0000      -0.538280       -14.6473
 162   2.0000      -0.534857       -14.5542
 163   2.0000      -0.533095       -14.5062
 164   2.0000      -0.530271       -14.4294
 165   2.0000      -0.521289       -14.1850
 166   2.0000      -0.520296       -14.1580
 167   2.0000      -0.519003       -14.1228
 168   2.0000      -0.518251       -14.1023
 169   2.0000      -0.517130       -14.0718
 170   2.0000      -0.516735       -14.0611
 171   2.0000      -0.516122       -14.0444
 172   2.0000      -0.514893       -14.0110
 173   2.0000      -0.513671       -13.9777
 174   2.0000      -0.512796       -13.9539
 175   2.0000      -0.511695       -13.9239
 176   2.0000      -0.507998       -13.8233
 177   2.0000      -0.505338       -13.7510
 178   2.0000      -0.501642       -13.6504
 179   2.0000      -0.497839       -13.5469
 180   2.0000      -0.493474       -13.4281
 181   2.0000      -0.489861       -13.3298
 182   2.0000      -0.488846       -13.3022
 183   2.0000      -0.486903       -13.2493
 184   2.0000      -0.483832       -13.1657
 185   2.0000      -0.482931       -13.1412
 186   2.0000      -0.480693       -13.0803
 187   2.0000      -0.478936       -13.0325
 188   2.0000      -0.475212       -12.9312
 189   2.0000      -0.470583       -12.8052
 190   2.0000      -0.469811       -12.7842
 191   2.0000      -0.468611       -12.7515
 192   2.0000      -0.466945       -12.7062
 193   2.0000      -0.466861       -12.7039
 194   2.0000      -0.465767       -12.6742
 195   2.0000      -0.463788       -12.6203
 196   2.0000      -0.462080       -12.5738
 197   2.0000      -0.460858       -12.5406
 198   2.0000      -0.457095       -12.4382
 199   2.0000      -0.454099       -12.3567
 200   2.0000      -0.450800       -12.2669
 201   2.0000      -0.449473       -12.2308
 202   2.0000      -0.447143       -12.1674
 203   2.0000      -0.445459       -12.1216
 204   2.0000      -0.442043       -12.0286
 205   2.0000      -0.439075       -11.9478
 206   2.0000      -0.437585       -11.9073
 207   2.0000      -0.434426       -11.8213
 208   2.0000      -0.430831       -11.7235
 209   2.0000      -0.430010       -11.7012
 210   2.0000      -0.425305       -11.5731
 211   2.0000      -0.423998       -11.5376
 212   2.0000      -0.421639       -11.4734
 213   2.0000      -0.420139       -11.4326
 214   2.0000      -0.419583       -11.4174
 215   2.0000      -0.416389       -11.3305
 216   2.0000      -0.415116       -11.2959
 217   2.0000      -0.413986       -11.2651
 218   2.0000      -0.409398       -11.1403
 219   2.0000      -0.407816       -11.0972
 220   2.0000      -0.405912       -11.0454
 221   2.0000      -0.402798       -10.9607
 222   2.0000      -0.397433       -10.8147
 223   2.0000      -0.392451       -10.6791
 224   2.0000      -0.388598       -10.5743
 225   2.0000      -0.388260       -10.5651
 226   2.0000      -0.387054       -10.5323
 227   2.0000      -0.386753       -10.5241
 228   2.0000      -0.383730       -10.4418
 229   2.0000      -0.382468       -10.4075
 230   2.0000      -0.382192       -10.4000
 231   2.0000      -0.380575       -10.3560
 232   2.0000      -0.377379       -10.2690
 233   2.0000      -0.371814       -10.1176
 234   2.0000      -0.361609        -9.8399
 235   2.0000      -0.356666        -9.7054
 236   2.0000      -0.350411        -9.5352
 237   2.0000      -0.344507        -9.3745
 238   2.0000      -0.339905        -9.2493
 239   2.0000      -0.336642        -9.1605
 240   2.0000      -0.330948        -9.0056
 241   2.0000      -0.322144        -8.7660
 242   2.0000      -0.321570        -8.7504
 243   2.0000      -0.317201        -8.6315
 244   2.0000      -0.313948        -8.5430
 245   2.0000      -0.310319        -8.4442
 246   2.0000      -0.309283        -8.4160
 247   2.0000      -0.292243        -7.9523
 248   2.0000      -0.272956        -7.4275
 249   2.0000      -0.251849        -6.8532
 250   2.0000      -0.243068        -6.6142
 251   2.0000      -0.206071        -5.6075
 252   0.0000      -0.076364        -2.0780
 253   0.0000      -0.046414        -1.2630
 254   0.0000      -0.032268        -0.8781
 255   0.0000      -0.009195        -0.2502
 256   0.0000       0.009964         0.2711

MULLIKEN ATOMIC CHARGES
-----------------------
   0 C :    0.065656
   1 O :   -0.178171
   2 C :    0.164410
   3 C :   -0.083434
   4 C :   -0.041007
   5 C :    0.167845
   6 O :   -0.166056
   7 O :   -0.162830
   8 C :    0.036833
   9 C :   -0.008952
  10 C :    0.126618
  11 C :   -0.109029
  12 C :    0.014045
  13 C :    0.110760
  14 C :   -0.045192
  15 C :   -0.015122
  16 C :    0.109160
  17 C :    0.019261
  18 C :   -0.138371
  19 C :    0.066556
  20 C :    0.026019
  21 C :    0.068155
  22 C :    0.026587
  23 C :   -0.115303
  24 C :    0.128304
  25 C :   -0.018640
  26 C :   -0.044630
  27 C :   -0.021431
  28 C :    0.023141
  29 C :   -0.007149
  30 C :   -0.018109
  31 C :    0.036740
  32 C :    0.025590
  33 C :   -0.034206
  34 S :    0.044559
  35 C :   -0.037800
  36 C :    0.032144
  37 C :    0.032166
  38 C :   -0.004612
  39 S :    0.051549
  40 C :   -0.041824
  41 C :    0.121233
  42 C :   -0.114711
  43 C :    0.024533
  44 C :    0.105528
  45 C :   -0.050698
  46 C :   -0.022496
  47 C :    0.113389
  48 C :    0.011787
  49 C :   -0.139370
  50 C :    0.068931
  51 C :    0.022903
  52 C :    0.069901
  53 C :    0.026693
  54 C :   -0.103218
  55 C :    0.116989
  56 C :   -0.013193
  57 C :   -0.041211
  58 C :    0.007319
  59 C :   -0.079151
  60 C :    0.140859
  61 O :   -0.200259
  62 C :    0.177380
  63 C :   -0.070884
  64 C :   -0.060553
  65 C :    0.150908
  66 O :   -0.170410
  67 O :   -0.168488
  68 C :    0.003982
  69 C :   -0.016954
  70 H :    0.007533
  71 H :    0.002219
  72 H :    0.173271
  73 H :   -0.009345
  74 H :   -0.019326
  75 H :   -0.041031
  76 H :   -0.037709
  77 H :   -0.031983
  78 H :   -0.003588
  79 H :   -0.002326
  80 H :    0.021849
  81 H :    0.005455
  82 H :    0.023223
  83 H :   -0.000511
  84 H :   -0.003383
  85 H :    0.021962
  86 H :    0.008202
  87 H :    0.020435
  88 H :   -0.035981
  89 H :   -0.033206
  90 H :   -0.038914
  91 H :   -0.007796
  92 H :   -0.021760
  93 H :   -0.018983
  94 H :   -0.013793
  95 H :   -0.016170
  96 H :   -0.014919
  97 H :   -0.014056
  98 H :   -0.024004
  99 H :   -0.042967
 100 H :   -0.035762
 101 H :   -0.015891
 102 H :   -0.002867
 103 H :   -0.003984
 104 H :    0.024026
 105 H :    0.009430
 106 H :    0.022176
 107 H :   -0.004139
 108 H :   -0.003061
 109 H :    0.020247
 110 H :    0.007660
 111 H :    0.022014
 112 H :   -0.040265
 113 H :   -0.027255
 114 H :   -0.034294
 115 H :   -0.007357
 116 H :   -0.004731
 117 H :   -0.004758
 118 H :    0.177277
 119 H :   -0.000322
 120 H :    0.023291
 121 H :    0.031201
Sum of atomic charges:   -0.0000000

LOEWDIN ATOMIC CHARGES
----------------------
   0 C :    0.030992
   1 O :    0.028260
   2 C :    0.030157
   3 C :   -0.038630
   4 C :   -0.125440
   5 C :    0.081453
   6 O :   -0.153173
   7 O :   -0.037631
   8 C :   -0.040951
   9 C :   -0.001647
  10 C :   -0.026974
  11 C :   -0.019835
  12 C :    0.003061
  13 C :   -0.015572
  14 C :   -0.017869
  15 C :   -0.013894
  16 C :   -0.019144
  17 C :    0.002244
  18 C :   -0.035591
  19 C :   -0.012071
  20 C :   -0.057710
  21 C :   -0.011339
  22 C :   -0.057542
  23 C :   -0.019395
  24 C :   -0.022780
  25 C :   -0.014760
  26 C :   -0.017995
  27 C :   -0.023368
  28 C :   -0.039295
  29 C :   -0.057969
  30 C :   -0.145416
  31 C :   -0.028837
  32 C :   -0.041505
  33 C :   -0.179381
  34 S :    0.384173
  35 C :   -0.178925
  36 C :   -0.036332
  37 C :   -0.029840
  38 C :   -0.144366
  39 S :    0.377502
  40 C :   -0.052293
  41 C :   -0.025742
  42 C :   -0.020410
  43 C :    0.002446
  44 C :   -0.020545
  45 C :   -0.015251
  46 C :   -0.026340
  47 C :   -0.012183
  48 C :    0.002712
  49 C :   -0.035077
  50 C :   -0.011487
  51 C :   -0.058044
  52 C :   -0.011990
  53 C :   -0.057574
  54 C :   -0.017184
  55 C :   -0.031575
  56 C :   -0.012615
  57 C :   -0.016470
  58 C :    0.008765
  59 C :   -0.070091
  60 C :    0.039203
  61 O :    0.018954
  62 C :    0.028985
  63 C :   -0.030748
  64 C :   -0.121704
  65 C :    0.080247
  66 O :   -0.153962
  67 O :   -0.039075
  68 C :   -0.036326
  69 C :   -0.029399
  70 H :    0.019828
  71 H :    0.036898
  72 H :    0.089293
  73 H :    0.032774
  74 H :    0.029340
  75 H :    0.023820
  76 H :    0.026480
  77 H :    0.024856
  78 H :    0.019151
  79 H :    0.019718
  80 H :    0.025639
  81 H :    0.022570
  82 H :    0.026198
  83 H :    0.020585
  84 H :    0.019342
  85 H :    0.025802
  86 H :    0.023805
  87 H :    0.025097
  88 H :    0.025056
  89 H :    0.024558
  90 H :    0.025899
  91 H :    0.007478
  92 H :    0.026184
  93 H :    0.032729
  94 H :    0.032614
  95 H :    0.030936
  96 H :    0.031890
  97 H :    0.032283
  98 H :    0.031888
  99 H :    0.022892
 100 H :    0.027264
 101 H :    0.010528
 102 H :    0.019710
 103 H :    0.019089
 104 H :    0.026423
 105 H :    0.024121
 106 H :    0.025523
 107 H :    0.019189
 108 H :    0.019627
 109 H :    0.025131
 110 H :    0.023529
 111 H :    0.025887
 112 H :    0.024317
 113 H :    0.026112
 114 H :    0.027869
 115 H :    0.031669
 116 H :    0.027662
 117 H :    0.037335
 118 H :    0.084724
 119 H :    0.036345
 120 H :    0.025299
 121 H :    0.029152

  Mayer bond orders larger than 0.100000
B(  0-C ,  1-O ) :   1.1906 B(  0-C ,  4-C ) :   1.4707 B(  0-C , 70-H ) :   1.0036
B(  1-O ,  2-C ) :   1.1241 B(  2-C ,  3-C ) :   1.5099 B(  2-C ,  8-C ) :   1.0837
B(  3-C ,  4-C ) :   1.2342 B(  3-C , 71-H ) :   1.0188 B(  4-C ,  5-C ) :   0.9061
B(  5-C ,  6-O ) :   2.2164 B(  5-C ,  7-O ) :   1.2303 B(  7-O , 72-H ) :   0.9602
B(  8-C ,  9-C ) :   1.7094 B(  8-C , 73-H ) :   0.9580 B(  9-C , 10-C ) :   1.0734
B(  9-C , 74-H ) :   0.9838 B( 10-C , 11-C ) :   1.2842 B( 10-C , 15-C ) :   1.3459
B( 11-C , 12-C ) :   1.3792 B( 11-C , 75-H ) :   1.0134 B( 12-C , 13-C ) :   1.3695
B( 12-C , 18-C ) :   0.9144 B( 13-C , 14-C ) :   1.3282 B( 13-C , 16-C ) :   0.9997
B( 14-C , 15-C ) :   1.4005 B( 14-C , 76-H ) :   0.9894 B( 15-C , 77-H ) :   0.9839
B( 16-C , 17-C ) :   1.3630 B( 16-C , 26-C ) :   1.3257 B( 17-C , 18-C ) :   0.9163
B( 17-C , 23-C ) :   1.3813 B( 18-C , 19-C ) :   1.0378 B( 18-C , 21-C ) :   1.0378
B( 19-C , 20-C ) :   1.1003 B( 19-C , 78-H ) :   0.9393 B( 19-C , 79-H ) :   0.9393
B( 20-C , 80-H ) :   0.9646 B( 20-C , 81-H ) :   0.9639 B( 20-C , 82-H ) :   0.9644
B( 21-C , 22-C ) :   1.1013 B( 21-C , 83-H ) :   0.9392 B( 21-C , 84-H ) :   0.9391
B( 22-C , 85-H ) :   0.9642 B( 22-C , 86-H ) :   0.9640 B( 22-C , 87-H ) :   0.9643
B( 23-C , 24-C ) :   1.2689 B( 23-C , 88-H ) :   1.0147 B( 24-C , 25-C ) :   1.3382
B( 24-C , 27-C ) :   1.1157 B( 25-C , 26-C ) :   1.4045 B( 25-C , 89-H ) :   0.9852
B( 26-C , 90-H ) :   0.9892 B( 27-C , 28-C ) :   1.6185 B( 27-C , 91-H ) :   0.9549
B( 28-C , 29-C ) :   1.1871 B( 28-C , 92-H ) :   0.9662 B( 29-C , 30-C ) :   1.5865
B( 29-C , 93-H ) :   0.9610 B( 30-C , 31-C ) :   1.1437 B( 30-C , 34-S ) :   1.0345
B( 31-C , 32-C ) :   1.5976 B( 31-C , 94-H ) :   0.9975 B( 32-C , 33-C ) :   1.1783
B( 32-C , 95-H ) :   0.9940 B( 33-C , 34-S ) :   1.0354 B( 33-C , 35-C ) :   1.5246
B( 35-C , 36-C ) :   1.1748 B( 35-C , 39-S ) :   1.0337 B( 36-C , 37-C ) :   1.6068
B( 36-C , 96-H ) :   0.9941 B( 37-C , 38-C ) :   1.1254 B( 37-C , 97-H ) :   0.9986
B( 38-C , 39-S ) :   1.0263 B( 38-C , 40-C ) :   1.6051 B( 40-C , 41-C ) :   1.0981
B( 40-C , 98-H ) :   0.9714 B( 41-C , 42-C ) :   1.2656 B( 41-C , 46-C ) :   1.3199
B( 42-C , 43-C ) :   1.3909 B( 42-C , 99-H ) :   1.0141 B( 43-C , 44-C ) :   1.3544
B( 43-C , 49-C ) :   0.9153 B( 44-C , 45-C ) :   1.3333 B( 44-C , 47-C ) :   1.0052
B( 45-C , 46-C ) :   1.4125 B( 45-C ,100-H ) :   0.9907 B( 46-C ,101-H ) :   0.9658
B( 47-C , 48-C ) :   1.3640 B( 47-C , 57-C ) :   1.3267 B( 48-C , 49-C ) :   0.9147
B( 48-C , 54-C ) :   1.3814 B( 49-C , 50-C ) :   1.0348 B( 49-C , 52-C ) :   1.0420
B( 50-C , 51-C ) :   1.1024 B( 50-C ,102-H ) :   0.9394 B( 50-C ,103-H ) :   0.9394
B( 51-C ,104-H ) :   0.9644 B( 51-C ,105-H ) :   0.9637 B( 51-C ,106-H ) :   0.9640
B( 52-C , 53-C ) :   1.1008 B( 52-C ,107-H ) :   0.9387 B( 52-C ,108-H ) :   0.9381
B( 53-C ,109-H ) :   0.9645 B( 53-C ,110-H ) :   0.9640 B( 53-C ,111-H ) :   0.9644
B( 54-C , 55-C ) :   1.2854 B( 54-C ,112-H ) :   1.0131 B( 55-C , 56-C ) :   1.3406
B( 55-C , 58-C ) :   1.0517 B( 56-C , 57-C ) :   1.4021 B( 56-C ,113-H ) :   0.9838
B( 57-C ,114-H ) :   0.9896 B( 58-C , 59-C ) :   1.6877 B( 58-C ,115-H ) :   0.9933
B( 59-C , 60-C ) :   1.1270 B( 59-C ,116-H ) :   0.9426 B( 60-C , 61-O ) :   1.1785
B( 60-C , 64-C ) :   1.4008 B( 61-O , 62-C ) :   1.0991 B( 62-C , 63-C ) :   1.4955
B( 62-C , 68-C ) :   1.0984 B( 63-C , 64-C ) :   1.2309 B( 63-C ,117-H ) :   1.0179
B( 64-C , 65-C ) :   0.9085 B( 65-C , 66-O ) :   2.2148 B( 65-C , 67-O ) :   1.2147
B( 67-O ,118-H ) :   0.9503 B( 68-C , 69-C ) :   1.9396 B( 68-C ,119-H ) :   0.9531
B( 69-C ,120-H ) :   0.9554 B( 69-C ,121-H ) :   0.9501

-----------------------------------------------------------------------------
         ABSORPTION SPECTRUM VIA TRANSITION ELECTRIC DIPOLE MOMENTS
-----------------------------------------------------------------------------
State   Energy  Wavelength   fosc         T2         TX        TY        TZ
        (cm-1)    (nm)                  (au**2)     (au)      (au)      (au)
-----------------------------------------------------------------------------
   0   14599.0    685.0   1.073641644  24.21099   4.15150   1.10713   2.39798
   1   22590.3    442.7   0.128498229   1.87262  -0.33578  -0.99835   0.87360
   2   24190.2    413.4   2.813974329  38.29619  -1.83171  -4.66058   3.63593
   3   26558.4    376.5   0.494348742   6.12783   0.98479   1.83552  -1.33750
   4   27343.8    365.7   0.021836567   0.26291  -0.28766  -0.29067   0.30931
   5   29515.6    338.8   0.024222962   0.27018   0.29716   0.40190  -0.14268
   6   30495.2    327.9   0.265146617   2.86240   1.29043   1.04704  -0.31763
   7   31784.6    314.6   0.005353236   0.05545  -0.04644   0.03836   0.22764
   8   32784.3    305.0   0.354482227   3.55963  -0.63034  -1.29909   1.21436
   9   33120.5    301.9   0.308654585   3.06797   0.57403   1.25543  -1.07813
  10   33391.4    299.5   0.066200778   0.65269  -0.23033  -0.58975   0.50183
  11   33964.3    294.4   0.222915054   2.16069  -0.30127  -1.10074   0.92644
  12   34195.5    292.4   0.008949998   0.08616   0.28206  -0.00164   0.08126
  13   34529.5    289.6   0.012306332   0.11733   0.30446   0.02600   0.15479
  14   35065.1    285.2   0.032307606   0.30332   0.06142  -0.29636   0.46013
  15   36216.3    276.1   0.008485702   0.07714   0.23710   0.03062  -0.14137
  16   36341.5    275.2   0.021485310   0.19463   0.30981   0.24832  -0.19233
  17   36689.8    272.6   0.032728628   0.29367  -0.48874  -0.23116   0.03700
  18   37007.3    270.2   0.063288247   0.56300  -0.41569   0.32848  -0.53133
  19   37487.4    266.8   0.069249482   0.60814  -0.25046   0.46943  -0.57013
  20   38078.2    262.6   0.013092377   0.11319  -0.24051   0.09131  -0.21682
  21   38567.4    259.3   0.003655997   0.03121  -0.14339   0.00725  -0.10293
  22   38788.4    257.8   0.024647506   0.20919   0.45135  -0.02919  -0.06802
  23   39069.5    256.0   0.105828116   0.89174   0.86461   0.37518   0.05854
  24   39652.7    252.2   0.003745268   0.03109   0.10210  -0.10653  -0.09655
  25   40041.0    249.7   0.044895316   0.36912   0.47315   0.23093  -0.30319
  26   40256.4    248.4   0.021382407   0.17486  -0.30205   0.17126  -0.23302

FINAL SINGLE POINT ENERGY     -3637.766892703937

DIPOLE MOMENT
-------------
                                X             Y             Z
Electronic contribution:    -20.90908      14.50866     -16.68055
Nuclear contribution   :     20.14302     -16.89456      18.81059
                        -----------------------------------------
Total Dipole Moment    :     -0.76605      -2.38590       2.13004
                        -----------------------------------------
Magnitude (a.u.)       :      3.28883
Magnitude (Debye)      :      8.35954

Rotational constants in cm-1:     0.000597     0.000510     0.000285
Rotational constants in MHz :    17.901941    15.284317     8.532591

                             ****ORCA TERMINATED NORMALLY****
TOTAL RUN TIME: 0 days 0 hours 11 minutes 15 seconds 469 msec
