                         Program Version 4.2.0 -  RELEASE  -
|  1> # ORCA input file
|  2> # SCF done       -188.299639103134          0.000680843061
|  3> ! CAM-B3LYP def2-SVP def2/J RIJCOSX Grid4 TightSCF
|  4> %maxcore 5000
|  5> %tddft
|  6>     Mode sTDDFT
|  7>     Ethresh 5.0
|  8>     maxcore 5000
|  9> end
| 10>
| 11> %pal
| 12>   nprocs 6
| 13>   end
| 14> * xyz 0 1
| 15>    C       -6.76871         3.43539        10.71354
| 16>    C       -6.27207         2.15664        10.69241
| 17>    C       -6.00182         1.39298        11.84687
| 18>    N       -5.77300         0.71671        12.74578
| 19>    C       -5.94191         1.44068         9.52307
| 20>    N       -5.63683         0.81054         8.61291
| 21>    C       -7.02863         4.22997        11.90799
| 22>    C       -7.44908         5.52496        11.51452
| 23>    C       -7.75755         6.51096        12.41949
| 24>    C       -7.63886         6.20753        13.78003
| 25>    C       -7.22309         4.90982        14.16442
| 26>    C       -6.91615         3.91114        13.24857
| 27>    S       -7.15199         4.74717        15.89226
| 28>    C       -7.66923         6.40250        16.07334
| 29>    C       -7.88711         7.04526        14.90103
| 30>   Br       -7.87693         7.12315        17.79141
| 31>    C       -7.50671         5.59587        10.04308
| 32>    O       -7.95757         6.50199         9.37585
| 33>    C       -7.04464         4.26939         9.56293
| 34>    C       -7.05411         3.88163         8.25044
| 35>    C       -7.09266         4.75859         7.15240
| 36>    S       -7.63407         4.20717         5.56940
| 37>    C       -7.32327         5.73748         4.76646
| 38>    C       -6.81465         6.60489         5.72416
| 39>    C       -6.68242         6.07548         7.01081
| 40>    O       -6.07114         7.00511         7.78302
| 41>    C       -5.87405         8.08741         7.00171
| 42>    S       -5.17802         9.45770         7.48700
| 43>    O       -6.31879         7.87245         5.73901
| 44>    C       -7.54179         5.92911         3.39577
| 45>    C       -7.24055         7.11387         2.76527
| 46>    C       -7.34274         7.37224         1.40000
| 47>    C       -6.72670         8.45074         0.72740
| 48>    C       -6.04188         9.56598         1.23464
| 49>    C       -5.49730        10.46489         0.35751
| 50>    C       -5.61355        10.28232        -1.03432
| 51>    C       -6.27064         9.20251        -1.56180
| 52>    C       -6.84006         8.25759        -0.69204
| 53>    C       -7.53714         7.05347        -0.93964
| 54>    C       -8.02628         6.58206         0.36746
| 55>    C       -9.12731         5.85063         0.57373
| 56>    C       -7.69345         6.37832        -2.15188
| 57>    S       -7.16165         7.02664        -3.70883
| 58>    C       -7.55113         5.58380        -4.62967
| 59>    C       -8.08467         4.66856        -3.73986
| 60>    C       -8.16159         5.09074        -2.41137
| 61>    O       -8.65873         4.05142        -1.68003
| 62>    C       -8.87327         3.03445        -2.54714
| 63>    S       -9.46222         1.59625        -2.12212
| 64>    O       -8.53382         3.38726        -3.80851
| 65>    C       -7.34027         5.50319        -6.01531
| 66>    C       -7.67155         4.41003        -6.76254
| 67>    C       -7.45731         4.27410        -8.15041
| 68>    C       -7.22267         5.21022        -9.11887
| 69>    C       -7.36872         6.64591        -9.19358
| 70>    C       -8.26814         7.42613        -8.50968
| 71>    C       -8.41912         8.81294        -8.71234
| 72>    N       -8.56729         9.94586        -8.82361
| 73>    C       -9.19125         6.93306        -7.56804
| 74>    N       -9.96825         6.58658        -6.79695
| 75>    C       -6.56089         7.10633       -10.32102
| 76>    C       -6.12722         5.97880       -11.06241
| 77>    C       -6.59981         4.75144       -10.39405
| 78>    O       -6.47439         3.60750       -10.76451
| 79>    C       -5.36995         6.09087       -12.20281
| 80>    C       -5.01204         7.37612       -12.62398
| 81>    C       -5.43584         8.49505       -11.86736
| 82>    C       -6.21044         8.38199       -10.71890
| 83>    S       -4.86824         9.98468       -12.55692
| 84>    C       -4.08457         9.09819       -13.83807
| 85>    C       -4.23723         7.75512       -13.75407
| 86>   Br       -3.13577        10.02933       -15.16045
| 87>    H       -8.07333         7.48781        12.08859
| 88>    H       -6.60909         2.93702        13.59083
| 89>    H       -8.20964         8.06778        14.82822
| 90>    H       -7.04308         2.82830         8.00313
| 91>    H       -7.90194         5.07682         2.84131
| 92>    H       -6.80236         7.89712         3.36972
| 93>    H       -5.95947         9.71616         2.29995
| 94>    H       -4.97425        11.33315         0.72845
| 95>    H       -5.17749        11.01749        -1.69350
| 96>    H       -6.36187         9.08860        -2.62980
| 97>    H       -9.52419         5.70396         1.56305
| 98>    H       -9.69371         5.42170        -0.23194
| 99>    H       -6.85598         6.35570        -6.47033
|100>    H       -8.06812         3.54407        -6.25049
|101>    H       -7.40091         3.25246        -8.51668
|102>    H       -5.06155         5.21549       -12.75232
|103>    H       -6.50305         9.26284       -10.17185
|104>    H       -3.82046         7.05868       -14.45843
|105> *
|106>
|107>                          ****END OF INPUT****

CARTESIAN COORDINATES (ANGSTROEM)
---------------------------------
  C     -6.768710    3.435390   10.713540
  C     -6.272070    2.156640   10.692410
  C     -6.001820    1.392980   11.846870
  N     -5.773000    0.716710   12.745780
  C     -5.941910    1.440680    9.523070
  N     -5.636830    0.810540    8.612910
  C     -7.028630    4.229970   11.907990
  C     -7.449080    5.524960   11.514520
  C     -7.757550    6.510960   12.419490
  C     -7.638860    6.207530   13.780030
  C     -7.223090    4.909820   14.164420
  C     -6.916150    3.911140   13.248570
  S     -7.151990    4.747170   15.892260
  C     -7.669230    6.402500   16.073340
  C     -7.887110    7.045260   14.901030
  Br    -7.876930    7.123150   17.791410
  C     -7.506710    5.595870   10.043080
  O     -7.957570    6.501990    9.375850
  C     -7.044640    4.269390    9.562930
  C     -7.054110    3.881630    8.250440
  C     -7.092660    4.758590    7.152400
  S     -7.634070    4.207170    5.569400
  C     -7.323270    5.737480    4.766460
  C     -6.814650    6.604890    5.724160
  C     -6.682420    6.075480    7.010810
  O     -6.071140    7.005110    7.783020
  C     -5.874050    8.087410    7.001710
  S     -5.178020    9.457700    7.487000
  O     -6.318790    7.872450    5.739010
  C     -7.541790    5.929110    3.395770
  C     -7.240550    7.113870    2.765270
  C     -7.342740    7.372240    1.400000
  C     -6.726700    8.450740    0.727400
  C     -6.041880    9.565980    1.234640
  C     -5.497300   10.464890    0.357510
  C     -5.613550   10.282320   -1.034320
  C     -6.270640    9.202510   -1.561800
  C     -6.840060    8.257590   -0.692040
  C     -7.537140    7.053470   -0.939640
  C     -8.026280    6.582060    0.367460
  C     -9.127310    5.850630    0.573730
  C     -7.693450    6.378320   -2.151880
  S     -7.161650    7.026640   -3.708830
  C     -7.551130    5.583800   -4.629670
  C     -8.084670    4.668560   -3.739860
  C     -8.161590    5.090740   -2.411370
  O     -8.658730    4.051420   -1.680030
  C     -8.873270    3.034450   -2.547140
  S     -9.462220    1.596250   -2.122120
  O     -8.533820    3.387260   -3.808510
  C     -7.340270    5.503190   -6.015310
  C     -7.671550    4.410030   -6.762540
  C     -7.457310    4.274100   -8.150410
  C     -7.222670    5.210220   -9.118870
  C     -7.368720    6.645910   -9.193580
  C     -8.268140    7.426130   -8.509680
  C     -8.419120    8.812940   -8.712340
  N     -8.567290    9.945860   -8.823610
  C     -9.191250    6.933060   -7.568040
  N     -9.968250    6.586580   -6.796950
  C     -6.560890    7.106330  -10.321020
  C     -6.127220    5.978800  -11.062410
  C     -6.599810    4.751440  -10.394050
  O     -6.474390    3.607500  -10.764510
  C     -5.369950    6.090870  -12.202810
  C     -5.012040    7.376120  -12.623980
  C     -5.435840    8.495050  -11.867360
  C     -6.210440    8.381990  -10.718900
  S     -4.868240    9.984680  -12.556920
  C     -4.084570    9.098190  -13.838070
  C     -4.237230    7.755120  -13.754070
  Br    -3.135770   10.029330  -15.160450
  H     -8.073330    7.487810   12.088590
  H     -6.609090    2.937020   13.590830
  H     -8.209640    8.067780   14.828220
  H     -7.043080    2.828300    8.003130
  H     -7.901940    5.076820    2.841310
  H     -6.802360    7.897120    3.369720
  H     -5.959470    9.716160    2.299950
  H     -4.974250   11.333150    0.728450
  H     -5.177490   11.017490   -1.693500
  H     -6.361870    9.088600   -2.629800
  H     -9.524190    5.703960    1.563050
  H     -9.693710    5.421700   -0.231940
  H     -6.855980    6.355700   -6.470330
  H     -8.068120    3.544070   -6.250490
  H     -7.400910    3.252460   -8.516680
  H     -5.061550    5.215490  -12.752320
  H     -6.503050    9.262840  -10.171850
  H     -3.820460    7.058680  -14.458430

 Total Charge           Charge          ....    0
 Multiplicity           Mult            ....    1
 Number of Electrons    NEL             ....  584
 Basis Dimension        Dim             .... 1158

ORBITAL ENERGIES
----------------

  NO   OCC          E(Eh)            E(eV)
   0   2.0000    -482.888074    -13140.0525
   1   2.0000    -482.885563    -13139.9842
   2   2.0000     -88.989377     -2421.5240
   3   2.0000     -88.986770     -2421.4531
   4   2.0000     -88.978549     -2421.2294
   5   2.0000     -88.975635     -2421.1501
   6   2.0000     -88.902191     -2419.1516
   7   2.0000     -88.897054     -2419.0118
   8   2.0000     -62.565780     -1702.5014
   9   2.0000     -62.563306     -1702.4341
  10   2.0000     -56.399733     -1534.7148
  11   2.0000     -56.397256     -1534.6473
  12   2.0000     -56.397013     -1534.6407
  13   2.0000     -56.396980     -1534.6399
  14   2.0000     -56.394538     -1534.5734
  15   2.0000     -56.394507     -1534.5725
  16   2.0000     -19.334039      -526.1060
  17   2.0000     -19.333550      -526.0927
  18   2.0000     -19.329093      -525.9714
  19   2.0000     -19.327726      -525.9342
  20   2.0000     -19.217334      -522.9302
  21   2.0000     -19.216283      -522.9016
  22   2.0000     -14.420316      -392.3968
  23   2.0000     -14.419276      -392.3685
  24   2.0000     -14.417114      -392.3096
  25   2.0000     -14.415651      -392.2698
  26   2.0000     -10.454806      -284.4897
  27   2.0000     -10.449652      -284.3495
  28   2.0000     -10.376293      -282.3533
  29   2.0000     -10.374352      -282.3005
  30   2.0000     -10.372446      -282.2486
  31   2.0000     -10.367676      -282.1188
  32   2.0000     -10.367019      -282.1009
  33   2.0000     -10.366415      -282.0845
  34   2.0000     -10.361486      -281.9504
  35   2.0000     -10.359056      -281.8842
  36   2.0000     -10.351651      -281.6827
  37   2.0000     -10.347785      -281.5775
  38   2.0000     -10.346670      -281.5472
  39   2.0000     -10.345809      -281.5238
  40   2.0000     -10.343347      -281.4568
  41   2.0000     -10.342461      -281.4327
  42   2.0000     -10.338306      -281.3196
  43   2.0000     -10.337049      -281.2854
  44   2.0000     -10.329301      -281.0746
  45   2.0000     -10.328855      -281.0624
  46   2.0000     -10.325682      -280.9761
  47   2.0000     -10.322472      -280.8887
  48   2.0000     -10.322410      -280.8871
  49   2.0000     -10.321378      -280.8590
  50   2.0000     -10.320516      -280.8355
  51   2.0000     -10.319916      -280.8192
  52   2.0000     -10.318504      -280.7808
  53   2.0000     -10.316783      -280.7339
  54   2.0000     -10.316531      -280.7271
  55   2.0000     -10.315207      -280.6911
  56   2.0000     -10.311925      -280.6017
  57   2.0000     -10.310233      -280.5557
  58   2.0000     -10.310008      -280.5496
  59   2.0000     -10.309111      -280.5252
  60   2.0000     -10.309001      -280.5222
  61   2.0000     -10.308582      -280.5108
  62   2.0000     -10.307770      -280.4887
  63   2.0000     -10.305997      -280.4404
  64   2.0000     -10.305435      -280.4251
  65   2.0000     -10.304869      -280.4097
  66   2.0000     -10.304014      -280.3865
  67   2.0000     -10.302722      -280.3513
  68   2.0000     -10.302103      -280.3345
  69   2.0000     -10.300987      -280.3041
  70   2.0000     -10.299253      -280.2569
  71   2.0000     -10.299025      -280.2507
  72   2.0000     -10.297673      -280.2139
  73   2.0000     -10.296842      -280.1913
  74   2.0000     -10.296636      -280.1857
  75   2.0000     -10.295658      -280.1591
  76   2.0000     -10.295386      -280.1517
  77   2.0000     -10.295017      -280.1417
  78   2.0000     -10.294830      -280.1366
  79   2.0000     -10.292769      -280.0805
  80   2.0000      -8.795204      -239.3297
  81   2.0000      -8.792754      -239.2630
  82   2.0000      -8.083644      -219.9671
  83   2.0000      -8.081738      -219.9153
  84   2.0000      -8.074527      -219.7191
  85   2.0000      -8.071638      -219.6404
  86   2.0000      -8.000118      -217.6943
  87   2.0000      -7.995045      -217.5562
  88   2.0000      -6.631511      -180.4526
  89   2.0000      -6.629068      -180.3861
  90   2.0000      -6.616933      -180.0559
  91   2.0000      -6.616733      -180.0505
  92   2.0000      -6.614479      -179.9891
  93   2.0000      -6.614289      -179.9840
  94   2.0000      -6.053379      -164.7208
  95   2.0000      -6.051351      -164.6656
  96   2.0000      -6.049351      -164.6112
  97   2.0000      -6.047444      -164.5593
  98   2.0000      -6.044837      -164.4884
  99   2.0000      -6.044197      -164.4710
 100   2.0000      -6.042960      -164.4373
 101   2.0000      -6.041347      -164.3934
 102   2.0000      -6.039959      -164.3556
 103   2.0000      -6.037024      -164.2758
 104   2.0000      -6.035763      -164.2415
 105   2.0000      -6.032866      -164.1626
 106   2.0000      -5.969982      -162.4515
 107   2.0000      -5.966471      -162.3559
 108   2.0000      -5.964925      -162.3139
 109   2.0000      -5.961374      -162.2172
 110   2.0000      -5.960077      -162.1819
 111   2.0000      -5.954999      -162.0438
 112   2.0000      -2.747404       -74.7607
 113   2.0000      -2.744930       -74.6933
 114   2.0000      -2.743290       -74.6487
 115   2.0000      -2.743122       -74.6442
 116   2.0000      -2.740846       -74.5822
 117   2.0000      -2.740697       -74.5782
 118   2.0000      -2.731555       -74.3294
 119   2.0000      -2.731535       -74.3289
 120   2.0000      -2.729114       -74.2630
 121   2.0000      -2.729095       -74.2625
 122   2.0000      -1.302292       -35.4372
 123   2.0000      -1.298408       -35.3315
 124   2.0000      -1.192932       -32.4613
 125   2.0000      -1.189019       -32.3548
 126   2.0000      -1.132504       -30.8170
 127   2.0000      -1.131909       -30.8008
 128   2.0000      -1.027248       -27.9528
 129   2.0000      -1.025863       -27.9151
 130   2.0000      -1.024054       -27.8659
 131   2.0000      -1.020403       -27.7666
 132   2.0000      -1.016994       -27.6738
 133   2.0000      -1.013903       -27.5897
 134   2.0000      -1.006993       -27.4017
 135   2.0000      -0.998489       -27.1703
 136   2.0000      -0.995156       -27.0796
 137   2.0000      -0.992687       -27.0124
 138   2.0000      -0.990433       -26.9511
 139   2.0000      -0.950460       -25.8633
 140   2.0000      -0.948342       -25.8057
 141   2.0000      -0.945233       -25.7211
 142   2.0000      -0.936002       -25.4699
 143   2.0000      -0.928324       -25.2610
 144   2.0000      -0.917072       -24.9548
 145   2.0000      -0.914379       -24.8815
 146   2.0000      -0.911664       -24.8076
 147   2.0000      -0.908993       -24.7349
 148   2.0000      -0.905571       -24.6418
 149   2.0000      -0.893982       -24.3265
 150   2.0000      -0.889063       -24.1926
 151   2.0000      -0.886179       -24.1142
 152   2.0000      -0.881980       -23.9999
 153   2.0000      -0.872676       -23.7467
 154   2.0000      -0.867429       -23.6039
 155   2.0000      -0.862826       -23.4787
 156   2.0000      -0.839608       -22.8469
 157   2.0000      -0.832853       -22.6631
 158   2.0000      -0.830674       -22.6038
 159   2.0000      -0.829236       -22.5647
 160   2.0000      -0.826337       -22.4858
 161   2.0000      -0.824586       -22.4381
 162   2.0000      -0.800794       -21.7907
 163   2.0000      -0.788201       -21.4480
 164   2.0000      -0.782390       -21.2899
 165   2.0000      -0.778440       -21.1824
 166   2.0000      -0.764246       -20.7962
 167   2.0000      -0.763192       -20.7675
 168   2.0000      -0.760109       -20.6836
 169   2.0000      -0.743280       -20.2257
 170   2.0000      -0.739663       -20.1273
 171   2.0000      -0.739008       -20.1094
 172   2.0000      -0.728361       -19.8197
 173   2.0000      -0.717682       -19.5291
 174   2.0000      -0.710142       -19.3239
 175   2.0000      -0.698604       -19.0100
 176   2.0000      -0.697194       -18.9716
 177   2.0000      -0.693455       -18.8699
 178   2.0000      -0.690742       -18.7961
 179   2.0000      -0.689721       -18.7683
 180   2.0000      -0.687314       -18.7028
 181   2.0000      -0.676346       -18.4043
 182   2.0000      -0.674743       -18.3607
 183   2.0000      -0.666138       -18.1265
 184   2.0000      -0.659189       -17.9374
 185   2.0000      -0.654590       -17.8123
 186   2.0000      -0.649180       -17.6651
 187   2.0000      -0.634963       -17.2782
 188   2.0000      -0.631977       -17.1970
 189   2.0000      -0.630669       -17.1614
 190   2.0000      -0.626911       -17.0591
 191   2.0000      -0.625488       -17.0204
 192   2.0000      -0.618530       -16.8310
 193   2.0000      -0.614921       -16.7329
 194   2.0000      -0.610116       -16.6021
 195   2.0000      -0.606629       -16.5072
 196   2.0000      -0.598868       -16.2960
 197   2.0000      -0.595596       -16.2070
 198   2.0000      -0.585955       -15.9446
 199   2.0000      -0.580713       -15.8020
 200   2.0000      -0.578031       -15.7290
 201   2.0000      -0.573860       -15.6155
 202   2.0000      -0.570287       -15.5183
 203   2.0000      -0.555036       -15.1033
 204   2.0000      -0.553096       -15.0505
 205   2.0000      -0.550368       -14.9763
 206   2.0000      -0.544940       -14.8286
 207   2.0000      -0.543875       -14.7996
 208   2.0000      -0.540856       -14.7174
 209   2.0000      -0.540544       -14.7090
 210   2.0000      -0.539350       -14.6765
 211   2.0000      -0.534819       -14.5532
 212   2.0000      -0.532841       -14.4993
 213   2.0000      -0.531993       -14.4763
 214   2.0000      -0.527758       -14.3610
 215   2.0000      -0.525526       -14.3003
 216   2.0000      -0.522868       -14.2280
 217   2.0000      -0.520490       -14.1632
 218   2.0000      -0.519459       -14.1352
 219   2.0000      -0.517267       -14.0756
 220   2.0000      -0.515088       -14.0163
 221   2.0000      -0.512547       -13.9471
 222   2.0000      -0.511489       -13.9183
 223   2.0000      -0.509598       -13.8669
 224   2.0000      -0.506531       -13.7834
 225   2.0000      -0.504164       -13.7190
 226   2.0000      -0.503697       -13.7063
 227   2.0000      -0.503012       -13.6877
 228   2.0000      -0.500682       -13.6243
 229   2.0000      -0.497750       -13.5445
 230   2.0000      -0.494984       -13.4692
 231   2.0000      -0.493415       -13.4265
 232   2.0000      -0.491840       -13.3837
 233   2.0000      -0.490999       -13.3608
 234   2.0000      -0.488572       -13.2947
 235   2.0000      -0.487610       -13.2685
 236   2.0000      -0.483929       -13.1684
 237   2.0000      -0.482219       -13.1218
 238   2.0000      -0.473743       -12.8912
 239   2.0000      -0.472393       -12.8545
 240   2.0000      -0.467434       -12.7195
 241   2.0000      -0.465035       -12.6542
 242   2.0000      -0.460924       -12.5424
 243   2.0000      -0.458660       -12.4808
 244   2.0000      -0.455035       -12.3821
 245   2.0000      -0.454257       -12.3610
 246   2.0000      -0.452932       -12.3249
 247   2.0000      -0.450704       -12.2643
 248   2.0000      -0.449801       -12.2397
 249   2.0000      -0.449243       -12.2245
 250   2.0000      -0.446939       -12.1618
 251   2.0000      -0.446421       -12.1477
 252   2.0000      -0.444287       -12.0897
 253   2.0000      -0.442106       -12.0303
 254   2.0000      -0.440597       -11.9893
 255   2.0000      -0.439433       -11.9576
 256   2.0000      -0.436495       -11.8776
 257   2.0000      -0.430811       -11.7230
 258   2.0000      -0.428599       -11.6628
 259   2.0000      -0.426262       -11.5992
 260   2.0000      -0.425709       -11.5841
 261   2.0000      -0.424840       -11.5605
 262   2.0000      -0.422568       -11.4987
 263   2.0000      -0.414025       -11.2662
 264   2.0000      -0.413769       -11.2592
 265   2.0000      -0.409685       -11.1481
 266   2.0000      -0.400227       -10.8907
 267   2.0000      -0.392822       -10.6892
 268   2.0000      -0.388967       -10.5843
 269   2.0000      -0.385994       -10.5034
 270   2.0000      -0.379292       -10.3211
 271   2.0000      -0.377704       -10.2778
 272   2.0000      -0.377398       -10.2695
 273   2.0000      -0.374952       -10.2030
 274   2.0000      -0.369625       -10.0580
 275   2.0000      -0.362798        -9.8722
 276   2.0000      -0.352709        -9.5977
 277   2.0000      -0.346763        -9.4359
 278   2.0000      -0.341201        -9.2845
 279   2.0000      -0.340540        -9.2666
 280   2.0000      -0.335192        -9.1210
 281   2.0000      -0.318196        -8.6586
 282   2.0000      -0.315702        -8.5907
 283   2.0000      -0.315446        -8.5837
 284   2.0000      -0.313766        -8.5380
 285   2.0000      -0.308937        -8.4066
 286   2.0000      -0.305456        -8.3119
 287   2.0000      -0.301128        -8.1941
 288   2.0000      -0.297564        -8.0971
 289   2.0000      -0.293879        -7.9969
 290   2.0000      -0.286189        -7.7876
 291   2.0000      -0.231074        -6.2878
 292   0.0000      -0.131086        -3.5670
 293   0.0000      -0.095809        -2.6071
 294   0.0000      -0.086740        -2.3603
 295   0.0000      -0.063533        -1.7288
 296   0.0000      -0.061836        -1.6826

MULLIKEN ATOMIC CHARGES
-----------------------
   0 C :    0.313522
   1 C :   -0.344320
   2 C :   -0.182886
   3 N :    0.148310
   4 C :   -0.198942
   5 N :    0.155077
   6 C :    0.015531
   7 C :   -0.017434
   8 C :   -0.065593
   9 C :    0.115285
  10 C :   -0.091370
  11 C :   -0.020506
  12 S :    0.186773
  13 C :   -0.125318
  14 C :    0.043244
  15 Br:    0.024759
  16 C :    0.143322
  17 O :   -0.152292
  18 C :   -0.103311
  19 C :    0.053687
  20 C :   -0.213873
  21 S :    0.171321
  22 C :   -0.162955
  23 C :    0.157294
  24 C :    0.240222
  25 O :   -0.146997
  26 C :    0.240070
  27 S :   -0.152764
  28 O :   -0.185318
  29 C :    0.046849
  30 C :   -0.040854
  31 C :    0.075447
  32 C :    0.053545
  33 C :   -0.022838
  34 C :    0.034620
  35 C :    0.035713
  36 C :   -0.026990
  37 C :    0.014404
  38 C :    0.119431
  39 C :   -0.054890
  40 C :    0.027215
  41 C :   -0.197565
  42 S :    0.134992
  43 C :   -0.174592
  44 C :    0.197862
  45 C :    0.159154
  46 O :   -0.189326
  47 C :    0.237285
  48 S :   -0.143411
  49 O :   -0.170406
  50 C :    0.100162
  51 C :   -0.004127
  52 C :    0.044493
  53 C :   -0.128787
  54 C :    0.271453
  55 C :   -0.344447
  56 C :   -0.176725
  57 N :    0.153522
  58 C :   -0.203546
  59 N :    0.167856
  60 C :   -0.002059
  61 C :    0.007114
  62 C :    0.133898
  63 O :   -0.144209
  64 C :   -0.069510
  65 C :    0.111662
  66 C :   -0.090611
  67 C :   -0.021052
  68 S :    0.184830
  69 C :   -0.125249
  70 C :    0.042427
  71 Br:    0.024942
  72 H :   -0.009091
  73 H :   -0.005601
  74 H :   -0.003363
  75 H :    0.022903
  76 H :   -0.018041
  77 H :    0.006391
  78 H :   -0.009668
  79 H :   -0.000709
  80 H :   -0.001035
  81 H :   -0.008428
  82 H :    0.046083
  83 H :    0.054499
  84 H :   -0.001521
  85 H :    0.020102
  86 H :    0.031009
  87 H :   -0.008531
  88 H :   -0.005084
  89 H :   -0.002133
Sum of atomic charges:   -0.0000000

LOEWDIN ATOMIC CHARGES
----------------------
   0 C :    0.073920
   1 C :   -0.140285
   2 C :   -0.018818
   3 N :   -0.052541
   4 C :   -0.022518
   5 N :   -0.052193
   6 C :   -0.021220
   7 C :   -0.048452
   8 C :    0.023248
   9 C :   -0.031814
  10 C :   -0.144232
  11 C :   -0.009581
  12 S :    0.433311
  13 C :   -0.271436
  14 C :   -0.069493
  15 Br:    0.137832
  16 C :    0.078579
  17 O :   -0.140633
  18 C :   -0.091571
  19 C :    0.042714
  20 C :   -0.200597
  21 S :    0.457520
  22 C :   -0.161363
  23 C :   -0.015784
  24 C :    0.029984
  25 O :    0.015164
  26 C :   -0.061320
  27 S :    0.011529
  28 O :   -0.016404
  29 C :   -0.053877
  30 C :    0.005527
  31 C :   -0.017992
  32 C :   -0.001202
  33 C :   -0.006854
  34 C :   -0.009677
  35 C :   -0.001973
  36 C :   -0.027044
  37 C :   -0.007924
  38 C :   -0.044701
  39 C :   -0.010893
  40 C :    0.068393
  41 C :   -0.159974
  42 S :    0.462454
  43 C :   -0.191522
  44 C :    0.012304
  45 C :   -0.014120
  46 O :   -0.012658
  47 C :   -0.065447
  48 S :    0.017836
  49 O :   -0.005248
  50 C :    0.017289
  51 C :   -0.037151
  52 C :    0.063520
  53 C :   -0.094827
  54 C :    0.065051
  55 C :   -0.148679
  56 C :   -0.021705
  57 N :   -0.055062
  58 C :   -0.018325
  59 N :   -0.043974
  60 C :   -0.019007
  61 C :   -0.052267
  62 C :    0.082907
  63 O :   -0.141615
  64 C :    0.023308
  65 C :   -0.033477
  66 C :   -0.143693
  67 C :   -0.013707
  68 S :    0.431893
  69 C :   -0.271829
  70 C :   -0.069597
  71 Br:    0.137785
  72 H :    0.041825
  73 H :    0.041152
  74 H :    0.039124
  75 H :    0.046630
  76 H :    0.031118
  77 H :    0.036390
  78 H :    0.035166
  79 H :    0.034807
  80 H :    0.034852
  81 H :    0.016788
  82 H :    0.035868
  83 H :    0.034489
  84 H :    0.036138
  85 H :    0.038878
  86 H :    0.049576
  87 H :    0.041876
  88 H :    0.040175
  89 H :    0.039351

  Mayer bond orders larger than 0.100000
B(  0-C ,  1-C ) :   1.6282 B(  0-C ,  6-C ) :   1.0060 B(  0-C , 18-C ) :   1.0831
B(  1-C ,  2-C ) :   1.1417 B(  1-C ,  4-C ) :   1.1450 B(  2-C ,  3-N ) :   2.9679
B(  4-C ,  5-N ) :   2.9802 B(  6-C ,  7-C ) :   1.2730 B(  6-C , 11-C ) :   1.4102
B(  7-C ,  8-C ) :   1.4293 B(  7-C , 16-C ) :   0.9376 B(  8-C ,  9-C ) :   1.2445
B(  8-C , 72-H ) :   1.0163 B(  9-C , 10-C ) :   1.3042 B(  9-C , 14-C ) :   1.1657
B( 10-C , 11-C ) :   1.3324 B( 10-C , 12-S ) :   1.0856 B( 11-C , 73-H ) :   0.9788
B( 12-S , 13-C ) :   1.0873 B( 13-C , 14-C ) :   1.6168 B( 13-C , 15-Br) :   1.0195
B( 14-C , 74-H ) :   0.9996 B( 16-C , 17-O ) :   2.2100 B( 16-C , 18-C ) :   0.9539
B( 18-C , 19-C ) :   1.5783 B( 19-C , 20-C ) :   1.2097 B( 19-C , 75-H ) :   0.9311
B( 20-C , 21-S ) :   1.0697 B( 20-C , 24-C ) :   1.4216 B( 21-S , 22-C ) :   1.1023
B( 22-C , 23-C ) :   1.4099 B( 22-C , 29-C ) :   1.2022 B( 23-C , 24-C ) :   1.3040
B( 23-C , 28-O ) :   1.0596 B( 24-C , 25-O ) :   1.0968 B( 25-O , 26-C ) :   1.1004
B( 26-C , 27-S ) :   1.7989 B( 26-C , 28-O ) :   1.0846 B( 29-C , 30-C ) :   1.5165
B( 29-C , 76-H ) :   0.9567 B( 30-C , 31-C ) :   1.2741 B( 30-C , 77-H ) :   0.9570
B( 31-C , 32-C ) :   1.3111 B( 31-C , 39-C ) :   1.0046 B( 32-C , 33-C ) :   1.2128
B( 32-C , 37-C ) :   1.1708 B( 33-C , 34-C ) :   1.5479 B( 33-C , 78-H ) :   0.9943
B( 34-C , 35-C ) :   1.2050 B( 34-C , 79-H ) :   0.9844 B( 35-C , 36-C ) :   1.5608
B( 35-C , 80-H ) :   0.9831 B( 36-C , 37-C ) :   1.1907 B( 36-C , 81-H ) :   0.9807
B( 37-C , 38-C ) :   1.3426 B( 38-C , 39-C ) :   1.0305 B( 38-C , 41-C ) :   1.2315
B( 39-C , 40-C ) :   1.8749 B( 40-C , 82-H ) :   0.9399 B( 40-C , 83-H ) :   0.9347
B( 41-C , 42-S ) :   1.1017 B( 41-C , 45-C ) :   1.4240 B( 42-S , 43-C ) :   1.0628
B( 43-C , 44-C ) :   1.4300 B( 43-C , 50-C ) :   1.2242 B( 44-C , 45-C ) :   1.2985
B( 44-C , 49-O ) :   1.0770 B( 45-C , 46-O ) :   1.0546 B( 46-O , 47-C ) :   1.0867
B( 47-C , 48-S ) :   1.8075 B( 47-C , 49-O ) :   1.0894 B( 50-C , 51-C ) :   1.5831
B( 50-C , 84-H ) :   0.9386 B( 51-C , 52-C ) :   1.2013 B( 51-C , 85-H ) :   0.9592
B( 52-C , 53-C ) :   1.6172 B( 52-C , 86-H ) :   0.9304 B( 53-C , 54-C ) :   1.0510
B( 53-C , 62-C ) :   0.9486 B( 54-C , 55-C ) :   1.6260 B( 54-C , 60-C ) :   1.0085
B( 55-C , 56-C ) :   1.1265 B( 55-C , 58-C ) :   1.1724 B( 56-C , 57-N ) :   2.9878
B( 58-C , 59-N ) :   2.9870 B( 60-C , 61-C ) :   1.2758 B( 60-C , 67-C ) :   1.4154
B( 61-C , 62-C ) :   0.9181 B( 61-C , 64-C ) :   1.4278 B( 62-C , 63-O ) :   2.2590
B( 64-C , 65-C ) :   1.2486 B( 64-C , 87-H ) :   1.0164 B( 65-C , 66-C ) :   1.3083
B( 65-C , 70-C ) :   1.1647 B( 66-C , 67-C ) :   1.3269 B( 66-C , 68-S ) :   1.0852
B( 67-C , 88-H ) :   0.9830 B( 68-S , 69-C ) :   1.0864 B( 69-C , 70-C ) :   1.6192
B( 69-C , 71-Br) :   1.0192 B( 70-C , 89-H ) :   0.9998

-----------------------------------------------------------------------------
         ABSORPTION SPECTRUM VIA TRANSITION ELECTRIC DIPOLE MOMENTS
-----------------------------------------------------------------------------
State   Energy  Wavelength   fosc         T2         TX        TY        TZ
        (cm-1)    (nm)                  (au**2)     (au)      (au)      (au)
-----------------------------------------------------------------------------
   0    7379.6   1355.1   0.810116372  36.14028  -0.27092   0.20481  -6.00208
   1   16073.1    622.2   0.173239132   3.54831   0.00372  -0.09075  -1.88151
   2   17022.4    587.5   0.614420641  11.88287  -0.06074   1.21496  -3.22538
   3   19672.0    508.3   0.050774152   0.84971  -0.08419   0.77956  -0.48467
   4   22066.9    453.2   0.453798870   6.77015  -0.26301  -1.71364   1.94021
   5   23251.8    430.1   0.041147666   0.58259   0.20838   0.71247   0.17762
   6   23392.8    427.5   0.155516480   2.18861  -0.03557  -0.84532  -1.21358
   7   23868.5    419.0   0.005519949   0.07614   0.03595  -0.27218   0.02761
   8   24455.5    408.9   0.058303693   0.78487  -0.83622  -0.04355   0.28931
   9   24551.2    407.3   0.002193875   0.02942  -0.12861  -0.08966   0.06955
  10   24720.4    404.5   0.001017342   0.01355  -0.05889  -0.03222   0.09509
  11   25002.9    400.0   0.077157751   1.01593  -0.00447   0.31391   0.95780
  12   25313.1    395.1   0.380916577   4.95404  -0.40078   0.40359   2.15187
  13   27143.5    368.4   0.089115329   1.08084  -0.18486   0.06196   1.02119
  14   27688.8    361.2   0.105515939   1.25455  -0.07837  -1.10918   0.13469
  15   27898.6    358.4   0.064144581   0.75692   0.05681  -0.84751   0.18819
  16   27997.6    357.2   0.007717757   0.09075  -0.03832   0.12345  -0.27211
  17   28776.1    347.5   0.038851562   0.44448   0.21836   0.41914   0.47023
  18   28883.3    346.2   0.041233691   0.46998  -0.17680  -0.43631  -0.49835
  19   29153.9    343.0   0.042383525   0.47860  -0.32692   0.45554  -0.40522
  20   29562.6    338.3   0.030833663   0.34337   0.18203   0.45663  -0.31894
  21   30317.7    329.8   0.014252465   0.15476  -0.26140   0.12741  -0.26495
  22   30804.1    324.6   0.515414263   5.50838   1.35645   0.37231  -1.87878
  23   30923.5    323.4   0.060366092   0.64266   0.37324   0.70112   0.10855
  24   31075.6    321.8   0.243859208   2.58342   0.46159  -1.14515  -1.02907
  25   31344.7    319.0   0.123591986   1.29808  -0.19510  -1.09901  -0.22848
  26   31911.6    313.4   0.114657999   1.18285   0.46078   0.97701   0.12648
  27   32083.8    311.7   0.002493030   0.02558  -0.00970  -0.07437  -0.14127
  28   32361.0    309.0   0.182253030   1.85408  -0.52773   0.30041   1.21874
  29   32747.9    305.4   0.104987622   1.05543   0.65316   0.13345  -0.78167
  30   33000.0    303.0   0.005551155   0.05538   0.12958   0.18582   0.06369
  31   33124.2    301.9   0.077828223   0.77351   0.40299   0.60997  -0.48892
  32   33448.2    299.0   0.001085878   0.01069  -0.04258  -0.05570   0.07597
  33   33653.8    297.1   0.076580148   0.74913   0.50831   0.55927  -0.42187
  34   33999.7    294.1   0.017303905   0.16755   0.19656  -0.20296   0.29617
  35   34432.7    290.4   0.086208805   0.82425   0.17614  -0.70070  -0.54977
  36   34682.6    288.3   0.033398250   0.31702   0.26646   0.29231  -0.40072
  37   34802.2    287.3   0.123622671   1.16941  -0.40023  -0.97001   0.26138
  38   35107.1    284.8   0.174101113   1.63261   0.48489  -1.11226  -0.40046
  39   35342.1    282.9   0.133532733   1.24386  -0.69118   0.51573   0.70721
  40   35452.5    282.1   0.239394217   2.22301  -0.93424  -0.46843   1.06338
  41   35660.5    280.4   0.008616122   0.07954   0.01287   0.01083   0.28153
  42   36078.0    277.2   0.055657655   0.50788  -0.12730  -0.65696   0.24509
  43   36253.0    275.8   0.002955534   0.02684   0.01444   0.14811   0.06851
  44   36599.4    273.2   0.031799953   0.28604  -0.18015  -0.49515   0.09171
  45   36759.7    272.0   0.134359067   1.20329  -0.23243   0.67431   0.83341
  46   37179.3    269.0   0.026024892   0.23044   0.17658  -0.41760   0.15771
  47   37483.7    266.8   0.056261346   0.49413   0.00256   0.55316   0.43375
  48   37652.5    265.6   0.000977937   0.00855  -0.04845   0.06215   0.04838
  49   37690.7    265.3   0.107273829   0.93699   0.07720  -0.67898  -0.68558
  50   37996.3    263.2   0.021775603   0.18867   0.25382  -0.29133  -0.19843
  51   38104.6    262.4   0.043402495   0.37498  -0.03762  -0.54034   0.28566
  52   38322.7    260.9   0.013882739   0.11926  -0.18592  -0.12695   0.26187
  53   38432.7    260.2   0.001000158   0.00857   0.03915   0.07059  -0.04529
  54   38531.0    259.5   0.003282518   0.02805   0.13745  -0.01209   0.09490
  55   38678.9    258.5   0.034645748   0.29488  -0.08809   0.28749  -0.45219
  56   38943.3    256.8   0.000126316   0.00107   0.00620  -0.02422   0.02104
  57   39085.4    255.8   0.026032927   0.21927  -0.05452  -0.45299  -0.10534
  58   39091.8    255.8   0.014249755   0.12000   0.02918   0.32984   0.10178
  59   39110.2    255.7   0.007093485   0.05971   0.06873   0.12946   0.19551
  60   39294.1    254.5   0.029161556   0.24432  -0.11894  -0.44796   0.17176
  61   39554.3    252.8   0.000083004   0.00069   0.01896  -0.01061   0.01479
  62   39767.7    251.5   0.043412769   0.35939   0.29669   0.17547   0.49048
  63   39968.8    250.2   0.056820602   0.46802   0.12340  -0.65651   0.14759
  64   40069.2    249.6   0.225599514   1.85354  -0.11399   1.31832  -0.32029

FINAL SINGLE POINT ENERGY    -10271.656506771424

DIPOLE MOMENT
-------------
                                X             Y             Z
Electronic contribution:     26.35079      37.26395      25.44865
Nuclear contribution   :    -25.63546     -34.87098     -26.58897
                        -----------------------------------------
Total Dipole Moment    :      0.71533       2.39297      -1.14032
                        -----------------------------------------
Magnitude (a.u.)       :      2.74561
Magnitude (Debye)      :      6.97878

Rotational constants in cm-1:     0.002001     0.000135     0.000130
Rotational constants in MHz :    59.981699     4.034397     3.885978

                             ****ORCA TERMINATED NORMALLY****
TOTAL RUN TIME: 0 days 0 hours 10 minutes 14 seconds 818 msec
