                         Program Version 4.2.0 -  RELEASE  -
|  1> # ORCA input file
|  2> # SCF done       -174.688316190211          0.000548121115
|  3> ! CAM-B3LYP def2-SVP def2/J RIJCOSX Grid4 TightSCF
|  4> %maxcore 5000
|  5> %tddft
|  6>     Mode sTDDFT
|  7>     Ethresh 5.0
|  8>     maxcore 5000
|  9> end
| 10>
| 11> %pal
| 12>   nprocs 6
| 13>   end
| 14> * xyz 0 1
| 15>    C       -0.54784       -11.32606        -9.90186
| 16>    C       -0.42602       -10.82050       -11.16672
| 17>    F        0.10939       -11.56710       -12.14092
| 18>    C       -0.86008        -9.51326       -11.46086
| 19>    F       -0.72961        -9.04234       -12.70835
| 20>    C       -1.40882        -8.72753       -10.48535
| 21>    C       -1.54415        -9.21880        -9.17309
| 22>    C       -1.10806       -10.54187        -8.87477
| 23>    C       -1.23661       -11.05777        -7.56352
| 24>    C       -1.77926       -10.27391        -6.58132
| 25>    C       -2.20723        -8.94871        -6.88703
| 26>    C       -2.10050        -8.42607        -8.14396
| 27>    C       -2.73346        -8.33042        -5.66538
| 28>    O       -3.18193        -7.19001        -5.53918
| 29>    C       -2.61491        -9.33614        -4.61069
| 30>    C       -2.02938       -10.53357        -5.16471
| 31>    C       -1.74990       -11.70229        -4.50271
| 32>    C       -1.17369       -12.83671        -5.10824
| 33>    N       -0.70772       -13.78919        -5.54864
| 34>    C       -2.00342       -11.91310        -3.13274
| 35>    N       -2.19417       -12.12371        -2.02019
| 36>    C       -3.02208        -9.07933        -3.32030
| 37>    N       -3.53594        -7.88313        -3.01538
| 38>    C       -3.97420        -7.44618        -1.80999
| 39>    S       -3.93817        -8.45520        -0.39747
| 40>    C       -4.59264        -7.13973         0.52396
| 41>    N       -4.82670        -7.34644         1.88849
| 42>    O       -5.28257        -6.41620         2.52933
| 43>    O       -4.55359        -8.44835         2.33256
| 44>    C       -4.81842        -6.00643        -0.21152
| 45>    C       -4.47198        -6.15786        -1.56654
| 46>    C       -4.58843        -5.15519        -2.59547
| 47>    C       -4.95598        -3.87904        -2.38879
| 48>    C       -5.07024        -2.86021        -3.40387
| 49>    C       -4.36056        -2.72939        -4.53318
| 50>    C       -3.24404        -3.62637        -4.96601
| 51>    C       -4.64014        -1.57003        -5.46454
| 52>    N       -5.02715        -2.01695        -6.78111
| 53>    C       -6.29888        -2.26078        -7.14329
| 54>    C       -6.66415        -2.82874        -8.32595
| 55>    C       -8.00228        -3.00374        -8.71188
| 56>    C       -8.40891        -3.51820        -9.91630
| 57>    C       -9.73797        -3.69895       -10.36511
| 58>    C       -9.84214        -4.19838       -11.62788
| 59>    C       -8.59851        -4.44540       -12.25232
| 60>    S       -7.28772        -4.03063       -11.17711
| 61>    C       -8.37939        -4.92538       -13.53081
| 62>    C       -9.34492        -5.30198       -14.48788
| 63>    C       -8.82248        -5.70529       -15.67972
| 64>    C       -7.40913        -5.66592       -15.73332
| 65>    S       -6.77026        -5.14471       -14.18602
| 66>    C       -6.56197        -6.02210       -16.75489
| 67>    C       -6.93308        -6.22466       -18.09568
| 68>    S       -5.94573        -7.26696       -19.10768
| 69>    C       -6.94886        -7.02996       -20.52091
| 70>    C       -7.97740        -6.16279       -20.21425
| 71>    C       -7.96635        -5.70275       -18.86434
| 72>    C       -8.94010        -4.64087       -18.67495
| 73>    O       -9.11330        -3.93040       -17.70737
| 74>    C       -9.70634        -4.53371       -19.98750
| 75>    C       -9.06158        -5.51476       -20.95318
| 76>    O       -9.41301        -5.68788       -22.09702
| 77>    C       -6.56797        -7.71592       -21.72251
| 78>    C       -7.23900        -7.69137       -22.87379
| 79>    H       -0.21141       -12.32971        -9.69386
| 80>    H       -1.73747        -7.72921       -10.72848
| 81>    H       -0.89991       -12.06333        -7.37084
| 82>    H       -2.43496        -7.42137        -8.35356
| 83>    H       -2.94318        -9.80918        -2.52579
| 84>    H       -3.57761        -7.23779        -3.82540
| 85>    H       -5.22625        -5.11662         0.23066
| 86>    H       -4.39415        -5.48225        -3.60454
| 87>    H       -5.22620        -3.55739        -1.39211
| 88>    H       -5.79140        -2.08543        -3.17010
| 89>    H       -2.72352        -4.03451        -4.10233
| 90>    H       -2.52900        -3.07223        -5.57223
| 91>    H       -3.61027        -4.46333        -5.56101
| 92>    H       -3.73930        -0.95377        -5.56505
| 93>    H       -5.44172        -0.94507        -5.06484
| 94>    H       -4.30002        -2.40059        -7.36677
| 95>    H       -7.05269        -1.92781        -6.44261
| 96>    H       -5.89848        -3.14819        -9.02032
| 97>    H       -8.77607        -2.70182        -8.01787
| 98>    H      -10.57717        -3.44809        -9.74009
| 99>    H      -10.77405        -4.38936       -12.12812
|100>    H      -10.39821        -5.27181       -14.27457
|101>    H       -9.40752        -6.07964       -16.49768
|102>    H       -5.51740        -6.17034       -16.51581
|103>    H       -9.66885        -3.51676       -20.38357
|104>    H      -10.76230        -4.77314       -19.84155
|105>    H       -5.65594        -8.29379       -21.63333
|106>    H       -8.14815        -7.12807       -22.99092
|107>    H       -6.88250        -8.23745       -23.73004
|108> *
|109>
|110>                          ****END OF INPUT****

CARTESIAN COORDINATES (ANGSTROEM)
---------------------------------
  C     -0.547840  -11.326060   -9.901860
  C     -0.426020  -10.820500  -11.166720
  F      0.109390  -11.567100  -12.140920
  C     -0.860080   -9.513260  -11.460860
  F     -0.729610   -9.042340  -12.708350
  C     -1.408820   -8.727530  -10.485350
  C     -1.544150   -9.218800   -9.173090
  C     -1.108060  -10.541870   -8.874770
  C     -1.236610  -11.057770   -7.563520
  C     -1.779260  -10.273910   -6.581320
  C     -2.207230   -8.948710   -6.887030
  C     -2.100500   -8.426070   -8.143960
  C     -2.733460   -8.330420   -5.665380
  O     -3.181930   -7.190010   -5.539180
  C     -2.614910   -9.336140   -4.610690
  C     -2.029380  -10.533570   -5.164710
  C     -1.749900  -11.702290   -4.502710
  C     -1.173690  -12.836710   -5.108240
  N     -0.707720  -13.789190   -5.548640
  C     -2.003420  -11.913100   -3.132740
  N     -2.194170  -12.123710   -2.020190
  C     -3.022080   -9.079330   -3.320300
  N     -3.535940   -7.883130   -3.015380
  C     -3.974200   -7.446180   -1.809990
  S     -3.938170   -8.455200   -0.397470
  C     -4.592640   -7.139730    0.523960
  N     -4.826700   -7.346440    1.888490
  O     -5.282570   -6.416200    2.529330
  O     -4.553590   -8.448350    2.332560
  C     -4.818420   -6.006430   -0.211520
  C     -4.471980   -6.157860   -1.566540
  C     -4.588430   -5.155190   -2.595470
  C     -4.955980   -3.879040   -2.388790
  C     -5.070240   -2.860210   -3.403870
  C     -4.360560   -2.729390   -4.533180
  C     -3.244040   -3.626370   -4.966010
  C     -4.640140   -1.570030   -5.464540
  N     -5.027150   -2.016950   -6.781110
  C     -6.298880   -2.260780   -7.143290
  C     -6.664150   -2.828740   -8.325950
  C     -8.002280   -3.003740   -8.711880
  C     -8.408910   -3.518200   -9.916300
  C     -9.737970   -3.698950  -10.365110
  C     -9.842140   -4.198380  -11.627880
  C     -8.598510   -4.445400  -12.252320
  S     -7.287720   -4.030630  -11.177110
  C     -8.379390   -4.925380  -13.530810
  C     -9.344920   -5.301980  -14.487880
  C     -8.822480   -5.705290  -15.679720
  C     -7.409130   -5.665920  -15.733320
  S     -6.770260   -5.144710  -14.186020
  C     -6.561970   -6.022100  -16.754890
  C     -6.933080   -6.224660  -18.095680
  S     -5.945730   -7.266960  -19.107680
  C     -6.948860   -7.029960  -20.520910
  C     -7.977400   -6.162790  -20.214250
  C     -7.966350   -5.702750  -18.864340
  C     -8.940100   -4.640870  -18.674950
  O     -9.113300   -3.930400  -17.707370
  C     -9.706340   -4.533710  -19.987500
  C     -9.061580   -5.514760  -20.953180
  O     -9.413010   -5.687880  -22.097020
  C     -6.567970   -7.715920  -21.722510
  C     -7.239000   -7.691370  -22.873790
  H     -0.211410  -12.329710   -9.693860
  H     -1.737470   -7.729210  -10.728480
  H     -0.899910  -12.063330   -7.370840
  H     -2.434960   -7.421370   -8.353560
  H     -2.943180   -9.809180   -2.525790
  H     -3.577610   -7.237790   -3.825400
  H     -5.226250   -5.116620    0.230660
  H     -4.394150   -5.482250   -3.604540
  H     -5.226200   -3.557390   -1.392110
  H     -5.791400   -2.085430   -3.170100
  H     -2.723520   -4.034510   -4.102330
  H     -2.529000   -3.072230   -5.572230
  H     -3.610270   -4.463330   -5.561010
  H     -3.739300   -0.953770   -5.565050
  H     -5.441720   -0.945070   -5.064840
  H     -4.300020   -2.400590   -7.366770
  H     -7.052690   -1.927810   -6.442610
  H     -5.898480   -3.148190   -9.020320
  H     -8.776070   -2.701820   -8.017870
  H    -10.577170   -3.448090   -9.740090
  H    -10.774050   -4.389360  -12.128120
  H    -10.398210   -5.271810  -14.274570
  H     -9.407520   -6.079640  -16.497680
  H     -5.517400   -6.170340  -16.515810
  H     -9.668850   -3.516760  -20.383570
  H    -10.762300   -4.773140  -19.841550
  H     -5.655940   -8.293790  -21.633330
  H     -8.148150   -7.128070  -22.990920
  H     -6.882500   -8.237450  -23.730040

 Total Charge           Charge          ....    0
 Multiplicity           Mult            ....    1
 Number of Electrons    NEL             ....  474
 Basis Dimension        Dim             .... 1057

ORBITAL ENERGIES
----------------

  NO   OCC          E(Eh)            E(eV)
   0   2.0000     -89.000453     -2421.8254
   1   2.0000     -88.952131     -2420.5105
   2   2.0000     -88.938301     -2420.1342
   3   2.0000     -88.932076     -2419.9648
   4   2.0000     -24.806179      -675.0104
   5   2.0000     -24.805598      -674.9946
   6   2.0000     -19.248157      -523.7690
   7   2.0000     -19.247154      -523.7417
   8   2.0000     -19.247149      -523.7416
   9   2.0000     -19.196753      -522.3702
  10   2.0000     -19.185884      -522.0744
  11   2.0000     -14.659354      -398.9013
  12   2.0000     -14.509206      -394.8156
  13   2.0000     -14.454386      -393.3238
  14   2.0000     -14.429065      -392.6348
  15   2.0000     -14.423951      -392.4956
  16   2.0000     -10.393459      -282.8204
  17   2.0000     -10.390756      -282.7468
  18   2.0000     -10.390319      -282.7350
  19   2.0000     -10.383459      -282.5483
  20   2.0000     -10.382157      -282.5128
  21   2.0000     -10.358160      -281.8599
  22   2.0000     -10.356678      -281.8195
  23   2.0000     -10.352219      -281.6982
  24   2.0000     -10.350016      -281.6383
  25   2.0000     -10.340593      -281.3818
  26   2.0000     -10.332170      -281.1527
  27   2.0000     -10.331220      -281.1268
  28   2.0000     -10.330721      -281.1132
  29   2.0000     -10.326937      -281.0102
  30   2.0000     -10.321783      -280.8700
  31   2.0000     -10.321433      -280.8605
  32   2.0000     -10.321092      -280.8512
  33   2.0000     -10.319848      -280.8173
  34   2.0000     -10.318143      -280.7709
  35   2.0000     -10.317532      -280.7543
  36   2.0000     -10.313943      -280.6567
  37   2.0000     -10.312167      -280.6083
  38   2.0000     -10.311097      -280.5792
  39   2.0000     -10.309848      -280.5452
  40   2.0000     -10.308920      -280.5200
  41   2.0000     -10.308294      -280.5029
  42   2.0000     -10.308163      -280.4994
  43   2.0000     -10.304743      -280.4063
  44   2.0000     -10.303366      -280.3688
  45   2.0000     -10.301076      -280.3065
  46   2.0000     -10.300207      -280.2829
  47   2.0000     -10.299293      -280.2580
  48   2.0000     -10.293516      -280.1008
  49   2.0000     -10.292658      -280.0775
  50   2.0000     -10.288171      -279.9554
  51   2.0000     -10.287457      -279.9359
  52   2.0000     -10.284312      -279.8504
  53   2.0000     -10.282504      -279.8012
  54   2.0000     -10.276168      -279.6287
  55   2.0000     -10.275467      -279.6097
  56   2.0000     -10.271068      -279.4900
  57   2.0000     -10.267556      -279.3944
  58   2.0000     -10.267135      -279.3829
  59   2.0000     -10.265756      -279.3454
  60   2.0000     -10.264411      -279.3088
  61   2.0000     -10.262488      -279.2565
  62   2.0000     -10.261045      -279.2172
  63   2.0000     -10.253644      -279.0158
  64   2.0000      -8.095615      -220.2929
  65   2.0000      -8.048023      -218.9978
  66   2.0000      -8.034719      -218.6358
  67   2.0000      -8.028598      -218.4693
  68   2.0000      -6.065222      -165.0431
  69   2.0000      -6.060914      -164.9259
  70   2.0000      -6.057105      -164.8222
  71   2.0000      -6.017167      -163.7355
  72   2.0000      -6.013094      -163.6246
  73   2.0000      -6.010287      -163.5482
  74   2.0000      -6.004408      -163.3883
  75   2.0000      -6.000521      -163.2825
  76   2.0000      -5.998338      -163.2231
  77   2.0000      -5.995592      -163.1484
  78   2.0000      -5.994351      -163.1146
  79   2.0000      -5.989474      -162.9819
  80   2.0000      -1.328832       -36.1594
  81   2.0000      -1.328305       -36.1450
  82   2.0000      -1.313953       -35.7545
  83   2.0000      -1.160240       -31.5717
  84   2.0000      -1.147475       -31.2244
  85   2.0000      -1.116319       -30.3766
  86   2.0000      -1.113118       -30.2895
  87   2.0000      -1.100706       -29.9517
  88   2.0000      -1.055865       -28.7316
  89   2.0000      -1.032438       -28.0941
  90   2.0000      -1.020925       -27.7808
  91   2.0000      -1.016402       -27.6577
  92   2.0000      -1.004915       -27.3451
  93   2.0000      -0.993098       -27.0236
  94   2.0000      -0.986254       -26.8373
  95   2.0000      -0.982357       -26.7313
  96   2.0000      -0.961816       -26.1723
  97   2.0000      -0.945606       -25.7312
  98   2.0000      -0.942042       -25.6343
  99   2.0000      -0.925783       -25.1918
 100   2.0000      -0.913514       -24.8580
 101   2.0000      -0.904788       -24.6205
 102   2.0000      -0.902296       -24.5527
 103   2.0000      -0.900604       -24.5067
 104   2.0000      -0.894405       -24.3380
 105   2.0000      -0.885702       -24.1012
 106   2.0000      -0.873039       -23.7566
 107   2.0000      -0.863823       -23.5058
 108   2.0000      -0.853772       -23.2323
 109   2.0000      -0.852324       -23.1929
 110   2.0000      -0.836404       -22.7597
 111   2.0000      -0.831449       -22.6249
 112   2.0000      -0.826931       -22.5019
 113   2.0000      -0.813697       -22.1418
 114   2.0000      -0.807288       -21.9674
 115   2.0000      -0.803311       -21.8592
 116   2.0000      -0.799056       -21.7434
 117   2.0000      -0.784127       -21.3372
 118   2.0000      -0.782271       -21.2867
 119   2.0000      -0.772618       -21.0240
 120   2.0000      -0.756546       -20.5867
 121   2.0000      -0.751321       -20.4445
 122   2.0000      -0.741783       -20.1849
 123   2.0000      -0.729809       -19.8591
 124   2.0000      -0.726101       -19.7582
 125   2.0000      -0.715693       -19.4750
 126   2.0000      -0.707906       -19.2631
 127   2.0000      -0.699530       -19.0352
 128   2.0000      -0.696009       -18.9394
 129   2.0000      -0.689926       -18.7738
 130   2.0000      -0.675942       -18.3933
 131   2.0000      -0.671955       -18.2848
 132   2.0000      -0.668883       -18.2012
 133   2.0000      -0.666729       -18.1426
 134   2.0000      -0.659107       -17.9352
 135   2.0000      -0.655723       -17.8431
 136   2.0000      -0.652038       -17.7429
 137   2.0000      -0.644449       -17.5363
 138   2.0000      -0.640376       -17.4255
 139   2.0000      -0.636610       -17.3230
 140   2.0000      -0.633349       -17.2343
 141   2.0000      -0.624793       -17.0015
 142   2.0000      -0.620541       -16.8858
 143   2.0000      -0.617942       -16.8151
 144   2.0000      -0.615443       -16.7471
 145   2.0000      -0.609295       -16.5798
 146   2.0000      -0.607176       -16.5221
 147   2.0000      -0.596404       -16.2290
 148   2.0000      -0.594794       -16.1852
 149   2.0000      -0.593595       -16.1525
 150   2.0000      -0.587624       -15.9901
 151   2.0000      -0.584248       -15.8982
 152   2.0000      -0.581001       -15.8098
 153   2.0000      -0.575015       -15.6470
 154   2.0000      -0.573022       -15.5927
 155   2.0000      -0.570658       -15.5284
 156   2.0000      -0.570187       -15.5156
 157   2.0000      -0.563953       -15.3459
 158   2.0000      -0.562958       -15.3189
 159   2.0000      -0.554770       -15.0961
 160   2.0000      -0.554608       -15.0916
 161   2.0000      -0.548426       -14.9234
 162   2.0000      -0.547028       -14.8854
 163   2.0000      -0.545247       -14.8369
 164   2.0000      -0.542229       -14.7548
 165   2.0000      -0.541508       -14.7352
 166   2.0000      -0.539938       -14.6925
 167   2.0000      -0.535507       -14.5719
 168   2.0000      -0.534134       -14.5345
 169   2.0000      -0.531389       -14.4598
 170   2.0000      -0.527307       -14.3487
 171   2.0000      -0.525175       -14.2907
 172   2.0000      -0.517373       -14.0784
 173   2.0000      -0.514542       -14.0014
 174   2.0000      -0.510937       -13.9033
 175   2.0000      -0.510630       -13.8949
 176   2.0000      -0.503542       -13.7021
 177   2.0000      -0.501249       -13.6397
 178   2.0000      -0.500140       -13.6095
 179   2.0000      -0.497871       -13.5478
 180   2.0000      -0.494997       -13.4696
 181   2.0000      -0.489261       -13.3135
 182   2.0000      -0.486447       -13.2369
 183   2.0000      -0.483407       -13.1542
 184   2.0000      -0.482143       -13.1198
 185   2.0000      -0.481284       -13.0964
 186   2.0000      -0.478910       -13.0318
 187   2.0000      -0.475243       -12.9320
 188   2.0000      -0.474663       -12.9162
 189   2.0000      -0.473533       -12.8855
 190   2.0000      -0.469958       -12.7882
 191   2.0000      -0.466593       -12.6967
 192   2.0000      -0.463243       -12.6055
 193   2.0000      -0.461758       -12.5651
 194   2.0000      -0.459660       -12.5080
 195   2.0000      -0.458029       -12.4636
 196   2.0000      -0.456912       -12.4332
 197   2.0000      -0.455286       -12.3890
 198   2.0000      -0.453637       -12.3441
 199   2.0000      -0.451547       -12.2872
 200   2.0000      -0.447028       -12.1643
 201   2.0000      -0.444561       -12.0971
 202   2.0000      -0.443734       -12.0746
 203   2.0000      -0.438122       -11.9219
 204   2.0000      -0.437828       -11.9139
 205   2.0000      -0.428394       -11.6572
 206   2.0000      -0.426962       -11.6182
 207   2.0000      -0.422144       -11.4871
 208   2.0000      -0.420594       -11.4449
 209   2.0000      -0.420185       -11.4338
 210   2.0000      -0.416460       -11.3324
 211   2.0000      -0.415760       -11.3134
 212   2.0000      -0.408270       -11.1096
 213   2.0000      -0.406709       -11.0671
 214   2.0000      -0.395031       -10.7493
 215   2.0000      -0.394899       -10.7457
 216   2.0000      -0.393237       -10.7005
 217   2.0000      -0.390707       -10.6317
 218   2.0000      -0.387079       -10.5330
 219   2.0000      -0.376546       -10.2463
 220   2.0000      -0.370090       -10.0707
 221   2.0000      -0.370048       -10.0695
 222   2.0000      -0.366775        -9.9805
 223   2.0000      -0.355847        -9.6831
 224   2.0000      -0.338503        -9.2111
 225   2.0000      -0.330742        -8.9999
 226   2.0000      -0.328911        -8.9501
 227   2.0000      -0.324528        -8.8309
 228   2.0000      -0.321618        -8.7517
 229   2.0000      -0.319281        -8.6881
 230   2.0000      -0.312632        -8.5072
 231   2.0000      -0.309150        -8.4124
 232   2.0000      -0.296671        -8.0728
 233   2.0000      -0.292358        -7.9555
 234   2.0000      -0.278831        -7.5874
 235   2.0000      -0.256232        -6.9724
 236   2.0000      -0.197602        -5.3770
 237   0.0000      -0.101610        -2.7650
 238   0.0000      -0.080527        -2.1913
 239   0.0000      -0.068973        -1.8769
 240   0.0000      -0.057430        -1.5628
 241   0.0000      -0.038141        -1.0379

MULLIKEN ATOMIC CHARGES
-----------------------
   0 C :   -0.104628
   1 C :    0.242817
   2 F :   -0.167633
   3 C :    0.239596
   4 F :   -0.169129
   5 C :   -0.102827
   6 C :    0.115657
   7 C :    0.114817
   8 C :   -0.081551
   9 C :    0.042343
  10 C :    0.007160
  11 C :   -0.077487
  12 C :    0.176953
  13 O :   -0.231783
  14 C :   -0.134778
  15 C :    0.337944
  16 C :   -0.347426
  17 C :   -0.181874
  18 N :    0.153488
  19 C :   -0.196595
  20 N :    0.147004
  21 C :    0.030254
  22 N :   -0.003619
  23 C :   -0.125506
  24 S :    0.183913
  25 C :    0.002129
  26 N :    0.276108
  27 O :   -0.245449
  28 O :   -0.253494
  29 C :    0.004949
  30 C :    0.131866
  31 C :   -0.042078
  32 C :    0.007190
  33 C :   -0.001547
  34 C :   -0.165685
  35 C :    0.067406
  36 C :    0.184669
  37 N :   -0.147340
  38 C :    0.069788
  39 C :   -0.032131
  40 C :    0.001496
  41 C :   -0.045031
  42 C :    0.050018
  43 C :    0.007715
  44 C :   -0.027262
  45 S :    0.058195
  46 C :   -0.059000
  47 C :    0.004552
  48 C :    0.091882
  49 C :   -0.051985
  50 S :    0.073456
  51 C :    0.027855
  52 C :   -0.135550
  53 S :    0.129744
  54 C :   -0.144069
  55 C :    0.008827
  56 C :    0.007921
  57 C :   -0.004100
  58 O :   -0.170318
  59 C :    0.068885
  60 C :    0.027345
  61 O :   -0.161546
  62 C :    0.025656
  63 C :   -0.009646
  64 H :    0.009434
  65 H :    0.001850
  66 H :   -0.004131
  67 H :   -0.014255
  68 H :    0.048554
  69 H :    0.181455
  70 H :    0.013607
  71 H :   -0.006405
  72 H :   -0.005749
  73 H :   -0.016357
  74 H :    0.031599
  75 H :    0.005052
  76 H :    0.058083
  77 H :    0.028617
  78 H :    0.011805
  79 H :    0.123551
  80 H :    0.002797
  81 H :   -0.015988
  82 H :   -0.019916
  83 H :   -0.017512
  84 H :   -0.016833
  85 H :   -0.016894
  86 H :   -0.018048
  87 H :   -0.017827
  88 H :    0.054774
  89 H :    0.053966
  90 H :   -0.019392
  91 H :    0.045826
  92 H :    0.019806
Sum of atomic charges:   -0.0000000

LOEWDIN ATOMIC CHARGES
----------------------
   0 C :   -0.027450
   1 C :    0.069932
   2 F :   -0.045852
   3 C :    0.070156
   4 F :   -0.046882
   5 C :   -0.031161
   6 C :   -0.009876
   7 C :   -0.005318
   8 C :    0.021712
   9 C :   -0.020654
  10 C :   -0.053637
  11 C :    0.033161
  12 C :    0.099284
  13 O :   -0.186249
  14 C :   -0.145762
  15 C :    0.078150
  16 C :   -0.146610
  17 C :   -0.019322
  18 N :   -0.051178
  19 C :   -0.020712
  20 N :   -0.051305
  21 C :    0.116229
  22 N :    0.083369
  23 C :   -0.117071
  24 S :    0.475069
  25 C :   -0.197636
  26 N :    0.274053
  27 O :   -0.212430
  28 O :   -0.220227
  29 C :    0.003293
  30 C :   -0.081145
  31 C :   -0.032234
  32 C :   -0.013752
  33 C :   -0.056294
  34 C :   -0.025067
  35 C :   -0.057329
  36 C :    0.045230
  37 N :    0.007627
  38 C :    0.057228
  39 C :   -0.125477
  40 C :   -0.023362
  41 C :   -0.181208
  42 C :   -0.019959
  43 C :   -0.053058
  44 C :   -0.155618
  45 S :    0.358177
  46 C :   -0.201975
  47 C :   -0.015343
  48 C :   -0.033758
  49 C :   -0.111996
  50 S :    0.365100
  51 C :   -0.120364
  52 C :   -0.124768
  53 S :    0.441962
  54 C :   -0.138691
  55 C :   -0.098763
  56 C :   -0.122537
  57 C :    0.063282
  58 O :   -0.151071
  59 C :   -0.068558
  60 C :    0.081652
  61 O :   -0.141590
  62 C :   -0.059864
  63 C :   -0.011742
  64 H :    0.048829
  65 H :    0.045568
  66 H :    0.041445
  67 H :    0.039297
  68 H :    0.037489
  69 H :    0.083778
  70 H :    0.045488
  71 H :    0.029803
  72 H :    0.029227
  73 H :    0.027035
  74 H :    0.037613
  75 H :    0.025571
  76 H :    0.040510
  77 H :    0.031548
  78 H :    0.029777
  79 H :    0.079895
  80 H :    0.029523
  81 H :    0.017721
  82 H :    0.031669
  83 H :    0.031974
  84 H :    0.030419
  85 H :    0.031435
  86 H :    0.030178
  87 H :    0.025833
  88 H :    0.057214
  89 H :    0.056633
  90 H :    0.024911
  91 H :    0.025389
  92 H :    0.024415

  Mayer bond orders larger than 0.100000
B(  0-C ,  1-C ) :   1.4359 B(  0-C ,  5-C ) :   0.1076 B(  0-C ,  7-C ) :   1.1948
B(  0-C , 64-H ) :   1.0059 B(  1-C ,  2-F ) :   1.1388 B(  1-C ,  3-C ) :   1.1955
B(  3-C ,  4-F ) :   1.1363 B(  3-C ,  5-C ) :   1.4407 B(  5-C ,  6-C ) :   1.1937
B(  5-C , 65-H ) :   1.0058 B(  6-C ,  7-C ) :   1.2583 B(  6-C , 11-C ) :   1.1869
B(  7-C ,  8-C ) :   1.2072 B(  8-C ,  9-C ) :   1.4676 B(  8-C , 66-H ) :   0.9885
B(  9-C , 10-C ) :   1.2194 B(  9-C , 15-C ) :   0.9877 B( 10-C , 11-C ) :   1.4678
B( 10-C , 12-C ) :   0.9828 B( 11-C , 67-H ) :   1.0168 B( 12-C , 13-O ) :   2.0000
B( 12-C , 14-C ) :   1.0155 B( 13-O , 69-H ) :   0.1467 B( 14-C , 15-C ) :   1.0996
B( 14-C , 21-C ) :   1.4341 B( 15-C , 16-C ) :   1.6275 B( 16-C , 17-C ) :   1.1495
B( 16-C , 19-C ) :   1.1497 B( 17-C , 18-N ) :   2.9609 B( 19-C , 20-N ) :   2.9529
B( 21-C , 22-N ) :   1.3511 B( 21-C , 68-H ) :   0.9319 B( 22-N , 23-C ) :   1.1896
B( 22-N , 69-H ) :   0.8231 B( 23-C , 24-S ) :   1.1350 B( 23-C , 30-C ) :   1.3817
B( 24-S , 25-C ) :   1.0871 B( 25-C , 26-N ) :   0.9643 B( 25-C , 29-C ) :   1.5052
B( 26-N , 27-O ) :   1.5335 B( 26-N , 28-O ) :   1.5155 B( 27-O , 28-O ) :   0.2646
B( 29-C , 30-C ) :   1.2204 B( 29-C , 70-H ) :   0.9986 B( 30-C , 31-C ) :   1.0692
B( 31-C , 32-C ) :   1.7748 B( 31-C , 71-H ) :   0.9641 B( 32-C , 33-C ) :   1.0800
B( 32-C , 72-H ) :   0.9577 B( 33-C , 34-C ) :   1.8461 B( 33-C , 73-H ) :   0.9482
B( 34-C , 35-C ) :   1.0662 B( 34-C , 36-C ) :   1.0419 B( 35-C , 74-H ) :   0.9421
B( 35-C , 75-H ) :   0.9469 B( 35-C , 76-H ) :   0.9377 B( 36-C , 37-N ) :   1.0121
B( 36-C , 77-H ) :   0.9359 B( 36-C , 78-H ) :   0.9391 B( 37-N , 38-C ) :   1.2387
B( 37-N , 79-H ) :   0.9365 B( 38-C , 39-C ) :   1.5821 B( 38-C , 80-H ) :   0.9683
B( 39-C , 40-C ) :   1.1857 B( 39-C , 81-H ) :   0.9640 B( 40-C , 41-C ) :   1.5761
B( 40-C , 82-H ) :   0.9770 B( 41-C , 42-C ) :   1.1540 B( 41-C , 45-S ) :   1.0061
B( 42-C , 43-C ) :   1.5787 B( 42-C , 83-H ) :   0.9979 B( 43-C , 44-C ) :   1.1979
B( 43-C , 84-H ) :   0.9946 B( 44-C , 45-S ) :   1.0640 B( 44-C , 46-C ) :   1.4875
B( 46-C , 47-C ) :   1.2070 B( 46-C , 50-S ) :   1.0278 B( 47-C , 48-C ) :   1.5788
B( 47-C , 85-H ) :   0.9945 B( 48-C , 49-C ) :   1.1866 B( 48-C , 86-H ) :   0.9801
B( 49-C , 50-S ) :   1.0604 B( 49-C , 51-C ) :   1.5348 B( 51-C , 52-C ) :   1.2178
B( 51-C , 87-H ) :   0.9373 B( 52-C , 53-S ) :   1.1221 B( 52-C , 56-C ) :   1.4267
B( 53-S , 54-C ) :   1.1223 B( 54-C , 55-C ) :   1.5071 B( 54-C , 62-C ) :   1.1152
B( 55-C , 56-C ) :   1.1727 B( 55-C , 60-C ) :   0.9557 B( 56-C , 57-C ) :   0.9793
B( 57-C , 58-O ) :   2.1794 B( 57-C , 59-C ) :   0.9864 B( 59-C , 60-C ) :   1.0005
B( 59-C , 88-H ) :   0.8981 B( 59-C , 89-H ) :   0.8973 B( 60-C , 61-O ) :   2.1550
B( 62-C , 63-C ) :   1.9324 B( 62-C , 90-H ) :   0.9479 B( 63-C , 91-H ) :   0.9281
B( 63-C , 92-H ) :   0.9444

-----------------------------------------------------------------------------
         ABSORPTION SPECTRUM VIA TRANSITION ELECTRIC DIPOLE MOMENTS
-----------------------------------------------------------------------------
State   Energy  Wavelength   fosc         T2         TX        TY        TZ
        (cm-1)    (nm)                  (au**2)     (au)      (au)      (au)
-----------------------------------------------------------------------------
   0   11569.1    864.4   0.008928831   0.25408  -0.16833   0.06480  -0.47069
   1   14386.7    695.1   1.513120118  34.62496  -0.31733  -1.48638  -5.68462
   2   15296.2    653.8   0.002327359   0.05009   0.01730  -0.07250  -0.21103
   3   21663.4    461.6   0.370215994   5.62606  -0.88603   1.42618   1.67542
   4   21738.9    460.0   0.531743492   8.05269   1.14009  -1.76208  -1.90996
   5   23185.6    431.3   0.028466738   0.40420   0.29010   0.04823   0.56366
   6   23670.7    422.5   0.017596030   0.24473  -0.10596   0.22535   0.42745
   7   24670.7    405.3   0.021334130   0.28469   0.51597  -0.12730   0.04753
   8   25045.1    399.3   0.022959023   0.30179   0.39869  -0.26463  -0.26983
   9   25794.8    387.7   0.085153252   1.08679  -0.02474  -0.50780   0.91012
  10   26773.4    373.5   0.132801358   1.63296   0.52304   0.82848   0.82037
  11   28533.6    350.5   0.001768472   0.02040   0.00243  -0.05439   0.13206
  12   28915.5    345.8   0.049193959   0.56009   0.03422   0.28892  -0.68952
  13   29219.4    342.2   0.034098598   0.38419   0.56562   0.25028   0.04022
  14   29643.5    337.3   0.057344583   0.63685  -0.12249  -0.09254   0.78312
  15   30079.4    332.5   0.001256051   0.01375   0.06620  -0.06749   0.06935
  16   30569.2    327.1   0.157677467   1.69809   0.40507  -0.87750  -0.87407
  17   31457.0    317.9   0.513408371   5.37306   0.40369   0.51520  -2.22366
  18   31775.2    314.7   0.000629161   0.00652  -0.06452   0.04377  -0.02097
  19   32120.5    311.3   0.002777733   0.02847   0.04698  -0.06389  -0.14893
  20   32525.9    307.4   0.006894289   0.06978   0.01334   0.05383  -0.25827
  21   32970.7    303.3   0.010756478   0.10740  -0.11422  -0.06220   0.30081
  22   33475.2    298.7   0.011630717   0.11438   0.10835   0.01215   0.32015
  23   34003.7    294.1   0.762814342   7.38530  -0.29008  -0.78102   2.58673
  24   34821.1    287.2   0.005094625   0.04817  -0.02756   0.08929   0.19858
  25   34905.8    286.5   0.007309348   0.06894   0.03426   0.18799  -0.18006
  26   35295.7    283.3   0.241168770   2.24944   0.66301  -0.71375   1.14036
  27   35437.5    282.2   0.000129611   0.00120   0.02537  -0.02345   0.00321
  28   35545.1    281.3   0.075725005   0.70135  -0.25053   0.67351   0.43008
  29   35982.3    277.9   0.043725770   0.40006  -0.56525  -0.28220   0.03033
  30   36477.2    274.1   0.484251077   4.37044  -0.30319   1.78624  -1.04300
  31   36736.8    272.2   0.027554519   0.24693   0.08429   0.11088  -0.47700
  32   36766.5    272.0   0.010000466   0.08955  -0.04975   0.23809  -0.17431
  33   37063.0    269.8   0.194783226   1.73016  -0.39557   1.19662   0.37654
  34   37217.6    268.7   0.103915018   0.91919  -0.33179  -0.45217   0.77759
  35   37720.0    265.1   0.120172345   1.04884  -0.81653   0.22774   0.57467
  36   37803.1    264.5   0.005546997   0.04831  -0.15246   0.13180   0.08771
  37   37861.5    264.1   0.033511341   0.29139   0.42221  -0.15692  -0.29750
  38   38392.9    260.5   0.015028995   0.12887  -0.34446   0.04150   0.09217
  39   38457.2    260.0   0.021230504   0.18174   0.35280   0.23917  -0.00857
  40   38979.6    256.5   0.007513176   0.06345  -0.21601  -0.09461  -0.08856
  41   39041.3    256.1   0.021702569   0.18300   0.34507   0.09843   0.23291
  42   39206.2    255.1   0.000007032   0.00006  -0.00639  -0.00368   0.00216
  43   39466.7    253.4   0.007609147   0.06347  -0.05706  -0.08971   0.22840
  44   39669.0    252.1   0.000427207   0.00355  -0.04056   0.03016  -0.03148
  45   39937.7    250.4   0.000569677   0.00470   0.06431  -0.01807   0.01528
  46   40146.2    249.1   0.000534395   0.00438   0.06561   0.00349   0.00809
  47   40257.4    248.4   0.140577813   1.14960  -0.51075   0.92815   0.16514

FINAL SINGLE POINT ENERGY     -4284.859426458260

DIPOLE MOMENT
-------------
                                X             Y             Z
Electronic contribution:     28.02732     -47.36179       4.55239
Nuclear contribution   :    -27.21913      49.92178      -2.81353
                        -----------------------------------------
Total Dipole Moment    :      0.80819       2.55999       1.73886
                        -----------------------------------------
Magnitude (a.u.)       :      3.19849
Magnitude (Debye)      :      8.12992

Rotational constants in cm-1:     0.001344     0.000352     0.000293
Rotational constants in MHz :    40.291789    10.561469     8.794159

                             ****ORCA TERMINATED NORMALLY****
TOTAL RUN TIME: 0 days 0 hours 8 minutes 11 seconds 729 msec
