                         Program Version 4.2.0 -  RELEASE  -
|  1> # ORCA input file
|  2> # SCF done       -137.115248033173          0.000561280670
|  3> ! CAM-B3LYP def2-SVP def2/J RIJCOSX Grid4 TightSCF
|  4> %maxcore 5000
|  5> %tddft
|  6>     Mode sTDDFT
|  7>     Ethresh 5.0
|  8>     maxcore 5000
|  9> end
| 10>
| 11> %pal
| 12>   nprocs 6
| 13>   end
| 14> * xyz 0 1
| 15>    C       -8.15953        -2.42425         4.78714
| 16>    C       -6.99190        -2.16539         5.39090
| 17>    C       -6.62490        -0.98097         6.11532
| 18>    C       -5.37181        -1.00248         6.61689
| 19>    C       -4.64395        -2.19571         6.33437
| 20>    S       -5.62904        -3.29777         5.39789
| 21>    C       -3.35692        -2.49527         6.70878
| 22>    C       -2.47267        -1.67595         7.45845
| 23>    C       -1.25557        -2.23779         7.66566
| 24>    C       -1.11061        -3.52909         7.08916
| 25>    S       -2.57866        -4.01786         6.28152
| 26>    C        0.00624        -4.31982         7.11682
| 27>    C        0.02240        -5.57610         6.48801
| 28>    S        1.43464        -6.62628         6.41626
| 29>    C        0.39686        -7.72842         5.49266
| 30>    N       -0.80792        -7.25956         5.33824
| 31>    N       -1.01386        -6.09227         5.87535
| 32>    C        0.89690        -8.95679         4.99372
| 33>    C        0.13260        -9.84658         4.31537
| 34>    C        0.63835       -11.05594         3.78128
| 35>    O       -0.19712       -11.90436         3.12506
| 36>    C        0.52206       -12.96505         2.68026
| 37>    C        1.85105       -12.79949         3.06081
| 38>    C        1.92825       -11.58650         3.76658
| 39>    O        3.03923       -11.04751         4.31486
| 40>    O        2.92476       -13.60828         2.83822
| 41>    C       -0.07713       -14.02133         1.95012
| 42>    C       -1.40571       -14.13058         1.69039
| 43>    C       -1.96209       -15.19885         0.94653
| 44>    C       -3.29495       -15.35084         0.74389
| 45>    C       -3.92101       -16.39685         0.00158
| 46>    C       -3.25684       -17.35118        -0.77402
| 47>    N       -3.83766       -18.31288        -1.46320
| 48>    C       -5.16213       -18.47871        -1.48156
| 49>    C       -5.97436       -17.57524        -0.73758
| 50>    C       -5.33937       -16.52113         0.00292
| 51>    N       -6.22455       -15.75892         0.63835
| 52>    S       -7.70605       -16.31579         0.33071
| 53>    N       -7.29564       -17.55275        -0.62327
| 54>    C       -5.66629       -19.54201        -2.25429
| 55>    C       -4.80437       -20.33547        -2.96833
| 56>    C       -5.12914       -21.43399        -3.80426
| 57>    C       -4.05408       -22.01096        -4.40218
| 58>    C       -2.82512       -21.39283        -4.06264
| 59>    S       -3.08595       -20.05037        -2.94085
| 60>    C       -1.57275       -21.73725        -4.51086
| 61>    C       -1.22749       -22.78831        -5.40911
| 62>    C        0.09349       -22.88864        -5.67167
| 63>    C        0.90556       -21.91662        -4.99564
| 64>    S       -0.13502       -20.87455        -4.01024
| 65>    C        2.23656       -21.77580        -5.06183
| 66>    H       -8.96034        -1.70599         4.80682
| 67>    H       -8.33294        -3.34788         4.26651
| 68>    H       -7.31998        -0.16738         6.22583
| 69>    H       -4.93268        -0.20137         7.18462
| 70>    H       -2.75745        -0.70289         7.81752
| 71>    H       -0.44904        -1.77576         8.20780
| 72>    H        0.89832        -3.97791         7.61772
| 73>    H        1.94108        -9.16379         5.17018
| 74>    H       -0.91526        -9.64289         4.15263
| 75>    H        3.77739       -11.64561         4.13596
| 76>    H        2.64716       -14.37987         2.33350
| 77>    H        0.59716       -14.78825         1.58785
| 78>    H       -2.07328       -13.37129         2.07194
| 79>    H       -1.26788       -15.92273         0.54047
| 80>    H       -3.97779       -14.63934         1.18983
| 81>    H       -2.17921       -17.33508        -0.85755
| 82>    H       -6.73062       -19.71187        -2.28001
| 83>    H       -6.14849       -21.75401        -3.93369
| 84>    H       -4.11537       -22.85164        -5.07086
| 85>    H       -1.97961       -23.43283        -5.82857
| 86>    H        0.53964       -23.61805        -6.32441
| 87>    H        2.82928       -22.43294        -5.67358
| 88>    H        2.75153       -21.00982        -4.51189
| 89> *
| 90>
| 91>                          ****END OF INPUT****

CARTESIAN COORDINATES (ANGSTROEM)
---------------------------------
  C     -8.159530   -2.424250    4.787140
  C     -6.991900   -2.165390    5.390900
  C     -6.624900   -0.980970    6.115320
  C     -5.371810   -1.002480    6.616890
  C     -4.643950   -2.195710    6.334370
  S     -5.629040   -3.297770    5.397890
  C     -3.356920   -2.495270    6.708780
  C     -2.472670   -1.675950    7.458450
  C     -1.255570   -2.237790    7.665660
  C     -1.110610   -3.529090    7.089160
  S     -2.578660   -4.017860    6.281520
  C      0.006240   -4.319820    7.116820
  C      0.022400   -5.576100    6.488010
  S      1.434640   -6.626280    6.416260
  C      0.396860   -7.728420    5.492660
  N     -0.807920   -7.259560    5.338240
  N     -1.013860   -6.092270    5.875350
  C      0.896900   -8.956790    4.993720
  C      0.132600   -9.846580    4.315370
  C      0.638350  -11.055940    3.781280
  O     -0.197120  -11.904360    3.125060
  C      0.522060  -12.965050    2.680260
  C      1.851050  -12.799490    3.060810
  C      1.928250  -11.586500    3.766580
  O      3.039230  -11.047510    4.314860
  O      2.924760  -13.608280    2.838220
  C     -0.077130  -14.021330    1.950120
  C     -1.405710  -14.130580    1.690390
  C     -1.962090  -15.198850    0.946530
  C     -3.294950  -15.350840    0.743890
  C     -3.921010  -16.396850    0.001580
  C     -3.256840  -17.351180   -0.774020
  N     -3.837660  -18.312880   -1.463200
  C     -5.162130  -18.478710   -1.481560
  C     -5.974360  -17.575240   -0.737580
  C     -5.339370  -16.521130    0.002920
  N     -6.224550  -15.758920    0.638350
  S     -7.706050  -16.315790    0.330710
  N     -7.295640  -17.552750   -0.623270
  C     -5.666290  -19.542010   -2.254290
  C     -4.804370  -20.335470   -2.968330
  C     -5.129140  -21.433990   -3.804260
  C     -4.054080  -22.010960   -4.402180
  C     -2.825120  -21.392830   -4.062640
  S     -3.085950  -20.050370   -2.940850
  C     -1.572750  -21.737250   -4.510860
  C     -1.227490  -22.788310   -5.409110
  C      0.093490  -22.888640   -5.671670
  C      0.905560  -21.916620   -4.995640
  S     -0.135020  -20.874550   -4.010240
  C      2.236560  -21.775800   -5.061830
  H     -8.960340   -1.705990    4.806820
  H     -8.332940   -3.347880    4.266510
  H     -7.319980   -0.167380    6.225830
  H     -4.932680   -0.201370    7.184620
  H     -2.757450   -0.702890    7.817520
  H     -0.449040   -1.775760    8.207800
  H      0.898320   -3.977910    7.617720
  H      1.941080   -9.163790    5.170180
  H     -0.915260   -9.642890    4.152630
  H      3.777390  -11.645610    4.135960
  H      2.647160  -14.379870    2.333500
  H      0.597160  -14.788250    1.587850
  H     -2.073280  -13.371290    2.071940
  H     -1.267880  -15.922730    0.540470
  H     -3.977790  -14.639340    1.189830
  H     -2.179210  -17.335080   -0.857550
  H     -6.730620  -19.711870   -2.280010
  H     -6.148490  -21.754010   -3.933690
  H     -4.115370  -22.851640   -5.070860
  H     -1.979610  -23.432830   -5.828570
  H      0.539640  -23.618050   -6.324410
  H      2.829280  -22.432940   -5.673580
  H      2.751530  -21.009820   -4.511890

 Total Charge           Charge          ....    0
 Multiplicity           Mult            ....    1
 Number of Electrons    NEL             ....  400
 Basis Dimension        Dim             ....  853

ORBITAL ENERGIES
----------------

  NO   OCC          E(Eh)            E(eV)
   0   2.0000     -89.014107     -2422.1970
   1   2.0000     -88.944028     -2420.2901
   2   2.0000     -88.939761     -2420.1739
   3   2.0000     -88.936481     -2420.0847
   4   2.0000     -88.930086     -2419.9107
   5   2.0000     -88.926668     -2419.8177
   6   2.0000     -19.277683      -524.5724
   7   2.0000     -19.262620      -524.1625
   8   2.0000     -19.255068      -523.9570
   9   2.0000     -14.433965      -392.7681
  10   2.0000     -14.427406      -392.5897
  11   2.0000     -14.410803      -392.1379
  12   2.0000     -14.410009      -392.1163
  13   2.0000     -14.400468      -391.8566
  14   2.0000     -10.330220      -281.0996
  15   2.0000     -10.328727      -281.0590
  16   2.0000     -10.323208      -280.9088
  17   2.0000     -10.318849      -280.7901
  18   2.0000     -10.315040      -280.6865
  19   2.0000     -10.314638      -280.6756
  20   2.0000     -10.314100      -280.6609
  21   2.0000     -10.313298      -280.6391
  22   2.0000     -10.313093      -280.6335
  23   2.0000     -10.312671      -280.6220
  24   2.0000     -10.308940      -280.5205
  25   2.0000     -10.303393      -280.3696
  26   2.0000     -10.302533      -280.3462
  27   2.0000     -10.301761      -280.3252
  28   2.0000     -10.299563      -280.2654
  29   2.0000     -10.298072      -280.2248
  30   2.0000     -10.290922      -280.0302
  31   2.0000     -10.289312      -279.9864
  32   2.0000     -10.288941      -279.9763
  33   2.0000     -10.288334      -279.9598
  34   2.0000     -10.282998      -279.8146
  35   2.0000     -10.282759      -279.8081
  36   2.0000     -10.279650      -279.7235
  37   2.0000     -10.279560      -279.7211
  38   2.0000     -10.277576      -279.6671
  39   2.0000     -10.276824      -279.6466
  40   2.0000     -10.276402      -279.6351
  41   2.0000     -10.275174      -279.6017
  42   2.0000     -10.273343      -279.5519
  43   2.0000     -10.272222      -279.5214
  44   2.0000     -10.268183      -279.4115
  45   2.0000     -10.266371      -279.3622
  46   2.0000     -10.266368      -279.3621
  47   2.0000     -10.265729      -279.3447
  48   2.0000     -10.264721      -279.3173
  49   2.0000     -10.264453      -279.3100
  50   2.0000     -10.263694      -279.2893
  51   2.0000      -8.106098      -220.5781
  52   2.0000      -8.040460      -218.7921
  53   2.0000      -8.036432      -218.6824
  54   2.0000      -8.029356      -218.4899
  55   2.0000      -8.026701      -218.4176
  56   2.0000      -8.021155      -218.2667
  57   2.0000      -6.077374      -165.3738
  58   2.0000      -6.069642      -165.1634
  59   2.0000      -6.068305      -165.1270
  60   2.0000      -6.009257      -163.5202
  61   2.0000      -6.006230      -163.4378
  62   2.0000      -6.006020      -163.4321
  63   2.0000      -6.002488      -163.3360
  64   2.0000      -6.002240      -163.3292
  65   2.0000      -5.999569      -163.2566
  66   2.0000      -5.997072      -163.1886
  67   2.0000      -5.996498      -163.1730
  68   2.0000      -5.994613      -163.1217
  69   2.0000      -5.992570      -163.0661
  70   2.0000      -5.991158      -163.0277
  71   2.0000      -5.990578      -163.0119
  72   2.0000      -5.987292      -162.9225
  73   2.0000      -5.986650      -162.9050
  74   2.0000      -5.982049      -162.7798
  75   2.0000      -1.197932       -32.5974
  76   2.0000      -1.155873       -31.4529
  77   2.0000      -1.139376       -31.0040
  78   2.0000      -1.114965       -30.3397
  79   2.0000      -1.113882       -30.3103
  80   2.0000      -1.036516       -28.2050
  81   2.0000      -0.987969       -26.8840
  82   2.0000      -0.981285       -26.7021
  83   2.0000      -0.970890       -26.4193
  84   2.0000      -0.964264       -26.2390
  85   2.0000      -0.960509       -26.1368
  86   2.0000      -0.922167       -25.0934
  87   2.0000      -0.913909       -24.8687
  88   2.0000      -0.901793       -24.5390
  89   2.0000      -0.894850       -24.3501
  90   2.0000      -0.886387       -24.1198
  91   2.0000      -0.881153       -23.9774
  92   2.0000      -0.873678       -23.7740
  93   2.0000      -0.868123       -23.6228
  94   2.0000      -0.864704       -23.5298
  95   2.0000      -0.848231       -23.0815
  96   2.0000      -0.843072       -22.9412
  97   2.0000      -0.836123       -22.7521
  98   2.0000      -0.831403       -22.6236
  99   2.0000      -0.820003       -22.3134
 100   2.0000      -0.812699       -22.1147
 101   2.0000      -0.806794       -21.9540
 102   2.0000      -0.794971       -21.6323
 103   2.0000      -0.776801       -21.1378
 104   2.0000      -0.771094       -20.9825
 105   2.0000      -0.750214       -20.4144
 106   2.0000      -0.731895       -19.9159
 107   2.0000      -0.720215       -19.5981
 108   2.0000      -0.717948       -19.5364
 109   2.0000      -0.716932       -19.5087
 110   2.0000      -0.710860       -19.3435
 111   2.0000      -0.688715       -18.7409
 112   2.0000      -0.686854       -18.6902
 113   2.0000      -0.678251       -18.4561
 114   2.0000      -0.675264       -18.3749
 115   2.0000      -0.659847       -17.9553
 116   2.0000      -0.655751       -17.8439
 117   2.0000      -0.638362       -17.3707
 118   2.0000      -0.637451       -17.3459
 119   2.0000      -0.631277       -17.1779
 120   2.0000      -0.621541       -16.9130
 121   2.0000      -0.617835       -16.8122
 122   2.0000      -0.615362       -16.7449
 123   2.0000      -0.610595       -16.6151
 124   2.0000      -0.607204       -16.5229
 125   2.0000      -0.601148       -16.3581
 126   2.0000      -0.597621       -16.2621
 127   2.0000      -0.590854       -16.0780
 128   2.0000      -0.589917       -16.0525
 129   2.0000      -0.573106       -15.5950
 130   2.0000      -0.572011       -15.5652
 131   2.0000      -0.561041       -15.2667
 132   2.0000      -0.558647       -15.2016
 133   2.0000      -0.551998       -15.0206
 134   2.0000      -0.549929       -14.9643
 135   2.0000      -0.542673       -14.7669
 136   2.0000      -0.542171       -14.7532
 137   2.0000      -0.536775       -14.6064
 138   2.0000      -0.531425       -14.4608
 139   2.0000      -0.529354       -14.4044
 140   2.0000      -0.515822       -14.0362
 141   2.0000      -0.514493       -14.0001
 142   2.0000      -0.506336       -13.7781
 143   2.0000      -0.503455       -13.6997
 144   2.0000      -0.502498       -13.6737
 145   2.0000      -0.501119       -13.6361
 146   2.0000      -0.494863       -13.4659
 147   2.0000      -0.492868       -13.4116
 148   2.0000      -0.488333       -13.2882
 149   2.0000      -0.484994       -13.1974
 150   2.0000      -0.482815       -13.1381
 151   2.0000      -0.482044       -13.1171
 152   2.0000      -0.481715       -13.1081
 153   2.0000      -0.478774       -13.0281
 154   2.0000      -0.477330       -12.9888
 155   2.0000      -0.476499       -12.9662
 156   2.0000      -0.474665       -12.9163
 157   2.0000      -0.473096       -12.8736
 158   2.0000      -0.469176       -12.7669
 159   2.0000      -0.463641       -12.6163
 160   2.0000      -0.455899       -12.4056
 161   2.0000      -0.455180       -12.3861
 162   2.0000      -0.452530       -12.3140
 163   2.0000      -0.451312       -12.2808
 164   2.0000      -0.451178       -12.2772
 165   2.0000      -0.447827       -12.1860
 166   2.0000      -0.445051       -12.1104
 167   2.0000      -0.432787       -11.7767
 168   2.0000      -0.428126       -11.6499
 169   2.0000      -0.425962       -11.5910
 170   2.0000      -0.419775       -11.4227
 171   2.0000      -0.419078       -11.4037
 172   2.0000      -0.413855       -11.2616
 173   2.0000      -0.411783       -11.2052
 174   2.0000      -0.408693       -11.1211
 175   2.0000      -0.402847       -10.9620
 176   2.0000      -0.399542       -10.8721
 177   2.0000      -0.393732       -10.7140
 178   2.0000      -0.390541       -10.6272
 179   2.0000      -0.381952       -10.3934
 180   2.0000      -0.377401       -10.2696
 181   2.0000      -0.361958        -9.8494
 182   2.0000      -0.355910        -9.6848
 183   2.0000      -0.353797        -9.6273
 184   2.0000      -0.350188        -9.5291
 185   2.0000      -0.343324        -9.3423
 186   2.0000      -0.338048        -9.1988
 187   2.0000      -0.334754        -9.1091
 188   2.0000      -0.327556        -8.9132
 189   2.0000      -0.325787        -8.8651
 190   2.0000      -0.310902        -8.4601
 191   2.0000      -0.309142        -8.4122
 192   2.0000      -0.306578        -8.3424
 193   2.0000      -0.298191        -8.1142
 194   2.0000      -0.294242        -8.0067
 195   2.0000      -0.291688        -7.9372
 196   2.0000      -0.269209        -7.3256
 197   2.0000      -0.236811        -6.4440
 198   2.0000      -0.216694        -5.8965
 199   2.0000      -0.203528        -5.5383
 200   0.0000      -0.084535        -2.3003
 201   0.0000      -0.062516        -1.7012
 202   0.0000      -0.038727        -1.0538
 203   0.0000      -0.028327        -0.7708
 204   0.0000       0.003013         0.0820

MULLIKEN ATOMIC CHARGES
-----------------------
   0 C :   -0.025674
   1 C :   -0.070238
   2 C :    0.054192
   3 C :    0.031212
   4 C :   -0.070864
   5 S :    0.096712
   6 C :   -0.049196
   7 C :    0.033035
   8 C :    0.031780
   9 C :   -0.015916
  10 S :    0.143258
  11 C :    0.008700
  12 C :   -0.061951
  13 S :    0.066127
  14 C :   -0.109786
  15 N :   -0.036669
  16 N :   -0.111270
  17 C :    0.033079
  18 C :   -0.002384
  19 C :    0.109960
  20 O :   -0.213792
  21 C :    0.108042
  22 C :    0.087071
  23 C :    0.064080
  24 O :   -0.172966
  25 O :   -0.204237
  26 C :   -0.069621
  27 C :    0.027445
  28 C :    0.027433
  29 C :   -0.013113
  30 C :    0.007865
  31 C :   -0.000961
  32 N :   -0.146195
  33 C :    0.047328
  34 C :    0.013339
  35 C :    0.050445
  36 N :   -0.280603
  37 S :    0.493658
  38 N :   -0.255826
  39 C :   -0.081077
  40 C :    0.021021
  41 C :    0.029323
  42 C :    0.028741
  43 C :   -0.043976
  44 S :    0.134679
  45 C :   -0.067011
  46 C :    0.030840
  47 C :    0.057223
  48 C :   -0.068602
  49 S :    0.091197
  50 C :   -0.023932
  51 H :    0.019721
  52 H :    0.023917
  53 H :   -0.011398
  54 H :   -0.012827
  55 H :   -0.019511
  56 H :   -0.017459
  57 H :   -0.023254
  58 H :   -0.001268
  59 H :    0.012146
  60 H :    0.193195
  61 H :    0.191770
  62 H :   -0.038238
  63 H :    0.003582
  64 H :   -0.018740
  65 H :   -0.003882
  66 H :   -0.011571
  67 H :   -0.015113
  68 H :   -0.014317
  69 H :   -0.017943
  70 H :   -0.009539
  71 H :   -0.008368
  72 H :    0.022772
  73 H :    0.024402
Sum of atomic charges:   -0.0000000

LOEWDIN ATOMIC CHARGES
----------------------
   0 C :   -0.072979
   1 C :   -0.140469
   2 C :   -0.027833
   3 C :   -0.027419
   4 C :   -0.165848
   5 S :    0.363279
   6 C :   -0.194957
   7 C :   -0.024831
   8 C :   -0.042038
   9 C :   -0.118955
  10 S :    0.425183
  11 C :   -0.113975
  12 C :   -0.151241
  13 S :    0.354762
  14 C :   -0.145849
  15 N :   -0.082294
  16 N :   -0.105452
  17 C :   -0.068654
  18 C :    0.004007
  19 C :   -0.002186
  20 O :    0.006161
  21 C :   -0.011348
  22 C :   -0.020286
  23 C :   -0.000834
  24 O :   -0.042107
  25 O :   -0.064560
  26 C :   -0.058503
  27 C :   -0.012785
  28 C :   -0.024258
  29 C :   -0.014033
  30 C :   -0.073890
  31 C :    0.030171
  32 N :   -0.101575
  33 C :    0.008479
  34 C :   -0.067068
  35 C :   -0.037983
  36 N :   -0.290442
  37 S :    0.631110
  38 N :   -0.275653
  39 C :   -0.080334
  40 C :   -0.114108
  41 C :   -0.040890
  42 C :   -0.022941
  43 C :   -0.203144
  44 S :    0.431344
  45 C :   -0.157846
  46 C :   -0.026726
  47 C :   -0.023537
  48 C :   -0.141168
  49 S :    0.361004
  50 C :   -0.067487
  51 H :    0.028337
  52 H :    0.027261
  53 H :    0.033162
  54 H :    0.031783
  55 H :    0.028027
  56 H :    0.030995
  57 H :    0.031156
  58 H :    0.029629
  59 H :    0.045532
  60 H :    0.104061
  61 H :    0.098184
  62 H :    0.022713
  63 H :    0.034739
  64 H :    0.022231
  65 H :    0.034154
  66 H :    0.019902
  67 H :    0.035827
  68 H :    0.032592
  69 H :    0.027686
  70 H :    0.033316
  71 H :    0.034544
  72 H :    0.029782
  73 H :    0.027368

  Mayer bond orders larger than 0.100000
B(  0-C ,  1-C ) :   1.8668 B(  0-C , 51-H ) :   0.9507 B(  0-C , 52-H ) :   0.9405
B(  1-C ,  2-C ) :   1.0770 B(  1-C ,  5-S ) :   1.0075 B(  2-C ,  3-C ) :   1.6673
B(  2-C , 53-H ) :   0.9923 B(  3-C ,  4-C ) :   1.1447 B(  3-C , 54-H ) :   0.9914
B(  4-C ,  5-S ) :   1.0543 B(  4-C ,  6-C ) :   1.5708 B(  6-C ,  7-C ) :   1.1631
B(  6-C , 10-S ) :   0.9876 B(  7-C ,  8-C ) :   1.6136 B(  7-C , 55-H ) :   0.9937
B(  8-C ,  9-C ) :   1.1284 B(  8-C , 56-H ) :   0.9986 B(  9-C , 10-S ) :   1.0885
B(  9-C , 11-C ) :   1.5865 B( 11-C , 12-C ) :   1.1644 B( 11-C , 57-H ) :   0.9582
B( 12-C , 13-S ) :   1.0680 B( 12-C , 16-N ) :   1.5927 B( 13-S , 14-C ) :   1.0683
B( 14-C , 15-N ) :   1.6964 B( 14-C , 17-C ) :   1.1121 B( 15-N , 16-N ) :   1.2327
B( 17-C , 18-C ) :   1.6623 B( 17-C , 58-H ) :   0.9437 B( 18-C , 19-C ) :   1.1522
B( 18-C , 59-H ) :   0.9747 B( 19-C , 20-O ) :   1.1028 B( 19-C , 21-C ) :   0.1087
B( 19-C , 23-C ) :   1.3999 B( 20-O , 21-C ) :   1.1328 B( 21-C , 22-C ) :   1.3039
B( 21-C , 26-C ) :   1.1333 B( 22-C , 23-C ) :   1.2630 B( 22-C , 25-O ) :   1.2231
B( 23-C , 24-O ) :   1.2346 B( 24-O , 60-H ) :   0.9496 B( 25-O , 61-H ) :   0.9587
B( 26-C , 27-C ) :   1.6195 B( 26-C , 62-H ) :   0.9627 B( 27-C , 28-C ) :   1.1388
B( 27-C , 63-H ) :   0.9999 B( 28-C , 29-C ) :   1.6100 B( 28-C , 64-H ) :   0.9770
B( 29-C , 30-C ) :   1.1108 B( 29-C , 65-H ) :   0.9897 B( 30-C , 31-C ) :   1.4097
B( 30-C , 35-C ) :   1.1643 B( 31-C , 32-N ) :   1.4415 B( 31-C , 66-H ) :   0.9716
B( 32-N , 33-C ) :   1.4714 B( 32-N , 44-S ) :   0.1325 B( 33-C , 34-C ) :   1.1015
B( 33-C , 39-C ) :   1.2394 B( 34-C , 35-C ) :   1.1849 B( 34-C , 38-N ) :   1.5957
B( 35-C , 36-N ) :   1.5535 B( 36-N , 37-S ) :   1.2481 B( 36-N , 38-N ) :   0.1455
B( 37-S , 38-N ) :   1.2562 B( 39-C , 40-C ) :   1.4778 B( 39-C , 67-H ) :   0.9917
B( 40-C , 41-C ) :   1.1392 B( 40-C , 44-S ) :   1.0987 B( 41-C , 42-C ) :   1.5901
B( 41-C , 68-H ) :   1.0013 B( 42-C , 43-C ) :   1.1736 B( 42-C , 69-H ) :   0.9946
B( 43-C , 44-S ) :   0.9614 B( 43-C , 45-C ) :   1.5638 B( 45-C , 46-C ) :   1.1471
B( 45-C , 49-S ) :   1.0572 B( 46-C , 47-C ) :   1.6629 B( 46-C , 70-H ) :   0.9918
B( 47-C , 48-C ) :   1.0777 B( 47-C , 71-H ) :   0.9927 B( 48-C , 49-S ) :   1.0060
B( 48-C , 50-C ) :   1.8642 B( 50-C , 72-H ) :   0.9509 B( 50-C , 73-H ) :   0.9416

-----------------------------------------------------------------------------
         ABSORPTION SPECTRUM VIA TRANSITION ELECTRIC DIPOLE MOMENTS
-----------------------------------------------------------------------------
State   Energy  Wavelength   fosc         T2         TX        TY        TZ
        (cm-1)    (nm)                  (au**2)     (au)      (au)      (au)
-----------------------------------------------------------------------------
   0   13182.3    758.6   1.474990405  36.83618  -1.01639   4.91361   3.41461
   1   17404.4    574.6   0.444458736   8.40713   1.35473  -2.55822   0.16541
   2   19126.5    522.8   0.513526086   8.83901  -2.65334   1.27258   0.42352
   3   21944.5    455.7   0.270563661   4.05900  -1.91456  -0.43841  -0.44861
   4   23065.9    433.5   0.891887940  12.72960   3.36296   0.63135   1.01069
   5   23656.0    422.7   0.158462207   2.20526   1.16442  -0.48745  -0.78217
   6   24900.5    401.6   0.555625414   7.34598   1.99667   1.43661   1.13818
   7   25985.5    384.8   0.001301641   0.01649  -0.05563  -0.05905   0.09954
   8   27557.2    362.9   0.027662791   0.33047   0.53875  -0.18799  -0.06987
   9   27987.0    357.3   0.120982887   1.42313  -0.68964   0.65257   0.72227
  10   28440.8    351.6   0.000606115   0.00702   0.05178  -0.04716   0.04594
  11   28890.6    346.1   0.163135977   1.85896  -0.96533  -0.83902  -0.47237
  12   29846.7    335.0   0.039877056   0.43985  -0.55984  -0.31878  -0.15750
  13   30281.7    330.2   0.018786640   0.20424  -0.19036  -0.37040  -0.17554
  14   31099.9    321.5   0.113945290   1.20618   1.05104   0.25871   0.18592
  15   32011.0    312.4   0.042402965   0.43609  -0.49142   0.37540   0.23167
  16   32516.0    307.5   0.065180906   0.65993  -0.65368   0.46152   0.14016
  17   32963.5    303.4   0.018936010   0.18912   0.39767  -0.17028  -0.04450
  18   33465.6    298.8   0.061708039   0.60704   0.74483   0.09782   0.20665
  19   33563.0    297.9   0.007692652   0.07546   0.18664   0.18435   0.08147
  20   34467.6    290.1   0.098748413   0.94318   0.61624  -0.70309  -0.26285
  21   34879.5    286.7   0.014705666   0.13880   0.34881   0.09075   0.09431
  22   35276.7    283.5   0.002745362   0.02562   0.04709   0.06600  -0.13801
  23   36465.9    274.2   0.118855867   1.07302   0.42267   0.75912   0.56402
  24   36886.8    271.1   0.000956790   0.00854  -0.08728   0.00592   0.02978
  25   37099.8    269.5   0.076579817   0.67955   0.74660  -0.24358  -0.25059
  26   37620.5    265.8   0.015951067   0.13959  -0.31845  -0.19359  -0.02648
  27   38034.2    262.9   0.018953481   0.16406  -0.38501  -0.12540  -0.01000
  28   38332.5    260.9   0.021627806   0.18575   0.23572   0.29611   0.20616
  29   38473.0    259.9   0.036818003   0.31505   0.49411   0.05965   0.25951
  30   39371.7    254.0   0.040751148   0.34075  -0.56232  -0.08548  -0.13128
  31   39684.3    252.0   0.013792975   0.11442  -0.29002   0.17028  -0.03623
  32   39763.3    251.5   0.177254828   1.46754  -1.08337   0.53661   0.07683
  33   40239.5    248.5   0.001509341   0.01235   0.00277   0.11083  -0.00761

FINAL SINGLE POINT ENERGY     -4309.038264232706

DIPOLE MOMENT
-------------
                                X             Y             Z
Electronic contribution:     -6.46603       1.07668       7.35909
Nuclear contribution   :      7.53038      -2.39230      -8.29543
                        -----------------------------------------
Total Dipole Moment    :      1.06435      -1.31561      -0.93635
                        -----------------------------------------
Magnitude (a.u.)       :      1.93401
Magnitude (Debye)      :      4.91587

Rotational constants in cm-1:     0.002098     0.000319     0.000282
Rotational constants in MHz :    62.906871     9.549214     8.445521

                             ****ORCA TERMINATED NORMALLY****
TOTAL RUN TIME: 0 days 0 hours 4 minutes 42 seconds 452 msec
