                         Program Version 4.2.0 -  RELEASE  -
|  1> # ORCA input file
|  2> # SCF done       -187.651793303763          0.000956440480
|  3> ! CAM-B3LYP def2-SVP def2/J RIJCOSX Grid4 TightSCF
|  4> %maxcore 5000
|  5> %tddft
|  6>     Mode sTDDFT
|  7>     Ethresh 5.0
|  8>     maxcore 5000
|  9> end
| 10>
| 11> %pal
| 12>   nprocs 6
| 13>   end
| 14> * xyz 0 1
| 15>    C       -2.47037        -2.55378         3.50484
| 16>    C       -2.16346        -1.85073         4.65703
| 17>    C       -2.87555        -2.14396         5.82300
| 18>    C       -2.57547        -1.43361         7.01197
| 19>    N       -2.32123        -0.85555         7.96681
| 20>    C       -3.88591        -3.12486         5.83969
| 21>    C       -4.58731        -3.38774         7.04147
| 22>    N       -5.15630        -3.60773         8.01034
| 23>    C       -4.19212        -3.83501         4.67728
| 24>    C       -3.47681        -3.53819         3.53693
| 25>    C       -3.60279        -4.14594         2.19814
| 26>    O       -4.30645        -5.09591         1.90913
| 27>    C       -2.68772        -3.40242         1.32601
| 28>    C       -1.93310        -2.47438         2.14341
| 29>    C       -0.88731        -1.67969         1.75268
| 30>    C       -0.18533        -0.81377         2.61912
| 31>    N        0.42603        -0.09697         3.27408
| 32>    C       -0.34447        -1.62412         0.45077
| 33>    N        0.15296        -1.52574        -0.57929
| 34>    C       -2.62615        -3.51543        -0.04388
| 35>    C       -3.38085        -4.32900        -0.89390
| 36>    C       -3.33805        -4.24544        -2.28885
| 37>    S       -2.43011        -3.22925        -3.34329
| 38>    C       -3.22372        -3.94752        -4.73121
| 39>    C       -2.86041        -3.48147        -6.09171
| 40>    C       -4.12559        -4.90184        -4.38818
| 41>    C       -4.21151        -5.10685        -2.98646
| 42>    C       -4.97246        -5.89306        -2.10274
| 43>    S       -4.57848        -5.51927        -0.44106
| 44>    C       -5.93487        -6.90770        -2.33034
| 45>    C       -6.75127        -7.33908        -1.24704
| 46>    C       -7.63992        -8.46366        -1.33188
| 47>    N       -8.28980        -8.86702        -0.23718
| 48>    C       -8.14680        -8.23043         0.90017
| 49>    C       -7.34887        -7.04422         0.95726
| 50>    N       -6.69580        -6.64951        -0.10792
| 51>    C       -7.25599        -6.27485         2.14436
| 52>    N       -7.19095        -5.68068         3.12095
| 53>    C       -8.81431        -8.71013         2.05450
| 54>    N       -9.33721        -9.07114         3.00696
| 55>    C       -7.82438        -9.19985        -2.52777
| 56>    C       -7.07138        -8.73246        -3.63001
| 57>    C       -6.14684        -7.61797        -3.53814
| 58>    N       -5.53355        -7.40789        -4.70029
| 59>    S       -6.05275        -8.46111        -5.79231
| 60>    N       -7.08082        -9.25692        -4.85071
| 61>    C       -8.66712       -10.33720        -2.54527
| 62>    C       -8.94061       -11.24947        -3.56345
| 63>    S       -8.39049       -11.43884        -5.18964
| 64>    C       -9.31100       -12.91916        -5.35712
| 65>    C       -9.26922       -13.66240        -6.63909
| 66>    C      -10.01803       -13.23125        -4.24068
| 67>    C       -9.85088       -12.27600        -3.20749
| 68>    C      -10.32794       -12.13750        -1.89958
| 69>    S       -9.54803       -10.78290        -1.10771
| 70>    C      -11.25442       -12.89154        -1.17023
| 71>    C      -12.25022       -13.72826        -1.60876
| 72>    C      -12.79948       -14.74085        -0.67303
| 73>    O      -12.59932       -14.82638         0.51495
| 74>    C      -13.60100       -15.65621        -1.52215
| 75>    C      -14.23279       -16.82735        -1.16549
| 76>    C      -14.90403       -17.54243        -2.16012
| 77>    C      -14.92353       -17.06355        -3.48340
| 78>    C      -14.29001       -15.86769        -3.83084
| 79>    C      -13.62751       -15.16298        -2.84153
| 80>    C      -12.89711       -13.89261        -2.88294
| 81>    C      -13.00843       -12.95333        -3.87991
| 82>    C      -12.53460       -11.63138        -3.77193
| 83>    N      -12.21261       -10.53046        -3.72305
| 84>    C      -13.67044       -13.17611        -5.10337
| 85>    N      -14.16013       -13.32345        -6.13104
| 86>    C      -15.59092       -17.81121        -4.48498
| 87>    N      -16.12376       -18.40601        -5.30539
| 88>    C      -15.55839       -18.75594        -1.83897
| 89>    N      -16.07872       -19.73754        -1.56143
| 90>    H       -1.40254        -1.08727         4.68565
| 91>    H       -4.96903        -4.58493         4.66315
| 92>    H       -1.93345        -2.86650        -0.56782
| 93>    H       -3.02075        -2.40780        -6.18434
| 94>    H       -3.46120        -3.99580        -6.83719
| 95>    H       -1.80676        -3.67487        -6.29198
| 96>    H       -4.70489        -5.45269        -5.10286
| 97>    H       -8.24393       -13.76227        -6.99055
| 98>    H       -9.83061       -13.12385        -7.40321
| 99>    H       -9.70714       -14.65071        -6.52214
|100>    H      -10.60385       -14.12730        -4.14690
|101>    H      -11.15190       -12.84465        -0.08957
|102>    H      -14.20691       -17.18324        -0.14681
|103>    H      -14.32403       -15.53173        -4.85534
|104> *
|105>
|106>                          ****END OF INPUT****

CARTESIAN COORDINATES (ANGSTROEM)
---------------------------------
  C     -2.470370   -2.553780    3.504840
  C     -2.163460   -1.850730    4.657030
  C     -2.875550   -2.143960    5.823000
  C     -2.575470   -1.433610    7.011970
  N     -2.321230   -0.855550    7.966810
  C     -3.885910   -3.124860    5.839690
  C     -4.587310   -3.387740    7.041470
  N     -5.156300   -3.607730    8.010340
  C     -4.192120   -3.835010    4.677280
  C     -3.476810   -3.538190    3.536930
  C     -3.602790   -4.145940    2.198140
  O     -4.306450   -5.095910    1.909130
  C     -2.687720   -3.402420    1.326010
  C     -1.933100   -2.474380    2.143410
  C     -0.887310   -1.679690    1.752680
  C     -0.185330   -0.813770    2.619120
  N      0.426030   -0.096970    3.274080
  C     -0.344470   -1.624120    0.450770
  N      0.152960   -1.525740   -0.579290
  C     -2.626150   -3.515430   -0.043880
  C     -3.380850   -4.329000   -0.893900
  C     -3.338050   -4.245440   -2.288850
  S     -2.430110   -3.229250   -3.343290
  C     -3.223720   -3.947520   -4.731210
  C     -2.860410   -3.481470   -6.091710
  C     -4.125590   -4.901840   -4.388180
  C     -4.211510   -5.106850   -2.986460
  C     -4.972460   -5.893060   -2.102740
  S     -4.578480   -5.519270   -0.441060
  C     -5.934870   -6.907700   -2.330340
  C     -6.751270   -7.339080   -1.247040
  C     -7.639920   -8.463660   -1.331880
  N     -8.289800   -8.867020   -0.237180
  C     -8.146800   -8.230430    0.900170
  C     -7.348870   -7.044220    0.957260
  N     -6.695800   -6.649510   -0.107920
  C     -7.255990   -6.274850    2.144360
  N     -7.190950   -5.680680    3.120950
  C     -8.814310   -8.710130    2.054500
  N     -9.337210   -9.071140    3.006960
  C     -7.824380   -9.199850   -2.527770
  C     -7.071380   -8.732460   -3.630010
  C     -6.146840   -7.617970   -3.538140
  N     -5.533550   -7.407890   -4.700290
  S     -6.052750   -8.461110   -5.792310
  N     -7.080820   -9.256920   -4.850710
  C     -8.667120  -10.337200   -2.545270
  C     -8.940610  -11.249470   -3.563450
  S     -8.390490  -11.438840   -5.189640
  C     -9.311000  -12.919160   -5.357120
  C     -9.269220  -13.662400   -6.639090
  C    -10.018030  -13.231250   -4.240680
  C     -9.850880  -12.276000   -3.207490
  C    -10.327940  -12.137500   -1.899580
  S     -9.548030  -10.782900   -1.107710
  C    -11.254420  -12.891540   -1.170230
  C    -12.250220  -13.728260   -1.608760
  C    -12.799480  -14.740850   -0.673030
  O    -12.599320  -14.826380    0.514950
  C    -13.601000  -15.656210   -1.522150
  C    -14.232790  -16.827350   -1.165490
  C    -14.904030  -17.542430   -2.160120
  C    -14.923530  -17.063550   -3.483400
  C    -14.290010  -15.867690   -3.830840
  C    -13.627510  -15.162980   -2.841530
  C    -12.897110  -13.892610   -2.882940
  C    -13.008430  -12.953330   -3.879910
  C    -12.534600  -11.631380   -3.771930
  N    -12.212610  -10.530460   -3.723050
  C    -13.670440  -13.176110   -5.103370
  N    -14.160130  -13.323450   -6.131040
  C    -15.590920  -17.811210   -4.484980
  N    -16.123760  -18.406010   -5.305390
  C    -15.558390  -18.755940   -1.838970
  N    -16.078720  -19.737540   -1.561430
  H     -1.402540   -1.087270    4.685650
  H     -4.969030   -4.584930    4.663150
  H     -1.933450   -2.866500   -0.567820
  H     -3.020750   -2.407800   -6.184340
  H     -3.461200   -3.995800   -6.837190
  H     -1.806760   -3.674870   -6.291980
  H     -4.704890   -5.452690   -5.102860
  H     -8.243930  -13.762270   -6.990550
  H     -9.830610  -13.123850   -7.403210
  H     -9.707140  -14.650710   -6.522140
  H    -10.603850  -14.127300   -4.146900
  H    -11.151900  -12.844650   -0.089570
  H    -14.206910  -17.183240   -0.146810
  H    -14.324030  -15.531730   -4.855340

 Total Charge           Charge          ....    0
 Multiplicity           Mult            ....    1
 Number of Electrons    NEL             ....  532
 Basis Dimension        Dim             .... 1140

ORBITAL ENERGIES
----------------

  NO   OCC          E(Eh)            E(eV)
   0   2.0000     -89.074388     -2423.8373
   1   2.0000     -88.986380     -2421.4425
   2   2.0000     -88.985858     -2421.4283
   3   2.0000     -88.977699     -2421.2063
   4   2.0000     -88.976791     -2421.1816
   5   2.0000     -19.247271      -523.7449
   6   2.0000     -19.236191      -523.4434
   7   2.0000     -14.490238      -394.2994
   8   2.0000     -14.488431      -394.2502
   9   2.0000     -14.483744      -394.1227
  10   2.0000     -14.482569      -394.0907
  11   2.0000     -14.451314      -393.2402
  12   2.0000     -14.450298      -393.2126
  13   2.0000     -14.438132      -392.8816
  14   2.0000     -14.433956      -392.7679
  15   2.0000     -14.433041      -392.7430
  16   2.0000     -14.429749      -392.6534
  17   2.0000     -14.428805      -392.6278
  18   2.0000     -14.428431      -392.6176
  19   2.0000     -14.426991      -392.5784
  20   2.0000     -14.426588      -392.5674
  21   2.0000     -10.410707      -283.2897
  22   2.0000     -10.407594      -283.2050
  23   2.0000     -10.394763      -282.8559
  24   2.0000     -10.386596      -282.6336
  25   2.0000     -10.377450      -282.3848
  26   2.0000     -10.377125      -282.3759
  27   2.0000     -10.376610      -282.3619
  28   2.0000     -10.376500      -282.3589
  29   2.0000     -10.367691      -282.1192
  30   2.0000     -10.364655      -282.0366
  31   2.0000     -10.362622      -281.9813
  32   2.0000     -10.360632      -281.9271
  33   2.0000     -10.359846      -281.9057
  34   2.0000     -10.359070      -281.8846
  35   2.0000     -10.358859      -281.8789
  36   2.0000     -10.358267      -281.8628
  37   2.0000     -10.353751      -281.7399
  38   2.0000     -10.350641      -281.6553
  39   2.0000     -10.350123      -281.6412
  40   2.0000     -10.345216      -281.5076
  41   2.0000     -10.344187      -281.4796
  42   2.0000     -10.343892      -281.4716
  43   2.0000     -10.343767      -281.4682
  44   2.0000     -10.340997      -281.3928
  45   2.0000     -10.340627      -281.3828
  46   2.0000     -10.339609      -281.3551
  47   2.0000     -10.336504      -281.2706
  48   2.0000     -10.335964      -281.2559
  49   2.0000     -10.335614      -281.2464
  50   2.0000     -10.335173      -281.2344
  51   2.0000     -10.335107      -281.2326
  52   2.0000     -10.334240      -281.2090
  53   2.0000     -10.334145      -281.2064
  54   2.0000     -10.333980      -281.2019
  55   2.0000     -10.332340      -281.1573
  56   2.0000     -10.332313      -281.1565
  57   2.0000     -10.331396      -281.1316
  58   2.0000     -10.330161      -281.0980
  59   2.0000     -10.329323      -281.0752
  60   2.0000     -10.329261      -281.0735
  61   2.0000     -10.325632      -280.9747
  62   2.0000     -10.325263      -280.9647
  63   2.0000     -10.325124      -280.9609
  64   2.0000     -10.324755      -280.9509
  65   2.0000     -10.323322      -280.9119
  66   2.0000     -10.322985      -280.9027
  67   2.0000     -10.322131      -280.8795
  68   2.0000     -10.316479      -280.7257
  69   2.0000     -10.314962      -280.6844
  70   2.0000     -10.314943      -280.6839
  71   2.0000     -10.298087      -280.2252
  72   2.0000     -10.296892      -280.1927
  73   2.0000     -10.296005      -280.1685
  74   2.0000     -10.289732      -279.9978
  75   2.0000      -8.165477      -222.1939
  76   2.0000      -8.079604      -219.8572
  77   2.0000      -8.077927      -219.8116
  78   2.0000      -8.072724      -219.6700
  79   2.0000      -8.071923      -219.6482
  80   2.0000      -6.136564      -166.9844
  81   2.0000      -6.128819      -166.7737
  82   2.0000      -6.128189      -166.7565
  83   2.0000      -6.049288      -164.6095
  84   2.0000      -6.047479      -164.5603
  85   2.0000      -6.044593      -164.4817
  86   2.0000      -6.042802      -164.4330
  87   2.0000      -6.042289      -164.4190
  88   2.0000      -6.041708      -164.4032
  89   2.0000      -6.041459      -164.3965
  90   2.0000      -6.039794      -164.3512
  91   2.0000      -6.038003      -164.3024
  92   2.0000      -6.037130      -164.2787
  93   2.0000      -6.034306      -164.2018
  94   2.0000      -6.033383      -164.1767
  95   2.0000      -1.173362       -31.9288
  96   2.0000      -1.163263       -31.6540
  97   2.0000      -1.152494       -31.3610
  98   2.0000      -1.151623       -31.3372
  99   2.0000      -1.079824       -29.3835
 100   2.0000      -1.045393       -28.4466
 101   2.0000      -1.044467       -28.4214
 102   2.0000      -1.040377       -28.3101
 103   2.0000      -1.037984       -28.2450
 104   2.0000      -1.032454       -28.0945
 105   2.0000      -1.030818       -28.0500
 106   2.0000      -1.028201       -27.9788
 107   2.0000      -1.024445       -27.8766
 108   2.0000      -1.023058       -27.8388
 109   2.0000      -1.014446       -27.6045
 110   2.0000      -1.012520       -27.5521
 111   2.0000      -1.011734       -27.5307
 112   2.0000      -1.009305       -27.4646
 113   2.0000      -1.008012       -27.4294
 114   2.0000      -1.005983       -27.3742
 115   2.0000      -1.005138       -27.3512
 116   2.0000      -0.981852       -26.7175
 117   2.0000      -0.980365       -26.6771
 118   2.0000      -0.974666       -26.5220
 119   2.0000      -0.969365       -26.3778
 120   2.0000      -0.940884       -25.6027
 121   2.0000      -0.937209       -25.5028
 122   2.0000      -0.930051       -25.3080
 123   2.0000      -0.926173       -25.2025
 124   2.0000      -0.923952       -25.1420
 125   2.0000      -0.907188       -24.6858
 126   2.0000      -0.904396       -24.6099
 127   2.0000      -0.902895       -24.5690
 128   2.0000      -0.883333       -24.0367
 129   2.0000      -0.876593       -23.8533
 130   2.0000      -0.870486       -23.6871
 131   2.0000      -0.867888       -23.6164
 132   2.0000      -0.861821       -23.4513
 133   2.0000      -0.843445       -22.9513
 134   2.0000      -0.841199       -22.8902
 135   2.0000      -0.832949       -22.6657
 136   2.0000      -0.817667       -22.2499
 137   2.0000      -0.811868       -22.0920
 138   2.0000      -0.809077       -22.0161
 139   2.0000      -0.801267       -21.8036
 140   2.0000      -0.797621       -21.7044
 141   2.0000      -0.784650       -21.3514
 142   2.0000      -0.769822       -20.9479
 143   2.0000      -0.760275       -20.6881
 144   2.0000      -0.754444       -20.5295
 145   2.0000      -0.752946       -20.4887
 146   2.0000      -0.736550       -20.0425
 147   2.0000      -0.731404       -19.9025
 148   2.0000      -0.726611       -19.7721
 149   2.0000      -0.717223       -19.5166
 150   2.0000      -0.711451       -19.3596
 151   2.0000      -0.707683       -19.2570
 152   2.0000      -0.694242       -18.8913
 153   2.0000      -0.689130       -18.7522
 154   2.0000      -0.686462       -18.6796
 155   2.0000      -0.678538       -18.4639
 156   2.0000      -0.666451       -18.1351
 157   2.0000      -0.662668       -18.0321
 158   2.0000      -0.658883       -17.9291
 159   2.0000      -0.656701       -17.8697
 160   2.0000      -0.655280       -17.8311
 161   2.0000      -0.654495       -17.8097
 162   2.0000      -0.653452       -17.7813
 163   2.0000      -0.645736       -17.5714
 164   2.0000      -0.636865       -17.3300
 165   2.0000      -0.626243       -17.0409
 166   2.0000      -0.622439       -16.9374
 167   2.0000      -0.614889       -16.7320
 168   2.0000      -0.610400       -16.6098
 169   2.0000      -0.603155       -16.4127
 170   2.0000      -0.601374       -16.3642
 171   2.0000      -0.600323       -16.3356
 172   2.0000      -0.593269       -16.1437
 173   2.0000      -0.586994       -15.9729
 174   2.0000      -0.578052       -15.7296
 175   2.0000      -0.570838       -15.5333
 176   2.0000      -0.569787       -15.5047
 177   2.0000      -0.568535       -15.4706
 178   2.0000      -0.566201       -15.4071
 179   2.0000      -0.564072       -15.3492
 180   2.0000      -0.561639       -15.2830
 181   2.0000      -0.559855       -15.2344
 182   2.0000      -0.556090       -15.1320
 183   2.0000      -0.549483       -14.9522
 184   2.0000      -0.547995       -14.9117
 185   2.0000      -0.544060       -14.8046
 186   2.0000      -0.542925       -14.7738
 187   2.0000      -0.533237       -14.5101
 188   2.0000      -0.531508       -14.4631
 189   2.0000      -0.527836       -14.3631
 190   2.0000      -0.527184       -14.3454
 191   2.0000      -0.525581       -14.3018
 192   2.0000      -0.524100       -14.2615
 193   2.0000      -0.522700       -14.2234
 194   2.0000      -0.520857       -14.1733
 195   2.0000      -0.520075       -14.1520
 196   2.0000      -0.516948       -14.0669
 197   2.0000      -0.513392       -13.9701
 198   2.0000      -0.511807       -13.9270
 199   2.0000      -0.510080       -13.8800
 200   2.0000      -0.508011       -13.8237
 201   2.0000      -0.503442       -13.6994
 202   2.0000      -0.498813       -13.5734
 203   2.0000      -0.494610       -13.4590
 204   2.0000      -0.492908       -13.4127
 205   2.0000      -0.491277       -13.3683
 206   2.0000      -0.488244       -13.2858
 207   2.0000      -0.483025       -13.1438
 208   2.0000      -0.480175       -13.0662
 209   2.0000      -0.477771       -13.0008
 210   2.0000      -0.476055       -12.9541
 211   2.0000      -0.473682       -12.8895
 212   2.0000      -0.471306       -12.8249
 213   2.0000      -0.468349       -12.7444
 214   2.0000      -0.466886       -12.7046
 215   2.0000      -0.465062       -12.6550
 216   2.0000      -0.463024       -12.5995
 217   2.0000      -0.461502       -12.5581
 218   2.0000      -0.461148       -12.5485
 219   2.0000      -0.460134       -12.5209
 220   2.0000      -0.458437       -12.4747
 221   2.0000      -0.455151       -12.3853
 222   2.0000      -0.454552       -12.3690
 223   2.0000      -0.454311       -12.3624
 224   2.0000      -0.452986       -12.3264
 225   2.0000      -0.452627       -12.3166
 226   2.0000      -0.451951       -12.2982
 227   2.0000      -0.450739       -12.2652
 228   2.0000      -0.450273       -12.2526
 229   2.0000      -0.448426       -12.2023
 230   2.0000      -0.447471       -12.1763
 231   2.0000      -0.446949       -12.1621
 232   2.0000      -0.445776       -12.1302
 233   2.0000      -0.445263       -12.1162
 234   2.0000      -0.442643       -12.0449
 235   2.0000      -0.441409       -12.0114
 236   2.0000      -0.439136       -11.9495
 237   2.0000      -0.436214       -11.8700
 238   2.0000      -0.434776       -11.8309
 239   2.0000      -0.433473       -11.7954
 240   2.0000      -0.428743       -11.6667
 241   2.0000      -0.428172       -11.6512
 242   2.0000      -0.426471       -11.6049
 243   2.0000      -0.425225       -11.5710
 244   2.0000      -0.422947       -11.5090
 245   2.0000      -0.420658       -11.4467
 246   2.0000      -0.417814       -11.3693
 247   2.0000      -0.401429       -10.9234
 248   2.0000      -0.395915       -10.7734
 249   2.0000      -0.390306       -10.6208
 250   2.0000      -0.386802       -10.5254
 251   2.0000      -0.376723       -10.2511
 252   2.0000      -0.373990       -10.1768
 253   2.0000      -0.371022       -10.0960
 254   2.0000      -0.369643       -10.0585
 255   2.0000      -0.359964        -9.7951
 256   2.0000      -0.356249        -9.6940
 257   2.0000      -0.353314        -9.6142
 258   2.0000      -0.348322        -9.4783
 259   2.0000      -0.344557        -9.3759
 260   2.0000      -0.336191        -9.1482
 261   2.0000      -0.329752        -8.9730
 262   2.0000      -0.319747        -8.7008
 263   2.0000      -0.316095        -8.6014
 264   2.0000      -0.297767        -8.1027
 265   2.0000      -0.258192        -7.0258
 266   0.0000      -0.161677        -4.3995
 267   0.0000      -0.112100        -3.0504
 268   0.0000      -0.107191        -2.9168
 269   0.0000      -0.096092        -2.6148
 270   0.0000      -0.093631        -2.5478

MULLIKEN ATOMIC CHARGES
-----------------------
   0 C :    0.050365
   1 C :   -0.048830
   2 C :   -0.059686
   3 C :   -0.176784
   4 N :    0.202115
   5 C :   -0.064849
   6 C :   -0.172448
   7 N :    0.200240
   8 C :   -0.029377
   9 C :   -0.000320
  10 C :    0.171941
  11 O :   -0.164636
  12 C :   -0.095720
  13 C :    0.315230
  14 C :   -0.333410
  15 C :   -0.189456
  16 N :    0.172011
  17 C :   -0.189917
  18 N :    0.160554
  19 C :   -0.038008
  20 C :   -0.061457
  21 C :   -0.071462
  22 S :    0.146867
  23 C :   -0.201744
  24 C :    0.119442
  25 C :    0.005533
  26 C :    0.151446
  27 C :   -0.177265
  28 S :    0.217147
  29 C :    0.156409
  30 C :   -0.049890
  31 C :   -0.051874
  32 N :   -0.005465
  33 C :   -0.079211
  34 C :   -0.115601
  35 N :   -0.002137
  36 C :   -0.200328
  37 N :    0.248990
  38 C :   -0.243005
  39 N :    0.260152
  40 C :    0.185036
  41 C :    0.016271
  42 C :    0.003185
  43 N :   -0.289549
  44 S :    0.568688
  45 N :   -0.318153
  46 C :   -0.212586
  47 C :   -0.033094
  48 S :    0.159060
  49 C :   -0.187245
  50 C :    0.118691
  51 C :    0.007404
  52 C :    0.112470
  53 C :   -0.114216
  54 S :    0.201929
  55 C :    0.074050
  56 C :   -0.147042
  57 C :    0.139568
  58 O :   -0.123226
  59 C :    0.011473
  60 C :   -0.036918
  61 C :   -0.074060
  62 C :   -0.059220
  63 C :   -0.049759
  64 C :    0.040921
  65 C :    0.260858
  66 C :   -0.341158
  67 C :   -0.188707
  68 N :    0.173789
  69 C :   -0.182158
  70 N :    0.164038
  71 C :   -0.175273
  72 N :    0.200364
  73 C :   -0.173316
  74 N :    0.198982
  75 H :    0.021683
  76 H :    0.020108
  77 H :    0.013208
  78 H :    0.042553
  79 H :    0.024910
  80 H :    0.044526
  81 H :   -0.024633
  82 H :    0.033867
  83 H :    0.055653
  84 H :    0.030578
  85 H :   -0.017037
  86 H :    0.032061
  87 H :    0.017604
  88 H :    0.018263
Sum of atomic charges:   -0.0000000

LOEWDIN ATOMIC CHARGES
----------------------
   0 C :    0.001914
   1 C :    0.032586
   2 C :   -0.023418
   3 C :   -0.031521
   4 N :   -0.011290
   5 C :   -0.026945
   6 C :   -0.031316
   7 N :   -0.011370
   8 C :    0.053326
   9 C :   -0.028831
  10 C :    0.085528
  11 O :   -0.148916
  12 C :   -0.101326
  13 C :    0.068194
  14 C :   -0.124608
  15 C :   -0.022213
  16 N :   -0.034295
  17 C :   -0.021688
  18 N :   -0.037646
  19 C :    0.053043
  20 C :   -0.201056
  21 C :   -0.170500
  22 S :    0.423279
  23 C :   -0.140436
  24 C :   -0.057921
  25 C :   -0.067992
  26 C :   -0.060107
  27 C :   -0.150237
  28 S :    0.565766
  29 C :   -0.039779
  30 C :   -0.004247
  31 C :   -0.007096
  32 N :   -0.018251
  33 C :   -0.009927
  34 C :   -0.018183
  35 N :   -0.010628
  36 C :   -0.027837
  37 N :   -0.002235
  38 C :   -0.039818
  39 N :    0.012096
  40 C :   -0.042613
  41 C :   -0.031126
  42 C :   -0.033690
  43 N :   -0.262162
  44 S :    0.685153
  45 N :   -0.285707
  46 C :   -0.155376
  47 C :   -0.170828
  48 S :    0.452428
  49 C :   -0.130927
  50 C :   -0.057242
  51 C :   -0.079404
  52 C :   -0.047600
  53 C :   -0.180904
  54 S :    0.507533
  55 C :    0.048639
  56 C :   -0.100771
  57 C :    0.081513
  58 O :   -0.126123
  59 C :   -0.031498
  60 C :    0.048626
  61 C :   -0.031542
  62 C :   -0.024097
  63 C :    0.026068
  64 C :    0.005384
  65 C :    0.047962
  66 C :   -0.127486
  67 C :   -0.014221
  68 N :   -0.041724
  69 C :   -0.023277
  70 N :   -0.044315
  71 C :   -0.031401
  72 N :   -0.013280
  73 C :   -0.032408
  74 N :   -0.015187
  75 H :    0.052224
  76 H :    0.056121
  77 H :    0.046415
  78 H :    0.042408
  79 H :    0.040141
  80 H :    0.043328
  81 H :    0.021251
  82 H :    0.039489
  83 H :    0.049605
  84 H :    0.042356
  85 H :    0.028779
  86 H :    0.049881
  87 H :    0.054584
  88 H :    0.050917

  Mayer bond orders larger than 0.100000
B(  0-C ,  1-C ) :   1.3623 B(  0-C ,  9-C ) :   1.3305 B(  0-C , 13-C ) :   0.9556
B(  1-C ,  2-C ) :   1.3865 B(  1-C , 75-H ) :   0.9882 B(  2-C ,  3-C ) :   1.0890
B(  2-C ,  5-C ) :   1.4040 B(  3-C ,  4-N ) :   3.0436 B(  5-C ,  6-C ) :   1.0887
B(  5-C ,  8-C ) :   1.3516 B(  6-C ,  7-N ) :   3.0416 B(  8-C ,  9-C ) :   1.3664
B(  8-C , 76-H ) :   1.0135 B(  9-C , 10-C ) :   0.9408 B( 10-C , 11-O ) :   2.1149
B( 10-C , 12-C ) :   0.9828 B( 12-C , 13-C ) :   1.0863 B( 12-C , 19-C ) :   1.4979
B( 13-C , 14-C ) :   1.6412 B( 14-C , 15-C ) :   1.1494 B( 14-C , 17-C ) :   1.1454
B( 15-C , 16-N ) :   2.9622 B( 17-C , 18-N ) :   2.9618 B( 19-C , 20-C ) :   1.2897
B( 19-C , 77-H ) :   0.9421 B( 20-C , 21-C ) :   1.3472 B( 20-C , 28-S ) :   1.0779
B( 21-C , 22-S ) :   1.0958 B( 21-C , 26-C ) :   1.2923 B( 22-S , 23-C ) :   1.0816
B( 23-C , 24-C ) :   1.0696 B( 23-C , 25-C ) :   1.6319 B( 24-C , 78-H ) :   0.9478
B( 24-C , 79-H ) :   0.9558 B( 24-C , 80-H ) :   0.9474 B( 25-C , 26-C ) :   1.1842
B( 25-C , 81-H ) :   0.9828 B( 26-C , 27-C ) :   1.2723 B( 27-C , 28-S ) :   1.1123
B( 27-C , 29-C ) :   1.2432 B( 29-C , 30-C ) :   1.2207 B( 29-C , 40-C ) :   0.1101
B( 29-C , 42-C ) :   1.1820 B( 30-C , 31-C ) :   1.1377 B( 30-C , 35-N ) :   1.4058
B( 31-C , 32-N ) :   1.3980 B( 31-C , 40-C ) :   1.2343 B( 32-N , 33-C ) :   1.6836
B( 33-C , 34-C ) :   1.2223 B( 33-C , 38-C ) :   1.1635 B( 34-C , 35-N ) :   1.6760
B( 34-C , 36-C ) :   1.1753 B( 36-C , 37-N ) :   3.0023 B( 38-C , 39-N ) :   3.0392
B( 40-C , 41-C ) :   1.1750 B( 40-C , 46-C ) :   1.2144 B( 41-C , 42-C ) :   1.0943
B( 41-C , 45-N ) :   1.4964 B( 42-C , 43-N ) :   1.5243 B( 43-N , 44-S ) :   1.2760
B( 43-N , 45-N ) :   0.1417 B( 44-S , 45-N ) :   1.2651 B( 46-C , 47-C ) :   1.4502
B( 46-C , 54-S ) :   1.1560 B( 47-C , 48-S ) :   1.0757 B( 47-C , 52-C ) :   1.2659
B( 48-S , 49-C ) :   1.0757 B( 49-C , 50-C ) :   1.0738 B( 49-C , 51-C ) :   1.6185
B( 50-C , 82-H ) :   0.9450 B( 50-C , 83-H ) :   0.9447 B( 50-C , 84-H ) :   0.9559
B( 51-C , 52-C ) :   1.1795 B( 51-C , 85-H ) :   0.9845 B( 52-C , 53-C ) :   1.3192
B( 53-C , 54-S ) :   1.0422 B( 53-C , 55-C ) :   1.2111 B( 55-C , 56-C ) :   1.5646
B( 55-C , 86-H ) :   0.9293 B( 56-C , 57-C ) :   0.9556 B( 56-C , 65-C ) :   1.0875
B( 57-C , 58-O ) :   2.2829 B( 57-C , 59-C ) :   0.8946 B( 59-C , 60-C ) :   1.3730
B( 59-C , 64-C ) :   1.3361 B( 60-C , 61-C ) :   1.3558 B( 60-C , 87-H ) :   1.0154
B( 61-C , 62-C ) :   1.4102 B( 61-C , 73-C ) :   1.0877 B( 62-C , 63-C ) :   1.3811
B( 62-C , 71-C ) :   1.0851 B( 63-C , 64-C ) :   1.3646 B( 63-C , 88-H ) :   0.9906
B( 64-C , 65-C ) :   0.9713 B( 65-C , 66-C ) :   1.6275 B( 66-C , 67-C ) :   1.1665
B( 66-C , 69-C ) :   1.1409 B( 67-C , 68-N ) :   2.9991 B( 69-C , 70-N ) :   2.9723
B( 71-C , 72-N ) :   3.0448 B( 73-C , 74-N ) :   3.0449

-----------------------------------------------------------------------------
         ABSORPTION SPECTRUM VIA TRANSITION ELECTRIC DIPOLE MOMENTS
-----------------------------------------------------------------------------
State   Energy  Wavelength   fosc         T2         TX        TY        TZ
        (cm-1)    (nm)                  (au**2)     (au)      (au)      (au)
-----------------------------------------------------------------------------
   0    6296.3   1588.2   0.551522155  28.83729   3.53448   3.87448   1.15462
   1   14464.9    691.3   0.007045157   0.16034   0.20292   0.09146  -0.33287
   2   16372.1    610.8   0.025503012   0.51282   0.43133   0.37140  -0.43455
   3   17676.7    565.7   0.591776670  11.02125   2.29595   1.98700   1.34227
   4   17814.5    561.3   0.062388130   1.15293  -0.03975  -0.39965  -0.99581
   5   18053.2    553.9   0.017174782   0.31319   0.55112   0.09661  -0.01117
   6   20615.1    485.1   0.039239132   0.62663   0.24159   0.15818   0.73705
   7   20686.6    483.4   0.002325105   0.03700  -0.05664   0.13539   0.12435
   8   21457.4    466.0   0.142032107   2.17914  -0.83344  -1.20517  -0.17914
   9   22050.0    453.5   0.017708283   0.26439   0.45133  -0.06942   0.23637
  10   23240.6    430.3   0.018105548   0.25647  -0.27750  -0.03689   0.42202
  11   23968.7    417.2   0.124333418   1.70773  -0.80665  -0.52845   0.88193
  12   24518.8    407.8   0.043481309   0.58382  -0.03804   0.41868   0.63803
  13   24956.2    400.7   0.038253655   0.50463  -0.02375  -0.14724  -0.69454
  14   25161.2    397.4   0.037581422   0.49172  -0.59741  -0.17194  -0.32443
  15   26736.8    374.0   0.009698125   0.11941  -0.30525   0.09464  -0.13146
  16   26926.4    371.4   0.052757393   0.64503  -0.47273   0.20165   0.61717
  17   27214.7    367.4   0.023145277   0.27999   0.27191   0.40282   0.20926
  18   27766.2    360.1   0.112010222   1.32806   0.29676   0.38224  -1.04589
  19   27883.1    358.6   0.021417954   0.25288  -0.11944  -0.19588  -0.44749
  20   28311.0    353.2   0.041639281   0.48420  -0.46146  -0.49423  -0.16430
  21   28726.5    348.1   0.018433538   0.21125  -0.22439  -0.34808   0.19936
  22   28934.8    345.6   0.043684977   0.49704   0.00357   0.70466  -0.02197
  23   29014.4    344.7   0.212127631   2.40690   0.16570   0.56570   1.43507
  24   29816.7    335.4   0.062462663   0.68966   0.18710   0.16574  -0.79195
  25   30240.7    330.7   0.168438407   1.83369  -0.11756   0.78522   1.09695
  26   30434.1    328.6   0.412093700   4.45770  -0.94032  -0.66668   1.76891
  27   30812.5    324.5   0.144903762   1.54820   0.67881   0.99979   0.29640
  28   31053.6    322.0   0.046441583   0.49235  -0.45059   0.16041   0.51341
  29   31307.9    319.4   0.050027866   0.52606   0.13908   0.40301   0.58677
  30   31411.6    318.4   0.113126903   1.18564   0.10540   0.30351  -1.04039
  31   31725.6    315.2   0.000304924   0.00316  -0.00285   0.05143   0.02260
  32   31926.4    313.2   0.025047564   0.25828   0.10904  -0.35203   0.34995
  33   32263.9    309.9   0.015116091   0.15424  -0.18761  -0.15126   0.31010
  34   32491.5    307.8   0.044634383   0.45225   0.07044  -0.04269   0.66743
  35   32802.4    304.9   0.218742635   2.19535   0.57102   1.31610  -0.37035
  36   33296.5    300.3   0.018534176   0.18325   0.38064   0.19405  -0.02669
  37   33497.5    298.5   0.004364173   0.04289  -0.09281  -0.05727   0.17606
  38   33723.4    296.5   0.079042393   0.77162  -0.58137  -0.49134   0.43843
  39   33874.3    295.2   0.028119644   0.27328   0.38858   0.34469   0.05894
  40   33982.9    294.3   0.137322889   1.33033  -0.63569  -0.62013   0.73598
  41   34113.0    293.1   0.374388923   3.61309   1.09588   0.63670  -1.41660
  42   34599.8    289.0   0.045260421   0.43065  -0.30153  -0.24704  -0.52792
  43   34893.4    286.6   0.038637581   0.36454   0.29948   0.10945  -0.51271
  44   35213.7    284.0   0.021174152   0.19796   0.06175   0.12015  -0.42392
  45   35597.1    280.9   0.102146840   0.94468  -0.26227  -0.33385   0.87433
  46   35944.0    278.2   0.062404359   0.57156   0.46942   0.02796  -0.59197
  47   36198.9    276.3   0.133962215   1.21832   0.56850   0.79810  -0.50811
  48   36284.5    275.6   0.192053119   1.74251  -0.34818  -1.24857  -0.24974
  49   36517.6    273.8   0.049333585   0.44475  -0.01472  -0.61105   0.26674
  50   36779.7    271.9   0.099616035   0.89166   0.64521   0.47141  -0.50312
  51   36862.6    271.3   0.040830054   0.36464   0.27615  -0.08754  -0.52983
  52   37194.0    268.9   0.043659431   0.38644  -0.32820  -0.13199   0.51118
  53   37405.9    267.3   0.019433067   0.17103  -0.09229  -0.14814   0.37492
  54   37515.5    266.6   0.025898489   0.22727  -0.13002  -0.38720  -0.24584
  55   37755.8    264.9   0.093660354   0.81667  -0.01907  -0.01277   0.90341
  56   37833.6    264.3   0.068746153   0.59820   0.23345   0.27433   0.68443
  57   37991.4    263.2   0.025810754   0.22366  -0.05676   0.42295   0.20384
  58   38106.5    262.4   0.014940245   0.12907   0.31698   0.07814  -0.14997
  59   38234.9    261.5   0.024704953   0.21272   0.01366  -0.44990  -0.10060
  60   38373.5    260.6   0.030446362   0.26120  -0.20833   0.41510   0.21329
  61   38826.1    257.6   0.008340159   0.07072  -0.21125  -0.14901   0.06234
  62   39349.3    254.1   0.028454719   0.23806   0.03998  -0.02246  -0.48576
  63   39480.9    253.3   0.212752423   1.77404  -0.45249  -0.91040   0.86050
  64   39692.1    251.9   0.115890248   0.96121  -0.14549  -0.75826  -0.60423
  65   39834.1    251.0   0.202414885   1.67287  -0.53560  -0.42328   1.09857
  66   39998.9    250.0   0.253566176   2.08699   0.06919  -0.23180  -1.42424
  67   40198.4    248.8   0.039966405   0.32731   0.44912   0.20810  -0.28687

FINAL SINGLE POINT ENERGY     -4969.493107554812

DIPOLE MOMENT
-------------
                                X             Y             Z
Electronic contribution:     -1.63619       6.71546      23.39699
Nuclear contribution   :      4.16772      -6.60604     -28.63549
                        -----------------------------------------
Total Dipole Moment    :      2.53153       0.10942      -5.23850
                        -----------------------------------------
Magnitude (a.u.)       :      5.81915
Magnitude (Debye)      :     14.79110

Rotational constants in cm-1:     0.001680     0.000321     0.000274
Rotational constants in MHz :    50.362449     9.638127     8.228843

                             ****ORCA TERMINATED NORMALLY****
TOTAL RUN TIME: 0 days 0 hours 10 minutes 13 seconds 483 msec
