                         Program Version 4.2.0 -  RELEASE  -
|  1> # ORCA input file
|  2> # SCF done       -196.886440426064          0.000735287612
|  3> ! CAM-B3LYP def2-SVP def2/J RIJCOSX Grid4 TightSCF
|  4> %maxcore 5000
|  5> %tddft
|  6>     Mode sTDDFT
|  7>     Ethresh 5.0
|  8>     maxcore 5000
|  9> end
| 10>
| 11> %pal
| 12>   nprocs 6
| 13>   end
| 14> * xyz 0 1
| 15>    C        0.78231         5.92328         0.94260
| 16>    C        1.51148         5.03451         1.68790
| 17>    C        2.92179         5.00131         1.71939
| 18>    N        4.06497         4.92336         1.78517
| 19>    C        0.97040         4.06204         2.55550
| 20>    N        0.60470         3.26061         3.29205
| 21>    C        1.33288         6.98789         0.11260
| 22>    C        0.26458         7.78612        -0.37194
| 23>    C        0.46279         8.87534        -1.18624
| 24>    C        1.77666         9.18922        -1.54637
| 25>    C        2.83673         8.38481        -1.06206
| 26>    C        2.63661         7.28636        -0.23365
| 27>    S        4.37054         8.95156        -1.64066
| 28>    C        3.59787        10.23317        -2.50703
| 29>    C        2.25333        10.24401        -2.37438
| 30>    C       -1.00632         7.24302         0.12560
| 31>    O       -2.11972         7.70120        -0.06886
| 32>    C       -0.66569         6.02924         0.88072
| 33>    C       -1.56051         5.09790         1.33263
| 34>    C       -2.96635         5.10524         1.30582
| 35>    C       -3.71447         3.99238         1.70542
| 36>    C       -5.07579         4.21243         1.61706
| 37>    C       -5.38054         5.52157         1.17464
| 38>    S       -3.99702         6.44919         0.82058
| 39>    C       -6.79295         5.65246         1.13080
| 40>    C       -7.37240         4.43028         1.53124
| 41>    C       -6.31565         3.48740         1.84960
| 42>    C       -6.45848         2.19723         2.26812
| 43>    C       -5.35057         1.36410         2.53240
| 44>    N       -4.45597         0.67834         2.74125
| 45>    C       -7.72493         1.60397         2.45724
| 46>    N       -8.74973         1.11436         2.61436
| 47>    C       -8.76442         4.46117         1.51456
| 48>    C       -9.23615         5.69885         1.11975
| 49>    S       -7.96080         6.84059         0.75783
| 50>    C      -10.59648         6.11411         1.00781
| 51>    N      -10.83705         7.39102         0.75025
| 52>    N      -12.03282         7.88267         0.66408
| 53>    C      -13.12840         7.15116         0.80190
| 54>    C      -13.01008         5.75232         1.04665
| 55>    C      -11.69006         5.21450         1.16853
| 56>    N      -11.70417         3.90669         1.40918
| 57>    S      -13.23017         3.40682         1.47508
| 58>    N      -13.94557         4.82013         1.20270
| 59>    C      -14.38923         7.81346         0.71898
| 60>    C      -15.64696         7.24084         0.75206
| 61>    C      -16.64706         8.20619         0.67292
| 62>    C      -16.13433         9.51655         0.58920
| 63>    S      -14.42769         9.55700         0.58712
| 64>    C      -17.22947        10.41762         0.55261
| 65>    C      -18.42727         9.67850         0.59150
| 66>    C      -18.09921         8.26409         0.66633
| 67>    C      -18.96767         7.21441         0.72037
| 68>    C      -18.52745         5.87549         0.79820
| 69>    N      -18.18099         4.78427         0.85655
| 70>    C      -20.36738         7.39339         0.69111
| 71>    N      -21.50460         7.53201         0.65656
| 72>    C      -19.56126        10.48427         0.56212
| 73>    C      -19.24544        11.83267         0.55518
| 74>    S      -17.50379        12.09683         0.51050
| 75>    C      -20.18198        12.89626         0.51591
| 76>    C      -20.04016        14.19106         0.89787
| 77>    C      -19.04530        14.87698         1.69836
| 78>    C      -18.34028        14.33754         2.74268
| 79>    C      -17.45899        15.07497         3.55901
| 80>    N      -16.72015        15.62811         4.24101
| 81>    C      -18.49837        13.00672         3.18014
| 82>    N      -18.63646        11.94386         3.59179
| 83>    C      -19.16078        16.29967         1.40499
| 84>    C      -20.34628        16.51326         0.65317
| 85>    C      -20.99105        15.21753         0.37767
| 86>    O      -22.03706        15.00671        -0.19036
| 87>    C      -20.76120        17.76841         0.27712
| 88>    C      -19.96782        18.85787         0.64902
| 89>    C      -18.77783        18.63116         1.38340
| 90>    C      -18.36035        17.36360         1.77187
| 91>    S      -17.95569        20.12026         1.72302
| 92>    C      -19.18815        21.01604         0.90453
| 93>    C      -20.17158        20.24330         0.39398
| 94>    H       -0.37095         9.46382        -1.53652
| 95>    H        3.47666         6.70322         0.10473
| 96>    H        4.20844        10.91033        -3.07213
| 97>    H        1.60784        10.96593        -2.84089
| 98>    H       -1.15194         4.18826         1.75711
| 99>    H       -3.25229         3.07936         2.03692
|100>    H       -9.41963         3.64863         1.77121
|101>    H      -15.79501         6.17940         0.83529
|102>    H      -20.57548        10.12864         0.58606
|103>    H      -21.13785        12.65355         0.05952
|104>    H      -21.67298        17.90497        -0.28328
|105>    H      -17.44523        17.23545         2.32639
|106>    H      -19.09810        22.08382         0.85547
|107>    H      -21.01879        20.62536        -0.14610
|108> *
|109>
|110>                          ****END OF INPUT****

CARTESIAN COORDINATES (ANGSTROEM)
---------------------------------
  C      0.782310    5.923280    0.942600
  C      1.511480    5.034510    1.687900
  C      2.921790    5.001310    1.719390
  N      4.064970    4.923360    1.785170
  C      0.970400    4.062040    2.555500
  N      0.604700    3.260610    3.292050
  C      1.332880    6.987890    0.112600
  C      0.264580    7.786120   -0.371940
  C      0.462790    8.875340   -1.186240
  C      1.776660    9.189220   -1.546370
  C      2.836730    8.384810   -1.062060
  C      2.636610    7.286360   -0.233650
  S      4.370540    8.951560   -1.640660
  C      3.597870   10.233170   -2.507030
  C      2.253330   10.244010   -2.374380
  C     -1.006320    7.243020    0.125600
  O     -2.119720    7.701200   -0.068860
  C     -0.665690    6.029240    0.880720
  C     -1.560510    5.097900    1.332630
  C     -2.966350    5.105240    1.305820
  C     -3.714470    3.992380    1.705420
  C     -5.075790    4.212430    1.617060
  C     -5.380540    5.521570    1.174640
  S     -3.997020    6.449190    0.820580
  C     -6.792950    5.652460    1.130800
  C     -7.372400    4.430280    1.531240
  C     -6.315650    3.487400    1.849600
  C     -6.458480    2.197230    2.268120
  C     -5.350570    1.364100    2.532400
  N     -4.455970    0.678340    2.741250
  C     -7.724930    1.603970    2.457240
  N     -8.749730    1.114360    2.614360
  C     -8.764420    4.461170    1.514560
  C     -9.236150    5.698850    1.119750
  S     -7.960800    6.840590    0.757830
  C    -10.596480    6.114110    1.007810
  N    -10.837050    7.391020    0.750250
  N    -12.032820    7.882670    0.664080
  C    -13.128400    7.151160    0.801900
  C    -13.010080    5.752320    1.046650
  C    -11.690060    5.214500    1.168530
  N    -11.704170    3.906690    1.409180
  S    -13.230170    3.406820    1.475080
  N    -13.945570    4.820130    1.202700
  C    -14.389230    7.813460    0.718980
  C    -15.646960    7.240840    0.752060
  C    -16.647060    8.206190    0.672920
  C    -16.134330    9.516550    0.589200
  S    -14.427690    9.557000    0.587120
  C    -17.229470   10.417620    0.552610
  C    -18.427270    9.678500    0.591500
  C    -18.099210    8.264090    0.666330
  C    -18.967670    7.214410    0.720370
  C    -18.527450    5.875490    0.798200
  N    -18.180990    4.784270    0.856550
  C    -20.367380    7.393390    0.691110
  N    -21.504600    7.532010    0.656560
  C    -19.561260   10.484270    0.562120
  C    -19.245440   11.832670    0.555180
  S    -17.503790   12.096830    0.510500
  C    -20.181980   12.896260    0.515910
  C    -20.040160   14.191060    0.897870
  C    -19.045300   14.876980    1.698360
  C    -18.340280   14.337540    2.742680
  C    -17.458990   15.074970    3.559010
  N    -16.720150   15.628110    4.241010
  C    -18.498370   13.006720    3.180140
  N    -18.636460   11.943860    3.591790
  C    -19.160780   16.299670    1.404990
  C    -20.346280   16.513260    0.653170
  C    -20.991050   15.217530    0.377670
  O    -22.037060   15.006710   -0.190360
  C    -20.761200   17.768410    0.277120
  C    -19.967820   18.857870    0.649020
  C    -18.777830   18.631160    1.383400
  C    -18.360350   17.363600    1.771870
  S    -17.955690   20.120260    1.723020
  C    -19.188150   21.016040    0.904530
  C    -20.171580   20.243300    0.393980
  H     -0.370950    9.463820   -1.536520
  H      3.476660    6.703220    0.104730
  H      4.208440   10.910330   -3.072130
  H      1.607840   10.965930   -2.840890
  H     -1.151940    4.188260    1.757110
  H     -3.252290    3.079360    2.036920
  H     -9.419630    3.648630    1.771210
  H    -15.795010    6.179400    0.835290
  H    -20.575480   10.128640    0.586060
  H    -21.137850   12.653550    0.059520
  H    -21.672980   17.904970   -0.283280
  H    -17.445230   17.235450    2.326390
  H    -19.098100   22.083820    0.855470
  H    -21.018790   20.625360   -0.146100

 Total Charge           Charge          ....    0
 Multiplicity           Mult            ....    1
 Number of Electrons    NEL             ....  574
 Basis Dimension        Dim             .... 1204

ORBITAL ENERGIES
----------------

  NO   OCC          E(Eh)            E(eV)
   0   2.0000     -89.058420     -2423.4028
   1   2.0000     -88.999268     -2421.7932
   2   2.0000     -88.996015     -2421.7047
   3   2.0000     -88.994572     -2421.6654
   4   2.0000     -88.993171     -2421.6273
   5   2.0000     -88.971274     -2421.0315
   6   2.0000     -88.970807     -2421.0187
   7   2.0000     -19.228638      -523.2378
   8   2.0000     -19.219510      -522.9895
   9   2.0000     -14.473002      -393.8304
  10   2.0000     -14.472870      -393.8268
  11   2.0000     -14.460202      -393.4821
  12   2.0000     -14.460011      -393.4769
  13   2.0000     -14.433832      -392.7645
  14   2.0000     -14.433763      -392.7627
  15   2.0000     -14.432230      -392.7209
  16   2.0000     -14.431493      -392.7009
  17   2.0000     -14.421162      -392.4198
  18   2.0000     -14.419982      -392.3877
  19   2.0000     -14.418741      -392.3539
  20   2.0000     -14.416941      -392.3049
  21   2.0000     -10.376373      -282.3555
  22   2.0000     -10.370990      -282.2090
  23   2.0000     -10.369741      -282.1750
  24   2.0000     -10.367263      -282.1076
  25   2.0000     -10.357190      -281.8335
  26   2.0000     -10.356883      -281.8251
  27   2.0000     -10.356864      -281.8246
  28   2.0000     -10.355397      -281.7847
  29   2.0000     -10.354873      -281.7704
  30   2.0000     -10.354551      -281.7616
  31   2.0000     -10.349653      -281.6284
  32   2.0000     -10.348737      -281.6035
  33   2.0000     -10.346058      -281.5306
  34   2.0000     -10.345457      -281.5142
  35   2.0000     -10.344773      -281.4956
  36   2.0000     -10.340227      -281.3719
  37   2.0000     -10.338551      -281.3263
  38   2.0000     -10.336493      -281.2703
  39   2.0000     -10.333829      -281.1978
  40   2.0000     -10.333772      -281.1962
  41   2.0000     -10.332861      -281.1714
  42   2.0000     -10.332434      -281.1598
  43   2.0000     -10.331393      -281.1315
  44   2.0000     -10.330660      -281.1115
  45   2.0000     -10.330283      -281.1013
  46   2.0000     -10.329810      -281.0884
  47   2.0000     -10.329663      -281.0844
  48   2.0000     -10.328584      -281.0551
  49   2.0000     -10.325875      -280.9814
  50   2.0000     -10.324783      -280.9516
  51   2.0000     -10.323414      -280.9144
  52   2.0000     -10.322096      -280.8785
  53   2.0000     -10.321102      -280.8515
  54   2.0000     -10.319743      -280.8145
  55   2.0000     -10.318594      -280.7832
  56   2.0000     -10.318030      -280.7679
  57   2.0000     -10.315471      -280.6982
  58   2.0000     -10.315246      -280.6921
  59   2.0000     -10.312804      -280.6257
  60   2.0000     -10.311977      -280.6032
  61   2.0000     -10.310864      -280.5729
  62   2.0000     -10.310663      -280.5674
  63   2.0000     -10.310628      -280.5665
  64   2.0000     -10.308884      -280.5190
  65   2.0000     -10.308838      -280.5177
  66   2.0000     -10.307607      -280.4843
  67   2.0000     -10.307185      -280.4728
  68   2.0000     -10.306956      -280.4665
  69   2.0000     -10.306672      -280.4588
  70   2.0000     -10.305972      -280.4397
  71   2.0000     -10.304885      -280.4102
  72   2.0000     -10.304302      -280.3943
  73   2.0000     -10.304221      -280.3921
  74   2.0000     -10.303608      -280.3754
  75   2.0000     -10.296468      -280.1811
  76   2.0000     -10.295751      -280.1616
  77   2.0000     -10.293434      -280.0986
  78   2.0000     -10.293077      -280.0889
  79   2.0000      -8.149829      -221.7681
  80   2.0000      -8.093469      -220.2345
  81   2.0000      -8.089784      -220.1342
  82   2.0000      -8.088539      -220.1003
  83   2.0000      -8.085601      -220.0204
  84   2.0000      -8.067573      -219.5298
  85   2.0000      -8.066999      -219.5142
  86   2.0000      -6.120977      -166.5603
  87   2.0000      -6.113028      -166.3440
  88   2.0000      -6.112491      -166.3293
  89   2.0000      -6.062720      -164.9750
  90   2.0000      -6.059070      -164.8757
  91   2.0000      -6.058496      -164.8601
  92   2.0000      -6.057792      -164.8409
  93   2.0000      -6.055885      -164.7890
  94   2.0000      -6.054987      -164.7646
  95   2.0000      -6.054692      -164.7566
  96   2.0000      -6.053428      -164.7222
  97   2.0000      -6.052340      -164.6925
  98   2.0000      -6.051077      -164.6582
  99   2.0000      -6.050243      -164.6355
 100   2.0000      -6.048187      -164.5795
 101   2.0000      -6.037110      -164.2781
 102   2.0000      -6.036482      -164.2610
 103   2.0000      -6.032756      -164.1596
 104   2.0000      -6.032206      -164.1447
 105   2.0000      -6.029228      -164.0636
 106   2.0000      -6.028718      -164.0497
 107   2.0000      -1.162720       -31.6392
 108   2.0000      -1.143880       -31.1266
 109   2.0000      -1.136941       -30.9377
 110   2.0000      -1.135034       -30.8859
 111   2.0000      -1.052655       -28.6442
 112   2.0000      -1.049512       -28.5587
 113   2.0000      -1.027415       -27.9574
 114   2.0000      -1.025842       -27.9146
 115   2.0000      -1.024373       -27.8746
 116   2.0000      -1.023959       -27.8633
 117   2.0000      -1.019229       -27.7346
 118   2.0000      -1.013233       -27.5715
 119   2.0000      -1.011915       -27.5356
 120   2.0000      -1.011269       -27.5180
 121   2.0000      -1.009369       -27.4663
 122   2.0000      -1.005304       -27.3557
 123   2.0000      -1.002127       -27.2693
 124   2.0000      -0.998183       -27.1619
 125   2.0000      -0.996459       -27.1150
 126   2.0000      -0.990525       -26.9536
 127   2.0000      -0.989602       -26.9284
 128   2.0000      -0.971864       -26.4458
 129   2.0000      -0.965295       -26.2670
 130   2.0000      -0.947288       -25.7770
 131   2.0000      -0.938475       -25.5372
 132   2.0000      -0.936474       -25.4828
 133   2.0000      -0.935250       -25.4494
 134   2.0000      -0.920319       -25.0432
 135   2.0000      -0.917561       -24.9681
 136   2.0000      -0.902867       -24.5683
 137   2.0000      -0.899680       -24.4815
 138   2.0000      -0.886713       -24.1287
 139   2.0000      -0.885561       -24.0973
 140   2.0000      -0.880404       -23.9570
 141   2.0000      -0.879201       -23.9243
 142   2.0000      -0.870709       -23.6932
 143   2.0000      -0.865599       -23.5541
 144   2.0000      -0.862550       -23.4712
 145   2.0000      -0.860644       -23.4193
 146   2.0000      -0.837387       -22.7865
 147   2.0000      -0.828083       -22.5333
 148   2.0000      -0.827484       -22.5170
 149   2.0000      -0.814159       -22.1544
 150   2.0000      -0.804718       -21.8975
 151   2.0000      -0.785016       -21.3614
 152   2.0000      -0.783039       -21.3076
 153   2.0000      -0.781555       -21.2672
 154   2.0000      -0.775965       -21.1151
 155   2.0000      -0.763914       -20.7872
 156   2.0000      -0.763046       -20.7635
 157   2.0000      -0.754049       -20.5187
 158   2.0000      -0.745428       -20.2841
 159   2.0000      -0.727945       -19.8084
 160   2.0000      -0.717171       -19.5152
 161   2.0000      -0.707699       -19.2575
 162   2.0000      -0.706228       -19.2175
 163   2.0000      -0.697972       -18.9928
 164   2.0000      -0.695255       -18.9189
 165   2.0000      -0.693379       -18.8678
 166   2.0000      -0.692354       -18.8399
 167   2.0000      -0.688974       -18.7479
 168   2.0000      -0.684942       -18.6382
 169   2.0000      -0.676232       -18.4012
 170   2.0000      -0.669900       -18.2289
 171   2.0000      -0.666950       -18.1486
 172   2.0000      -0.665467       -18.1083
 173   2.0000      -0.655532       -17.8379
 174   2.0000      -0.649531       -17.6746
 175   2.0000      -0.645945       -17.5770
 176   2.0000      -0.633811       -17.2469
 177   2.0000      -0.628067       -17.0906
 178   2.0000      -0.627319       -17.0702
 179   2.0000      -0.623936       -16.9782
 180   2.0000      -0.623351       -16.9622
 181   2.0000      -0.620498       -16.8846
 182   2.0000      -0.619764       -16.8646
 183   2.0000      -0.611607       -16.6427
 184   2.0000      -0.609553       -16.5868
 185   2.0000      -0.599853       -16.3228
 186   2.0000      -0.599125       -16.3030
 187   2.0000      -0.589250       -16.0343
 188   2.0000      -0.581923       -15.8349
 189   2.0000      -0.577401       -15.7119
 190   2.0000      -0.574599       -15.6356
 191   2.0000      -0.571396       -15.5485
 192   2.0000      -0.559024       -15.2118
 193   2.0000      -0.555029       -15.1031
 194   2.0000      -0.553830       -15.0705
 195   2.0000      -0.553064       -15.0496
 196   2.0000      -0.545513       -14.8442
 197   2.0000      -0.545206       -14.8358
 198   2.0000      -0.544543       -14.8178
 199   2.0000      -0.543760       -14.7965
 200   2.0000      -0.539658       -14.6848
 201   2.0000      -0.536388       -14.5959
 202   2.0000      -0.534280       -14.5385
 203   2.0000      -0.530936       -14.4475
 204   2.0000      -0.529910       -14.4196
 205   2.0000      -0.523868       -14.2552
 206   2.0000      -0.520996       -14.1770
 207   2.0000      -0.518629       -14.1126
 208   2.0000      -0.514464       -13.9993
 209   2.0000      -0.512019       -13.9328
 210   2.0000      -0.509578       -13.8663
 211   2.0000      -0.509077       -13.8527
 212   2.0000      -0.506837       -13.7917
 213   2.0000      -0.504887       -13.7387
 214   2.0000      -0.503224       -13.6934
 215   2.0000      -0.501798       -13.6546
 216   2.0000      -0.500978       -13.6323
 217   2.0000      -0.499744       -13.5987
 218   2.0000      -0.499353       -13.5881
 219   2.0000      -0.498210       -13.5570
 220   2.0000      -0.494535       -13.4570
 221   2.0000      -0.493350       -13.4247
 222   2.0000      -0.492064       -13.3897
 223   2.0000      -0.486138       -13.2285
 224   2.0000      -0.482931       -13.1412
 225   2.0000      -0.481651       -13.1064
 226   2.0000      -0.476038       -12.9537
 227   2.0000      -0.473472       -12.8838
 228   2.0000      -0.464689       -12.6448
 229   2.0000      -0.462777       -12.5928
 230   2.0000      -0.461527       -12.5588
 231   2.0000      -0.460803       -12.5391
 232   2.0000      -0.459512       -12.5040
 233   2.0000      -0.458917       -12.4878
 234   2.0000      -0.456864       -12.4319
 235   2.0000      -0.456212       -12.4142
 236   2.0000      -0.453724       -12.3465
 237   2.0000      -0.453018       -12.3273
 238   2.0000      -0.450815       -12.2673
 239   2.0000      -0.450274       -12.2526
 240   2.0000      -0.447560       -12.1787
 241   2.0000      -0.446188       -12.1414
 242   2.0000      -0.445489       -12.1224
 243   2.0000      -0.443752       -12.0751
 244   2.0000      -0.442511       -12.0413
 245   2.0000      -0.441873       -12.0240
 246   2.0000      -0.441211       -12.0059
 247   2.0000      -0.440142       -11.9769
 248   2.0000      -0.438516       -11.9326
 249   2.0000      -0.438128       -11.9221
 250   2.0000      -0.437798       -11.9131
 251   2.0000      -0.434273       -11.8172
 252   2.0000      -0.433007       -11.7827
 253   2.0000      -0.431718       -11.7476
 254   2.0000      -0.430228       -11.7071
 255   2.0000      -0.429840       -11.6965
 256   2.0000      -0.428682       -11.6650
 257   2.0000      -0.425339       -11.5741
 258   2.0000      -0.423524       -11.5247
 259   2.0000      -0.419840       -11.4244
 260   2.0000      -0.412150       -11.2152
 261   2.0000      -0.410531       -11.1711
 262   2.0000      -0.408676       -11.1206
 263   2.0000      -0.407169       -11.0796
 264   2.0000      -0.403825       -10.9886
 265   2.0000      -0.400056       -10.8861
 266   2.0000      -0.393534       -10.7086
 267   2.0000      -0.392511       -10.6808
 268   2.0000      -0.385901       -10.5009
 269   2.0000      -0.382189       -10.3999
 270   2.0000      -0.375854       -10.2275
 271   2.0000      -0.366569        -9.9749
 272   2.0000      -0.353801        -9.6274
 273   2.0000      -0.353596        -9.6218
 274   2.0000      -0.347241        -9.4489
 275   2.0000      -0.343946        -9.3593
 276   2.0000      -0.338697        -9.2164
 277   2.0000      -0.329840        -8.9754
 278   2.0000      -0.325470        -8.8565
 279   2.0000      -0.322683        -8.7807
 280   2.0000      -0.319447        -8.6926
 281   2.0000      -0.318425        -8.6648
 282   2.0000      -0.316807        -8.6208
 283   2.0000      -0.300373        -8.1736
 284   2.0000      -0.298741        -8.1292
 285   2.0000      -0.281488        -7.6597
 286   2.0000      -0.260982        -7.1017
 287   0.0000      -0.123887        -3.3711
 288   0.0000      -0.112269        -3.0550
 289   0.0000      -0.096669        -2.6305
 290   0.0000      -0.090427        -2.4606
 291   0.0000      -0.087378        -2.3777

MULLIKEN ATOMIC CHARGES
-----------------------
   0 C :    0.309815
   1 C :   -0.343234
   2 C :   -0.185384
   3 N :    0.153744
   4 C :   -0.200063
   5 N :    0.158568
   6 C :    0.014283
   7 C :   -0.015220
   8 C :   -0.063859
   9 C :    0.114072
  10 C :   -0.099105
  11 C :   -0.019151
  12 S :    0.145357
  13 C :   -0.048155
  14 C :    0.024868
  15 C :    0.167533
  16 O :   -0.190935
  17 C :   -0.087426
  18 C :   -0.033128
  19 C :   -0.050837
  20 C :   -0.058150
  21 C :    0.043260
  22 C :   -0.079547
  23 S :    0.251049
  24 C :   -0.089982
  25 C :    0.010004
  26 C :    0.312960
  27 C :   -0.298387
  28 C :   -0.196180
  29 N :    0.182801
  30 C :   -0.186573
  31 N :    0.173825
  32 C :   -0.051464
  33 C :   -0.126333
  34 S :    0.254724
  35 C :    0.011764
  36 N :   -0.057360
  37 N :   -0.057168
  38 C :    0.009498
  39 C :    0.029220
  40 C :    0.028428
  41 N :   -0.254514
  42 S :    0.575635
  43 N :   -0.253665
  44 C :   -0.127539
  45 C :   -0.050890
  46 C :    0.012528
  47 C :   -0.084819
  48 S :    0.254808
  49 C :   -0.091693
  50 C :    0.029956
  51 C :    0.303183
  52 C :   -0.290650
  53 C :   -0.186753
  54 N :    0.176399
  55 C :   -0.193024
  56 N :    0.177126
  57 C :    0.010541
  58 C :   -0.100658
  59 S :    0.212558
  60 C :    0.039601
  61 C :   -0.128838
  62 C :    0.249302
  63 C :   -0.323748
  64 C :   -0.175497
  65 N :    0.156360
  66 C :   -0.206849
  67 N :    0.172728
  68 C :    0.002640
  69 C :    0.000668
  70 C :    0.135845
  71 O :   -0.140611
  72 C :   -0.063706
  73 C :    0.107092
  74 C :   -0.091500
  75 C :   -0.019655
  76 S :    0.142766
  77 C :   -0.050709
  78 C :    0.027198
  79 H :   -0.011868
  80 H :   -0.005668
  81 H :    0.040452
  82 H :   -0.005741
  83 H :    0.024498
  84 H :    0.026614
  85 H :    0.020059
  86 H :    0.021688
  87 H :    0.018958
  88 H :    0.036106
  89 H :   -0.008753
  90 H :   -0.003304
  91 H :    0.041691
  92 H :   -0.004481
Sum of atomic charges:   -0.0000000

LOEWDIN ATOMIC CHARGES
----------------------
   0 C :    0.076149
   1 C :   -0.139258
   2 C :   -0.018392
   3 N :   -0.050915
   4 C :   -0.024558
   5 N :   -0.046636
   6 C :   -0.021128
   7 C :   -0.054416
   8 C :    0.024530
   9 C :   -0.035282
  10 C :   -0.145006
  11 C :   -0.007291
  12 S :    0.433807
  13 C :   -0.148532
  14 C :   -0.057557
  15 C :    0.086721
  16 O :   -0.174258
  17 C :   -0.106029
  18 C :    0.055072
  19 C :   -0.181864
  20 C :    0.009606
  21 C :   -0.074120
  22 C :   -0.170882
  23 S :    0.553067
  24 C :   -0.176013
  25 C :   -0.063722
  26 C :    0.077491
  27 C :   -0.100872
  28 C :   -0.019796
  29 N :   -0.025906
  30 C :   -0.016897
  31 N :   -0.031198
  32 C :   -0.011762
  33 C :   -0.174834
  34 S :    0.524509
  35 C :   -0.027124
  36 N :   -0.062127
  37 N :   -0.063359
  38 C :   -0.026242
  39 C :   -0.053856
  40 C :   -0.053739
  41 N :   -0.261892
  42 S :    0.697765
  43 N :   -0.261812
  44 C :   -0.176465
  45 C :   -0.009968
  46 C :   -0.064237
  47 C :   -0.175022
  48 S :    0.524916
  49 C :   -0.157124
  50 C :   -0.065594
  51 C :    0.079652
  52 C :   -0.096447
  53 C :   -0.016733
  54 N :   -0.028767
  55 C :   -0.017262
  56 N :   -0.027730
  57 C :    0.011404
  58 C :   -0.176281
  59 S :    0.509726
  60 C :    0.048613
  61 C :   -0.094633
  62 C :    0.062047
  63 C :   -0.142868
  64 C :   -0.020654
  65 N :   -0.048144
  66 C :   -0.035452
  67 N :   -0.048237
  68 C :   -0.020171
  69 C :   -0.055459
  70 C :    0.083742
  71 O :   -0.140172
  72 C :    0.025646
  73 C :   -0.034764
  74 C :   -0.144401
  75 C :   -0.010654
  76 S :    0.431320
  77 C :   -0.148322
  78 C :   -0.056947
  79 H :    0.040487
  80 H :    0.041298
  81 H :    0.030071
  82 H :    0.035602
  83 H :    0.054379
  84 H :    0.047731
  85 H :    0.041155
  86 H :    0.041472
  87 H :    0.047392
  88 H :    0.055532
  89 H :    0.041718
  90 H :    0.040674
  91 H :    0.030339
  92 H :    0.036144

  Mayer bond orders larger than 0.100000
B(  0-C ,  1-C ) :   1.6381 B(  0-C ,  6-C ) :   1.0032 B(  0-C , 17-C ) :   1.0662
B(  1-C ,  2-C ) :   1.1422 B(  1-C ,  4-C ) :   1.1406 B(  2-C ,  3-N ) :   2.9722
B(  4-C ,  5-N ) :   2.9803 B(  6-C ,  7-C ) :   1.2665 B(  6-C , 11-C ) :   1.4177
B(  7-C ,  8-C ) :   1.4230 B(  7-C , 15-C ) :   0.9660 B(  8-C ,  9-C ) :   1.2455
B(  8-C , 79-H ) :   1.0163 B(  9-C , 10-C ) :   1.3012 B(  9-C , 14-C ) :   1.1731
B( 10-C , 11-C ) :   1.3197 B( 10-C , 12-S ) :   1.1026 B( 11-C , 80-H ) :   0.9823
B( 12-S , 13-C ) :   1.1270 B( 13-C , 14-C ) :   1.6288 B( 13-C , 81-H ) :   0.9681
B( 14-C , 82-H ) :   0.9991 B( 15-C , 16-O ) :   2.1116 B( 15-C , 17-C ) :   0.9784
B( 17-C , 18-C ) :   1.5150 B( 18-C , 19-C ) :   1.2521 B( 18-C , 83-H ) :   0.9451
B( 19-C , 20-C ) :   1.3347 B( 19-C , 23-S ) :   1.0803 B( 20-C , 21-C ) :   1.3303
B( 20-C , 84-H ) :   1.0075 B( 21-C , 22-C ) :   1.3632 B( 21-C , 26-C ) :   0.9851
B( 22-C , 23-S ) :   1.1292 B( 22-C , 24-C ) :   1.1998 B( 24-C , 25-C ) :   1.4223
B( 24-C , 34-S ) :   1.1246 B( 25-C , 26-C ) :   1.0011 B( 25-C , 32-C ) :   1.2686
B( 26-C , 27-C ) :   1.7123 B( 27-C , 28-C ) :   1.1360 B( 27-C , 30-C ) :   1.1363
B( 28-C , 29-N ) :   2.9938 B( 30-C , 31-N ) :   2.9873 B( 32-C , 33-C ) :   1.4816
B( 32-C , 85-H ) :   0.9807 B( 33-C , 34-S ) :   1.0926 B( 33-C , 35-C ) :   1.1625
B( 35-C , 36-N ) :   1.7161 B( 35-C , 38-C ) :   0.1185 B( 35-C , 40-C ) :   1.1225
B( 36-N , 37-N ) :   1.2311 B( 37-N , 38-C ) :   1.7160 B( 38-C , 39-C ) :   1.1214
B( 38-C , 44-C ) :   1.1660 B( 39-C , 40-C ) :   1.1940 B( 39-C , 43-N ) :   1.5467
B( 40-C , 41-N ) :   1.5458 B( 41-N , 42-S ) :   1.2800 B( 41-N , 43-N ) :   0.1410
B( 42-S , 43-N ) :   1.2797 B( 44-C , 45-C ) :   1.4808 B( 44-C , 48-S ) :   1.0914
B( 45-C , 46-C ) :   1.2700 B( 45-C , 86-H ) :   0.9810 B( 46-C , 47-C ) :   1.4239
B( 46-C , 51-C ) :   1.0019 B( 47-C , 48-S ) :   1.1238 B( 47-C , 49-C ) :   1.2046
B( 49-C , 50-C ) :   1.4133 B( 49-C , 59-S ) :   1.1500 B( 50-C , 51-C ) :   0.9911
B( 50-C , 57-C ) :   1.2974 B( 51-C , 52-C ) :   1.7142 B( 52-C , 53-C ) :   1.1369
B( 52-C , 55-C ) :   1.1337 B( 53-C , 54-N ) :   2.9877 B( 55-C , 56-N ) :   2.9928
B( 57-C , 58-C ) :   1.4102 B( 57-C , 87-H ) :   1.0014 B( 58-C , 59-S ) :   1.0959
B( 58-C , 60-C ) :   1.1157 B( 60-C , 61-C ) :   1.6698 B( 60-C , 88-H ) :   0.9444
B( 61-C , 62-C ) :   1.0269 B( 61-C , 70-C ) :   0.9338 B( 62-C , 63-C ) :   1.6553
B( 62-C , 68-C ) :   1.0196 B( 63-C , 64-C ) :   1.1305 B( 63-C , 66-C ) :   1.1563
B( 64-C , 65-N ) :   2.9930 B( 66-C , 67-N ) :   3.0181 B( 68-C , 69-C ) :   1.2688
B( 68-C , 75-C ) :   1.4157 B( 69-C , 70-C ) :   0.9262 B( 69-C , 72-C ) :   1.4252
B( 70-C , 71-O ) :   2.2708 B( 72-C , 73-C ) :   1.2546 B( 72-C , 89-H ) :   1.0158
B( 73-C , 74-C ) :   1.3018 B( 73-C , 78-C ) :   1.1713 B( 74-C , 75-C ) :   1.3203
B( 74-C , 76-S ) :   1.0983 B( 75-C , 90-H ) :   0.9860 B( 76-S , 77-C ) :   1.1268
B( 77-C , 78-C ) :   1.6312 B( 77-C , 91-H ) :   0.9680 B( 78-C , 92-H ) :   0.9990

-----------------------------------------------------------------------------
         ABSORPTION SPECTRUM VIA TRANSITION ELECTRIC DIPOLE MOMENTS
-----------------------------------------------------------------------------
State   Energy  Wavelength   fosc         T2         TX        TY        TZ
        (cm-1)    (nm)                  (au**2)     (au)      (au)      (au)
-----------------------------------------------------------------------------
   0   13827.3    723.2   0.923815226  21.99504   4.21411  -2.05314  -0.14464
   1   15351.3    651.4   0.167143738   3.58443   1.79185   0.60955   0.04661
   2   18403.1    543.4   0.800943645  14.32806   3.46849  -1.51536  -0.03597
   3   20607.3    485.3   0.002336749   0.03733  -0.16428   0.09886   0.02388
   4   21445.2    466.3   0.487901103   7.48991  -1.34866  -2.32460  -0.51697
   5   22270.0    449.0   0.042239163   0.62441   0.27691  -0.63179  -0.38545
   6   23258.8    429.9   0.429913520   6.08513  -2.36268  -0.57587   0.41382
   7   24739.0    404.2   0.031587176   0.42034  -0.05721  -0.53782   0.35752
   8   25510.9    392.0   0.071163458   0.91835  -0.03800   0.90307  -0.31838
   9   26191.5    381.8   0.039094326   0.49139  -0.14869  -0.50990   0.45748
  10   27057.8    369.6   0.048956131   0.59565   0.09714  -0.62875   0.43690
  11   27797.0    359.8   0.031196667   0.36948  -0.44143  -0.41306  -0.06324
  12   27912.0    358.3   0.117313848   1.38368  -1.00251  -0.35220   0.50459
  13   28419.5    351.9   0.103870854   1.20324  -0.69946  -0.72788   0.42918
  14   28848.9    346.6   0.040287920   0.45975   0.22721   0.63170  -0.09529
  15   29058.9    344.1   0.022150517   0.25095   0.28994   0.40639   0.04162
  16   29082.3    343.9   0.228591615   2.58766   0.50343   1.49753  -0.30269
  17   29273.7    341.6   0.025431718   0.28601   0.50780  -0.11445   0.12266
  18   29458.8    339.5   0.004262785   0.04764   0.19823   0.01748   0.08965
  19   29556.3    338.3   0.207386597   2.30997   0.72397  -1.32202   0.19521
  20   29971.9    333.6   0.078337817   0.86046  -0.79151   0.42462   0.23169
  21   30700.8    325.7   0.005547327   0.05949   0.03251   0.23962  -0.03181
  22   30916.7    323.5   0.193859672   2.06429  -0.33908   1.25743  -0.60678
  23   31121.1    321.3   0.111222489   1.17656   0.83199   0.50170   0.48233
  24   31469.6    317.8   0.476034920   4.97993  -0.35814   2.18968  -0.23873
  25   31555.0    316.9   0.095433790   0.99566   0.59504  -0.67631   0.42917
  26   32072.2    311.8   0.195036361   2.00199   1.24588  -0.60724   0.28467
  27   32184.6    310.7   0.532732459   5.44925  -1.07995  -1.60824   1.30252
  28   32196.9    310.6   0.455580106   4.65829  -0.90808  -1.93040   0.32744
  29   32742.2    305.4   0.107319608   1.07906   0.50827   0.76028  -0.49264
  30   32862.9    304.3   0.063268544   0.63381  -0.16298   0.68277  -0.37560
  31   33023.0    302.8   0.288026297   2.87139   1.47547  -0.80074   0.23066
  32   33269.6    300.6   0.007320926   0.07244   0.14244   0.13997  -0.18045
  33   33411.4    299.3   0.054555987   0.53755   0.42029   0.51375  -0.31141
  34   33575.9    297.8   0.019962573   0.19573   0.10893  -0.36387   0.22686
  35   33622.8    297.4   0.135168445   1.32348  -0.24744   1.05914  -0.37479
  36   33733.3    296.4   0.071020984   0.69311  -0.73925  -0.34866  -0.15826
  37   34866.7    286.8   0.343428173   3.24266  -1.74740  -0.43452   0.02127
  38   35035.7    285.4   0.026965772   0.25338   0.03776  -0.18292   0.46744
  39   35156.9    284.4   0.558235423   5.22735  -0.22867   2.14319  -0.76277
  40   35385.6    282.6   0.071508172   0.66528  -0.22127   0.57523  -0.53426
  41   35676.1    280.3   0.052417897   0.48370   0.13565   0.44462  -0.51731
  42   35837.5    279.0   0.061280126   0.56293   0.49694  -0.44541   0.34292
  43   36041.5    277.5   0.259349170   2.36896  -0.35431   1.32094  -0.70607
  44   36445.2    274.4   0.067160049   0.60666   0.75243   0.17587   0.09785
  45   36585.5    273.3   0.054653766   0.49180  -0.70089   0.02046   0.01171
  46   36974.8    270.5   0.005709039   0.05083  -0.20660   0.01382  -0.08921
  47   37117.8    269.4   0.031772121   0.28180  -0.48924   0.04642   0.20072
  48   37315.2    268.0   0.009515982   0.08395   0.03271   0.12258  -0.26049
  49   37370.0    267.6   0.035088155   0.30911   0.51226  -0.21084   0.04745
  50   37405.5    267.3   0.018491998   0.16275  -0.40247   0.02213  -0.01671
  51   37699.9    265.3   0.009615253   0.08396  -0.05639   0.21579  -0.18499
  52   37809.0    264.5   0.104373884   0.90881   0.87267  -0.36900   0.10529
  53   37870.7    264.1   0.021213120   0.18441   0.23640  -0.19288   0.30219
  54   38080.4    262.6   0.003250700   0.02810   0.12788   0.04463   0.09878
  55   38165.7    262.0   0.043539577   0.37557  -0.44467   0.40647  -0.11233
  56   38308.8    261.0   0.024480780   0.21038  -0.45303  -0.06131   0.03716
  57   38338.0    260.8   0.051951787   0.44612  -0.62979  -0.21761  -0.04616
  58   38617.2    259.0   0.039737443   0.33876  -0.33543   0.47198  -0.05903
  59   38682.1    258.5   0.006163463   0.05246  -0.04705   0.22314  -0.02120
  60   38797.4    257.7   0.039218170   0.33278  -0.34826   0.45682  -0.05304
  61   39241.3    254.8   0.045751016   0.38382  -0.47320  -0.37964  -0.12562
  62   39594.8    252.6   0.063851197   0.53089  -0.46213  -0.35003  -0.44137
  63   39806.4    251.2   0.017020238   0.14076  -0.34455   0.11825  -0.08981
  64   39934.0    250.4   0.038569114   0.31796   0.53710   0.11452  -0.12792
  65   40208.9    248.7   0.143877521   1.17800  -1.00444   0.24875  -0.32744

FINAL SINGLE POINT ENERGY     -5808.509385874668

DIPOLE MOMENT
-------------
                                X             Y             Z
Electronic contribution:     -5.51400     -24.75375       6.91358
Nuclear contribution   :      5.46904      29.29156     -10.30597
                        -----------------------------------------
Total Dipole Moment    :     -0.04497       4.53781      -3.39239
                        -----------------------------------------
Magnitude (a.u.)       :      5.66587
Magnitude (Debye)      :     14.40149

Rotational constants in cm-1:     0.000918     0.000186     0.000159
Rotational constants in MHz :    27.535408     5.586467     4.763574

                             ****ORCA TERMINATED NORMALLY****
TOTAL RUN TIME: 0 days 0 hours 21 minutes 31 seconds 322 msec
