                         Program Version 4.2.0 -  RELEASE  -
|  1> # ORCA input file
|  2> # SCF done       -205.564444344294          0.000526772784
|  3> ! CAM-B3LYP def2-SVP def2/J RIJCOSX Grid4 TightSCF
|  4> %maxcore 5000
|  5> %tddft
|  6>     Mode sTDDFT
|  7>     Ethresh 5.0
|  8>     maxcore 5000
|  9> end
| 10>
| 11> %pal
| 12>   nprocs 6
| 13>   end
| 14> * xyz 0 1
| 15>    C       -1.64485        -0.08417        -2.89237
| 16>    C       -0.37536        -0.04615        -2.37698
| 17>    C        0.68400        -0.86322        -2.82602
| 18>    N        1.58555        -1.49735        -3.14657
| 19>    C        0.06139         0.78252        -1.32168
| 20>    N        0.49313         1.41284        -0.46431
| 21>    C       -2.09656        -0.98078        -3.95220
| 22>    C       -3.48470        -0.78179        -4.15639
| 23>    C       -4.20776        -1.48239        -5.09093
| 24>    C       -3.52660        -2.42549        -5.86736
| 25>    C       -2.13948        -2.61689        -5.65986
| 26>    C       -1.41000        -1.90929        -4.71180
| 27>    S       -1.49436        -3.82466        -6.72842
| 28>    C       -3.07418        -4.05395        -7.42984
| 29>    C       -4.03715        -3.26724        -6.89267
| 30>   Br       -3.30305        -5.30762        -8.80526
| 31>    C       -3.96099         0.26092        -3.23426
| 32>    O       -5.10668         0.66781        -3.13410
| 33>    C       -2.78749         0.71129        -2.47969
| 34>    C       -2.76766         1.74787        -1.58180
| 35>    C       -3.80611         2.57110        -1.12170
| 36>    C       -3.56872         3.62322        -0.22738
| 37>    C       -4.72209         4.30294         0.10954
| 38>    C       -5.86735         3.76030        -0.52331
| 39>    S       -5.51505         2.44071        -1.53985
| 40>    C       -6.99096         4.51627        -0.10965
| 41>    C       -6.56629         5.52673         0.77231
| 42>    C       -5.12637         5.43002         0.93723
| 43>    C       -4.32910         6.23241         1.69864
| 44>    C       -2.93169         6.04988         1.77541
| 45>    N       -1.79574         5.90956         1.83854
| 46>    C       -4.84575         7.30539         2.45625
| 47>    N       -5.25603         8.18015         3.07352
| 48>    C       -7.61147         6.32141         1.23801
| 49>    C       -8.83543         5.93246         0.72767
| 50>    S       -8.67793         4.54846        -0.35574
| 51>    C      -10.13301         6.48862         0.98463
| 52>    C      -11.27798         5.86760         0.50307
| 53>    C      -12.54883         6.35385         0.75801
| 54>    C      -12.77175         7.49997         1.51021
| 55>    C      -11.61973         8.18968         2.00512
| 56>    N      -11.76817         9.31614         2.72470
| 57>    C      -10.70697         9.93277         3.16936
| 58>    C       -9.41681         9.44503         2.90086
| 59>    N       -9.23847         8.35425         2.20634
| 60>    C      -10.31134         7.68787         1.74420
| 61>    C      -14.10760         7.94673         1.78315
| 62>    C      -14.52284         9.06756         2.47705
| 63>    C      -15.91041         9.15800         2.55878
| 64>    C      -16.57114         8.09283         1.92069
| 65>    S      -15.47863         6.98932         1.21849
| 66>    C      -17.96858         8.26323         2.08239
| 67>    C      -18.18766         9.44422         2.82155
| 68>    C      -16.90316        10.03927         3.14959
| 69>    C      -16.68806        11.16298         3.89206
| 70>    C      -15.39348        11.65231         4.16686
| 71>    N      -14.34463        12.05879         4.38807
| 72>    C      -17.76382        11.90099         4.42983
| 73>    N      -18.65157        12.48954         4.85479
| 74>    C      -19.53059         9.68094         3.07778
| 75>    C      -20.34914         8.69134         2.55136
| 76>    S      -19.42040         7.47009         1.68689
| 77>    C      -21.75527         8.58460         2.60065
| 78>    C      -22.62845         9.20388         3.44331
| 79>    C      -22.46958         9.93078         4.68583
| 80>    C      -21.50752         9.73118         5.64223
| 81>    C      -21.49921        10.37942         6.89551
| 82>    N      -21.44952        10.87387         7.92972
| 83>    C      -20.47204         8.78304         5.53501
| 84>    N      -19.62874         8.00404         5.50583
| 85>    C      -23.68268        10.71843         4.88184
| 86>    C      -24.65478        10.30236         3.93703
| 87>    C      -24.06505         9.27976         3.05256
| 88>    O      -24.60341         8.66017         2.16463
| 89>    C      -25.92224        10.83159         3.90312
| 90>    C      -26.23897        11.82613         4.83458
| 91>    C      -25.25315        12.24969         5.75885
| 92>    C      -23.97403        11.70826         5.80025
| 93>    S      -25.85262        13.49875         6.80557
| 94>    C      -27.40037        13.43227         6.00513
| 95>    C      -27.46604        12.52415         5.00241
| 96>   Br      -28.78176        14.56876         6.56663
| 97>    H       -5.26433        -1.30758        -5.22018
| 98>    H       -0.35501        -2.09170        -4.59545
| 99>    H       -5.06504        -3.27853        -7.20612
|100>    H       -1.80720         2.00371        -1.15069
|101>    H       -2.58311         3.85082         0.13887
|102>    H       -7.51677         7.15002         1.91436
|103>    H      -11.17815         4.96464        -0.08188
|104>    H      -13.39675         5.81385         0.36167
|105>    H      -10.87732        10.83209         3.74464
|106>    H       -8.52474         9.94526         3.25106
|107>    H      -13.82241         9.76515         2.89685
|108>    H      -19.91299        10.54767         3.58525
|109>    H      -22.21998         7.97743         1.82956
|110>    H      -26.64721        10.49012         3.18110
|111>    H      -23.25167        12.06709         6.51464
|112>    H      -28.34257        12.35237         4.40483
|113> *
|114>
|115>                          ****END OF INPUT****

CARTESIAN COORDINATES (ANGSTROEM)
---------------------------------
  C     -1.644850   -0.084170   -2.892370
  C     -0.375360   -0.046150   -2.376980
  C      0.684000   -0.863220   -2.826020
  N      1.585550   -1.497350   -3.146570
  C      0.061390    0.782520   -1.321680
  N      0.493130    1.412840   -0.464310
  C     -2.096560   -0.980780   -3.952200
  C     -3.484700   -0.781790   -4.156390
  C     -4.207760   -1.482390   -5.090930
  C     -3.526600   -2.425490   -5.867360
  C     -2.139480   -2.616890   -5.659860
  C     -1.410000   -1.909290   -4.711800
  S     -1.494360   -3.824660   -6.728420
  C     -3.074180   -4.053950   -7.429840
  C     -4.037150   -3.267240   -6.892670
  Br    -3.303050   -5.307620   -8.805260
  C     -3.960990    0.260920   -3.234260
  O     -5.106680    0.667810   -3.134100
  C     -2.787490    0.711290   -2.479690
  C     -2.767660    1.747870   -1.581800
  C     -3.806110    2.571100   -1.121700
  C     -3.568720    3.623220   -0.227380
  C     -4.722090    4.302940    0.109540
  C     -5.867350    3.760300   -0.523310
  S     -5.515050    2.440710   -1.539850
  C     -6.990960    4.516270   -0.109650
  C     -6.566290    5.526730    0.772310
  C     -5.126370    5.430020    0.937230
  C     -4.329100    6.232410    1.698640
  C     -2.931690    6.049880    1.775410
  N     -1.795740    5.909560    1.838540
  C     -4.845750    7.305390    2.456250
  N     -5.256030    8.180150    3.073520
  C     -7.611470    6.321410    1.238010
  C     -8.835430    5.932460    0.727670
  S     -8.677930    4.548460   -0.355740
  C    -10.133010    6.488620    0.984630
  C    -11.277980    5.867600    0.503070
  C    -12.548830    6.353850    0.758010
  C    -12.771750    7.499970    1.510210
  C    -11.619730    8.189680    2.005120
  N    -11.768170    9.316140    2.724700
  C    -10.706970    9.932770    3.169360
  C     -9.416810    9.445030    2.900860
  N     -9.238470    8.354250    2.206340
  C    -10.311340    7.687870    1.744200
  C    -14.107600    7.946730    1.783150
  C    -14.522840    9.067560    2.477050
  C    -15.910410    9.158000    2.558780
  C    -16.571140    8.092830    1.920690
  S    -15.478630    6.989320    1.218490
  C    -17.968580    8.263230    2.082390
  C    -18.187660    9.444220    2.821550
  C    -16.903160   10.039270    3.149590
  C    -16.688060   11.162980    3.892060
  C    -15.393480   11.652310    4.166860
  N    -14.344630   12.058790    4.388070
  C    -17.763820   11.900990    4.429830
  N    -18.651570   12.489540    4.854790
  C    -19.530590    9.680940    3.077780
  C    -20.349140    8.691340    2.551360
  S    -19.420400    7.470090    1.686890
  C    -21.755270    8.584600    2.600650
  C    -22.628450    9.203880    3.443310
  C    -22.469580    9.930780    4.685830
  C    -21.507520    9.731180    5.642230
  C    -21.499210   10.379420    6.895510
  N    -21.449520   10.873870    7.929720
  C    -20.472040    8.783040    5.535010
  N    -19.628740    8.004040    5.505830
  C    -23.682680   10.718430    4.881840
  C    -24.654780   10.302360    3.937030
  C    -24.065050    9.279760    3.052560
  O    -24.603410    8.660170    2.164630
  C    -25.922240   10.831590    3.903120
  C    -26.238970   11.826130    4.834580
  C    -25.253150   12.249690    5.758850
  C    -23.974030   11.708260    5.800250
  S    -25.852620   13.498750    6.805570
  C    -27.400370   13.432270    6.005130
  C    -27.466040   12.524150    5.002410
  Br   -28.781760   14.568760    6.566630
  H     -5.264330   -1.307580   -5.220180
  H     -0.355010   -2.091700   -4.595450
  H     -5.065040   -3.278530   -7.206120
  H     -1.807200    2.003710   -1.150690
  H     -2.583110    3.850820    0.138870
  H     -7.516770    7.150020    1.914360
  H    -11.178150    4.964640   -0.081880
  H    -13.396750    5.813850    0.361670
  H    -10.877320   10.832090    3.744640
  H     -8.524740    9.945260    3.251060
  H    -13.822410    9.765150    2.896850
  H    -19.912990   10.547670    3.585250
  H    -22.219980    7.977430    1.829560
  H    -26.647210   10.490120    3.181100
  H    -23.251670   12.067090    6.514640
  H    -28.342570   12.352370    4.404830

 Total Charge           Charge          ....    0
 Multiplicity           Mult            ....    1
 Number of Electrons    NEL             ....  640
 Basis Dimension        Dim             .... 1288

ORBITAL ENERGIES
----------------

  NO   OCC          E(Eh)            E(eV)
   0   2.0000    -482.889213    -13140.0835
   1   2.0000    -482.886292    -13140.0040
   2   2.0000     -88.998578     -2421.7744
   3   2.0000     -88.994320     -2421.6586
   4   2.0000     -88.993841     -2421.6455
   5   2.0000     -88.992460     -2421.6079
   6   2.0000     -88.979426     -2421.2533
   7   2.0000     -88.976553     -2421.1751
   8   2.0000     -62.566888     -1702.5316
   9   2.0000     -62.564029     -1702.4538
  10   2.0000     -56.400843     -1534.7450
  11   2.0000     -56.398122     -1534.6709
  12   2.0000     -56.398090     -1534.6701
  13   2.0000     -56.397982     -1534.6671
  14   2.0000     -56.395259     -1534.5930
  15   2.0000     -56.395227     -1534.5922
  16   2.0000     -19.228723      -523.2402
  17   2.0000     -19.218088      -522.9508
  18   2.0000     -14.440755      -392.9529
  19   2.0000     -14.440539      -392.9470
  20   2.0000     -14.434704      -392.7883
  21   2.0000     -14.433354      -392.7515
  22   2.0000     -14.432496      -392.7282
  23   2.0000     -14.431274      -392.6949
  24   2.0000     -14.419720      -392.3805
  25   2.0000     -14.419261      -392.3680
  26   2.0000     -14.417088      -392.3089
  27   2.0000     -14.415555      -392.2672
  28   2.0000     -10.376377      -282.3556
  29   2.0000     -10.369267      -282.1621
  30   2.0000     -10.368760      -282.1483
  31   2.0000     -10.367154      -282.1046
  32   2.0000     -10.362816      -281.9866
  33   2.0000     -10.359706      -281.9019
  34   2.0000     -10.355627      -281.7909
  35   2.0000     -10.354776      -281.7678
  36   2.0000     -10.346109      -281.5319
  37   2.0000     -10.345632      -281.5190
  38   2.0000     -10.345622      -281.5187
  39   2.0000     -10.345509      -281.5156
  40   2.0000     -10.345000      -281.5018
  41   2.0000     -10.340013      -281.3660
  42   2.0000     -10.339696      -281.3574
  43   2.0000     -10.337671      -281.3023
  44   2.0000     -10.337312      -281.2926
  45   2.0000     -10.335893      -281.2539
  46   2.0000     -10.334996      -281.2295
  47   2.0000     -10.334154      -281.2066
  48   2.0000     -10.333863      -281.1987
  49   2.0000     -10.333497      -281.1888
  50   2.0000     -10.332754      -281.1685
  51   2.0000     -10.331220      -281.1268
  52   2.0000     -10.331074      -281.1228
  53   2.0000     -10.330078      -281.0957
  54   2.0000     -10.330018      -281.0941
  55   2.0000     -10.329982      -281.0931
  56   2.0000     -10.329749      -281.0868
  57   2.0000     -10.329192      -281.0716
  58   2.0000     -10.327441      -281.0240
  59   2.0000     -10.327345      -281.0213
  60   2.0000     -10.321733      -280.8686
  61   2.0000     -10.321187      -280.8538
  62   2.0000     -10.320128      -280.8249
  63   2.0000     -10.318401      -280.7780
  64   2.0000     -10.317988      -280.7667
  65   2.0000     -10.317866      -280.7634
  66   2.0000     -10.315608      -280.7020
  67   2.0000     -10.314617      -280.6750
  68   2.0000     -10.312491      -280.6172
  69   2.0000     -10.311921      -280.6016
  70   2.0000     -10.310806      -280.5713
  71   2.0000     -10.309579      -280.5379
  72   2.0000     -10.309544      -280.5370
  73   2.0000     -10.309121      -280.5254
  74   2.0000     -10.308800      -280.5167
  75   2.0000     -10.307768      -280.4886
  76   2.0000     -10.307713      -280.4871
  77   2.0000     -10.307274      -280.4752
  78   2.0000     -10.307237      -280.4742
  79   2.0000     -10.306753      -280.4610
  80   2.0000     -10.306583      -280.4564
  81   2.0000     -10.303482      -280.3720
  82   2.0000     -10.302675      -280.3500
  83   2.0000     -10.302212      -280.3374
  84   2.0000     -10.300703      -280.2964
  85   2.0000     -10.297727      -280.2154
  86   2.0000     -10.297497      -280.2091
  87   2.0000     -10.295758      -280.1618
  88   2.0000     -10.295584      -280.1571
  89   2.0000     -10.295224      -280.1473
  90   2.0000      -8.796296      -239.3594
  91   2.0000      -8.793476      -239.2826
  92   2.0000      -8.093269      -220.2290
  93   2.0000      -8.088782      -220.1070
  94   2.0000      -8.088294      -220.0937
  95   2.0000      -8.084808      -219.9988
  96   2.0000      -8.075481      -219.7450
  97   2.0000      -8.072633      -219.6675
  98   2.0000      -6.632596      -180.4821
  99   2.0000      -6.629809      -180.4063
 100   2.0000      -6.618039      -180.0860
 101   2.0000      -6.617817      -180.0800
 102   2.0000      -6.615196      -180.0086
 103   2.0000      -6.614993      -180.0031
 104   2.0000      -6.062450      -164.9677
 105   2.0000      -6.058244      -164.8532
 106   2.0000      -6.058011      -164.8468
 107   2.0000      -6.057497      -164.8329
 108   2.0000      -6.055769      -164.7859
 109   2.0000      -6.054210      -164.7434
 110   2.0000      -6.053861      -164.7339
 111   2.0000      -6.053348      -164.7200
 112   2.0000      -6.051198      -164.6615
 113   2.0000      -6.050758      -164.6495
 114   2.0000      -6.049475      -164.6146
 115   2.0000      -6.047369      -164.5573
 116   2.0000      -6.045150      -164.4969
 117   2.0000      -6.042326      -164.4200
 118   2.0000      -6.040883      -164.3808
 119   2.0000      -6.038030      -164.3032
 120   2.0000      -6.036708      -164.2672
 121   2.0000      -6.033833      -164.1890
 122   2.0000      -2.748508       -74.7907
 123   2.0000      -2.745628       -74.7123
 124   2.0000      -2.744359       -74.6778
 125   2.0000      -2.744214       -74.6738
 126   2.0000      -2.741589       -74.6024
 127   2.0000      -2.741450       -74.5986
 128   2.0000      -2.732642       -74.3590
 129   2.0000      -2.732630       -74.3586
 130   2.0000      -2.729823       -74.2823
 131   2.0000      -2.729805       -74.2818
 132   2.0000      -1.144124       -31.1332
 133   2.0000      -1.133614       -30.8472
 134   2.0000      -1.099455       -29.9177
 135   2.0000      -1.051093       -28.6017
 136   2.0000      -1.048427       -28.5291
 137   2.0000      -1.027156       -27.9503
 138   2.0000      -1.026292       -27.9268
 139   2.0000      -1.025249       -27.8984
 140   2.0000      -1.024112       -27.8675
 141   2.0000      -1.022209       -27.8157
 142   2.0000      -1.016914       -27.6716
 143   2.0000      -1.015721       -27.6392
 144   2.0000      -1.011408       -27.5218
 145   2.0000      -1.009308       -27.4647
 146   2.0000      -1.005906       -27.3721
 147   2.0000      -1.001737       -27.2586
 148   2.0000      -0.997036       -27.1307
 149   2.0000      -0.995941       -27.1009
 150   2.0000      -0.993968       -27.0472
 151   2.0000      -0.991544       -26.9813
 152   2.0000      -0.979316       -26.6485
 153   2.0000      -0.965035       -26.2599
 154   2.0000      -0.957677       -26.0597
 155   2.0000      -0.946631       -25.7591
 156   2.0000      -0.944856       -25.7108
 157   2.0000      -0.926742       -25.2179
 158   2.0000      -0.920747       -25.0548
 159   2.0000      -0.912708       -24.8360
 160   2.0000      -0.910520       -24.7765
 161   2.0000      -0.904017       -24.5996
 162   2.0000      -0.896643       -24.3989
 163   2.0000      -0.890212       -24.2239
 164   2.0000      -0.887709       -24.1558
 165   2.0000      -0.885614       -24.0988
 166   2.0000      -0.881239       -23.9797
 167   2.0000      -0.874742       -23.8029
 168   2.0000      -0.874345       -23.7921
 169   2.0000      -0.862485       -23.4694
 170   2.0000      -0.860152       -23.4059
 171   2.0000      -0.856730       -23.3128
 172   2.0000      -0.852919       -23.2091
 173   2.0000      -0.833742       -22.6873
 174   2.0000      -0.831116       -22.6158
 175   2.0000      -0.816622       -22.2214
 176   2.0000      -0.801359       -21.8061
 177   2.0000      -0.789154       -21.4740
 178   2.0000      -0.784477       -21.3467
 179   2.0000      -0.780344       -21.2342
 180   2.0000      -0.772066       -21.0090
 181   2.0000      -0.768597       -20.9146
 182   2.0000      -0.764930       -20.8148
 183   2.0000      -0.762560       -20.7503
 184   2.0000      -0.757244       -20.6057
 185   2.0000      -0.739432       -20.1210
 186   2.0000      -0.722082       -19.6488
 187   2.0000      -0.714596       -19.4452
 188   2.0000      -0.704844       -19.1798
 189   2.0000      -0.703152       -19.1337
 190   2.0000      -0.698258       -19.0006
 191   2.0000      -0.696677       -18.9576
 192   2.0000      -0.691818       -18.8253
 193   2.0000      -0.689785       -18.7700
 194   2.0000      -0.686606       -18.6835
 195   2.0000      -0.682172       -18.5628
 196   2.0000      -0.671791       -18.2804
 197   2.0000      -0.666967       -18.1491
 198   2.0000      -0.660953       -17.9854
 199   2.0000      -0.660257       -17.9665
 200   2.0000      -0.649464       -17.6728
 201   2.0000      -0.645605       -17.5678
 202   2.0000      -0.642940       -17.4953
 203   2.0000      -0.639503       -17.4018
 204   2.0000      -0.633278       -17.2324
 205   2.0000      -0.629948       -17.1418
 206   2.0000      -0.626009       -17.0346
 207   2.0000      -0.623289       -16.9606
 208   2.0000      -0.619587       -16.8598
 209   2.0000      -0.619279       -16.8514
 210   2.0000      -0.610593       -16.6151
 211   2.0000      -0.604346       -16.4451
 212   2.0000      -0.601284       -16.3618
 213   2.0000      -0.597758       -16.2658
 214   2.0000      -0.590009       -16.0550
 215   2.0000      -0.585803       -15.9405
 216   2.0000      -0.580375       -15.7928
 217   2.0000      -0.574750       -15.6397
 218   2.0000      -0.565629       -15.3916
 219   2.0000      -0.561719       -15.2851
 220   2.0000      -0.555987       -15.1292
 221   2.0000      -0.552898       -15.0451
 222   2.0000      -0.552736       -15.0407
 223   2.0000      -0.551534       -15.0080
 224   2.0000      -0.548926       -14.9370
 225   2.0000      -0.547107       -14.8875
 226   2.0000      -0.545414       -14.8415
 227   2.0000      -0.542877       -14.7724
 228   2.0000      -0.540393       -14.7048
 229   2.0000      -0.538508       -14.6536
 230   2.0000      -0.537673       -14.6308
 231   2.0000      -0.534490       -14.5442
 232   2.0000      -0.531146       -14.4532
 233   2.0000      -0.526026       -14.3139
 234   2.0000      -0.521730       -14.1970
 235   2.0000      -0.517525       -14.0826
 236   2.0000      -0.515483       -14.0270
 237   2.0000      -0.514554       -14.0017
 238   2.0000      -0.513995       -13.9865
 239   2.0000      -0.511539       -13.9197
 240   2.0000      -0.508976       -13.8499
 241   2.0000      -0.507292       -13.8041
 242   2.0000      -0.505494       -13.7552
 243   2.0000      -0.504246       -13.7212
 244   2.0000      -0.502144       -13.6640
 245   2.0000      -0.501089       -13.6353
 246   2.0000      -0.500611       -13.6223
 247   2.0000      -0.498006       -13.5514
 248   2.0000      -0.496992       -13.5238
 249   2.0000      -0.491189       -13.3659
 250   2.0000      -0.490207       -13.3392
 251   2.0000      -0.488144       -13.2831
 252   2.0000      -0.483603       -13.1595
 253   2.0000      -0.481488       -13.1020
 254   2.0000      -0.478329       -13.0160
 255   2.0000      -0.476702       -12.9717
 256   2.0000      -0.474706       -12.9174
 257   2.0000      -0.470742       -12.8095
 258   2.0000      -0.465187       -12.6584
 259   2.0000      -0.464140       -12.6299
 260   2.0000      -0.464060       -12.6277
 261   2.0000      -0.462865       -12.5952
 262   2.0000      -0.461782       -12.5657
 263   2.0000      -0.459566       -12.5054
 264   2.0000      -0.458152       -12.4669
 265   2.0000      -0.455130       -12.3847
 266   2.0000      -0.453428       -12.3384
 267   2.0000      -0.452629       -12.3167
 268   2.0000      -0.451404       -12.2833
 269   2.0000      -0.450633       -12.2623
 270   2.0000      -0.448746       -12.2110
 271   2.0000      -0.446506       -12.1500
 272   2.0000      -0.446148       -12.1403
 273   2.0000      -0.444129       -12.0854
 274   2.0000      -0.443719       -12.0742
 275   2.0000      -0.443255       -12.0616
 276   2.0000      -0.441959       -12.0263
 277   2.0000      -0.441791       -12.0217
 278   2.0000      -0.440618       -11.9898
 279   2.0000      -0.440052       -11.9744
 280   2.0000      -0.438728       -11.9384
 281   2.0000      -0.436683       -11.8828
 282   2.0000      -0.430444       -11.7130
 283   2.0000      -0.429670       -11.6919
 284   2.0000      -0.429299       -11.6818
 285   2.0000      -0.429023       -11.6743
 286   2.0000      -0.428290       -11.6544
 287   2.0000      -0.426986       -11.6189
 288   2.0000      -0.423104       -11.5132
 289   2.0000      -0.419766       -11.4224
 290   2.0000      -0.414111       -11.2685
 291   2.0000      -0.412095       -11.2137
 292   2.0000      -0.411225       -11.1900
 293   2.0000      -0.409825       -11.1519
 294   2.0000      -0.396735       -10.7957
 295   2.0000      -0.393946       -10.7198
 296   2.0000      -0.392887       -10.6910
 297   2.0000      -0.391449       -10.6519
 298   2.0000      -0.387088       -10.5332
 299   2.0000      -0.378472       -10.2988
 300   2.0000      -0.377549       -10.2736
 301   2.0000      -0.375780       -10.2255
 302   2.0000      -0.365412        -9.9434
 303   2.0000      -0.355994        -9.6871
 304   2.0000      -0.354320        -9.6415
 305   2.0000      -0.352131        -9.5820
 306   2.0000      -0.349177        -9.5016
 307   2.0000      -0.345044        -9.3891
 308   2.0000      -0.342527        -9.3206
 309   2.0000      -0.335003        -9.1159
 310   2.0000      -0.334106        -9.0915
 311   2.0000      -0.327019        -8.8986
 312   2.0000      -0.324873        -8.8403
 313   2.0000      -0.320002        -8.7077
 314   2.0000      -0.316867        -8.6224
 315   2.0000      -0.310736        -8.4556
 316   2.0000      -0.297703        -8.1009
 317   2.0000      -0.295655        -8.0452
 318   2.0000      -0.277323        -7.5463
 319   2.0000      -0.253054        -6.8860
 320   0.0000      -0.118820        -3.2332
 321   0.0000      -0.110574        -3.0089
 322   0.0000      -0.091061        -2.4779
 323   0.0000      -0.089798        -2.4435
 324   0.0000      -0.075467        -2.0536

MULLIKEN ATOMIC CHARGES
-----------------------
   0 C :    0.322652
   1 C :   -0.346578
   2 C :   -0.186487
   3 N :    0.151897
   4 C :   -0.195609
   5 N :    0.153682
   6 C :    0.012577
   7 C :   -0.013846
   8 C :   -0.070658
   9 C :    0.118180
  10 C :   -0.092682
  11 C :   -0.019398
  12 S :    0.189651
  13 C :   -0.121865
  14 C :    0.037294
  15 Br:    0.026046
  16 C :    0.165882
  17 O :   -0.191859
  18 C :   -0.092118
  19 C :   -0.029081
  20 C :   -0.055131
  21 C :   -0.058947
  22 C :    0.045108
  23 C :   -0.069080
  24 S :    0.241437
  25 C :   -0.094324
  26 C :    0.036701
  27 C :    0.312318
  28 C :   -0.298742
  29 C :   -0.197176
  30 N :    0.182464
  31 C :   -0.182887
  32 N :    0.172038
  33 C :   -0.054505
  34 C :   -0.109100
  35 S :    0.164104
  36 C :    0.164034
  37 C :   -0.070330
  38 C :   -0.072975
  39 C :    0.169941
  40 C :   -0.040605
  41 N :   -0.032126
  42 C :    0.044346
  43 C :    0.045208
  44 N :   -0.031790
  45 C :   -0.043265
  46 C :   -0.114436
  47 C :   -0.051821
  48 C :    0.038981
  49 C :   -0.091157
  50 S :    0.159363
  51 C :   -0.070464
  52 C :   -0.004404
  53 C :    0.311289
  54 C :   -0.293951
  55 C :   -0.181888
  56 N :    0.174536
  57 C :   -0.188156
  58 N :    0.171631
  59 C :   -0.002809
  60 C :   -0.113884
  61 S :    0.213270
  62 C :    0.082357
  63 C :   -0.135014
  64 C :    0.269718
  65 C :   -0.332328
  66 C :   -0.173101
  67 N :    0.160267
  68 C :   -0.201032
  69 N :    0.167161
  70 C :   -0.005367
  71 C :    0.007987
  72 C :    0.132909
  73 O :   -0.144965
  74 C :   -0.071753
  75 C :    0.112054
  76 C :   -0.088604
  77 C :   -0.016995
  78 S :    0.189404
  79 C :   -0.125359
  80 C :    0.040797
  81 Br:    0.025019
  82 H :   -0.010713
  83 H :   -0.004941
  84 H :   -0.003709
  85 H :    0.017835
  86 H :    0.028034
  87 H :    0.023802
  88 H :   -0.003534
  89 H :   -0.004277
  90 H :    0.031908
  91 H :    0.031507
  92 H :    0.023621
  93 H :    0.024305
  94 H :    0.021199
  95 H :   -0.008730
  96 H :    0.002511
  97 H :   -0.002472
Sum of atomic charges:   -0.0000000

LOEWDIN ATOMIC CHARGES
----------------------
   0 C :    0.076240
   1 C :   -0.140712
   2 C :   -0.018166
   3 N :   -0.052463
   4 C :   -0.023909
   5 N :   -0.046885
   6 C :   -0.019485
   7 C :   -0.051574
   8 C :    0.022103
   9 C :   -0.033106
  10 C :   -0.143546
  11 C :   -0.008623
  12 S :    0.435807
  13 C :   -0.271135
  14 C :   -0.070565
  15 Br:    0.138688
  16 C :    0.086077
  17 O :   -0.176308
  18 C :   -0.112803
  19 C :    0.056558
  20 C :   -0.184861
  21 C :    0.013320
  22 C :   -0.077470
  23 C :   -0.165170
  24 S :    0.545941
  25 C :   -0.186058
  26 C :   -0.058263
  27 C :    0.078412
  28 C :   -0.099824
  29 C :   -0.020156
  30 N :   -0.024949
  31 C :   -0.014125
  32 N :   -0.033517
  33 C :   -0.020698
  34 C :   -0.146517
  35 S :    0.475746
  36 C :   -0.036045
  37 C :   -0.016888
  38 C :   -0.018769
  39 C :   -0.033249
  40 C :    0.002508
  41 N :   -0.024010
  42 C :    0.021309
  43 C :    0.021541
  44 N :   -0.024461
  45 C :    0.002911
  46 C :   -0.150517
  47 C :   -0.017756
  48 C :   -0.061593
  49 C :   -0.182045
  50 S :    0.474901
  51 C :   -0.158362
  52 C :   -0.065288
  53 C :    0.083150
  54 C :   -0.097185
  55 C :   -0.014373
  56 N :   -0.031242
  57 C :   -0.012946
  58 N :   -0.033195
  59 C :    0.009033
  60 C :   -0.182329
  61 S :    0.498282
  62 C :    0.042071
  63 C :   -0.091776
  64 C :    0.065873
  65 C :   -0.137532
  66 C :   -0.019373
  67 N :   -0.045768
  68 C :   -0.015702
  69 N :   -0.047431
  70 C :   -0.017452
  71 C :   -0.053586
  72 C :    0.083468
  73 O :   -0.144249
  74 C :    0.022945
  75 C :   -0.033134
  76 C :   -0.142391
  77 C :   -0.009216
  78 S :    0.435686
  79 C :   -0.271703
  80 C :   -0.070175
  81 Br:    0.137888
  82 H :    0.040716
  83 H :    0.041709
  84 H :    0.038717
  85 H :    0.053869
  86 H :    0.048166
  87 H :    0.037865
  88 H :    0.024955
  89 H :    0.024472
  90 H :    0.034988
  91 H :    0.034851
  92 H :    0.037833
  93 H :    0.042503
  94 H :    0.045845
  95 H :    0.041640
  96 H :    0.042977
  97 H :    0.039064

  Mayer bond orders larger than 0.100000
B(  0-C ,  1-C ) :   1.6261 B(  0-C ,  6-C ) :   0.9989 B(  0-C , 18-C ) :   1.0765
B(  1-C ,  2-C ) :   1.1455 B(  1-C ,  4-C ) :   1.1417 B(  2-C ,  3-N ) :   2.9669
B(  4-C ,  5-N ) :   2.9648 B(  6-C ,  7-C ) :   1.2719 B(  6-C , 11-C ) :   1.4173
B(  7-C ,  8-C ) :   1.4224 B(  7-C , 16-C ) :   0.9628 B(  8-C ,  9-C ) :   1.2462
B(  8-C , 82-H ) :   1.0161 B(  9-C , 10-C ) :   1.3034 B(  9-C , 14-C ) :   1.1637
B( 10-C , 11-C ) :   1.3279 B( 10-C , 12-S ) :   1.0887 B( 11-C , 83-H ) :   0.9783
B( 12-S , 13-C ) :   1.0867 B( 13-C , 14-C ) :   1.6180 B( 13-C , 15-Br) :   1.0201
B( 14-C , 84-H ) :   1.0003 B( 16-C , 17-O ) :   2.1105 B( 16-C , 18-C ) :   0.9854
B( 18-C , 19-C ) :   1.4879 B( 19-C , 20-C ) :   1.2715 B( 19-C , 85-H ) :   0.9407
B( 20-C , 21-C ) :   1.3245 B( 20-C , 24-S ) :   1.0682 B( 21-C , 22-C ) :   1.3354
B( 21-C , 86-H ) :   1.0089 B( 22-C , 23-C ) :   1.3526 B( 22-C , 27-C ) :   0.9811
B( 23-C , 24-S ) :   1.1266 B( 23-C , 25-C ) :   1.2002 B( 25-C , 26-C ) :   1.4252
B( 25-C , 35-S ) :   1.1203 B( 26-C , 27-C ) :   1.0028 B( 26-C , 33-C ) :   1.2296
B( 27-C , 28-C ) :   1.7142 B( 28-C , 29-C ) :   1.1342 B( 28-C , 31-C ) :   1.1358
B( 29-C , 30-N ) :   2.9948 B( 31-C , 32-N ) :   2.9887 B( 33-C , 34-C ) :   1.4764
B( 33-C , 87-H ) :   0.9811 B( 34-C , 35-S ) :   1.0999 B( 34-C , 36-C ) :   1.1138
B( 36-C , 37-C ) :   1.3888 B( 36-C , 39-C ) :   0.1207 B( 36-C , 45-C ) :   1.2126
B( 37-C , 38-C ) :   1.3099 B( 37-C , 88-H ) :   0.9853 B( 38-C , 39-C ) :   1.3848
B( 38-C , 89-H ) :   0.9861 B( 39-C , 40-C ) :   1.2105 B( 39-C , 46-C ) :   1.1195
B( 40-C , 41-N ) :   1.4769 B( 40-C , 45-C ) :   1.2374 B( 41-N , 42-C ) :   1.6290
B( 42-C , 43-C ) :   1.2292 B( 42-C , 90-H ) :   0.9754 B( 43-C , 44-N ) :   1.6285
B( 43-C , 91-H ) :   0.9754 B( 44-N , 45-C ) :   1.4766 B( 46-C , 47-C ) :   1.4803
B( 46-C , 50-S ) :   1.0956 B( 47-C , 48-C ) :   1.2264 B( 47-C , 92-H ) :   0.9788
B( 48-C , 49-C ) :   1.4335 B( 48-C , 53-C ) :   0.9999 B( 49-C , 50-S ) :   1.1231
B( 49-C , 51-C ) :   1.1889 B( 51-C , 52-C ) :   1.4110 B( 51-C , 61-S ) :   1.1534
B( 52-C , 53-C ) :   0.9951 B( 52-C , 59-C ) :   1.3584 B( 53-C , 54-C ) :   1.7151
B( 54-C , 55-C ) :   1.1372 B( 54-C , 57-C ) :   1.1343 B( 55-C , 56-N ) :   2.9900
B( 57-C , 58-N ) :   2.9825 B( 59-C , 60-C ) :   1.3956 B( 59-C , 93-H ) :   0.9802
B( 60-C , 61-S ) :   1.0879 B( 60-C , 62-C ) :   1.1362 B( 62-C , 63-C ) :   1.6699
B( 62-C , 94-H ) :   0.9289 B( 63-C , 64-C ) :   1.0369 B( 63-C , 72-C ) :   0.9456
B( 64-C , 65-C ) :   1.6476 B( 64-C , 70-C ) :   1.0104 B( 65-C , 66-C ) :   1.1268
B( 65-C , 68-C ) :   1.1719 B( 66-C , 67-N ) :   2.9935 B( 68-C , 69-N ) :   2.9974
B( 70-C , 71-C ) :   1.2757 B( 70-C , 77-C ) :   1.4148 B( 71-C , 72-C ) :   0.9207
B( 71-C , 74-C ) :   1.4228 B( 72-C , 73-O ) :   2.2632 B( 74-C , 75-C ) :   1.2516
B( 74-C , 95-H ) :   1.0166 B( 75-C , 76-C ) :   1.3053 B( 75-C , 80-C ) :   1.1647
B( 76-C , 77-C ) :   1.3283 B( 76-C , 78-S ) :   1.0861 B( 77-C , 96-H ) :   0.9841
B( 78-S , 79-C ) :   1.0874 B( 79-C , 80-C ) :   1.6179 B( 79-C , 81-Br) :   1.0192
B( 80-C , 97-H ) :   1.0000

-----------------------------------------------------------------------------
         ABSORPTION SPECTRUM VIA TRANSITION ELECTRIC DIPOLE MOMENTS
-----------------------------------------------------------------------------
State   Energy  Wavelength   fosc         T2         TX        TY        TZ
        (cm-1)    (nm)                  (au**2)     (au)      (au)      (au)
-----------------------------------------------------------------------------
   0   13103.9    763.1   0.790707202  19.86508   3.92127  -1.67266  -1.30037
   1   14275.8    700.5   0.141558416   3.26445   1.06697  -1.27919  -0.69978
   2   19120.0    523.0   1.719611607  29.60866  -4.63860   2.12942   1.88617
   3   21018.0    475.8   0.282314230   4.42198  -0.72164   1.90667   0.51557
   4   22026.4    454.0   0.005851184   0.08745   0.13436   0.26305  -0.01435
   5   23449.0    426.5   0.138062580   1.93833  -0.00684  -0.92648  -1.03919
   6   24039.0    416.0   0.031427946   0.43040  -0.65148   0.06167   0.04659
   7   25680.1    389.4   0.071016434   0.91041   0.74483  -0.58549   0.11335
   8   26110.8    383.0   0.003157587   0.03981   0.01854  -0.17843  -0.08736
   9   27198.3    367.7   0.237162787   2.87066  -0.61854  -1.02527  -1.19870
  10   27905.7    358.3   0.029563001   0.34876  -0.52542  -0.11276   0.24492
  11   27942.6    357.9   0.025605670   0.30168  -0.50999  -0.12813  -0.15865
  12   28674.2    348.7   0.187897577   2.15728   1.02743  -0.86167  -0.59933
  13   28720.0    348.2   0.149345224   1.71192   1.24518   0.11433   0.38520
  14   29005.0    344.8   0.001160658   0.01317   0.10048  -0.02571   0.04915
  15   29142.4    343.1   0.013847732   0.15643  -0.01824   0.12587   0.37451
  16   29425.1    339.8   0.038750901   0.43355  -0.15897   0.63508  -0.07033
  17   29626.3    337.5   0.137887772   1.53223   0.79362   0.52331   0.79281
  18   30016.6    333.1   0.241235552   2.64579   0.68665   1.09446   0.98815
  19   30131.3    331.9   0.302886518   3.30931   1.55801  -0.77623  -0.52858
  20   30193.8    331.2   0.275838808   3.00755  -0.72652   1.47106   0.56188
  21   30424.3    328.7   0.100761163   1.09030  -0.14015   0.77659   0.68379
  22   30859.6    324.0   0.082151307   0.87639   0.27457   0.63049   0.63521
  23   31225.4    320.3   0.066577289   0.70193  -0.67324  -0.44391  -0.22720
  24   31980.0    312.7   0.348785965   3.59051   0.25677  -1.30746  -1.34727
  25   32270.4    309.9   0.534626051   5.45407   2.21136   0.14342   0.73714
  26   32381.3    308.8   0.279221281   2.83876   1.64526  -0.36151   0.03461
  27   32602.1    306.7   0.155479135   1.57001  -0.61068   1.04477   0.32487
  28   32811.1    304.8   0.150528659   1.51034  -0.24859  -0.68531  -0.98939
  29   32899.5    304.0   0.041206592   0.41234   0.12469   0.42793   0.46224
  30   33167.3    301.5   0.045594585   0.45256  -0.07385   0.53451   0.40176
  31   33283.8    300.4   0.033093875   0.32733  -0.04647  -0.46350  -0.33218
  32   33623.9    297.4   0.045551412   0.44599  -0.56934   0.24411  -0.24951
  33   33751.7    296.3   0.011625359   0.11339   0.25732   0.13231   0.17227
  34   34091.9    293.3   0.060356229   0.58284  -0.67912  -0.04809  -0.34542
  35   34130.1    293.0   0.103759534   1.00084   0.94250  -0.28724   0.17327
  36   34408.9    290.6   0.025018713   0.23937   0.30439  -0.37113  -0.09477
  37   34614.5    288.9   0.429649449   4.08631   0.70874   1.54660   1.09180
  38   34717.6    288.0   0.231741780   2.19751  -1.41458   0.14572  -0.41863
  39   35026.1    285.5   0.038281192   0.35981   0.30214  -0.28534  -0.43255
  40   35293.6    283.3   0.072499787   0.67626  -0.50283  -0.28328  -0.58581
  41   35550.7    281.3   0.069600901   0.64453   0.72591  -0.22090  -0.26227
  42   35682.1    280.3   0.077749108   0.71733  -0.77176   0.28039   0.20759
  43   35998.5    277.8   0.006708738   0.06135   0.24511  -0.01985  -0.02963
  44   36200.9    276.2   0.028345802   0.25778   0.48079   0.07726   0.14369
  45   36478.2    274.1   0.038883033   0.35092  -0.25085  -0.38418  -0.37469
  46   36636.7    273.0   0.160816339   1.44507   0.90803   0.35889   0.70125
  47   36856.8    271.3   0.131179213   1.17172  -0.23231   0.94249   0.47902
  48   36934.5    270.7   0.107487054   0.95807  -0.46356   0.79986   0.32159
  49   37184.0    268.9   0.141140404   1.24960  -1.10452   0.08523  -0.14955
  50   37540.0    266.4   0.006984964   0.06126   0.23969   0.00631   0.06135
  51   37574.3    266.1   0.059418074   0.52060   0.30044  -0.50826  -0.41474
  52   37839.2    264.3   0.063301057   0.55074   0.58654  -0.38690  -0.23877
  53   38517.2    259.6   0.075392202   0.64439   0.66420   0.28325   0.35070
  54   38781.7    257.9   0.022444525   0.19053  -0.28793   0.23317   0.23077
  55   38840.2    257.5   0.039150900   0.33185  -0.49407   0.18869   0.22833
  56   39046.0    256.1   0.039995325   0.33722  -0.42389   0.39675   0.01133
  57   39148.9    255.4   0.034450483   0.28970   0.26501  -0.46842   0.00724
  58   39360.3    254.1   0.031309921   0.26188   0.10299   0.33715   0.37095
  59   39476.8    253.3   0.075189253   0.62703  -0.46646   0.51547   0.37913
  60   39649.0    252.2   0.066862730   0.55517  -0.02644   0.59810   0.44357
  61   39862.4    250.9   0.048173961   0.39785  -0.15851   0.27743   0.54384
  62   39974.0    250.2   0.008752930   0.07209   0.09867   0.00511   0.24965
  63   40135.7    249.2   0.002585495   0.02121   0.11988  -0.03983  -0.07245
  64   40279.5    248.3   0.040554150   0.33146  -0.57383   0.00217  -0.04654

FINAL SINGLE POINT ENERGY    -10602.476394530944

DIPOLE MOMENT
-------------
                                X             Y             Z
Electronic contribution:    -68.62835     -31.12416     -40.11154
Nuclear contribution   :     65.00824      30.17383      36.67367
                        -----------------------------------------
Total Dipole Moment    :     -3.62011      -0.95033      -3.43787
                        -----------------------------------------
Magnitude (a.u.)       :      5.08205
Magnitude (Debye)      :     12.91755

Rotational constants in cm-1:     0.001271     0.000103     0.000096
Rotational constants in MHz :    38.089305     3.074737     2.865266

                             ****ORCA TERMINATED NORMALLY****
TOTAL RUN TIME: 0 days 0 hours 16 minutes 14 seconds 443 msec
