                         Program Version 4.2.0 -  RELEASE  -
|  1> # ORCA input file
|  2> # SCF done       -184.832312300025          0.000566288607
|  3> ! CAM-B3LYP def2-SVP def2/J RIJCOSX Grid4 TightSCF
|  4> %maxcore 5000
|  5> %tddft
|  6>     Mode sTDDFT
|  7>     Ethresh 5.0
|  8>     maxcore 5000
|  9> end
| 10>
| 11> %pal
| 12>   nprocs 6
| 13>   end
| 14> * xyz 0 1
| 15>    C       -0.95066         2.22284         6.00024
| 16>    C        0.07121         3.09260         5.71805
| 17>    C        1.36507         2.99521         6.27152
| 18>    N        2.43221         2.97187         6.69391
| 19>    C       -0.00593         4.17634         4.81802
| 20>    N        0.01635         5.06335         4.08885
| 21>    C       -0.84679         1.04338         6.85015
| 22>    C       -2.06268         0.32274         6.77218
| 23>    C       -2.27954        -0.84688         7.45898
| 24>    C       -1.24432        -1.32877         8.26629
| 25>    C       -0.03367        -0.59894         8.34451
| 26>    C        0.18510         0.58280         7.64722
| 27>    S        1.10653        -1.36643         9.40728
| 28>    C       -0.04112        -2.64037         9.72553
| 29>    C       -1.21842        -2.50033         9.07107
| 30>   Br        0.42224        -4.03184        10.89375
| 31>    C       -3.00236         1.02742         5.87936
| 32>    O       -4.13709         0.68277         5.62944
| 33>    C       -2.29326         2.25728         5.44751
| 34>    C       -2.84598         3.34018         4.81992
| 35>    C       -4.09675         3.45155         4.18016
| 36>    C       -4.95947         2.49022         3.66910
| 37>    C       -6.09832         3.05387         3.11120
| 38>    C       -6.11972         4.46386         3.19316
| 39>    S       -4.71462         5.08901         3.91495
| 40>    C       -7.35078         4.92831         2.66791
| 41>    C       -8.10376         3.81402         2.24576
| 42>    C       -7.33358         2.60475         2.48877
| 43>    C       -7.69028         1.32345         2.18947
| 44>    C       -6.84471         0.21804         2.42869
| 45>    N       -6.16940        -0.69401         2.58993
| 46>    C       -8.93057         1.00854         1.59325
| 47>    N       -9.93641         0.74024         1.11290
| 48>    C       -9.35646         4.17062         1.74981
| 49>    C       -9.54674         5.53759         1.80127
| 50>    S       -8.18040         6.40627         2.44854
| 51>    C      -10.72792         6.25953         1.44205
| 52>    N      -11.78744         5.56723         0.98074
| 53>    C      -12.88380         6.24908         0.80053
| 54>    C      -12.94713         7.62246         1.14296
| 55>    N      -11.80050         8.25595         1.43918
| 56>    N      -10.70886         7.58813         1.56512
| 57>    C      -14.15511         8.37519         1.17347
| 58>    S      -15.70611         7.60873         0.88711
| 59>    C      -16.49479         9.09786         1.19090
| 60>    C      -15.60387        10.13397         1.48378
| 61>    C      -14.28080         9.72163         1.47555
| 62>    C      -16.35146        11.41805         1.75806
| 63>    C      -16.08034        11.92677         3.17631
| 64>    C      -16.00650        12.49193         0.72206
| 65>    C      -17.77847        10.94459         1.60447
| 66>    C      -17.81645         9.59036         1.26402
| 67>    S      -19.41627         9.00060         1.09643
| 68>    C      -20.05496        10.58399         1.49942
| 69>    C      -19.04064        11.50328         1.73519
| 70>    C      -21.46187        10.74368         1.56744
| 71>    C      -22.09884        11.89105         1.90890
| 72>    C      -23.50700        12.03059         2.01211
| 73>    C      -24.50639        11.09418         1.80328
| 74>    C      -25.77664        11.62133         2.03083
| 75>    C      -25.75344        12.96950         2.41502
| 76>    S      -24.16639        13.58889         2.49455
| 77>    C      -27.09321        13.40079         2.62725
| 78>    C      -27.95496        12.32558         2.37737
| 79>    C      -27.16489        11.17201         1.99429
| 80>    C      -27.61416         9.92504         1.67021
| 81>    C      -26.73529         8.88115         1.31405
| 82>    N      -26.02107         8.03155         1.02517
| 83>    C      -28.98565         9.59542         1.66998
| 84>    N      -30.09911         9.32068         1.66828
| 85>    C      -29.30840        12.66599         2.56818
| 86>    C      -29.44367        13.96512         2.95077
| 87>    S      -27.93619        14.81089         3.09030
| 88>    H       -3.21766        -1.37244         7.37394
| 89>    H        1.12269         1.10395         7.74455
| 90>    H       -2.03648        -3.19260         9.15155
| 91>    H       -2.27872         4.26364         4.84075
| 92>    H       -4.75353         1.43754         3.71248
| 93>    H      -10.10904         3.50064         1.37673
| 94>    H      -13.73033         5.72751         0.37247
| 95>    H      -13.41989        10.33106         1.67918
| 96>    H      -15.03071        12.18779         3.28374
| 97>    H      -16.32566        11.15935         3.90700
| 98>    H      -16.68445        12.80747         3.37936
| 99>    H      -14.95373        12.75286         0.79318
|100>    H      -16.60303        13.38398         0.89608
|101>    H      -16.20868        12.12748        -0.28258
|102>    H      -19.23077        12.52832         1.99456
|103>    H      -22.04374         9.86181         1.33987
|104>    H      -21.52164        12.77611         2.13623
|105>    H      -24.31178        10.08162         1.50299
|106>    H      -30.13606        11.99420         2.43212
|107>    H      -30.34880        14.49677         3.16582
|108> *
|109>
|110>                          ****END OF INPUT****

CARTESIAN COORDINATES (ANGSTROEM)
---------------------------------
  C     -0.950660    2.222840    6.000240
  C      0.071210    3.092600    5.718050
  C      1.365070    2.995210    6.271520
  N      2.432210    2.971870    6.693910
  C     -0.005930    4.176340    4.818020
  N      0.016350    5.063350    4.088850
  C     -0.846790    1.043380    6.850150
  C     -2.062680    0.322740    6.772180
  C     -2.279540   -0.846880    7.458980
  C     -1.244320   -1.328770    8.266290
  C     -0.033670   -0.598940    8.344510
  C      0.185100    0.582800    7.647220
  S      1.106530   -1.366430    9.407280
  C     -0.041120   -2.640370    9.725530
  C     -1.218420   -2.500330    9.071070
  Br     0.422240   -4.031840   10.893750
  C     -3.002360    1.027420    5.879360
  O     -4.137090    0.682770    5.629440
  C     -2.293260    2.257280    5.447510
  C     -2.845980    3.340180    4.819920
  C     -4.096750    3.451550    4.180160
  C     -4.959470    2.490220    3.669100
  C     -6.098320    3.053870    3.111200
  C     -6.119720    4.463860    3.193160
  S     -4.714620    5.089010    3.914950
  C     -7.350780    4.928310    2.667910
  C     -8.103760    3.814020    2.245760
  C     -7.333580    2.604750    2.488770
  C     -7.690280    1.323450    2.189470
  C     -6.844710    0.218040    2.428690
  N     -6.169400   -0.694010    2.589930
  C     -8.930570    1.008540    1.593250
  N     -9.936410    0.740240    1.112900
  C     -9.356460    4.170620    1.749810
  C     -9.546740    5.537590    1.801270
  S     -8.180400    6.406270    2.448540
  C    -10.727920    6.259530    1.442050
  N    -11.787440    5.567230    0.980740
  C    -12.883800    6.249080    0.800530
  C    -12.947130    7.622460    1.142960
  N    -11.800500    8.255950    1.439180
  N    -10.708860    7.588130    1.565120
  C    -14.155110    8.375190    1.173470
  S    -15.706110    7.608730    0.887110
  C    -16.494790    9.097860    1.190900
  C    -15.603870   10.133970    1.483780
  C    -14.280800    9.721630    1.475550
  C    -16.351460   11.418050    1.758060
  C    -16.080340   11.926770    3.176310
  C    -16.006500   12.491930    0.722060
  C    -17.778470   10.944590    1.604470
  C    -17.816450    9.590360    1.264020
  S    -19.416270    9.000600    1.096430
  C    -20.054960   10.583990    1.499420
  C    -19.040640   11.503280    1.735190
  C    -21.461870   10.743680    1.567440
  C    -22.098840   11.891050    1.908900
  C    -23.507000   12.030590    2.012110
  C    -24.506390   11.094180    1.803280
  C    -25.776640   11.621330    2.030830
  C    -25.753440   12.969500    2.415020
  S    -24.166390   13.588890    2.494550
  C    -27.093210   13.400790    2.627250
  C    -27.954960   12.325580    2.377370
  C    -27.164890   11.172010    1.994290
  C    -27.614160    9.925040    1.670210
  C    -26.735290    8.881150    1.314050
  N    -26.021070    8.031550    1.025170
  C    -28.985650    9.595420    1.669980
  N    -30.099110    9.320680    1.668280
  C    -29.308400   12.665990    2.568180
  C    -29.443670   13.965120    2.950770
  S    -27.936190   14.810890    3.090300
  H     -3.217660   -1.372440    7.373940
  H      1.122690    1.103950    7.744550
  H     -2.036480   -3.192600    9.151550
  H     -2.278720    4.263640    4.840750
  H     -4.753530    1.437540    3.712480
  H    -10.109040    3.500640    1.376730
  H    -13.730330    5.727510    0.372470
  H    -13.419890   10.331060    1.679180
  H    -15.030710   12.187790    3.283740
  H    -16.325660   11.159350    3.907000
  H    -16.684450   12.807470    3.379360
  H    -14.953730   12.752860    0.793180
  H    -16.603030   13.383980    0.896080
  H    -16.208680   12.127480   -0.282580
  H    -19.230770   12.528320    1.994560
  H    -22.043740    9.861810    1.339870
  H    -21.521640   12.776110    2.136230
  H    -24.311780   10.081620    1.502990
  H    -30.136060   11.994200    2.432120
  H    -30.348800   14.496770    3.165820

 Total Charge           Charge          ....    0
 Multiplicity           Mult            ....    1
 Number of Electrons    NEL             ....  568
 Basis Dimension        Dim             .... 1168

ORBITAL ENERGIES
----------------

  NO   OCC          E(Eh)            E(eV)
   0   2.0000    -482.885141    -13139.9727
   1   2.0000     -88.995827     -2421.6996
   2   2.0000     -88.992917     -2421.6204
   3   2.0000     -88.985736     -2421.4250
   4   2.0000     -88.985363     -2421.4148
   5   2.0000     -88.976511     -2421.1739
   6   2.0000     -88.975404     -2421.1438
   7   2.0000     -88.970789     -2421.0182
   8   2.0000     -62.562879     -1702.4225
   9   2.0000     -56.396830     -1534.6358
  10   2.0000     -56.394109     -1534.5617
  11   2.0000     -56.394079     -1534.5609
  12   2.0000     -19.218419      -522.9598
  13   2.0000     -14.461888      -393.5280
  14   2.0000     -14.457598      -393.4112
  15   2.0000     -14.443262      -393.0211
  16   2.0000     -14.429963      -392.6593
  17   2.0000     -14.428400      -392.6167
  18   2.0000     -14.428022      -392.6064
  19   2.0000     -14.427065      -392.5804
  20   2.0000     -14.416253      -392.2862
  21   2.0000     -14.414837      -392.2477
  22   2.0000     -10.370148      -282.1861
  23   2.0000     -10.366263      -282.0804
  24   2.0000     -10.361263      -281.9443
  25   2.0000     -10.360577      -281.9256
  26   2.0000     -10.358736      -281.8755
  27   2.0000     -10.353094      -281.7220
  28   2.0000     -10.348566      -281.5988
  29   2.0000     -10.345235      -281.5081
  30   2.0000     -10.343277      -281.4549
  31   2.0000     -10.342477      -281.4331
  32   2.0000     -10.341894      -281.4172
  33   2.0000     -10.339734      -281.3585
  34   2.0000     -10.335264      -281.2368
  35   2.0000     -10.329830      -281.0890
  36   2.0000     -10.328826      -281.0616
  37   2.0000     -10.328292      -281.0471
  38   2.0000     -10.327926      -281.0371
  39   2.0000     -10.327840      -281.0348
  40   2.0000     -10.327768      -281.0329
  41   2.0000     -10.327591      -281.0280
  42   2.0000     -10.325756      -280.9781
  43   2.0000     -10.325623      -280.9745
  44   2.0000     -10.323939      -280.9287
  45   2.0000     -10.320092      -280.8240
  46   2.0000     -10.319257      -280.8013
  47   2.0000     -10.317832      -280.7625
  48   2.0000     -10.317137      -280.7436
  49   2.0000     -10.313713      -280.6504
  50   2.0000     -10.311837      -280.5993
  51   2.0000     -10.310430      -280.5611
  52   2.0000     -10.309518      -280.5362
  53   2.0000     -10.309120      -280.5254
  54   2.0000     -10.308452      -280.5072
  55   2.0000     -10.308278      -280.5025
  56   2.0000     -10.307897      -280.4921
  57   2.0000     -10.307557      -280.4829
  58   2.0000     -10.305781      -280.4346
  59   2.0000     -10.304418      -280.3975
  60   2.0000     -10.302956      -280.3577
  61   2.0000     -10.301764      -280.3253
  62   2.0000     -10.300689      -280.2960
  63   2.0000     -10.299500      -280.2636
  64   2.0000     -10.296367      -280.1784
  65   2.0000     -10.296138      -280.1722
  66   2.0000     -10.295924      -280.1663
  67   2.0000     -10.295585      -280.1571
  68   2.0000     -10.295378      -280.1515
  69   2.0000     -10.295220      -280.1472
  70   2.0000     -10.292219      -280.0655
  71   2.0000     -10.289579      -279.9937
  72   2.0000     -10.286250      -279.9031
  73   2.0000     -10.284749      -279.8622
  74   2.0000     -10.282951      -279.8133
  75   2.0000     -10.272572      -279.5309
  76   2.0000     -10.272452      -279.5276
  77   2.0000      -8.792330      -239.2515
  78   2.0000      -8.090611      -220.1567
  79   2.0000      -8.086911      -220.0560
  80   2.0000      -8.080546      -219.8828
  81   2.0000      -8.080450      -219.8802
  82   2.0000      -8.071367      -219.6331
  83   2.0000      -8.071359      -219.6328
  84   2.0000      -8.065896      -219.4842
  85   2.0000      -6.628656      -180.3749
  86   2.0000      -6.614059      -179.9777
  87   2.0000      -6.613845      -179.9719
  88   2.0000      -6.059737      -164.8938
  89   2.0000      -6.056161      -164.7965
  90   2.0000      -6.055594      -164.7811
  91   2.0000      -6.053130      -164.7140
  92   2.0000      -6.051838      -164.6789
  93   2.0000      -6.049696      -164.6206
  94   2.0000      -6.049674      -164.6200
  95   2.0000      -6.049438      -164.6136
  96   2.0000      -6.045635      -164.5101
  97   2.0000      -6.045306      -164.5011
  98   2.0000      -6.043044      -164.4396
  99   2.0000      -6.042997      -164.4383
 100   2.0000      -6.041061      -164.3856
 101   2.0000      -6.040663      -164.3748
 102   2.0000      -6.036775      -164.2690
 103   2.0000      -6.036672      -164.2662
 104   2.0000      -6.035149      -164.2248
 105   2.0000      -6.033447      -164.1784
 106   2.0000      -6.032599      -164.1554
 107   2.0000      -6.031158      -164.1162
 108   2.0000      -6.028031      -164.0311
 109   2.0000      -2.744483       -74.6812
 110   2.0000      -2.740441       -74.5712
 111   2.0000      -2.740291       -74.5671
 112   2.0000      -2.728680       -74.2511
 113   2.0000      -2.728660       -74.2506
 114   2.0000      -1.155457       -31.4416
 115   2.0000      -1.134342       -30.8670
 116   2.0000      -1.049612       -28.5614
 117   2.0000      -1.040625       -28.3168
 118   2.0000      -1.039675       -28.2910
 119   2.0000      -1.023353       -27.8469
 120   2.0000      -1.022677       -27.8285
 121   2.0000      -1.021593       -27.7989
 122   2.0000      -1.018811       -27.7233
 123   2.0000      -1.013659       -27.5831
 124   2.0000      -1.006526       -27.3890
 125   2.0000      -1.005184       -27.3524
 126   2.0000      -1.003166       -27.2975
 127   2.0000      -0.994377       -27.0584
 128   2.0000      -0.992075       -26.9957
 129   2.0000      -0.990126       -26.9427
 130   2.0000      -0.987607       -26.8741
 131   2.0000      -0.966223       -26.2923
 132   2.0000      -0.954749       -25.9800
 133   2.0000      -0.950205       -25.8564
 134   2.0000      -0.943348       -25.6698
 135   2.0000      -0.930351       -25.3161
 136   2.0000      -0.917573       -24.9684
 137   2.0000      -0.914198       -24.8766
 138   2.0000      -0.908563       -24.7232
 139   2.0000      -0.894583       -24.3428
 140   2.0000      -0.891555       -24.2604
 141   2.0000      -0.885813       -24.1042
 142   2.0000      -0.874063       -23.7845
 143   2.0000      -0.869779       -23.6679
 144   2.0000      -0.861555       -23.4441
 145   2.0000      -0.858797       -23.3690
 146   2.0000      -0.854961       -23.2647
 147   2.0000      -0.849030       -23.1033
 148   2.0000      -0.841703       -22.9039
 149   2.0000      -0.832962       -22.6661
 150   2.0000      -0.830425       -22.5970
 151   2.0000      -0.828803       -22.5529
 152   2.0000      -0.806878       -21.9563
 153   2.0000      -0.798095       -21.7173
 154   2.0000      -0.787369       -21.4254
 155   2.0000      -0.784192       -21.3390
 156   2.0000      -0.778280       -21.1781
 157   2.0000      -0.774330       -21.0706
 158   2.0000      -0.763773       -20.7833
 159   2.0000      -0.759939       -20.6790
 160   2.0000      -0.753183       -20.4952
 161   2.0000      -0.730496       -19.8778
 162   2.0000      -0.720176       -19.5970
 163   2.0000      -0.709929       -19.3182
 164   2.0000      -0.702846       -19.1254
 165   2.0000      -0.700392       -19.0586
 166   2.0000      -0.693545       -18.8723
 167   2.0000      -0.692861       -18.8537
 168   2.0000      -0.683738       -18.6054
 169   2.0000      -0.682950       -18.5840
 170   2.0000      -0.673703       -18.3324
 171   2.0000      -0.673214       -18.3191
 172   2.0000      -0.668229       -18.1834
 173   2.0000      -0.659305       -17.9406
 174   2.0000      -0.654983       -17.8230
 175   2.0000      -0.642443       -17.4818
 176   2.0000      -0.639962       -17.4142
 177   2.0000      -0.633646       -17.2424
 178   2.0000      -0.629706       -17.1352
 179   2.0000      -0.627288       -17.0694
 180   2.0000      -0.622722       -16.9451
 181   2.0000      -0.621028       -16.8990
 182   2.0000      -0.618573       -16.8322
 183   2.0000      -0.611937       -16.6516
 184   2.0000      -0.607941       -16.5429
 185   2.0000      -0.599792       -16.3212
 186   2.0000      -0.596284       -16.2257
 187   2.0000      -0.588576       -16.0160
 188   2.0000      -0.582111       -15.8401
 189   2.0000      -0.576361       -15.6836
 190   2.0000      -0.567771       -15.4498
 191   2.0000      -0.566612       -15.4183
 192   2.0000      -0.558676       -15.2024
 193   2.0000      -0.553222       -15.0539
 194   2.0000      -0.549834       -14.9618
 195   2.0000      -0.549192       -14.9443
 196   2.0000      -0.547232       -14.8910
 197   2.0000      -0.542277       -14.7561
 198   2.0000      -0.542062       -14.7503
 199   2.0000      -0.537983       -14.6393
 200   2.0000      -0.535839       -14.5809
 201   2.0000      -0.533860       -14.5271
 202   2.0000      -0.528880       -14.3916
 203   2.0000      -0.527088       -14.3428
 204   2.0000      -0.519876       -14.1465
 205   2.0000      -0.517963       -14.0945
 206   2.0000      -0.516192       -14.0463
 207   2.0000      -0.512099       -13.9349
 208   2.0000      -0.509324       -13.8594
 209   2.0000      -0.506417       -13.7803
 210   2.0000      -0.505229       -13.7480
 211   2.0000      -0.501402       -13.6438
 212   2.0000      -0.500312       -13.6142
 213   2.0000      -0.499142       -13.5824
 214   2.0000      -0.496536       -13.5114
 215   2.0000      -0.492591       -13.4041
 216   2.0000      -0.490826       -13.3561
 217   2.0000      -0.490251       -13.3404
 218   2.0000      -0.489464       -13.3190
 219   2.0000      -0.486211       -13.2305
 220   2.0000      -0.485883       -13.2216
 221   2.0000      -0.481108       -13.0916
 222   2.0000      -0.477769       -13.0007
 223   2.0000      -0.474761       -12.9189
 224   2.0000      -0.472127       -12.8472
 225   2.0000      -0.468271       -12.7423
 226   2.0000      -0.467222       -12.7138
 227   2.0000      -0.465986       -12.6801
 228   2.0000      -0.460313       -12.5258
 229   2.0000      -0.459845       -12.5130
 230   2.0000      -0.459141       -12.4939
 231   2.0000      -0.458190       -12.4680
 232   2.0000      -0.456345       -12.4178
 233   2.0000      -0.454918       -12.3789
 234   2.0000      -0.454374       -12.3642
 235   2.0000      -0.449178       -12.2228
 236   2.0000      -0.449037       -12.2189
 237   2.0000      -0.447899       -12.1879
 238   2.0000      -0.446775       -12.1574
 239   2.0000      -0.445199       -12.1145
 240   2.0000      -0.443703       -12.0738
 241   2.0000      -0.440712       -11.9924
 242   2.0000      -0.439082       -11.9480
 243   2.0000      -0.438938       -11.9441
 244   2.0000      -0.438597       -11.9348
 245   2.0000      -0.438065       -11.9204
 246   2.0000      -0.438008       -11.9188
 247   2.0000      -0.437876       -11.9152
 248   2.0000      -0.434288       -11.8176
 249   2.0000      -0.434243       -11.8163
 250   2.0000      -0.430277       -11.7084
 251   2.0000      -0.428926       -11.6717
 252   2.0000      -0.426730       -11.6119
 253   2.0000      -0.424839       -11.5604
 254   2.0000      -0.423458       -11.5229
 255   2.0000      -0.423255       -11.5174
 256   2.0000      -0.421446       -11.4681
 257   2.0000      -0.414081       -11.2677
 258   2.0000      -0.412578       -11.2268
 259   2.0000      -0.411572       -11.1994
 260   2.0000      -0.408658       -11.1202
 261   2.0000      -0.406092       -11.0503
 262   2.0000      -0.400793       -10.9061
 263   2.0000      -0.395870       -10.7722
 264   2.0000      -0.390619       -10.6293
 265   2.0000      -0.384970       -10.4756
 266   2.0000      -0.374584       -10.1929
 267   2.0000      -0.369233       -10.0473
 268   2.0000      -0.359344        -9.7782
 269   2.0000      -0.353449        -9.6178
 270   2.0000      -0.344244        -9.3674
 271   2.0000      -0.342209        -9.3120
 272   2.0000      -0.337190        -9.1754
 273   2.0000      -0.334113        -9.0917
 274   2.0000      -0.330239        -8.9862
 275   2.0000      -0.324025        -8.8172
 276   2.0000      -0.319624        -8.6974
 277   2.0000      -0.316520        -8.6129
 278   2.0000      -0.315591        -8.5877
 279   2.0000      -0.309631        -8.4255
 280   2.0000      -0.294150        -8.0042
 281   2.0000      -0.283604        -7.7173
 282   2.0000      -0.265971        -7.2374
 283   2.0000      -0.233891        -6.3645
 284   0.0000      -0.113258        -3.0819
 285   0.0000      -0.099792        -2.7155
 286   0.0000      -0.088604        -2.4110
 287   0.0000      -0.071927        -1.9572
 288   0.0000      -0.060329        -1.6416

MULLIKEN ATOMIC CHARGES
-----------------------
   0 C :    0.301329
   1 C :   -0.347085
   2 C :   -0.185490
   3 N :    0.150345
   4 C :   -0.202787
   5 N :    0.158534
   6 C :    0.016806
   7 C :   -0.019129
   8 C :   -0.068893
   9 C :    0.120629
  10 C :   -0.091172
  11 C :   -0.020419
  12 S :    0.187270
  13 C :   -0.124117
  14 C :    0.038128
  15 Br:    0.025005
  16 C :    0.149588
  17 O :   -0.149919
  18 C :   -0.090237
  19 C :    0.025213
  20 C :   -0.114080
  21 C :    0.033001
  22 C :   -0.020163
  23 C :   -0.084287
  24 S :    0.209014
  25 C :   -0.099853
  26 C :    0.017598
  27 C :    0.305864
  28 C :   -0.295753
  29 C :   -0.186858
  30 N :    0.185008
  31 C :   -0.196319
  32 N :    0.182713
  33 C :   -0.048173
  34 C :   -0.029663
  35 S :    0.251662
  36 C :   -0.082717
  37 N :   -0.015090
  38 C :    0.001424
  39 C :    0.011601
  40 N :   -0.059389
  41 N :   -0.050971
  42 C :   -0.058163
  43 S :    0.144635
  44 C :   -0.074658
  45 C :    0.024248
  46 C :   -0.051100
  47 C :   -0.109951
  48 C :    0.100521
  49 C :    0.107990
  50 C :    0.011359
  51 C :   -0.092294
  52 S :    0.159071
  53 C :   -0.078292
  54 C :   -0.040492
  55 C :    0.046753
  56 C :    0.041390
  57 C :   -0.077169
  58 C :   -0.034167
  59 C :    0.000893
  60 C :   -0.106968
  61 S :    0.177619
  62 C :   -0.115431
  63 C :   -0.036421
  64 C :    0.301585
  65 C :   -0.299705
  66 C :   -0.184086
  67 N :    0.164903
  68 C :   -0.190169
  69 N :    0.172113
  70 C :    0.039896
  71 C :   -0.085017
  72 S :    0.176375
  73 H :   -0.006858
  74 H :   -0.006456
  75 H :   -0.000754
  76 H :    0.020994
  77 H :    0.033023
  78 H :    0.021683
  79 H :    0.024882
  80 H :   -0.002447
  81 H :    0.016101
  82 H :    0.023724
  83 H :    0.010742
  84 H :    0.015002
  85 H :    0.010033
  86 H :    0.022871
  87 H :   -0.025521
  88 H :   -0.008868
  89 H :   -0.022521
  90 H :    0.004258
  91 H :    0.011861
  92 H :    0.034810
Sum of atomic charges:   -0.0000000

LOEWDIN ATOMIC CHARGES
----------------------
   0 C :    0.076065
   1 C :   -0.142738
   2 C :   -0.018434
   3 N :   -0.053318
   4 C :   -0.025268
   5 N :   -0.052789
   6 C :   -0.021442
   7 C :   -0.050332
   8 C :    0.024051
   9 C :   -0.031861
  10 C :   -0.143657
  11 C :   -0.009576
  12 S :    0.433095
  13 C :   -0.271173
  14 C :   -0.069681
  15 Br:    0.137798
  16 C :    0.084629
  17 O :   -0.137345
  18 C :   -0.096279
  19 C :    0.043603
  20 C :   -0.178063
  21 C :    0.024014
  22 C :   -0.072850
  23 C :   -0.159361
  24 S :    0.495334
  25 C :   -0.185820
  26 C :   -0.059227
  27 C :    0.075999
  28 C :   -0.094394
  29 C :   -0.019364
  30 N :   -0.021393
  31 C :   -0.017693
  32 N :   -0.027380
  33 C :   -0.006278
  34 C :   -0.179030
  35 S :    0.521055
  36 C :   -0.026641
  37 N :   -0.046603
  38 C :    0.030109
  39 C :   -0.045512
  40 N :   -0.026083
  41 N :   -0.065530
  42 C :   -0.194712
  43 S :    0.441445
  44 C :   -0.180844
  45 C :   -0.041167
  46 C :   -0.017376
  47 C :   -0.034649
  48 C :   -0.024113
  49 C :   -0.022804
  50 C :   -0.028815
  51 C :   -0.203705
  52 S :    0.446387
  53 C :   -0.160834
  54 C :   -0.054114
  55 C :   -0.034975
  56 C :   -0.046759
  57 C :   -0.162182
  58 C :   -0.031331
  59 C :   -0.066851
  60 C :   -0.190473
  61 S :    0.470037
  62 C :   -0.180692
  63 C :   -0.080665
  64 C :    0.084764
  65 C :   -0.106135
  66 C :   -0.015148
  67 N :   -0.038499
  68 C :   -0.017029
  69 N :   -0.034732
  70 C :   -0.033974
  71 C :   -0.180534
  72 S :    0.473660
  73 H :    0.042383
  74 H :    0.040967
  75 H :    0.039671
  76 H :    0.043972
  77 H :    0.045111
  78 H :    0.046716
  79 H :    0.026355
  80 H :    0.038301
  81 H :    0.025891
  82 H :    0.030876
  83 H :    0.023633
  84 H :    0.025778
  85 H :    0.023555
  86 H :    0.030852
  87 H :    0.028057
  88 H :    0.031131
  89 H :    0.025946
  90 H :    0.037670
  91 H :    0.042369
  92 H :    0.026953

  Mayer bond orders larger than 0.100000
B(  0-C ,  1-C ) :   1.6319 B(  0-C ,  6-C ) :   1.0047 B(  0-C , 18-C ) :   1.0745
B(  1-C ,  2-C ) :   1.1423 B(  1-C ,  4-C ) :   1.1403 B(  2-C ,  3-N ) :   2.9718
B(  4-C ,  5-N ) :   2.9903 B(  6-C ,  7-C ) :   1.2722 B(  6-C , 11-C ) :   1.4100
B(  7-C ,  8-C ) :   1.4235 B(  7-C , 16-C ) :   0.9467 B(  8-C ,  9-C ) :   1.2449
B(  8-C , 73-H ) :   1.0172 B(  9-C , 10-C ) :   1.3035 B(  9-C , 14-C ) :   1.1629
B( 10-C , 11-C ) :   1.3303 B( 10-C , 12-S ) :   1.0869 B( 11-C , 74-H ) :   0.9805
B( 12-S , 13-C ) :   1.0861 B( 13-C , 14-C ) :   1.6191 B( 13-C , 15-Br) :   1.0194
B( 14-C , 75-H ) :   0.9999 B( 16-C , 17-O ) :   2.1969 B( 16-C , 18-C ) :   0.9435
B( 18-C , 19-C ) :   1.5945 B( 19-C , 20-C ) :   1.1989 B( 19-C , 76-H ) :   0.9259
B( 20-C , 21-C ) :   1.4055 B( 20-C , 24-S ) :   1.0756 B( 21-C , 22-C ) :   1.3382
B( 21-C , 77-H ) :   0.9751 B( 22-C , 23-C ) :   1.3871 B( 22-C , 27-C ) :   0.9937
B( 23-C , 24-S ) :   1.1674 B( 23-C , 25-C ) :   1.2039 B( 25-C , 26-C ) :   1.4266
B( 25-C , 35-S ) :   1.1185 B( 26-C , 27-C ) :   0.9968 B( 26-C , 33-C ) :   1.2668
B( 27-C , 28-C ) :   1.7186 B( 28-C , 29-C ) :   1.1343 B( 28-C , 31-C ) :   1.1372
B( 29-C , 30-N ) :   2.9929 B( 31-C , 32-N ) :   2.9987 B( 33-C , 34-C ) :   1.4698
B( 33-C , 78-H ) :   1.0054 B( 34-C , 35-S ) :   1.1187 B( 34-C , 36-C ) :   1.0563
B( 36-C , 37-N ) :   1.5103 B( 36-C , 41-N ) :   1.5911 B( 37-N , 38-C ) :   1.6402
B( 38-C , 39-C ) :   1.2200 B( 38-C , 79-H ) :   0.9729 B( 39-C , 40-N ) :   1.5498
B( 39-C , 42-C ) :   1.1066 B( 40-N , 41-N ) :   1.3557 B( 42-C , 43-S ) :   1.1007
B( 42-C , 46-C ) :   1.4528 B( 43-S , 44-C ) :   1.1005 B( 44-C , 45-C ) :   1.5115
B( 44-C , 51-C ) :   1.1827 B( 45-C , 46-C ) :   1.2846 B( 45-C , 47-C ) :   0.9369
B( 46-C , 80-H ) :   1.0194 B( 47-C , 48-C ) :   1.0372 B( 47-C , 49-C ) :   1.0324
B( 47-C , 50-C ) :   0.9437 B( 48-C , 81-H ) :   0.9647 B( 48-C , 82-H ) :   0.9648
B( 48-C , 83-H ) :   0.9642 B( 49-C , 84-H ) :   0.9650 B( 49-C , 85-H ) :   0.9646
B( 49-C , 86-H ) :   0.9641 B( 50-C , 51-C ) :   1.5131 B( 50-C , 54-C ) :   1.3304
B( 51-C , 52-S ) :   1.0842 B( 52-S , 53-C ) :   1.1143 B( 53-C , 54-C ) :   1.4471
B( 53-C , 55-C ) :   1.1303 B( 54-C , 87-H ) :   0.9986 B( 55-C , 56-C ) :   1.7041
B( 55-C , 88-H ) :   0.9581 B( 56-C , 57-C ) :   1.1246 B( 56-C , 89-H ) :   0.9579
B( 57-C , 58-C ) :   1.4591 B( 57-C , 61-S ) :   1.1075 B( 58-C , 59-C ) :   1.3014
B( 58-C , 90-H ) :   0.9897 B( 59-C , 60-C ) :   1.4518 B( 59-C , 64-C ) :   0.9966
B( 60-C , 61-S ) :   1.1201 B( 60-C , 62-C ) :   1.1858 B( 62-C , 63-C ) :   1.4560
B( 62-C , 72-S ) :   1.1385 B( 63-C , 64-C ) :   1.0207 B( 63-C , 70-C ) :   1.2739
B( 64-C , 65-C ) :   1.7064 B( 65-C , 66-C ) :   1.1341 B( 65-C , 68-C ) :   1.1288
B( 66-C , 67-N ) :   2.9867 B( 68-C , 69-N ) :   3.0033 B( 70-C , 71-C ) :   1.5519
B( 70-C , 91-H ) :   0.9964 B( 71-C , 72-S ) :   1.1446 B( 71-C , 92-H ) :   0.9646

-----------------------------------------------------------------------------
         ABSORPTION SPECTRUM VIA TRANSITION ELECTRIC DIPOLE MOMENTS
-----------------------------------------------------------------------------
State   Energy  Wavelength   fosc         T2         TX        TY        TZ
        (cm-1)    (nm)                  (au**2)     (au)      (au)      (au)
-----------------------------------------------------------------------------
   0   12666.7    789.5   0.263689019   6.85335  -2.46202   0.88921   0.03344
   1   14219.2    703.3   0.618034321  14.30910  -3.31512   1.53594  -0.97978
   2   18551.5    539.0   0.997712105  17.70527  -3.83666   1.72202  -0.14121
   3   20595.2    485.5   1.749315216  27.96258   4.83657  -1.90103   0.97790
   4   22174.0    451.0   0.193509972   2.87299  -0.58688   0.32674   1.55621
   5   23339.2    428.5   0.027651787   0.39004   0.54545  -0.18084  -0.24459
   6   24468.2    408.7   0.000826206   0.01112   0.07696   0.06278  -0.03537
   7   25739.4    388.5   0.050185117   0.64188  -0.63094  -0.47902   0.11970
   8   25911.0    385.9   0.204246935   2.59506  -1.32570   0.71505  -0.57123
   9   26661.0    375.1   0.012932257   0.15969   0.03245  -0.03500   0.39675
  10   26902.9    371.7   0.034885367   0.42689  -0.50188  -0.41295  -0.06701
  11   27310.7    366.2   0.166332603   2.00503   0.45965   0.95096  -0.94309
  12   27976.3    357.4   0.019479797   0.22923   0.39953   0.23774  -0.11439
  13   28781.3    347.4   0.084633562   0.96807  -0.45998   0.68251  -0.53914
  14   29058.0    344.1   0.087644997   0.99297  -0.35929   0.84932  -0.37754
  15   29312.7    341.1   0.019565734   0.21974   0.18593   0.42994  -0.01793
  16   29588.2    338.0   0.038741489   0.43106   0.58552   0.24653   0.16567
  17   30239.4    330.7   0.276013585   3.00492   0.63628   1.39135   0.81500
  18   30859.6    324.0   0.433158671   4.62096  -0.23658   1.96845  -0.83078
  19   30923.5    323.4   0.011301040   0.12031   0.03576   0.24956   0.23823
  20   31020.8    322.4   0.086938233   0.92264   0.59277   0.64485  -0.39424
  21   31710.0    315.4   0.041364330   0.42944   0.65444  -0.03012   0.01566
  22   32148.7    311.1   0.435485126   4.45949  -0.53333  -1.82548  -0.91797
  23   32238.9    310.2   0.497390936   5.07918  -0.38516   2.17400  -0.45229
  24   32628.3    306.5   0.146263942   1.47577  -0.21383   0.76933  -0.91552
  25   33023.3    302.8   0.077701025   0.77461   0.46331   0.70484   0.25130
  26   33324.4    300.1   0.161313495   1.59362   1.24828   0.16446   0.09143
  27   33448.2    299.0   0.012109612   0.11919  -0.15116  -0.02328  -0.30951
  28   33642.0    297.2   0.085846597   0.84007  -0.89747  -0.14698  -0.11412
  29   33997.5    294.1   0.016766561   0.16236   0.13512  -0.36801  -0.09308
  30   34217.2    292.3   0.138039937   1.32811   0.29152  -1.03515  -0.41423
  31   34764.0    287.7   0.245027207   2.32038  -0.67719  -1.25505   0.53538
  32   35167.5    284.4   0.128098242   1.19916   0.74444   0.77995   0.19141
  33   35838.2    279.0   0.093350409   0.85752  -0.01122  -0.92189  -0.08670
  34   36250.6    275.9   0.083147393   0.75511  -0.14527  -0.85148  -0.09484
  35   36360.6    275.0   0.119981602   1.08632  -1.02379   0.19535   0.00295
  36   36908.6    270.9   0.027191328   0.24254   0.36583   0.32868   0.02599
  37   37363.4    267.6   0.001438441   0.01267   0.02764   0.10799  -0.01574
  38   37747.9    264.9   0.007085382   0.06179  -0.17628  -0.07218   0.15972
  39   37833.6    264.3   0.040357788   0.35118  -0.52457  -0.15883  -0.22533
  40   38280.3    261.2   0.009246306   0.07952  -0.17209   0.11304   0.19268
  41   38494.3    259.8   0.132859845   1.13625   1.01737  -0.30168   0.10097
  42   38611.1    259.0   0.029906996   0.25500   0.46055   0.00626   0.20700
  43   38950.3    256.7   0.001285520   0.01087  -0.00944  -0.09696   0.03708
  44   38994.8    256.4   0.016726633   0.14121   0.20746   0.30394   0.07614
  45   39297.5    254.5   0.001644175   0.01377  -0.10238  -0.00417  -0.05723
  46   39706.2    251.8   0.104033510   0.86256   0.81624  -0.03949   0.44131
  47   39868.4    250.8   0.010211125   0.08432   0.02777  -0.27394  -0.09221
  48   40170.6    248.9   0.143874087   1.17910   0.97345   0.44572   0.18119

FINAL SINGLE POINT ENERGY     -8032.737136980065

DIPOLE MOMENT
-------------
                                X             Y             Z
Electronic contribution:    163.24981    -136.78457      81.24080
Nuclear contribution   :   -165.77524     140.09368     -79.99965
                        -----------------------------------------
Total Dipole Moment    :     -2.52544       3.30910       1.24115
                        -----------------------------------------
Magnitude (a.u.)       :      4.34378
Magnitude (Debye)      :     11.04102

Rotational constants in cm-1:     0.001629     0.000112     0.000109
Rotational constants in MHz :    48.831070     3.354027     3.268838

                             ****ORCA TERMINATED NORMALLY****
TOTAL RUN TIME: 0 days 0 hours 9 minutes 41 seconds 790 msec
