                         Program Version 4.2.0 -  RELEASE  -
|  1> # ORCA input file
|  2> # SCF done       -176.787224244353          0.000543980468
|  3> ! CAM-B3LYP def2-SVP def2/J RIJCOSX Grid4 TightSCF
|  4> %maxcore 5000
|  5> %tddft
|  6>     Mode sTDDFT
|  7>     Ethresh 5.0
|  8>     maxcore 5000
|  9> end
| 10>
| 11> %pal
| 12>   nprocs 6
| 13>   end
| 14> * xyz 0 1
| 15>    C       -1.48263         8.73318        -4.48858
| 16>    C       -1.25946         7.39086        -4.51512
| 17>    C       -1.42195         6.81808        -3.23850
| 18>    C       -1.76946         7.76329        -2.26928
| 19>    S       -1.89557         9.33710        -2.91622
| 20>    C       -1.91050         7.09780        -1.01410
| 21>    C       -1.65340         5.73794        -1.20495
| 22>    C       -1.34305         5.51126        -2.60811
| 23>    C       -1.05208         4.31698        -3.20225
| 24>    C       -1.04241         3.09863        -2.49124
| 25>    N       -1.04847         2.09444        -1.93667
| 26>    C       -0.75928         4.21520        -4.57751
| 27>    N       -0.52120         4.12497        -5.69613
| 28>    C       -1.75235         4.99168        -0.02266
| 29>    C       -2.07982         5.77807         1.05340
| 30>    S       -2.28183         7.46317         0.61224
| 31>    C       -2.27079         5.36989         2.41691
| 32>    C       -3.00493         5.99907         3.38840
| 33>    O       -2.98238         5.30194         4.53288
| 34>    C       -2.24269         4.20659         4.31760
| 35>    C       -1.76767         4.17654         3.03743
| 36>    C       -0.82748         3.19424         2.44685
| 37>    O        0.19829         3.54362         1.88806
| 38>    C       -1.20710         1.80293         2.57466
| 39>    C       -0.49887         0.71508         2.10721
| 40>    C       -1.12492        -0.50505         2.34348
| 41>    C       -2.34047        -0.38040         2.99007
| 42>    S       -2.69829         1.29523         3.30471
| 43>    C       -3.26543        -1.36538         3.44651
| 44>    S       -4.74668        -0.79482         4.15765
| 45>    C       -5.26913        -2.40783         4.54463
| 46>    C       -4.30094        -3.33102         4.17463
| 47>    C       -3.19997        -2.75172         3.50802
| 48>    C       -2.09787        -3.57354         2.88956
| 49>    N       -1.92080        -3.18745         1.49376
| 50>    C       -2.38605        -5.07662         3.03323
| 51>    C       -2.93493        -5.39287         4.41174
| 52>    C       -4.33888        -4.78675         4.56387
| 53>    N       -4.86213        -4.92350         5.91547
| 54>    C       -6.57817        -2.52576         5.08579
| 55>    C       -7.33687        -3.64346         5.16195
| 56>    C       -8.66502        -3.64882         5.65432
| 57>    S       -9.42100        -2.20716         6.26243
| 58>    C      -10.90566        -3.05407         6.62284
| 59>    C      -10.77726        -4.40982         6.32157
| 60>    C       -9.53631        -4.72888         5.74639
| 61>    C       -9.18247        -6.10945         5.25477
| 62>    N       -8.47511        -6.03953         3.98042
| 63>    C      -10.45087        -6.97230         5.18143
| 64>    C      -11.22962        -6.86325         6.48048
| 65>    C      -11.81760        -5.45184         6.64490
| 66>    N      -12.34474        -5.22286         7.98241
| 67>    C      -11.97317        -2.25149         7.08503
| 68>    C      -13.28879        -2.59060         7.19876
| 69>    C      -14.27672        -1.69388         7.63105
| 70>    C      -15.60825        -2.01204         7.71847
| 71>    C      -16.66768        -1.17389         8.14559
| 72>    C      -17.89520        -1.75800         8.11832
| 73>    C      -17.88404        -3.09990         7.66355
| 74>    S      -16.24566        -3.59214         7.28066
| 75>    C      -18.95516        -3.94802         7.51072
| 76>    C      -20.32402        -3.67307         7.77699
| 77>    C      -21.16191        -4.70313         7.52231
| 78>    C      -20.51641        -5.88572         7.03014
| 79>    S      -18.77381        -5.59065         6.91983
| 80>    C      -21.08486        -7.05112         6.69067
| 81>    H       -1.43090         9.42593        -5.30435
| 82>    H       -0.99271         6.84736        -5.40302
| 83>    H       -1.59531         3.93167         0.04516
| 84>    H       -3.56628         6.91224         3.36686
| 85>    H       -2.09302         3.53931         5.14299
| 86>    H        0.44506         0.82956         1.60515
| 87>    H       -0.74189        -1.44988         2.01331
| 88>    H       -1.15456        -3.34048         3.40613
| 89>    H       -2.80072        -3.25899         0.99491
| 90>    H       -1.25500        -3.80727         1.04461
| 91>    H       -1.46757        -5.63715         2.84358
| 92>    H       -3.12328        -5.37147         2.27997
| 93>    H       -2.27441        -4.97157         5.17540
| 94>    H       -2.98775        -6.47348         4.56596
| 95>    H       -5.02887        -5.32587         3.89838
| 96>    H       -4.29722        -4.39018         6.56692
| 97>    H       -4.83993        -5.89618         6.19971
| 98>    H       -7.01916        -1.58496         5.39743
| 99>    H       -6.96560        -4.59486         4.82605
|100>    H       -8.48255        -6.56637         5.97079
|101>    H       -9.03983        -5.54535         3.29709
|102>    H       -8.31287        -6.97769         3.62949
|103>    H      -10.17336        -8.01149         4.98639
|104>    H      -11.07481        -6.62576         4.35206
|105>    H      -10.55983        -7.07208         7.32055
|106>    H      -12.04142        -7.59422         6.50565
|107>    H      -12.65902        -5.34224         5.94462
|108>    H      -11.60175        -5.28716         8.66919
|109>    H      -13.04771        -5.91748         8.20756
|110>    H      -11.69526        -1.22885         7.31445
|111>    H      -13.61334        -3.58825         6.95633
|112>    H      -13.98422        -0.69040         7.91302
|113>    H      -16.48329        -0.16132         8.45997
|114>    H      -18.80632        -1.26601         8.40851
|115>    H      -20.63906        -2.71426         8.14952
|116>    H      -22.22811        -4.67893         7.66227
|117>    H      -22.14880        -7.18656         6.77203
|118>    H      -20.50439        -7.87928         6.32797
|119> *
|120>
|121>                          ****END OF INPUT****

CARTESIAN COORDINATES (ANGSTROEM)
---------------------------------
  C     -1.482630    8.733180   -4.488580
  C     -1.259460    7.390860   -4.515120
  C     -1.421950    6.818080   -3.238500
  C     -1.769460    7.763290   -2.269280
  S     -1.895570    9.337100   -2.916220
  C     -1.910500    7.097800   -1.014100
  C     -1.653400    5.737940   -1.204950
  C     -1.343050    5.511260   -2.608110
  C     -1.052080    4.316980   -3.202250
  C     -1.042410    3.098630   -2.491240
  N     -1.048470    2.094440   -1.936670
  C     -0.759280    4.215200   -4.577510
  N     -0.521200    4.124970   -5.696130
  C     -1.752350    4.991680   -0.022660
  C     -2.079820    5.778070    1.053400
  S     -2.281830    7.463170    0.612240
  C     -2.270790    5.369890    2.416910
  C     -3.004930    5.999070    3.388400
  O     -2.982380    5.301940    4.532880
  C     -2.242690    4.206590    4.317600
  C     -1.767670    4.176540    3.037430
  C     -0.827480    3.194240    2.446850
  O      0.198290    3.543620    1.888060
  C     -1.207100    1.802930    2.574660
  C     -0.498870    0.715080    2.107210
  C     -1.124920   -0.505050    2.343480
  C     -2.340470   -0.380400    2.990070
  S     -2.698290    1.295230    3.304710
  C     -3.265430   -1.365380    3.446510
  S     -4.746680   -0.794820    4.157650
  C     -5.269130   -2.407830    4.544630
  C     -4.300940   -3.331020    4.174630
  C     -3.199970   -2.751720    3.508020
  C     -2.097870   -3.573540    2.889560
  N     -1.920800   -3.187450    1.493760
  C     -2.386050   -5.076620    3.033230
  C     -2.934930   -5.392870    4.411740
  C     -4.338880   -4.786750    4.563870
  N     -4.862130   -4.923500    5.915470
  C     -6.578170   -2.525760    5.085790
  C     -7.336870   -3.643460    5.161950
  C     -8.665020   -3.648820    5.654320
  S     -9.421000   -2.207160    6.262430
  C    -10.905660   -3.054070    6.622840
  C    -10.777260   -4.409820    6.321570
  C     -9.536310   -4.728880    5.746390
  C     -9.182470   -6.109450    5.254770
  N     -8.475110   -6.039530    3.980420
  C    -10.450870   -6.972300    5.181430
  C    -11.229620   -6.863250    6.480480
  C    -11.817600   -5.451840    6.644900
  N    -12.344740   -5.222860    7.982410
  C    -11.973170   -2.251490    7.085030
  C    -13.288790   -2.590600    7.198760
  C    -14.276720   -1.693880    7.631050
  C    -15.608250   -2.012040    7.718470
  C    -16.667680   -1.173890    8.145590
  C    -17.895200   -1.758000    8.118320
  C    -17.884040   -3.099900    7.663550
  S    -16.245660   -3.592140    7.280660
  C    -18.955160   -3.948020    7.510720
  C    -20.324020   -3.673070    7.776990
  C    -21.161910   -4.703130    7.522310
  C    -20.516410   -5.885720    7.030140
  S    -18.773810   -5.590650    6.919830
  C    -21.084860   -7.051120    6.690670
  H     -1.430900    9.425930   -5.304350
  H     -0.992710    6.847360   -5.403020
  H     -1.595310    3.931670    0.045160
  H     -3.566280    6.912240    3.366860
  H     -2.093020    3.539310    5.142990
  H      0.445060    0.829560    1.605150
  H     -0.741890   -1.449880    2.013310
  H     -1.154560   -3.340480    3.406130
  H     -2.800720   -3.258990    0.994910
  H     -1.255000   -3.807270    1.044610
  H     -1.467570   -5.637150    2.843580
  H     -3.123280   -5.371470    2.279970
  H     -2.274410   -4.971570    5.175400
  H     -2.987750   -6.473480    4.565960
  H     -5.028870   -5.325870    3.898380
  H     -4.297220   -4.390180    6.566920
  H     -4.839930   -5.896180    6.199710
  H     -7.019160   -1.584960    5.397430
  H     -6.965600   -4.594860    4.826050
  H     -8.482550   -6.566370    5.970790
  H     -9.039830   -5.545350    3.297090
  H     -8.312870   -6.977690    3.629490
  H    -10.173360   -8.011490    4.986390
  H    -11.074810   -6.625760    4.352060
  H    -10.559830   -7.072080    7.320550
  H    -12.041420   -7.594220    6.505650
  H    -12.659020   -5.342240    5.944620
  H    -11.601750   -5.287160    8.669190
  H    -13.047710   -5.917480    8.207560
  H    -11.695260   -1.228850    7.314450
  H    -13.613340   -3.588250    6.956330
  H    -13.984220   -0.690400    7.913020
  H    -16.483290   -0.161320    8.459970
  H    -18.806320   -1.266010    8.408510
  H    -20.639060   -2.714260    8.149520
  H    -22.228110   -4.678930    7.662270
  H    -22.148800   -7.186560    6.772030
  H    -20.504390   -7.879280    6.327970

 Total Charge           Charge          ....    0
 Multiplicity           Mult            ....    1
 Number of Electrons    NEL             ....  514
 Basis Dimension        Dim             .... 1142

ORBITAL ENERGIES
----------------

  NO   OCC          E(Eh)            E(eV)
   0   2.0000     -88.973630     -2421.0955
   1   2.0000     -88.971736     -2421.0440
   2   2.0000     -88.945530     -2420.3309
   3   2.0000     -88.939865     -2420.1768
   4   2.0000     -88.935763     -2420.0651
   5   2.0000     -88.932455     -2419.9751
   6   2.0000     -88.928981     -2419.8806
   7   2.0000     -19.292811      -524.9841
   8   2.0000     -19.185029      -522.0512
   9   2.0000     -14.415049      -392.2534
  10   2.0000     -14.413075      -392.1997
  11   2.0000     -14.386454      -391.4753
  12   2.0000     -14.383087      -391.3837
  13   2.0000     -14.378285      -391.2530
  14   2.0000     -14.378229      -391.2515
  15   2.0000     -10.349780      -281.6318
  16   2.0000     -10.346733      -281.5489
  17   2.0000     -10.334678      -281.2209
  18   2.0000     -10.326515      -280.9987
  19   2.0000     -10.322636      -280.8932
  20   2.0000     -10.315900      -280.7099
  21   2.0000     -10.314882      -280.6822
  22   2.0000     -10.313556      -280.6461
  23   2.0000     -10.311881      -280.6005
  24   2.0000     -10.305822      -280.4357
  25   2.0000     -10.299819      -280.2723
  26   2.0000     -10.299511      -280.2639
  27   2.0000     -10.298314      -280.2314
  28   2.0000     -10.298101      -280.2256
  29   2.0000     -10.297927      -280.2208
  30   2.0000     -10.297557      -280.2108
  31   2.0000     -10.297184      -280.2006
  32   2.0000     -10.295479      -280.1542
  33   2.0000     -10.294473      -280.1269
  34   2.0000     -10.293625      -280.1038
  35   2.0000     -10.292399      -280.0704
  36   2.0000     -10.289123      -279.9813
  37   2.0000     -10.287200      -279.9289
  38   2.0000     -10.284368      -279.8519
  39   2.0000     -10.283846      -279.8377
  40   2.0000     -10.283254      -279.8216
  41   2.0000     -10.282597      -279.8037
  42   2.0000     -10.282273      -279.7949
  43   2.0000     -10.281062      -279.7619
  44   2.0000     -10.277728      -279.6712
  45   2.0000     -10.277676      -279.6698
  46   2.0000     -10.277067      -279.6532
  47   2.0000     -10.275401      -279.6079
  48   2.0000     -10.274799      -279.5915
  49   2.0000     -10.272126      -279.5188
  50   2.0000     -10.271704      -279.5073
  51   2.0000     -10.266498      -279.3656
  52   2.0000     -10.265903      -279.3494
  53   2.0000     -10.265417      -279.3362
  54   2.0000     -10.264773      -279.3187
  55   2.0000     -10.264354      -279.3073
  56   2.0000     -10.263608      -279.2870
  57   2.0000     -10.261704      -279.2352
  58   2.0000     -10.261441      -279.2280
  59   2.0000     -10.260763      -279.2096
  60   2.0000     -10.260581      -279.2046
  61   2.0000     -10.260322      -279.1976
  62   2.0000     -10.258880      -279.1583
  63   2.0000     -10.258259      -279.1414
  64   2.0000     -10.254680      -279.0440
  65   2.0000     -10.251847      -278.9669
  66   2.0000      -8.068642      -219.5589
  67   2.0000      -8.066422      -219.4985
  68   2.0000      -8.040771      -218.8005
  69   2.0000      -8.035976      -218.6700
  70   2.0000      -8.031542      -218.5494
  71   2.0000      -8.028446      -218.4651
  72   2.0000      -8.025734      -218.3913
  73   2.0000      -6.037902      -164.2997
  74   2.0000      -6.035657      -164.2386
  75   2.0000      -6.033478      -164.1793
  76   2.0000      -6.031517      -164.1259
  77   2.0000      -6.031250      -164.1187
  78   2.0000      -6.028834      -164.0529
  79   2.0000      -6.010053      -163.5419
  80   2.0000      -6.005867      -163.4279
  81   2.0000      -6.005188      -163.4095
  82   2.0000      -6.002997      -163.3498
  83   2.0000      -6.001113      -163.2986
  84   2.0000      -6.000586      -163.2842
  85   2.0000      -5.998171      -163.2185
  86   2.0000      -5.998085      -163.2162
  87   2.0000      -5.996795      -163.1811
  88   2.0000      -5.995542      -163.1470
  89   2.0000      -5.994335      -163.1141
  90   2.0000      -5.993785      -163.0992
  91   2.0000      -5.991694      -163.0423
  92   2.0000      -5.989288      -162.9768
  93   2.0000      -5.986233      -162.8937
  94   2.0000      -1.213028       -33.0082
  95   2.0000      -1.101940       -29.9853
  96   2.0000      -1.026000       -27.9189
  97   2.0000      -1.005324       -27.3563
  98   2.0000      -0.996889       -27.1267
  99   2.0000      -0.993353       -27.0305
 100   2.0000      -0.991335       -26.9756
 101   2.0000      -0.982024       -26.7222
 102   2.0000      -0.978710       -26.6320
 103   2.0000      -0.972303       -26.4577
 104   2.0000      -0.969711       -26.3872
 105   2.0000      -0.968579       -26.3564
 106   2.0000      -0.959212       -26.1015
 107   2.0000      -0.953908       -25.9572
 108   2.0000      -0.950075       -25.8529
 109   2.0000      -0.941520       -25.6201
 110   2.0000      -0.912666       -24.8349
 111   2.0000      -0.896305       -24.3897
 112   2.0000      -0.886067       -24.1111
 113   2.0000      -0.883484       -24.0408
 114   2.0000      -0.876121       -23.8405
 115   2.0000      -0.873816       -23.7777
 116   2.0000      -0.862614       -23.4729
 117   2.0000      -0.854033       -23.2394
 118   2.0000      -0.846001       -23.0209
 119   2.0000      -0.844238       -22.9729
 120   2.0000      -0.834939       -22.7199
 121   2.0000      -0.834245       -22.7010
 122   2.0000      -0.830192       -22.5907
 123   2.0000      -0.823055       -22.3965
 124   2.0000      -0.813739       -22.1430
 125   2.0000      -0.812472       -22.1085
 126   2.0000      -0.806320       -21.9411
 127   2.0000      -0.799364       -21.7518
 128   2.0000      -0.788459       -21.4551
 129   2.0000      -0.782880       -21.3032
 130   2.0000      -0.772503       -21.0209
 131   2.0000      -0.763797       -20.7840
 132   2.0000      -0.760038       -20.6817
 133   2.0000      -0.747037       -20.3279
 134   2.0000      -0.731492       -19.9049
 135   2.0000      -0.718582       -19.5536
 136   2.0000      -0.708309       -19.2741
 137   2.0000      -0.696695       -18.9580
 138   2.0000      -0.695303       -18.9202
 139   2.0000      -0.692576       -18.8460
 140   2.0000      -0.687843       -18.7172
 141   2.0000      -0.685465       -18.6524
 142   2.0000      -0.684288       -18.6204
 143   2.0000      -0.669388       -18.2150
 144   2.0000      -0.666145       -18.1267
 145   2.0000      -0.656798       -17.8724
 146   2.0000      -0.650902       -17.7119
 147   2.0000      -0.642533       -17.4842
 148   2.0000      -0.635356       -17.2889
 149   2.0000      -0.629757       -17.1365
 150   2.0000      -0.626753       -17.0548
 151   2.0000      -0.622561       -16.9407
 152   2.0000      -0.617449       -16.8016
 153   2.0000      -0.612741       -16.6735
 154   2.0000      -0.610198       -16.6043
 155   2.0000      -0.602092       -16.3838
 156   2.0000      -0.600632       -16.3440
 157   2.0000      -0.597544       -16.2600
 158   2.0000      -0.595921       -16.2158
 159   2.0000      -0.593609       -16.1529
 160   2.0000      -0.588927       -16.0255
 161   2.0000      -0.587326       -15.9820
 162   2.0000      -0.577664       -15.7190
 163   2.0000      -0.573534       -15.6067
 164   2.0000      -0.562686       -15.3115
 165   2.0000      -0.559233       -15.2175
 166   2.0000      -0.550607       -14.9828
 167   2.0000      -0.550317       -14.9749
 168   2.0000      -0.544518       -14.8171
 169   2.0000      -0.539437       -14.6788
 170   2.0000      -0.534285       -14.5386
 171   2.0000      -0.530796       -14.4437
 172   2.0000      -0.530219       -14.4280
 173   2.0000      -0.528204       -14.3732
 174   2.0000      -0.527259       -14.3474
 175   2.0000      -0.524319       -14.2674
 176   2.0000      -0.521239       -14.1836
 177   2.0000      -0.517687       -14.0870
 178   2.0000      -0.512164       -13.9367
 179   2.0000      -0.511151       -13.9091
 180   2.0000      -0.504725       -13.7343
 181   2.0000      -0.500719       -13.6253
 182   2.0000      -0.497909       -13.5488
 183   2.0000      -0.496387       -13.5074
 184   2.0000      -0.495369       -13.4797
 185   2.0000      -0.490955       -13.3596
 186   2.0000      -0.488010       -13.2794
 187   2.0000      -0.487153       -13.2561
 188   2.0000      -0.486564       -13.2401
 189   2.0000      -0.485038       -13.1985
 190   2.0000      -0.483643       -13.1606
 191   2.0000      -0.482394       -13.1266
 192   2.0000      -0.478872       -13.0308
 193   2.0000      -0.476158       -12.9569
 194   2.0000      -0.475141       -12.9292
 195   2.0000      -0.474575       -12.9138
 196   2.0000      -0.471499       -12.8302
 197   2.0000      -0.468371       -12.7450
 198   2.0000      -0.466620       -12.6974
 199   2.0000      -0.465408       -12.6644
 200   2.0000      -0.464237       -12.6325
 201   2.0000      -0.460108       -12.5202
 202   2.0000      -0.456914       -12.4333
 203   2.0000      -0.455137       -12.3849
 204   2.0000      -0.453524       -12.3410
 205   2.0000      -0.452726       -12.3193
 206   2.0000      -0.451192       -12.2776
 207   2.0000      -0.446359       -12.1460
 208   2.0000      -0.446188       -12.1414
 209   2.0000      -0.445886       -12.1332
 210   2.0000      -0.441621       -12.0171
 211   2.0000      -0.441125       -12.0036
 212   2.0000      -0.438357       -11.9283
 213   2.0000      -0.434463       -11.8223
 214   2.0000      -0.429771       -11.6947
 215   2.0000      -0.427504       -11.6330
 216   2.0000      -0.425927       -11.5900
 217   2.0000      -0.424940       -11.5632
 218   2.0000      -0.424483       -11.5508
 219   2.0000      -0.423075       -11.5125
 220   2.0000      -0.419957       -11.4276
 221   2.0000      -0.417595       -11.3633
 222   2.0000      -0.416091       -11.3224
 223   2.0000      -0.411151       -11.1880
 224   2.0000      -0.409531       -11.1439
 225   2.0000      -0.405694       -11.0395
 226   2.0000      -0.402620       -10.9559
 227   2.0000      -0.401826       -10.9342
 228   2.0000      -0.400589       -10.9006
 229   2.0000      -0.397344       -10.8123
 230   2.0000      -0.396228       -10.7819
 231   2.0000      -0.386882       -10.5276
 232   2.0000      -0.385902       -10.5009
 233   2.0000      -0.383896       -10.4463
 234   2.0000      -0.378474       -10.2988
 235   2.0000      -0.375981       -10.2310
 236   2.0000      -0.356177        -9.6921
 237   2.0000      -0.336468        -9.1558
 238   2.0000      -0.331265        -9.0142
 239   2.0000      -0.328199        -8.9307
 240   2.0000      -0.328088        -8.9277
 241   2.0000      -0.320381        -8.7180
 242   2.0000      -0.317432        -8.6378
 243   2.0000      -0.315057        -8.5731
 244   2.0000      -0.312330        -8.4989
 245   2.0000      -0.307521        -8.3681
 246   2.0000      -0.305874        -8.3233
 247   2.0000      -0.302943        -8.2435
 248   2.0000      -0.301892        -8.2149
 249   2.0000      -0.300014        -8.1638
 250   2.0000      -0.298446        -8.1211
 251   2.0000      -0.294027        -8.0009
 252   2.0000      -0.287047        -7.8110
 253   2.0000      -0.264635        -7.2011
 254   2.0000      -0.251554        -6.8451
 255   2.0000      -0.228368        -6.2142
 256   2.0000      -0.196160        -5.3378
 257   0.0000      -0.085216        -2.3188
 258   0.0000      -0.065943        -1.7944
 259   0.0000      -0.040145        -1.0924
 260   0.0000      -0.011243        -0.3059
 261   0.0000       0.001045         0.0284

MULLIKEN ATOMIC CHARGES
-----------------------
   0 C :   -0.086415
   1 C :    0.039406
   2 C :   -0.035971
   3 C :   -0.116788
   4 S :    0.170716
   5 C :   -0.103966
   6 C :   -0.003151
   7 C :    0.302764
   8 C :   -0.302547
   9 C :   -0.186122
  10 N :    0.171492
  11 C :   -0.194626
  12 N :    0.167646
  13 C :   -0.019667
  14 C :   -0.097030
  15 S :    0.172950
  16 C :    0.107534
  17 C :    0.042298
  18 O :   -0.168830
  19 C :    0.090729
  20 C :   -0.077081
  21 C :    0.138348
  22 O :   -0.184212
  23 C :   -0.136839
  24 C :    0.056729
  25 C :    0.025784
  26 C :   -0.054817
  27 S :    0.111226
  28 C :   -0.070058
  29 S :    0.109463
  30 C :   -0.108952
  31 C :   -0.059968
  32 C :   -0.062593
  33 C :    0.058910
  34 N :   -0.174093
  35 C :    0.071312
  36 C :    0.067501
  37 C :    0.054542
  38 N :   -0.170843
  39 C :    0.020354
  40 C :    0.066829
  41 C :   -0.126177
  42 S :    0.095704
  43 C :   -0.105999
  44 C :   -0.038223
  45 C :   -0.047156
  46 C :    0.075717
  47 N :   -0.181478
  48 C :    0.063937
  49 C :    0.066085
  50 C :    0.051008
  51 N :   -0.176449
  52 C :    0.027717
  53 C :    0.045710
  54 C :   -0.015513
  55 C :   -0.024656
  56 C :    0.041068
  57 C :    0.021938
  58 C :   -0.039306
  59 S :    0.052509
  60 C :   -0.070636
  61 C :    0.031845
  62 C :    0.044211
  63 C :   -0.062044
  64 S :    0.067286
  65 C :   -0.034886
  66 H :    0.031569
  67 H :    0.008257
  68 H :    0.019221
  69 H :    0.007927
  70 H :    0.017624
  71 H :   -0.000409
  72 H :   -0.024116
  73 H :   -0.000194
  74 H :    0.096756
  75 H :    0.095154
  76 H :   -0.005832
  77 H :   -0.016640
  78 H :   -0.010615
  79 H :   -0.011185
  80 H :    0.007623
  81 H :    0.091311
  82 H :    0.086831
  83 H :   -0.027218
  84 H :   -0.002387
  85 H :   -0.000657
  86 H :    0.095822
  87 H :    0.088375
  88 H :   -0.011270
  89 H :   -0.010811
  90 H :   -0.014527
  91 H :   -0.006967
  92 H :    0.009280
  93 H :    0.091213
  94 H :    0.093562
  95 H :   -0.029184
  96 H :   -0.006427
  97 H :   -0.023006
  98 H :   -0.017310
  99 H :   -0.018361
 100 H :   -0.015590
 101 H :   -0.014920
 102 H :    0.016361
 103 H :    0.016559
Sum of atomic charges:   -0.0000000

LOEWDIN ATOMIC CHARGES
----------------------
   0 C :   -0.184205
   1 C :   -0.035073
   2 C :   -0.080475
   3 C :   -0.180893
   4 S :    0.469502
   5 C :   -0.186602
   6 C :   -0.070661
   7 C :    0.086093
   8 C :   -0.106691
   9 C :   -0.016557
  10 N :   -0.034416
  11 C :   -0.015798
  12 N :   -0.041407
  13 C :   -0.021331
  14 C :   -0.156234
  15 S :    0.467119
  16 C :   -0.073112
  17 C :    0.025842
  18 O :    0.034039
  19 C :    0.042812
  20 C :   -0.101577
  21 C :    0.055100
  22 O :   -0.161667
  23 C :   -0.235199
  24 C :   -0.000672
  25 C :   -0.054844
  26 C :   -0.162354
  27 S :    0.434308
  28 C :   -0.193447
  29 S :    0.428244
  30 C :   -0.151593
  31 C :   -0.074937
  32 C :   -0.055218
  33 C :    0.018229
  34 N :   -0.080378
  35 C :   -0.041787
  36 C :   -0.041604
  37 C :    0.015925
  38 N :   -0.083200
  39 C :   -0.072851
  40 C :   -0.010565
  41 C :   -0.167025
  42 S :    0.429913
  43 C :   -0.157774
  44 C :   -0.067822
  45 C :   -0.064022
  46 C :    0.019328
  47 N :   -0.086827
  48 C :   -0.042874
  49 C :   -0.040965
  50 C :    0.015643
  51 N :   -0.083862
  52 C :   -0.047606
  53 C :   -0.017327
  54 C :   -0.051198
  55 C :   -0.148685
  56 C :   -0.033141
  57 C :   -0.037630
  58 C :   -0.177482
  59 S :    0.358970
  60 C :   -0.184880
  61 C :   -0.026265
  62 C :   -0.039101
  63 C :   -0.138244
  64 S :    0.341660
  65 C :   -0.087417
  66 H :    0.025324
  67 H :    0.041131
  68 H :    0.041316
  69 H :    0.021163
  70 H :    0.023909
  71 H :    0.038915
  72 H :    0.025071
  73 H :    0.024361
  74 H :    0.056533
  75 H :    0.053571
  76 H :    0.021127
  77 H :    0.017451
  78 H :    0.018429
  79 H :    0.018649
  80 H :    0.024488
  81 H :    0.053802
  82 H :    0.050260
  83 H :    0.012239
  84 H :    0.028572
  85 H :    0.025443
  86 H :    0.055927
  87 H :    0.051929
  88 H :    0.018434
  89 H :    0.018621
  90 H :    0.017342
  91 H :    0.020889
  92 H :    0.024384
  93 H :    0.053794
  94 H :    0.053158
  95 H :    0.022763
  96 H :    0.018921
  97 H :    0.029911
  98 H :    0.032026
  99 H :    0.029488
 100 H :    0.031035
 101 H :    0.031658
 102 H :    0.026799
 103 H :    0.023935

  Mayer bond orders larger than 0.100000
B(  0-C ,  1-C ) :   1.5516 B(  0-C ,  4-S ) :   1.1451 B(  0-C , 66-H ) :   0.9647
B(  1-C ,  2-C ) :   1.2757 B(  1-C , 67-H ) :   0.9953 B(  2-C ,  3-C ) :   1.4692
B(  2-C ,  7-C ) :   1.0119 B(  3-C ,  4-S ) :   1.1362 B(  3-C ,  5-C ) :   1.1709
B(  5-C ,  6-C ) :   1.4738 B(  5-C , 15-S ) :   1.1192 B(  6-C ,  7-C ) :   0.9958
B(  6-C , 13-C ) :   1.2683 B(  7-C ,  8-C ) :   1.7051 B(  8-C ,  9-C ) :   1.1361
B(  8-C , 11-C ) :   1.1329 B(  9-C , 10-N ) :   2.9871 B( 11-C , 12-N ) :   3.0022
B( 13-C , 14-C ) :   1.5261 B( 13-C , 68-H ) :   0.9832 B( 14-C , 15-S ) :   1.1091
B( 14-C , 16-C ) :   1.0482 B( 16-C , 17-C ) :   1.5111 B( 16-C , 20-C ) :   1.2776
B( 17-C , 18-O ) :   1.1535 B( 17-C , 69-H ) :   1.0056 B( 18-O , 19-C ) :   1.1692
B( 19-C , 20-C ) :   1.5470 B( 19-C , 70-H ) :   1.0040 B( 20-C , 21-C ) :   0.8902
B( 21-C , 22-O ) :   2.1985 B( 21-C , 23-C ) :   1.0311 B( 23-C , 24-C ) :   1.4704
B( 23-C , 26-C ) :   0.1033 B( 23-C , 27-S ) :   1.0951 B( 24-C , 25-C ) :   1.2674
B( 24-C , 71-H ) :   1.0028 B( 25-C , 26-C ) :   1.4815 B( 25-C , 72-H ) :   0.9752
B( 26-C , 27-S ) :   1.1367 B( 26-C , 28-C ) :   1.1272 B( 28-C , 29-S ) :   1.1174
B( 28-C , 30-C ) :   0.1109 B( 28-C , 32-C ) :   1.5270 B( 29-S , 30-C ) :   1.1260
B( 30-C , 31-C ) :   1.4959 B( 30-C , 39-C ) :   1.1329 B( 31-C , 32-C ) :   1.3215
B( 31-C , 37-C ) :   0.9972 B( 32-C , 33-C ) :   1.0100 B( 33-C , 34-N ) :   1.0807
B( 33-C , 35-C ) :   1.0658 B( 33-C , 73-H ) :   0.8719 B( 34-N , 74-H ) :   0.9604
B( 34-N , 75-H ) :   0.9676 B( 35-C , 36-C ) :   1.0624 B( 35-C , 76-H ) :   0.9237
B( 35-C , 77-H ) :   0.9201 B( 36-C , 37-C ) :   1.0698 B( 36-C , 78-H ) :   0.9256
B( 36-C , 79-H ) :   0.9252 B( 37-C , 38-N ) :   1.1013 B( 37-C , 80-H ) :   0.8666
B( 38-N , 81-H ) :   0.9633 B( 38-N , 82-H ) :   0.9704 B( 39-C , 40-C ) :   1.6420
B( 39-C , 83-H ) :   0.9425 B( 40-C , 41-C ) :   1.1939 B( 40-C , 84-H ) :   0.9381
B( 41-C , 42-S ) :   1.1038 B( 41-C , 45-C ) :   1.4674 B( 42-S , 43-C ) :   1.1176
B( 43-C , 44-C ) :   1.4643 B( 43-C , 52-C ) :   1.1441 B( 44-C , 45-C ) :   1.3406
B( 44-C , 50-C ) :   0.9994 B( 45-C , 46-C ) :   0.9906 B( 46-C , 47-N ) :   1.0791
B( 46-C , 48-C ) :   1.0682 B( 46-C , 85-H ) :   0.8776 B( 47-N , 86-H ) :   0.9642
B( 47-N , 87-H ) :   0.9694 B( 48-C , 49-C ) :   1.0576 B( 48-C , 88-H ) :   0.9250
B( 48-C , 89-H ) :   0.9267 B( 49-C , 50-C ) :   1.0709 B( 49-C , 90-H ) :   0.9245
B( 49-C , 91-H ) :   0.9245 B( 50-C , 51-N ) :   1.0930 B( 50-C , 92-H ) :   0.8697
B( 51-N , 93-H ) :   0.9647 B( 51-N , 94-H ) :   0.9689 B( 52-C , 53-C ) :   1.6314
B( 52-C , 95-H ) :   0.9522 B( 53-C , 54-C ) :   1.1756 B( 53-C , 96-H ) :   0.9545
B( 54-C , 55-C ) :   1.5540 B( 54-C , 97-H ) :   0.9841 B( 55-C , 56-C ) :   1.1404
B( 55-C , 59-S ) :   1.0247 B( 56-C , 57-C ) :   1.5993 B( 56-C , 98-H ) :   0.9979
B( 57-C , 58-C ) :   1.1747 B( 57-C , 99-H ) :   0.9930 B( 58-C , 59-S ) :   1.0396
B( 58-C , 60-C ) :   1.5499 B( 60-C , 61-C ) :   1.1590 B( 60-C , 64-S ) :   1.0364
B( 61-C , 62-C ) :   1.6558 B( 61-C ,100-H ) :   0.9910 B( 62-C , 63-C ) :   1.0830
B( 62-C ,101-H ) :   0.9929 B( 63-C , 64-S ) :   1.0088 B( 63-C , 65-C ) :   1.8621
B( 65-C ,102-H ) :   0.9502 B( 65-C ,103-H ) :   0.9407

-----------------------------------------------------------------------------
         ABSORPTION SPECTRUM VIA TRANSITION ELECTRIC DIPOLE MOMENTS
-----------------------------------------------------------------------------
State   Energy  Wavelength   fosc         T2         TX        TY        TZ
        (cm-1)    (nm)                  (au**2)     (au)      (au)      (au)
-----------------------------------------------------------------------------
   0   15097.0    662.4   0.236955531   5.16715   1.78920   0.89711  -1.07755
   1   15440.8    647.6   2.062336376  43.97099   6.33169   1.71582  -0.96780
   2   16980.0    588.9   0.000234971   0.00456   0.06575   0.00413   0.01469
   3   22097.2    452.5   0.087643023   1.30574  -0.38596  -0.82286   0.69258
   4   22296.8    448.5   0.001064856   0.01572  -0.03891  -0.03500   0.11394
   5   22770.3    439.2   0.145298463   2.10072  -0.78262  -0.36340   1.16455
   6   27138.0    368.5   0.126014462   1.52869  -0.05960  -1.19489  -0.31206
   7   28751.5    347.8   0.572822115   6.55896   0.72503   2.45469  -0.08814
   8   30036.5    332.9   0.003287722   0.03603  -0.00943  -0.07868  -0.17250
   9   30083.1    332.4   0.019452861   0.21288   0.07891   0.05536  -0.45121
  10   30432.9    328.6   0.016934611   0.18319  -0.06311  -0.08775   0.41414
  11   30810.1    324.6   0.096487801   1.03099  -0.89681   0.20152   0.43141
  12   31866.9    313.8   0.434418601   4.48791  -0.32219   1.73386   1.17381
  13   31970.3    312.8   0.365193688   3.76056  -0.48387   1.68949   0.81979
  14   32052.8    312.0   0.066846873   0.68658   0.40706   0.71969  -0.05417
  15   32718.3    305.6   0.006777774   0.06820  -0.08668   0.08742   0.23031
  16   33450.8    298.9   0.119485842   1.17594   0.04696  -0.86534   0.65186
  17   33520.1    298.3   0.107677608   1.05754   0.23852  -0.99930  -0.04514
  18   33793.2    295.9   0.002681823   0.02613  -0.03850   0.14818   0.05184
  19   34465.8    290.1   0.001058325   0.01011  -0.05228   0.07122  -0.04799
  20   34558.2    289.4   0.001347083   0.01283   0.03086  -0.04655  -0.09856
  21   34858.5    286.9   0.006182672   0.05839  -0.07840   0.22852  -0.00488
  22   35004.1    285.7   0.032718997   0.30772   0.21168  -0.46627   0.21331
  23   35136.8    284.6   0.027002075   0.25299   0.26207  -0.08273  -0.42127
  24   35156.9    284.4   0.037361780   0.34986   0.51061   0.28601  -0.08565
  25   35568.2    281.2   0.014217926   0.13160   0.14459  -0.28320   0.17461
  26   35775.1    279.5   0.075059923   0.69072  -0.23999   0.60221   0.52007
  27   36139.9    276.7   0.108077922   0.98452   0.29111  -0.67471  -0.66674
  28   36439.0    274.4   0.014221218   0.12848   0.30398  -0.02816  -0.18785
  29   36631.3    273.0   0.029655792   0.26652  -0.06661  -0.48642   0.15961
  30   37292.2    268.2   0.002722149   0.02403   0.03776  -0.08249  -0.12570
  31   37425.4    267.2   0.038767943   0.34102  -0.15489   0.55714  -0.08143
  32   37647.9    265.6   0.000159902   0.00140  -0.00506  -0.00967  -0.03577
  33   37837.2    264.3   0.011421599   0.09938  -0.31175  -0.03867  -0.02627
  34   38121.8    262.3   0.007984230   0.06895  -0.09197  -0.15003   0.19489
  35   38662.5    258.6   0.236542925   2.01417  -0.41918  -1.30304   0.37491
  36   38849.5    257.4   0.051077472   0.43283  -0.54112   0.13373  -0.34948
  37   39195.7    255.1   0.811249447   6.81383  -0.22942  -0.93561   2.42607
  38   39402.2    253.8   0.003295802   0.02754   0.01278   0.10153  -0.13063
  39   40123.4    249.2   0.000604825   0.00496  -0.02853   0.06440  -0.00112
  40   40219.1    248.6   0.070543493   0.57743  -0.37975   0.01264   0.65807

FINAL SINGLE POINT ENERGY     -5228.491759683388

DIPOLE MOMENT
-------------
                                X             Y             Z
Electronic contribution:     47.25423     102.46069     -41.33156
Nuclear contribution   :    -49.09851    -104.10826      43.08300
                        -----------------------------------------
Total Dipole Moment    :     -1.84428      -1.64757       1.75143
                        -----------------------------------------
Magnitude (a.u.)       :      3.03041
Magnitude (Debye)      :      7.70269

Rotational constants in cm-1:     0.001281     0.000248     0.000224
Rotational constants in MHz :    38.418040     7.436051     6.713774

                             ****ORCA TERMINATED NORMALLY****
TOTAL RUN TIME: 0 days 0 hours 14 minutes 12 seconds 931 msec
