                         Program Version 4.2.0 -  RELEASE  -
|  1> # ORCA input file
|  2> # SCF done       -186.313129629676          0.000761848277
|  3> ! CAM-B3LYP def2-SVP def2/J RIJCOSX Grid4 TightSCF
|  4> %maxcore 5000
|  5> %tddft
|  6>     Mode sTDDFT
|  7>     Ethresh 5.0
|  8>     maxcore 5000
|  9> end
| 10>
| 11> %pal
| 12>   nprocs 6
| 13>   end
| 14> * xyz 0 1
| 15>    C        6.40006         2.18820         7.31976
| 16>    C        5.21662         2.55544         7.88262
| 17>    C        4.34642         3.11736         6.92808
| 18>    C        4.91320         3.15495         5.64612
| 19>    S        6.49311         2.50987         5.61850
| 20>    C        3.97038         3.72628         4.74832
| 21>    C        2.81038         4.04271         5.46974
| 22>    C        3.01225         3.67648         6.86830
| 23>    C        2.13447         3.84940         7.90045
| 24>    C        0.85247         4.39094         7.71190
| 25>    N       -0.21111         4.79317         7.54511
| 26>    C        2.45767         3.49571         9.22862
| 27>    N        2.74079         3.24028        10.30922
| 28>    C        1.81254         4.60214         4.67835
| 29>    C        2.19929         4.72190         3.35144
| 30>    S        3.83387         4.13136         3.09485
| 31>    C        1.41214         5.20476         2.26402
| 32>    C        0.08499         5.52437         2.42401
| 33>    C       -0.77282         5.92759         1.40476
| 34>    C       -0.26058         6.26004         0.07190
| 35>    C        1.01451         6.02810        -0.31194
| 36>    S        2.20788         5.32042         0.70221
| 37>    C       -1.37015         6.81864        -0.62367
| 38>    C       -2.49830         6.81170         0.20065
| 39>    C       -3.63697         7.33469        -0.44925
| 40>    C       -3.35114         7.72135        -1.72029
| 41>    S       -1.70282         7.46169        -2.18212
| 42>    C       -2.15270         6.21613         1.46320
| 43>    C       -3.01981         5.94106         2.54658
| 44>    C       -2.74278         4.96382         3.45489
| 45>    C       -3.37186         4.71619         4.68677
| 46>    S       -4.75153         5.57083         5.30319
| 47>    C       -4.69282         4.70597         6.81965
| 48>    C       -3.62549         3.80542         6.82506
| 49>    C       -2.90219         3.80188         5.63430
| 50>    S       -1.50821         2.79780         5.26605
| 51>    C       -0.84830         2.22299         6.79078
| 52>    O        0.23151         1.69149         6.75286
| 53>    C       -1.59012         2.30191         8.10929
| 54>    O       -1.05478         1.88398         9.09849
| 55>    S       -3.26094         2.85810         8.26042
| 56>    C       -5.62253         4.91358         7.85405
| 57>    C       -6.60024         5.85914         7.81011
| 58>    C       -7.59166         6.11117         8.79207
| 59>    C       -7.87357         5.30304         9.92238
| 60>    C       -8.88154         5.66635        10.89658
| 61>    N       -9.00342         4.94202        12.02182
| 62>    C       -8.27030         3.87316        12.19023
| 63>    C       -7.39165         3.42370        11.14881
| 64>    N       -7.20920         4.14955        10.07355
| 65>    C       -6.72078         2.18156        11.25977
| 66>    N       -6.20081         1.16578        11.36400
| 67>    C       -8.34325         3.12669        13.39308
| 68>    N       -8.33634         2.46337        14.32738
| 69>    C       -9.69918         6.80693        10.74327
| 70>    C       -9.42115         7.60899         9.61705
| 71>    C       -8.40004         7.26459         8.66077
| 72>    N       -8.32484         8.15909         7.67434
| 73>    S       -9.42367         9.30386         7.92052
| 74>    N      -10.05369         8.73531         9.28086
| 75>    C      -10.71069         7.20737        11.67718
| 76>    S      -10.93149         8.91229        11.96385
| 77>    C      -12.22467         8.61973        13.08673
| 78>    C      -12.48721         7.26926        13.18816
| 79>    C      -11.62609         6.47282        12.40580
| 80>    C      -11.92453         5.01902        12.31506
| 81>    S      -11.37423         4.16942        13.86605
| 82>    C      -13.43413         4.87818        12.12066
| 83>    C      -14.23754         5.45788        13.29148
| 84>    C      -13.52083         6.60464        14.03368
| 85>    C      -12.87398         9.70180        13.77092
| 86>    C      -12.56550        10.98781        13.61672
| 87>    H        7.24482         1.73665         7.80010
| 88>    H        4.98417         2.42630         8.92370
| 89>    H        0.85510         4.91146         5.05293
| 90>    H       -0.31193         5.47128         3.42466
| 91>    H        1.37587         6.25164        -1.30322
| 92>    H       -4.61156         7.42344        -0.00504
| 93>    H       -4.01754         8.15320        -2.44114
| 94>    H       -3.92611         6.52466         2.64251
| 95>    H       -1.93106         4.28196         3.24158
| 96>    H       -5.53028         4.26830         8.71571
| 97>    H       -6.63779         6.52784         6.95779
| 98>    H      -11.37985         4.54935        11.49395
| 99>    H      -11.84130         2.97137        13.51702
|100>    H      -13.69558         3.82760        11.97973
|101>    H      -13.68659         5.40882        11.19801
|102>    H      -15.19379         5.81547        12.90704
|103>    H      -14.44857         4.66715        14.01183
|104>    H      -13.00759         6.19053        14.90608
|105>    H      -14.25527         7.32431        14.39334
|106>    H      -13.65911         9.41382        14.45713
|107>    H      -11.78448        11.29984        12.94339
|108>    H      -13.08105        11.76107        14.15777
|109> *
|110>
|111>                          ****END OF INPUT****

CARTESIAN COORDINATES (ANGSTROEM)
---------------------------------
  C      6.400060    2.188200    7.319760
  C      5.216620    2.555440    7.882620
  C      4.346420    3.117360    6.928080
  C      4.913200    3.154950    5.646120
  S      6.493110    2.509870    5.618500
  C      3.970380    3.726280    4.748320
  C      2.810380    4.042710    5.469740
  C      3.012250    3.676480    6.868300
  C      2.134470    3.849400    7.900450
  C      0.852470    4.390940    7.711900
  N     -0.211110    4.793170    7.545110
  C      2.457670    3.495710    9.228620
  N      2.740790    3.240280   10.309220
  C      1.812540    4.602140    4.678350
  C      2.199290    4.721900    3.351440
  S      3.833870    4.131360    3.094850
  C      1.412140    5.204760    2.264020
  C      0.084990    5.524370    2.424010
  C     -0.772820    5.927590    1.404760
  C     -0.260580    6.260040    0.071900
  C      1.014510    6.028100   -0.311940
  S      2.207880    5.320420    0.702210
  C     -1.370150    6.818640   -0.623670
  C     -2.498300    6.811700    0.200650
  C     -3.636970    7.334690   -0.449250
  C     -3.351140    7.721350   -1.720290
  S     -1.702820    7.461690   -2.182120
  C     -2.152700    6.216130    1.463200
  C     -3.019810    5.941060    2.546580
  C     -2.742780    4.963820    3.454890
  C     -3.371860    4.716190    4.686770
  S     -4.751530    5.570830    5.303190
  C     -4.692820    4.705970    6.819650
  C     -3.625490    3.805420    6.825060
  C     -2.902190    3.801880    5.634300
  S     -1.508210    2.797800    5.266050
  C     -0.848300    2.222990    6.790780
  O      0.231510    1.691490    6.752860
  C     -1.590120    2.301910    8.109290
  O     -1.054780    1.883980    9.098490
  S     -3.260940    2.858100    8.260420
  C     -5.622530    4.913580    7.854050
  C     -6.600240    5.859140    7.810110
  C     -7.591660    6.111170    8.792070
  C     -7.873570    5.303040    9.922380
  C     -8.881540    5.666350   10.896580
  N     -9.003420    4.942020   12.021820
  C     -8.270300    3.873160   12.190230
  C     -7.391650    3.423700   11.148810
  N     -7.209200    4.149550   10.073550
  C     -6.720780    2.181560   11.259770
  N     -6.200810    1.165780   11.364000
  C     -8.343250    3.126690   13.393080
  N     -8.336340    2.463370   14.327380
  C     -9.699180    6.806930   10.743270
  C     -9.421150    7.608990    9.617050
  C     -8.400040    7.264590    8.660770
  N     -8.324840    8.159090    7.674340
  S     -9.423670    9.303860    7.920520
  N    -10.053690    8.735310    9.280860
  C    -10.710690    7.207370   11.677180
  S    -10.931490    8.912290   11.963850
  C    -12.224670    8.619730   13.086730
  C    -12.487210    7.269260   13.188160
  C    -11.626090    6.472820   12.405800
  C    -11.924530    5.019020   12.315060
  S    -11.374230    4.169420   13.866050
  C    -13.434130    4.878180   12.120660
  C    -14.237540    5.457880   13.291480
  C    -13.520830    6.604640   14.033680
  C    -12.873980    9.701800   13.770920
  C    -12.565500   10.987810   13.616720
  H      7.244820    1.736650    7.800100
  H      4.984170    2.426300    8.923700
  H      0.855100    4.911460    5.052930
  H     -0.311930    5.471280    3.424660
  H      1.375870    6.251640   -1.303220
  H     -4.611560    7.423440   -0.005040
  H     -4.017540    8.153200   -2.441140
  H     -3.926110    6.524660    2.642510
  H     -1.931060    4.281960    3.241580
  H     -5.530280    4.268300    8.715710
  H     -6.637790    6.527840    6.957790
  H    -11.379850    4.549350   11.493950
  H    -11.841300    2.971370   13.517020
  H    -13.695580    3.827600   11.979730
  H    -13.686590    5.408820   11.198010
  H    -15.193790    5.815470   12.907040
  H    -14.448570    4.667150   14.011830
  H    -13.007590    6.190530   14.906080
  H    -14.255270    7.324310   14.393340
  H    -13.659110    9.413820   14.457130
  H    -11.784480   11.299840   12.943390
  H    -13.081050   11.761070   14.157770

 Total Charge           Charge          ....    0
 Multiplicity           Mult            ....    1
 Number of Electrons    NEL             ....  566
 Basis Dimension        Dim             .... 1158

ORBITAL ENERGIES
----------------

  NO   OCC          E(Eh)            E(eV)
   0   2.0000     -89.040013     -2422.9019
   1   2.0000     -88.988587     -2421.5025
   2   2.0000     -88.983083     -2421.3528
   3   2.0000     -88.982960     -2421.3494
   4   2.0000     -88.967824     -2420.9376
   5   2.0000     -88.965099     -2420.8634
   6   2.0000     -88.960835     -2420.7474
   7   2.0000     -88.960213     -2420.7305
   8   2.0000     -88.943656     -2420.2799
   9   2.0000     -88.905060     -2419.2297
  10   2.0000     -19.235500      -523.4246
  11   2.0000     -19.232357      -523.3391
  12   2.0000     -14.453281      -393.2938
  13   2.0000     -14.449624      -393.1943
  14   2.0000     -14.449210      -393.1830
  15   2.0000     -14.447247      -393.1296
  16   2.0000     -14.432622      -392.7316
  17   2.0000     -14.420145      -392.3921
  18   2.0000     -14.419538      -392.3756
  19   2.0000     -14.414324      -392.2337
  20   2.0000     -10.401122      -283.0289
  21   2.0000     -10.396949      -282.9154
  22   2.0000     -10.371155      -282.2135
  23   2.0000     -10.369712      -282.1742
  24   2.0000     -10.357021      -281.8289
  25   2.0000     -10.346477      -281.5420
  26   2.0000     -10.340386      -281.3762
  27   2.0000     -10.339271      -281.3459
  28   2.0000     -10.336521      -281.2710
  29   2.0000     -10.335896      -281.2540
  30   2.0000     -10.335414      -281.2409
  31   2.0000     -10.334416      -281.2138
  32   2.0000     -10.333558      -281.1904
  33   2.0000     -10.326859      -281.0081
  34   2.0000     -10.326635      -281.0020
  35   2.0000     -10.325595      -280.9737
  36   2.0000     -10.325150      -280.9616
  37   2.0000     -10.322720      -280.8955
  38   2.0000     -10.320593      -280.8376
  39   2.0000     -10.319930      -280.8196
  40   2.0000     -10.315593      -280.7016
  41   2.0000     -10.313622      -280.6479
  42   2.0000     -10.311599      -280.5929
  43   2.0000     -10.310043      -280.5505
  44   2.0000     -10.309732      -280.5421
  45   2.0000     -10.306562      -280.4558
  46   2.0000     -10.304519      -280.4002
  47   2.0000     -10.302101      -280.3344
  48   2.0000     -10.300875      -280.3011
  49   2.0000     -10.299284      -280.2578
  50   2.0000     -10.299201      -280.2555
  51   2.0000     -10.298366      -280.2328
  52   2.0000     -10.298119      -280.2261
  53   2.0000     -10.293956      -280.1128
  54   2.0000     -10.292282      -280.0672
  55   2.0000     -10.291958      -280.0584
  56   2.0000     -10.291895      -280.0567
  57   2.0000     -10.291416      -280.0437
  58   2.0000     -10.291102      -280.0351
  59   2.0000     -10.290739      -280.0252
  60   2.0000     -10.285635      -279.8864
  61   2.0000     -10.283977      -279.8413
  62   2.0000     -10.280357      -279.7427
  63   2.0000     -10.279072      -279.7078
  64   2.0000     -10.278537      -279.6932
  65   2.0000     -10.276661      -279.6422
  66   2.0000     -10.276538      -279.6388
  67   2.0000     -10.268568      -279.4220
  68   2.0000     -10.265676      -279.3433
  69   2.0000     -10.263360      -279.2802
  70   2.0000     -10.261276      -279.2235
  71   2.0000     -10.259235      -279.1680
  72   2.0000      -8.131366      -221.2657
  73   2.0000      -8.083180      -219.9545
  74   2.0000      -8.078558      -219.8287
  75   2.0000      -8.078058      -219.8151
  76   2.0000      -8.063123      -219.4087
  77   2.0000      -8.061239      -219.3575
  78   2.0000      -8.056725      -219.2346
  79   2.0000      -8.056177      -219.2197
  80   2.0000      -8.038928      -218.7503
  81   2.0000      -7.999462      -217.6764
  82   2.0000      -6.102381      -166.0542
  83   2.0000      -6.094666      -165.8443
  84   2.0000      -6.094224      -165.8323
  85   2.0000      -6.052477      -164.6963
  86   2.0000      -6.048273      -164.5819
  87   2.0000      -6.048189      -164.5796
  88   2.0000      -6.047303      -164.5555
  89   2.0000      -6.045493      -164.5062
  90   2.0000      -6.043609      -164.4550
  91   2.0000      -6.042876      -164.4350
  92   2.0000      -6.040642      -164.3742
  93   2.0000      -6.040335      -164.3659
  94   2.0000      -6.032373      -164.1492
  95   2.0000      -6.031078      -164.1140
  96   2.0000      -6.028600      -164.0466
  97   2.0000      -6.026655      -163.9936
  98   2.0000      -6.026632      -163.9930
  99   2.0000      -6.025653      -163.9664
 100   2.0000      -6.024917      -163.9463
 101   2.0000      -6.022123      -163.8703
 102   2.0000      -6.022111      -163.8700
 103   2.0000      -6.021364      -163.8496
 104   2.0000      -6.018209      -163.7638
 105   2.0000      -6.017402      -163.7418
 106   2.0000      -6.008270      -163.4933
 107   2.0000      -6.004022      -163.3777
 108   2.0000      -6.000975      -163.2948
 109   2.0000      -5.969922      -162.4498
 110   2.0000      -5.966183      -162.3481
 111   2.0000      -5.958928      -162.1507
 112   2.0000      -1.172080       -31.8939
 113   2.0000      -1.138863       -30.9900
 114   2.0000      -1.137193       -30.9446
 115   2.0000      -1.110834       -30.2273
 116   2.0000      -1.039301       -28.2808
 117   2.0000      -1.037282       -28.2259
 118   2.0000      -1.021384       -27.7933
 119   2.0000      -1.013859       -27.5885
 120   2.0000      -1.011369       -27.5208
 121   2.0000      -1.003247       -27.2998
 122   2.0000      -1.002288       -27.2736
 123   2.0000      -0.996988       -27.1294
 124   2.0000      -0.995106       -27.0782
 125   2.0000      -0.990362       -26.9491
 126   2.0000      -0.984509       -26.7899
 127   2.0000      -0.973562       -26.4920
 128   2.0000      -0.966751       -26.3066
 129   2.0000      -0.951326       -25.8869
 130   2.0000      -0.936716       -25.4893
 131   2.0000      -0.929855       -25.3026
 132   2.0000      -0.923005       -25.1162
 133   2.0000      -0.920857       -25.0578
 134   2.0000      -0.909833       -24.7578
 135   2.0000      -0.901716       -24.5369
 136   2.0000      -0.899541       -24.4778
 137   2.0000      -0.889785       -24.2123
 138   2.0000      -0.879845       -23.9418
 139   2.0000      -0.877785       -23.8858
 140   2.0000      -0.859835       -23.3973
 141   2.0000      -0.856644       -23.3105
 142   2.0000      -0.851487       -23.1701
 143   2.0000      -0.849884       -23.1265
 144   2.0000      -0.844805       -22.9883
 145   2.0000      -0.827899       -22.5283
 146   2.0000      -0.825416       -22.4607
 147   2.0000      -0.821333       -22.3496
 148   2.0000      -0.818953       -22.2849
 149   2.0000      -0.811037       -22.0694
 150   2.0000      -0.795801       -21.6549
 151   2.0000      -0.795262       -21.6402
 152   2.0000      -0.787983       -21.4421
 153   2.0000      -0.777036       -21.1442
 154   2.0000      -0.772184       -21.0122
 155   2.0000      -0.760606       -20.6971
 156   2.0000      -0.746982       -20.3264
 157   2.0000      -0.742249       -20.1976
 158   2.0000      -0.731794       -19.9131
 159   2.0000      -0.731573       -19.9071
 160   2.0000      -0.717979       -19.5372
 161   2.0000      -0.704562       -19.1721
 162   2.0000      -0.700383       -19.0584
 163   2.0000      -0.697500       -18.9799
 164   2.0000      -0.693384       -18.8679
 165   2.0000      -0.686261       -18.6741
 166   2.0000      -0.679066       -18.4783
 167   2.0000      -0.678012       -18.4496
 168   2.0000      -0.671651       -18.2765
 169   2.0000      -0.662551       -18.0289
 170   2.0000      -0.657514       -17.8919
 171   2.0000      -0.653389       -17.7796
 172   2.0000      -0.645235       -17.5577
 173   2.0000      -0.640155       -17.4195
 174   2.0000      -0.636246       -17.3131
 175   2.0000      -0.630111       -17.1462
 176   2.0000      -0.626372       -17.0445
 177   2.0000      -0.620536       -16.8857
 178   2.0000      -0.616983       -16.7890
 179   2.0000      -0.615861       -16.7584
 180   2.0000      -0.610522       -16.6131
 181   2.0000      -0.605848       -16.4860
 182   2.0000      -0.596917       -16.2429
 183   2.0000      -0.594264       -16.1707
 184   2.0000      -0.584909       -15.9162
 185   2.0000      -0.583274       -15.8717
 186   2.0000      -0.577291       -15.7089
 187   2.0000      -0.571481       -15.5508
 188   2.0000      -0.569807       -15.5052
 189   2.0000      -0.566440       -15.4136
 190   2.0000      -0.564998       -15.3744
 191   2.0000      -0.559050       -15.2125
 192   2.0000      -0.555351       -15.1119
 193   2.0000      -0.552150       -15.0248
 194   2.0000      -0.550499       -14.9798
 195   2.0000      -0.542045       -14.7498
 196   2.0000      -0.537617       -14.6293
 197   2.0000      -0.536271       -14.5927
 198   2.0000      -0.534758       -14.5515
 199   2.0000      -0.528444       -14.3797
 200   2.0000      -0.523804       -14.2534
 201   2.0000      -0.521626       -14.1942
 202   2.0000      -0.519855       -14.1460
 203   2.0000      -0.516102       -14.0438
 204   2.0000      -0.515415       -14.0252
 205   2.0000      -0.510871       -13.9015
 206   2.0000      -0.510233       -13.8841
 207   2.0000      -0.509227       -13.8568
 208   2.0000      -0.502572       -13.6757
 209   2.0000      -0.498750       -13.5717
 210   2.0000      -0.495433       -13.4814
 211   2.0000      -0.492189       -13.3931
 212   2.0000      -0.491057       -13.3623
 213   2.0000      -0.488767       -13.3000
 214   2.0000      -0.486217       -13.2306
 215   2.0000      -0.484169       -13.1749
 216   2.0000      -0.482427       -13.1275
 217   2.0000      -0.479457       -13.0467
 218   2.0000      -0.478185       -13.0121
 219   2.0000      -0.476101       -12.9554
 220   2.0000      -0.474215       -12.9041
 221   2.0000      -0.473025       -12.8717
 222   2.0000      -0.467845       -12.7307
 223   2.0000      -0.466606       -12.6970
 224   2.0000      -0.465554       -12.6684
 225   2.0000      -0.463913       -12.6237
 226   2.0000      -0.461808       -12.5664
 227   2.0000      -0.459957       -12.5161
 228   2.0000      -0.456666       -12.4265
 229   2.0000      -0.452783       -12.3209
 230   2.0000      -0.451489       -12.2856
 231   2.0000      -0.450782       -12.2664
 232   2.0000      -0.448772       -12.2117
 233   2.0000      -0.445230       -12.1153
 234   2.0000      -0.443176       -12.0594
 235   2.0000      -0.441433       -12.0120
 236   2.0000      -0.441034       -12.0012
 237   2.0000      -0.437316       -11.9000
 238   2.0000      -0.436101       -11.8669
 239   2.0000      -0.433866       -11.8061
 240   2.0000      -0.433779       -11.8037
 241   2.0000      -0.432607       -11.7718
 242   2.0000      -0.431311       -11.7366
 243   2.0000      -0.429514       -11.6877
 244   2.0000      -0.425480       -11.5779
 245   2.0000      -0.422726       -11.5030
 246   2.0000      -0.420454       -11.4411
 247   2.0000      -0.420361       -11.4386
 248   2.0000      -0.418343       -11.3837
 249   2.0000      -0.416638       -11.3373
 250   2.0000      -0.414765       -11.2863
 251   2.0000      -0.412138       -11.2149
 252   2.0000      -0.411045       -11.1851
 253   2.0000      -0.408307       -11.1106
 254   2.0000      -0.405986       -11.0474
 255   2.0000      -0.401004       -10.9119
 256   2.0000      -0.396360       -10.7855
 257   2.0000      -0.395240       -10.7550
 258   2.0000      -0.394370       -10.7314
 259   2.0000      -0.393000       -10.6941
 260   2.0000      -0.387194       -10.5361
 261   2.0000      -0.384248       -10.4559
 262   2.0000      -0.379160       -10.3175
 263   2.0000      -0.371406       -10.1065
 264   2.0000      -0.366829        -9.9819
 265   2.0000      -0.360835        -9.8188
 266   2.0000      -0.358121        -9.7450
 267   2.0000      -0.353508        -9.6194
 268   2.0000      -0.347734        -9.4623
 269   2.0000      -0.343592        -9.3496
 270   2.0000      -0.340419        -9.2633
 271   2.0000      -0.335996        -9.1429
 272   2.0000      -0.334843        -9.1115
 273   2.0000      -0.317120        -8.6293
 274   2.0000      -0.310651        -8.4532
 275   2.0000      -0.297707        -8.1010
 276   2.0000      -0.297602        -8.0982
 277   2.0000      -0.294609        -8.0167
 278   2.0000      -0.288730        -7.8567
 279   2.0000      -0.284725        -7.7477
 280   2.0000      -0.268729        -7.3125
 281   2.0000      -0.246419        -6.7054
 282   2.0000      -0.220458        -5.9990
 283   0.0000      -0.116852        -3.1797
 284   0.0000      -0.100300        -2.7293
 285   0.0000      -0.071770        -1.9530
 286   0.0000      -0.047574        -1.2946
 287   0.0000      -0.045256        -1.2315

MULLIKEN ATOMIC CHARGES
-----------------------
   0 C :   -0.082124
   1 C :    0.040388
   2 C :   -0.034616
   3 C :   -0.120249
   4 S :    0.178275
   5 C :   -0.103655
   6 C :    0.020761
   7 C :    0.323586
   8 C :   -0.294998
   9 C :   -0.120154
  10 N :    0.094962
  11 C :   -0.181214
  12 N :    0.180563
  13 C :   -0.051091
  14 C :   -0.063227
  15 S :    0.180784
  16 C :   -0.033769
  17 C :   -0.083782
  18 C :    0.050470
  19 C :    0.069006
  20 C :   -0.128980
  21 S :    0.130429
  22 C :   -0.113277
  23 C :    0.066839
  24 C :    0.006117
  25 C :   -0.067546
  26 S :    0.130736
  27 C :    0.054074
  28 C :   -0.012482
  29 C :   -0.066443
  30 C :   -0.066449
  31 S :    0.141490
  32 C :   -0.099407
  33 C :    0.002218
  34 C :   -0.026221
  35 S :    0.076847
  36 C :    0.074055
  37 O :   -0.159942
  38 C :    0.085106
  39 O :   -0.128578
  40 S :    0.104929
  41 C :    0.028086
  42 C :   -0.106290
  43 C :    0.111281
  44 C :   -0.055117
  45 C :   -0.075022
  46 N :    0.076846
  47 C :   -0.142068
  48 C :   -0.141303
  49 N :    0.031771
  50 C :   -0.209132
  51 N :    0.236299
  52 C :   -0.197700
  53 N :    0.226295
  54 C :    0.105243
  55 C :   -0.023286
  56 C :   -0.004001
  57 N :   -0.276464
  58 S :    0.536292
  59 N :   -0.273009
  60 C :   -0.237673
  61 S :    0.154588
  62 C :   -0.109847
  63 C :   -0.126222
  64 C :    0.139745
  65 C :   -0.197424
  66 S :   -0.010897
  67 C :    0.124207
  68 C :    0.003123
  69 C :    0.198422
  70 C :   -0.004343
  71 C :   -0.025095
  72 H :    0.036169
  73 H :    0.014657
  74 H :    0.009905
  75 H :   -0.006056
  76 H :    0.037866
  77 H :   -0.018614
  78 H :    0.028047
  79 H :   -0.011855
  80 H :    0.020705
  81 H :    0.025799
  82 H :   -0.000942
  83 H :    0.019835
  84 H :    0.049003
  85 H :    0.000259
  86 H :    0.006945
  87 H :    0.003637
  88 H :   -0.000125
  89 H :    0.025771
  90 H :   -0.010629
  91 H :   -0.007897
  92 H :    0.023235
  93 H :    0.023548
Sum of atomic charges:   -0.0000000

LOEWDIN ATOMIC CHARGES
----------------------
   0 C :   -0.177890
   1 C :   -0.030059
   2 C :   -0.074924
   3 C :   -0.181481
   4 S :    0.475226
   5 C :   -0.182430
   6 C :   -0.063741
   7 C :    0.093128
   8 C :   -0.100724
   9 C :    0.011208
  10 N :   -0.063491
  11 C :   -0.013486
  12 N :   -0.027792
  13 C :   -0.025320
  14 C :   -0.186990
  15 S :    0.465204
  16 C :   -0.182765
  17 C :   -0.020648
  18 C :   -0.011255
  19 C :   -0.046974
  20 C :   -0.139023
  21 S :    0.440909
  22 C :   -0.206194
  23 C :   -0.039036
  24 C :   -0.063609
  25 C :   -0.163737
  26 S :    0.423527
  27 C :   -0.056311
  28 C :   -0.000224
  29 C :   -0.070953
  30 C :   -0.168080
  31 S :    0.448491
  32 C :   -0.185872
  33 C :   -0.194748
  34 C :   -0.219333
  35 S :    0.392794
  36 C :   -0.109709
  37 O :   -0.126505
  38 C :   -0.109105
  39 O :   -0.101823
  40 S :    0.398701
  41 C :   -0.009921
  42 C :   -0.033829
  43 C :   -0.019462
  44 C :   -0.012101
  45 C :   -0.011635
  46 N :    0.009163
  47 C :   -0.030587
  48 C :   -0.031205
  49 N :    0.004703
  50 C :   -0.039530
  51 N :   -0.006856
  52 C :   -0.044339
  53 N :   -0.014010
  54 C :   -0.045120
  55 C :   -0.049734
  56 C :   -0.044047
  57 N :   -0.284031
  58 S :    0.671171
  59 N :   -0.290935
  60 C :   -0.162662
  61 S :    0.462497
  62 C :   -0.171122
  63 C :   -0.052414
  64 C :   -0.055426
  65 C :   -0.115830
  66 S :    0.197840
  67 C :   -0.037084
  68 C :   -0.030763
  69 C :   -0.030551
  70 C :   -0.038030
  71 C :   -0.045956
  72 H :    0.027551
  73 H :    0.043927
  74 H :    0.033006
  75 H :    0.039126
  76 H :    0.037300
  77 H :    0.030759
  78 H :    0.023924
  79 H :    0.026770
  80 H :    0.026749
  81 H :    0.029193
  82 H :    0.026591
  83 H :    0.018233
  84 H :   -0.037257
  85 H :    0.021511
  86 H :    0.025893
  87 H :    0.024180
  88 H :    0.023617
  89 H :    0.033672
  90 H :    0.025704
  91 H :    0.032851
  92 H :    0.017379
  93 H :    0.026171

  Mayer bond orders larger than 0.100000
B(  0-C ,  1-C ) :   1.5521 B(  0-C ,  4-S ) :   1.1454 B(  0-C , 72-H ) :   0.9638
B(  1-C ,  2-C ) :   1.2736 B(  1-C , 73-H ) :   0.9959 B(  2-C ,  3-C ) :   1.4518
B(  2-C ,  7-C ) :   1.0272 B(  3-C ,  4-S ) :   1.1374 B(  3-C ,  5-C ) :   1.1905
B(  5-C ,  6-C ) :   1.4558 B(  5-C , 15-S ) :   1.1211 B(  6-C ,  7-C ) :   0.9907
B(  6-C , 13-C ) :   1.3054 B(  7-C ,  8-C ) :   1.6992 B(  8-C ,  9-C ) :   1.1604
B(  8-C , 11-C ) :   1.1243 B(  9-C , 10-N ) :   2.8606 B( 11-C , 12-N ) :   3.0030
B( 13-C , 14-C ) :   1.4769 B( 13-C , 74-H ) :   0.9820 B( 14-C , 15-S ) :   1.1016
B( 14-C , 16-C ) :   1.1201 B( 16-C , 17-C ) :   1.5504 B( 16-C , 21-S ) :   1.0459
B( 17-C , 18-C ) :   1.2364 B( 17-C , 75-H ) :   0.9672 B( 18-C , 19-C ) :   1.0611
B( 18-C , 27-C ) :   1.3773 B( 19-C , 20-C ) :   1.6100 B( 19-C , 22-C ) :   1.1697
B( 20-C , 21-S ) :   1.1391 B( 20-C , 76-H ) :   0.9399 B( 22-C , 23-C ) :   1.4431
B( 22-C , 26-S ) :   1.0763 B( 23-C , 24-C ) :   1.2244 B( 23-C , 27-C ) :   1.0917
B( 24-C , 25-C ) :   1.5809 B( 24-C , 77-H ) :   0.9999 B( 25-C , 26-S ) :   1.1583
B( 25-C , 78-H ) :   0.9661 B( 27-C , 28-C ) :   1.1753 B( 28-C , 29-C ) :   1.5990
B( 28-C , 79-H ) :   0.9678 B( 29-C , 30-C ) :   1.1999 B( 29-C , 80-H ) :   0.9557
B( 30-C , 31-S ) :   1.1168 B( 30-C , 32-C ) :   0.1008 B( 30-C , 34-C ) :   1.4986
B( 31-S , 32-C ) :   1.0889 B( 32-C , 33-C ) :   1.5010 B( 32-C , 41-C ) :   1.2028
B( 33-C , 34-C ) :   1.3298 B( 33-C , 40-S ) :   0.9802 B( 34-C , 35-S ) :   0.9634
B( 35-S , 36-C ) :   1.0586 B( 35-S , 37-O ) :   0.1243 B( 36-C , 37-O ) :   2.1134
B( 36-C , 38-C ) :   0.7697 B( 38-C , 39-O ) :   2.1695 B( 38-C , 40-S ) :   1.0497
B( 39-O , 40-S ) :   0.1298 B( 41-C , 42-C ) :   1.5518 B( 41-C , 81-H ) :   0.9467
B( 42-C , 43-C ) :   1.2388 B( 42-C , 82-H ) :   0.9608 B( 43-C , 44-C ) :   1.2194
B( 43-C , 54-C ) :   0.1248 B( 43-C , 56-C ) :   1.1726 B( 44-C , 45-C ) :   1.0905
B( 44-C , 49-N ) :   1.4315 B( 45-C , 46-N ) :   1.4484 B( 45-C , 54-C ) :   1.3065
B( 46-N , 47-C ) :   1.7368 B( 47-C , 48-C ) :   1.1932 B( 47-C , 52-C ) :   1.1489
B( 48-C , 49-N ) :   1.7231 B( 48-C , 50-C ) :   1.1424 B( 50-C , 51-N ) :   3.0514
B( 52-C , 53-N ) :   3.0291 B( 54-C , 55-C ) :   1.2156 B( 54-C , 60-C ) :   1.0882
B( 55-C , 56-C ) :   1.1112 B( 55-C , 59-N ) :   1.5089 B( 56-C , 57-N ) :   1.5338
B( 57-N , 58-S ) :   1.2812 B( 57-N , 59-N ) :   0.1539 B( 58-S , 59-N ) :   1.2824
B( 60-C , 61-S ) :   1.1424 B( 60-C , 62-C ) :   0.1050 B( 60-C , 64-C ) :   1.5209
B( 61-S , 62-C ) :   1.1104 B( 62-C , 63-C ) :   1.5112 B( 62-C , 70-C ) :   1.1223
B( 63-C , 64-C ) :   1.2771 B( 63-C , 69-C ) :   1.0985 B( 64-C , 65-C ) :   0.9532
B( 65-C , 66-S ) :   1.0520 B( 65-C , 67-C ) :   1.0273 B( 65-C , 83-H ) :   0.9101
B( 66-S , 84-H ) :   0.9562 B( 67-C , 68-C ) :   1.1033 B( 67-C , 85-H ) :   0.9349
B( 67-C , 86-H ) :   0.9198 B( 68-C , 69-C ) :   1.0760 B( 68-C , 87-H ) :   0.9409
B( 68-C , 88-H ) :   0.9264 B( 69-C , 89-H ) :   0.8873 B( 69-C , 90-H ) :   0.9064
B( 70-C , 71-C ) :   1.9191 B( 70-C , 91-H ) :   0.9647 B( 71-C , 92-H ) :   0.9556
B( 71-C , 93-H ) :   0.9494

-----------------------------------------------------------------------------
         ABSORPTION SPECTRUM VIA TRANSITION ELECTRIC DIPOLE MOMENTS
-----------------------------------------------------------------------------
State   Energy  Wavelength   fosc         T2         TX        TY        TZ
        (cm-1)    (nm)                  (au**2)     (au)      (au)      (au)
-----------------------------------------------------------------------------
   0    8895.2   1124.2   0.722229684  26.72970   4.13662  -1.03533  -2.92339
   1   11137.4    897.9   0.069347873   2.04986   0.59211  -0.20220   1.28778
   2   14632.9    683.4   0.029623804   0.66648   0.61287   0.53725  -0.04723
   3   17275.6    578.9   0.102427868   1.95191   1.14662   0.15544  -0.78295
   4   17555.6    569.6   0.179739442   3.37057  -1.80568   0.30651   0.12709
   5   19689.1    507.9   0.010928396   0.18273  -0.25312   0.00453   0.34444
   6   20155.5    496.1   0.019824672   0.32381  -0.22211  -0.30556   0.42557
   7   21097.0    474.0   0.044910098   0.70081  -0.46126  -0.07966   0.69404
   8   21407.6    467.1   0.007922955   0.12184   0.03306   0.34310   0.05506
   9   22455.9    445.3   0.137988336   2.02296   0.61451   0.20272  -1.26659
  10   22733.2    439.9   0.082964561   1.20145  -0.86331  -0.06691   0.67206
  11   23686.9    422.2   0.342564096   4.76111   0.07020  -0.37020   2.14922
  12   23928.8    417.9   0.014512995   0.19967   0.28313  -0.18773  -0.29029
  13   24434.2    409.3   0.075238889   1.01372  -0.76906   0.64811   0.04713
  14   25028.7    399.5   0.025135670   0.33062   0.33588  -0.43594   0.16660
  15   25323.4    394.9   0.135145830   1.75694  -0.71394   0.36740   1.05463
  16   26222.7    381.3   0.209777033   2.63363   0.06306   0.27239  -1.59858
  17   26527.1    377.0   0.072739762   0.90273  -0.70573   0.01070   0.63605
  18   26622.8    375.6   0.031352571   0.38770   0.07023  -0.09656   0.61110
  19   27325.2    366.0   0.023235224   0.27994   0.38101  -0.36710   0.00053
  20   27814.0    359.5   0.047363348   0.56060  -0.22285   0.17455   0.69316
  21   28639.1    349.2   0.133918255   1.53942   0.02386   0.37393  -1.18280
  22   28888.4    346.2   0.124396016   1.41761  -0.88612   0.60813  -0.51242
  23   29052.9    344.2   0.007531062   0.08534  -0.19855  -0.16439   0.13744
  24   29153.5    343.0   0.082498506   0.93160   0.52260  -0.49306   0.64450
  25   29440.2    339.7   0.043438996   0.48575   0.20388  -0.44437   0.49671
  26   30580.1    327.0   0.164983141   1.77613   0.93669   0.40221  -0.85847
  27   30628.0    326.5   0.528493347   5.68064  -1.85850   1.13617   0.96733
  28   31383.5    318.6   0.015221783   0.15968  -0.19271   0.32523  -0.12946
  29   31756.5    314.9   0.378947303   3.92846   0.97214  -1.62636   0.58168
  30   32149.5    311.0   0.191529560   1.96127   0.45878  -1.15524   0.64514
  31   32334.6    309.3   0.131101672   1.33480  -0.42688   0.98575  -0.42530
  32   32522.8    307.5   0.013458577   0.13623   0.22682   0.22765   0.18155
  33   32750.9    305.3   0.057230715   0.57528  -0.65124   0.38583  -0.04797
  34   32974.4    303.3   0.044984172   0.44912  -0.44736   0.49883  -0.01240
  35   33155.7    301.6   0.123428813   1.22556  -1.05482   0.31630   0.11339
  36   33275.2    300.5   0.078543838   0.77708  -0.86989  -0.04184   0.13648
  37   33353.1    299.8   0.157596846   1.55556  -0.64534   0.53530  -0.92334
  38   33571.1    297.9   0.111918648   1.09752   0.79157   0.06294   0.68335
  39   34091.5    293.3   0.309542625   2.98916  -1.16744   0.92979  -0.87278
  40   34127.9    293.0   0.142520631   1.37481  -0.33908   0.43117  -1.03631
  41   34237.5    292.1   0.122415081   1.17709   0.53848  -0.71046   0.61836
  42   34337.4    291.2   0.262024858   2.51218   0.67929  -1.13316   0.87561
  43   34711.5    288.1   0.007620969   0.07228   0.19519  -0.01881  -0.18392
  44   35238.4    283.8   0.014287799   0.13348   0.22018   0.23369  -0.17433
  45   35408.7    282.4   0.030881658   0.28712   0.41158  -0.10343   0.32715
  46   35849.6    278.9   0.068968648   0.63335   0.07406   0.27812  -0.74197
  47   35990.2    277.9   0.183370994   1.67734  -0.03471   0.35062  -1.24628
  48   36132.3    276.8   0.027030135   0.24628  -0.23689   0.21079  -0.38174
  49   36394.4    274.8   0.227743673   2.06010   0.47566  -0.81572   1.08095
  50   36546.8    273.6   0.067133630   0.60474   0.52058  -0.28894   0.50025
  51   36617.7    273.1   0.364680422   3.27866   1.51894  -0.84837   0.50175
  52   36688.8    272.6   0.038559868   0.34600  -0.42338  -0.11864  -0.39073
  53   36862.2    271.3   0.018813852   0.16802   0.18376   0.20655   0.30264
  54   37099.1    269.5   0.006533329   0.05798  -0.14688  -0.09369   0.16621
  55   37452.9    267.0   0.006469528   0.05687   0.15062   0.02933  -0.18254
  56   37480.1    266.8   0.077496599   0.68070   0.22347   0.26764  -0.74775
  57   37830.4    264.3   0.022375553   0.19472   0.32216  -0.27358  -0.12683
  58   38073.3    262.7   0.012294616   0.10631  -0.03691   0.26886   0.18073
  59   38243.7    261.5   0.019834752   0.17074   0.13642   0.13212  -0.36699
  60   38489.8    259.8   0.010022229   0.08572  -0.26642   0.11670   0.03357
  61   38657.0    258.7   0.004307991   0.03669  -0.06816   0.07327   0.16332
  62   38825.8    257.6   0.025551543   0.21666  -0.30109   0.27501   0.22443
  63   39173.6    255.3   0.060735160   0.51041   0.26749  -0.59155   0.29821
  64   39373.6    254.0   0.074288431   0.62114  -0.01191  -0.02049   0.78777
  65   39576.3    252.7   0.004339378   0.03610   0.17761   0.00424   0.06734
  66   39623.9    252.4   0.005474435   0.04548   0.06057  -0.20161   0.03421
  67   39936.1    250.4   0.019991418   0.16480   0.30818  -0.15220   0.21601
  68   40101.4    249.4   0.006835369   0.05611  -0.02923   0.10456  -0.21054
  69   40199.4    248.8   0.019594348   0.16047  -0.06582  -0.03178   0.39386

FINAL SINGLE POINT ENERGY     -6560.483501943409

DIPOLE MOMENT
-------------
                                X             Y             Z
Electronic contribution:     67.69683     -14.28466     -32.43615
Nuclear contribution   :    -67.65995      16.88095      27.90751
                        -----------------------------------------
Total Dipole Moment    :      0.03688       2.59629      -4.52865
                        -----------------------------------------
Magnitude (a.u.)       :      5.22022
Magnitude (Debye)      :     13.26875

Rotational constants in cm-1:     0.001237     0.000324     0.000273
Rotational constants in MHz :    37.073470     9.720582     8.176529

                             ****ORCA TERMINATED NORMALLY****
TOTAL RUN TIME: 0 days 0 hours 16 minutes 56 seconds 886 msec
