                         Program Version 4.2.0 -  RELEASE  -
|  1> # ORCA input file
|  2> # SCF done       -211.646557529517          0.000519133981
|  3> ! CAM-B3LYP def2-SVP def2/J RIJCOSX Grid4 TightSCF
|  4> %maxcore 5000
|  5> %tddft
|  6>     Mode sTDDFT
|  7>     Ethresh 5.0
|  8>     maxcore 5000
|  9> end
| 10>
| 11> %pal
| 12>   nprocs 6
| 13>   end
| 14> * xyz 0 1
| 15>    C       -2.93427         2.65435         4.30900
| 16>    C       -4.09579         3.29634         3.96214
| 17>    C       -5.04005         3.76761         4.89517
| 18>    N       -5.83016         4.18848         5.61398
| 19>    C       -4.51533         3.47335         2.62839
| 20>    N       -4.90540         3.59893         1.55562
| 21>    C       -2.60463         2.17858         5.64759
| 22>    C       -1.64419         1.13121         5.52965
| 23>    C       -1.18285         0.45719         6.62314
| 24>    C       -1.66128         0.81278         7.90484
| 25>    C       -2.60777         1.87066         8.02979
| 26>    C       -3.07321         2.54770         6.87906
| 27>    C       -3.07252         2.21818         9.31434
| 28>    C       -2.62873         1.55129        10.42365
| 29>    C       -1.69821         0.50888        10.29983
| 30>    C       -1.22496         0.14763         9.06752
| 31>    C       -1.28405         0.95665         4.11026
| 32>    O       -0.54243         0.13568         3.62157
| 33>    C       -1.98192         2.06262         3.39426
| 34>    C       -1.60163         2.39204         2.12993
| 35>    C       -1.80017         3.60224         1.42610
| 36>    C       -1.73570         3.76763         0.05177
| 37>    C       -1.95779         5.08547        -0.33424
| 38>    C       -2.14441         5.95070         0.76400
| 39>    S       -2.07191         5.13686         2.25609
| 40>    C       -2.36522         7.25851         0.27778
| 41>    C       -2.33931         7.22707        -1.12750
| 42>    C       -2.07081         5.85998        -1.55677
| 43>    C       -1.94963         5.41082        -2.83833
| 44>    C       -2.08227         6.27095        -3.94908
| 45>    N       -2.18291         6.96688        -4.85458
| 46>    C       -1.67019         4.06063        -3.13976
| 47>    N       -1.43105         2.96806        -3.39099
| 48>    C       -2.58104         8.47084        -1.70428
| 49>    C       -2.78335         9.45520        -0.74968
| 50>    S       -2.67159         8.82666         0.88733
| 51>    C       -3.07254        10.82310        -0.96530
| 52>    C       -3.18975        11.82132        -0.00862
| 53>    C       -3.50387        13.04977        -0.56762
| 54>    C       -3.63744        12.99428        -1.95736
| 55>    S       -3.35790        11.42395        -2.58816
| 56>    C       -3.98202        14.27683        -2.43722
| 57>    C       -4.05968        15.16037        -1.35762
| 58>    C       -3.75256        14.45051        -0.06030
| 59>    C       -2.50266        15.02910         0.60921
| 60>    C       -4.94850        14.49414         0.89473
| 61>    C       -4.40824        16.44604        -1.73949
| 62>    C       -4.60868        16.55152        -3.10848
| 63>    S       -4.34782        15.02702        -3.93568
| 64>    C       -4.99349        17.70325        -3.83429
| 65>    C       -5.28197        17.79561        -5.18653
| 66>    C       -5.64743        19.08770        -5.55542
| 67>    C       -5.62916        19.99196        -4.47856
| 68>    S       -5.16910        19.24492        -3.00971
| 69>    C       -6.01010        21.26802        -4.94861
| 70>    C       -6.28501        21.17373        -6.33296
| 71>    C       -6.05146        19.80433        -6.75859
| 72>    C       -6.16512        19.29104        -8.01616
| 73>    C       -6.51840        20.07105        -9.13925
| 74>    N       -6.77870        20.67813       -10.07577
| 75>    C       -5.91169        17.92958        -8.28962
| 76>    N       -5.70878        16.82342        -8.51293
| 77>    C       -6.69637        22.37636        -6.89070
| 78>    C       -6.73338        23.40366        -5.95588
| 79>    S       -6.22874        22.84329        -4.35190
| 80>    C       -7.02617        24.77638        -6.06639
| 81>    C       -7.63145        25.47283        -7.07703
| 82>    C       -7.76352        26.91886        -7.09933
| 83>    C       -7.06633        27.81613        -6.33037
| 84>    C       -7.22391        29.21524        -6.41337
| 85>    N       -7.30758        30.36039        -6.42320
| 86>    C       -6.07323        27.48766        -5.38445
| 87>    N       -5.23939        27.30550        -4.61522
| 88>    C       -8.70580        27.26707        -8.15517
| 89>    C       -9.08935        26.07245        -8.82705
| 90>    C       -8.41613        24.91756        -8.20857
| 91>    O       -8.54082        23.75691        -8.53874
| 92>    C       -9.96254        26.08098        -9.87596
| 93>    C      -10.50529        27.31173       -10.30864
| 94>    C      -10.13236        28.51188        -9.63726
| 95>    C       -9.22431        28.47045        -8.55415
| 96>    C      -10.68379        29.73347       -10.07411
| 97>    C      -11.56048        29.77013       -11.12416
| 98>    C      -11.92646        28.58794       -11.78480
| 99>    C      -11.40967        27.38496       -11.38606
|100>    H       -0.46312        -0.34031         6.51317
|101>    H       -3.78391         3.35050         7.00025
|102>    H       -3.79195         3.01891         9.40383
|103>    H       -2.99333         1.82283        11.40301
|104>    H       -1.35842        -0.00665        11.18560
|105>    H       -0.50863        -0.65452         8.96633
|106>    H       -1.00140         1.64665         1.61610
|107>    H       -1.57283         2.94436        -0.62018
|108>    H       -2.61397         8.67300        -2.75978
|109>    H       -3.04634        11.63088         1.04004
|110>    H       -1.65742        14.99639        -0.07442
|111>    H       -2.25552        14.45378         1.49772
|112>    H       -2.67872        16.06232         0.89729
|113>    H       -5.83238        14.08186         0.41353
|114>    H       -5.15612        15.52062         1.18583
|115>    H       -4.73401        13.91233         1.78746
|116>    H       -4.52620        17.28388        -1.07564
|117>    H       -5.22797        16.94988        -5.84817
|118>    H       -6.96760        22.52057        -7.92026
|119>    H       -6.73361        25.34927        -5.19352
|120>    H      -10.23398        25.15980       -10.36989
|121>    H       -8.96711        29.39544        -8.06294
|122>    H      -10.39772        30.64121        -9.56317
|123>    H      -11.97670        30.71104       -11.45174
|124>    H      -12.61994        28.63512       -12.61111
|125>    H      -11.68747        26.47127       -11.89092
|126> *
|127>
|128>                          ****END OF INPUT****

CARTESIAN COORDINATES (ANGSTROEM)
---------------------------------
  C     -2.934270    2.654350    4.309000
  C     -4.095790    3.296340    3.962140
  C     -5.040050    3.767610    4.895170
  N     -5.830160    4.188480    5.613980
  C     -4.515330    3.473350    2.628390
  N     -4.905400    3.598930    1.555620
  C     -2.604630    2.178580    5.647590
  C     -1.644190    1.131210    5.529650
  C     -1.182850    0.457190    6.623140
  C     -1.661280    0.812780    7.904840
  C     -2.607770    1.870660    8.029790
  C     -3.073210    2.547700    6.879060
  C     -3.072520    2.218180    9.314340
  C     -2.628730    1.551290   10.423650
  C     -1.698210    0.508880   10.299830
  C     -1.224960    0.147630    9.067520
  C     -1.284050    0.956650    4.110260
  O     -0.542430    0.135680    3.621570
  C     -1.981920    2.062620    3.394260
  C     -1.601630    2.392040    2.129930
  C     -1.800170    3.602240    1.426100
  C     -1.735700    3.767630    0.051770
  C     -1.957790    5.085470   -0.334240
  C     -2.144410    5.950700    0.764000
  S     -2.071910    5.136860    2.256090
  C     -2.365220    7.258510    0.277780
  C     -2.339310    7.227070   -1.127500
  C     -2.070810    5.859980   -1.556770
  C     -1.949630    5.410820   -2.838330
  C     -2.082270    6.270950   -3.949080
  N     -2.182910    6.966880   -4.854580
  C     -1.670190    4.060630   -3.139760
  N     -1.431050    2.968060   -3.390990
  C     -2.581040    8.470840   -1.704280
  C     -2.783350    9.455200   -0.749680
  S     -2.671590    8.826660    0.887330
  C     -3.072540   10.823100   -0.965300
  C     -3.189750   11.821320   -0.008620
  C     -3.503870   13.049770   -0.567620
  C     -3.637440   12.994280   -1.957360
  S     -3.357900   11.423950   -2.588160
  C     -3.982020   14.276830   -2.437220
  C     -4.059680   15.160370   -1.357620
  C     -3.752560   14.450510   -0.060300
  C     -2.502660   15.029100    0.609210
  C     -4.948500   14.494140    0.894730
  C     -4.408240   16.446040   -1.739490
  C     -4.608680   16.551520   -3.108480
  S     -4.347820   15.027020   -3.935680
  C     -4.993490   17.703250   -3.834290
  C     -5.281970   17.795610   -5.186530
  C     -5.647430   19.087700   -5.555420
  C     -5.629160   19.991960   -4.478560
  S     -5.169100   19.244920   -3.009710
  C     -6.010100   21.268020   -4.948610
  C     -6.285010   21.173730   -6.332960
  C     -6.051460   19.804330   -6.758590
  C     -6.165120   19.291040   -8.016160
  C     -6.518400   20.071050   -9.139250
  N     -6.778700   20.678130  -10.075770
  C     -5.911690   17.929580   -8.289620
  N     -5.708780   16.823420   -8.512930
  C     -6.696370   22.376360   -6.890700
  C     -6.733380   23.403660   -5.955880
  S     -6.228740   22.843290   -4.351900
  C     -7.026170   24.776380   -6.066390
  C     -7.631450   25.472830   -7.077030
  C     -7.763520   26.918860   -7.099330
  C     -7.066330   27.816130   -6.330370
  C     -7.223910   29.215240   -6.413370
  N     -7.307580   30.360390   -6.423200
  C     -6.073230   27.487660   -5.384450
  N     -5.239390   27.305500   -4.615220
  C     -8.705800   27.267070   -8.155170
  C     -9.089350   26.072450   -8.827050
  C     -8.416130   24.917560   -8.208570
  O     -8.540820   23.756910   -8.538740
  C     -9.962540   26.080980   -9.875960
  C    -10.505290   27.311730  -10.308640
  C    -10.132360   28.511880   -9.637260
  C     -9.224310   28.470450   -8.554150
  C    -10.683790   29.733470  -10.074110
  C    -11.560480   29.770130  -11.124160
  C    -11.926460   28.587940  -11.784800
  C    -11.409670   27.384960  -11.386060
  H     -0.463120   -0.340310    6.513170
  H     -3.783910    3.350500    7.000250
  H     -3.791950    3.018910    9.403830
  H     -2.993330    1.822830   11.403010
  H     -1.358420   -0.006650   11.185600
  H     -0.508630   -0.654520    8.966330
  H     -1.001400    1.646650    1.616100
  H     -1.572830    2.944360   -0.620180
  H     -2.613970    8.673000   -2.759780
  H     -3.046340   11.630880    1.040040
  H     -1.657420   14.996390   -0.074420
  H     -2.255520   14.453780    1.497720
  H     -2.678720   16.062320    0.897290
  H     -5.832380   14.081860    0.413530
  H     -5.156120   15.520620    1.185830
  H     -4.734010   13.912330    1.787460
  H     -4.526200   17.283880   -1.075640
  H     -5.227970   16.949880   -5.848170
  H     -6.967600   22.520570   -7.920260
  H     -6.733610   25.349270   -5.193520
  H    -10.233980   25.159800  -10.369890
  H     -8.967110   29.395440   -8.062940
  H    -10.397720   30.641210   -9.563170
  H    -11.976700   30.711040  -11.451740
  H    -12.619940   28.635120  -12.611110
  H    -11.687470   26.471270  -11.890920

 Total Charge           Charge          ....    0
 Multiplicity           Mult            ....    1
 Number of Electrons    NEL             ....  608
 Basis Dimension        Dim             .... 1344

ORBITAL ENERGIES
----------------

  NO   OCC          E(Eh)            E(eV)
   0   2.0000     -88.996922     -2421.7294
   1   2.0000     -88.996460     -2421.7168
   2   2.0000     -88.995553     -2421.6921
   3   2.0000     -88.995048     -2421.6784
   4   2.0000     -88.981928     -2421.3214
   5   2.0000     -88.981574     -2421.3117
   6   2.0000     -19.214237      -522.8460
   7   2.0000     -19.213896      -522.8367
   8   2.0000     -14.433623      -392.7589
   9   2.0000     -14.433494      -392.7553
  10   2.0000     -14.433080      -392.7441
  11   2.0000     -14.429894      -392.6574
  12   2.0000     -14.417073      -392.3085
  13   2.0000     -14.415741      -392.2723
  14   2.0000     -14.413561      -392.2129
  15   2.0000     -14.410721      -392.1356
  16   2.0000     -10.369318      -282.1635
  17   2.0000     -10.369204      -282.1604
  18   2.0000     -10.365995      -282.0731
  19   2.0000     -10.365936      -282.0715
  20   2.0000     -10.356376      -281.8113
  21   2.0000     -10.355581      -281.7897
  22   2.0000     -10.346799      -281.5507
  23   2.0000     -10.345769      -281.5227
  24   2.0000     -10.343989      -281.4742
  25   2.0000     -10.343200      -281.4528
  26   2.0000     -10.339788      -281.3599
  27   2.0000     -10.338613      -281.3280
  28   2.0000     -10.337761      -281.3048
  29   2.0000     -10.337201      -281.2895
  30   2.0000     -10.335364      -281.2395
  31   2.0000     -10.334762      -281.2232
  32   2.0000     -10.333686      -281.1939
  33   2.0000     -10.333483      -281.1884
  34   2.0000     -10.332895      -281.1724
  35   2.0000     -10.328991      -281.0661
  36   2.0000     -10.327504      -281.0257
  37   2.0000     -10.327493      -281.0254
  38   2.0000     -10.327311      -281.0204
  39   2.0000     -10.326453      -280.9971
  40   2.0000     -10.325621      -280.9744
  41   2.0000     -10.325016      -280.9580
  42   2.0000     -10.321515      -280.8627
  43   2.0000     -10.320987      -280.8483
  44   2.0000     -10.319822      -280.8166
  45   2.0000     -10.317939      -280.7654
  46   2.0000     -10.316942      -280.7383
  47   2.0000     -10.314902      -280.6827
  48   2.0000     -10.314038      -280.6592
  49   2.0000     -10.314029      -280.6590
  50   2.0000     -10.313727      -280.6508
  51   2.0000     -10.310665      -280.5674
  52   2.0000     -10.307478      -280.4807
  53   2.0000     -10.307356      -280.4774
  54   2.0000     -10.306955      -280.4665
  55   2.0000     -10.306743      -280.4607
  56   2.0000     -10.306514      -280.4545
  57   2.0000     -10.304662      -280.4041
  58   2.0000     -10.299497      -280.2636
  59   2.0000     -10.299210      -280.2558
  60   2.0000     -10.299091      -280.2525
  61   2.0000     -10.298925      -280.2480
  62   2.0000     -10.298674      -280.2412
  63   2.0000     -10.298645      -280.2404
  64   2.0000     -10.298163      -280.2273
  65   2.0000     -10.297924      -280.2208
  66   2.0000     -10.297900      -280.2201
  67   2.0000     -10.294558      -280.1292
  68   2.0000     -10.294312      -280.1225
  69   2.0000     -10.293511      -280.1007
  70   2.0000     -10.292950      -280.0854
  71   2.0000     -10.292036      -280.0605
  72   2.0000     -10.292017      -280.0600
  73   2.0000     -10.290363      -280.0150
  74   2.0000     -10.287662      -279.9415
  75   2.0000     -10.287342      -279.9328
  76   2.0000     -10.287075      -279.9255
  77   2.0000     -10.286709      -279.9156
  78   2.0000     -10.285029      -279.8699
  79   2.0000     -10.283758      -279.8353
  80   2.0000     -10.283200      -279.8201
  81   2.0000     -10.283024      -279.8153
  82   2.0000     -10.282582      -279.8033
  83   2.0000     -10.279757      -279.7264
  84   2.0000     -10.279539      -279.7205
  85   2.0000      -8.091426      -220.1789
  86   2.0000      -8.090960      -220.1662
  87   2.0000      -8.089844      -220.1359
  88   2.0000      -8.089794      -220.1345
  89   2.0000      -8.076599      -219.7754
  90   2.0000      -8.076259      -219.7662
  91   2.0000      -6.060736      -164.9210
  92   2.0000      -6.060293      -164.9089
  93   2.0000      -6.059084      -164.8761
  94   2.0000      -6.058981      -164.8733
  95   2.0000      -6.056620      -164.8090
  96   2.0000      -6.056117      -164.7953
  97   2.0000      -6.054837      -164.7605
  98   2.0000      -6.054828      -164.7602
  99   2.0000      -6.053624      -164.7275
 100   2.0000      -6.053169      -164.7151
 101   2.0000      -6.052359      -164.6931
 102   2.0000      -6.052144      -164.6872
 103   2.0000      -6.045998      -164.5200
 104   2.0000      -6.045686      -164.5115
 105   2.0000      -6.041925      -164.4091
 106   2.0000      -6.041572      -164.3995
 107   2.0000      -6.038536      -164.3169
 108   2.0000      -6.038198      -164.3077
 109   2.0000      -1.129629       -30.7388
 110   2.0000      -1.129260       -30.7287
 111   2.0000      -1.051326       -28.6080
 112   2.0000      -1.051075       -28.6012
 113   2.0000      -1.031591       -28.0710
 114   2.0000      -1.025724       -27.9114
 115   2.0000      -1.024271       -27.8718
 116   2.0000      -1.020460       -27.7681
 117   2.0000      -1.015585       -27.6355
 118   2.0000      -1.011190       -27.5159
 119   2.0000      -1.009856       -27.4796
 120   2.0000      -1.008100       -27.4318
 121   2.0000      -1.003752       -27.3135
 122   2.0000      -0.999366       -27.1941
 123   2.0000      -0.995677       -27.0938
 124   2.0000      -0.994758       -27.0687
 125   2.0000      -0.990596       -26.9555
 126   2.0000      -0.988238       -26.8913
 127   2.0000      -0.973382       -26.4871
 128   2.0000      -0.969523       -26.3821
 129   2.0000      -0.964874       -26.2555
 130   2.0000      -0.961175       -26.1549
 131   2.0000      -0.941456       -25.6183
 132   2.0000      -0.928441       -25.2642
 133   2.0000      -0.925887       -25.1947
 134   2.0000      -0.919001       -25.0073
 135   2.0000      -0.916836       -24.9484
 136   2.0000      -0.900692       -24.5091
 137   2.0000      -0.896803       -24.4033
 138   2.0000      -0.885768       -24.1030
 139   2.0000      -0.882930       -24.0257
 140   2.0000      -0.878975       -23.9181
 141   2.0000      -0.878798       -23.9133
 142   2.0000      -0.876707       -23.8564
 143   2.0000      -0.870940       -23.6995
 144   2.0000      -0.863984       -23.5102
 145   2.0000      -0.863569       -23.4989
 146   2.0000      -0.861952       -23.4549
 147   2.0000      -0.846393       -23.0315
 148   2.0000      -0.839435       -22.8422
 149   2.0000      -0.837054       -22.7774
 150   2.0000      -0.829496       -22.5717
 151   2.0000      -0.825197       -22.4547
 152   2.0000      -0.818927       -22.2841
 153   2.0000      -0.807231       -21.9659
 154   2.0000      -0.792863       -21.5749
 155   2.0000      -0.791287       -21.5320
 156   2.0000      -0.781472       -21.2649
 157   2.0000      -0.780499       -21.2384
 158   2.0000      -0.765395       -20.8275
 159   2.0000      -0.759147       -20.6574
 160   2.0000      -0.758828       -20.6488
 161   2.0000      -0.745728       -20.2923
 162   2.0000      -0.725113       -19.7313
 163   2.0000      -0.719858       -19.5883
 164   2.0000      -0.715069       -19.4580
 165   2.0000      -0.709371       -19.3030
 166   2.0000      -0.703895       -19.1540
 167   2.0000      -0.702636       -19.1197
 168   2.0000      -0.701395       -19.0859
 169   2.0000      -0.697301       -18.9745
 170   2.0000      -0.692961       -18.8564
 171   2.0000      -0.688994       -18.7485
 172   2.0000      -0.685946       -18.6655
 173   2.0000      -0.681933       -18.5563
 174   2.0000      -0.677519       -18.4362
 175   2.0000      -0.673090       -18.3157
 176   2.0000      -0.658495       -17.9186
 177   2.0000      -0.654321       -17.8050
 178   2.0000      -0.650726       -17.7071
 179   2.0000      -0.641521       -17.4567
 180   2.0000      -0.638351       -17.3704
 181   2.0000      -0.635578       -17.2949
 182   2.0000      -0.634185       -17.2570
 183   2.0000      -0.629795       -17.1376
 184   2.0000      -0.627313       -17.0701
 185   2.0000      -0.623069       -16.9546
 186   2.0000      -0.622119       -16.9287
 187   2.0000      -0.617121       -16.7927
 188   2.0000      -0.609770       -16.5927
 189   2.0000      -0.608401       -16.5554
 190   2.0000      -0.603913       -16.4333
 191   2.0000      -0.601282       -16.3617
 192   2.0000      -0.595995       -16.2178
 193   2.0000      -0.588561       -16.0156
 194   2.0000      -0.576793       -15.6953
 195   2.0000      -0.572990       -15.5918
 196   2.0000      -0.561955       -15.2916
 197   2.0000      -0.560503       -15.2521
 198   2.0000      -0.558735       -15.2040
 199   2.0000      -0.554467       -15.0878
 200   2.0000      -0.553396       -15.0587
 201   2.0000      -0.549302       -14.9473
 202   2.0000      -0.547999       -14.9118
 203   2.0000      -0.544927       -14.8282
 204   2.0000      -0.543954       -14.8017
 205   2.0000      -0.543779       -14.7970
 206   2.0000      -0.540595       -14.7103
 207   2.0000      -0.537623       -14.6295
 208   2.0000      -0.534850       -14.5540
 209   2.0000      -0.533152       -14.5078
 210   2.0000      -0.531945       -14.4750
 211   2.0000      -0.527180       -14.3453
 212   2.0000      -0.523510       -14.2454
 213   2.0000      -0.522632       -14.2215
 214   2.0000      -0.518688       -14.1142
 215   2.0000      -0.517848       -14.0914
 216   2.0000      -0.515094       -14.0164
 217   2.0000      -0.513483       -13.9726
 218   2.0000      -0.511859       -13.9284
 219   2.0000      -0.511045       -13.9062
 220   2.0000      -0.509970       -13.8770
 221   2.0000      -0.507599       -13.8125
 222   2.0000      -0.507235       -13.8026
 223   2.0000      -0.505946       -13.7675
 224   2.0000      -0.504150       -13.7186
 225   2.0000      -0.502423       -13.6716
 226   2.0000      -0.500663       -13.6237
 227   2.0000      -0.499103       -13.5813
 228   2.0000      -0.496743       -13.5171
 229   2.0000      -0.493840       -13.4381
 230   2.0000      -0.492796       -13.4097
 231   2.0000      -0.489651       -13.3241
 232   2.0000      -0.489210       -13.3121
 233   2.0000      -0.487813       -13.2741
 234   2.0000      -0.486382       -13.2351
 235   2.0000      -0.484222       -13.1764
 236   2.0000      -0.482311       -13.1244
 237   2.0000      -0.479243       -13.0409
 238   2.0000      -0.477211       -12.9856
 239   2.0000      -0.470628       -12.8065
 240   2.0000      -0.467865       -12.7312
 241   2.0000      -0.465836       -12.6760
 242   2.0000      -0.463981       -12.6256
 243   2.0000      -0.463092       -12.6014
 244   2.0000      -0.462815       -12.5938
 245   2.0000      -0.462086       -12.5740
 246   2.0000      -0.460074       -12.5192
 247   2.0000      -0.457017       -12.4361
 248   2.0000      -0.454744       -12.3742
 249   2.0000      -0.451436       -12.2842
 250   2.0000      -0.448418       -12.2021
 251   2.0000      -0.447860       -12.1869
 252   2.0000      -0.446427       -12.1479
 253   2.0000      -0.445695       -12.1280
 254   2.0000      -0.443531       -12.0691
 255   2.0000      -0.443263       -12.0618
 256   2.0000      -0.443172       -12.0593
 257   2.0000      -0.442075       -12.0295
 258   2.0000      -0.441524       -12.0145
 259   2.0000      -0.441102       -12.0030
 260   2.0000      -0.441047       -12.0015
 261   2.0000      -0.440328       -11.9819
 262   2.0000      -0.439417       -11.9572
 263   2.0000      -0.437168       -11.8960
 264   2.0000      -0.436098       -11.8668
 265   2.0000      -0.433431       -11.7943
 266   2.0000      -0.431236       -11.7345
 267   2.0000      -0.430438       -11.7128
 268   2.0000      -0.429866       -11.6972
 269   2.0000      -0.429116       -11.6768
 270   2.0000      -0.427984       -11.6460
 271   2.0000      -0.426877       -11.6159
 272   2.0000      -0.426101       -11.5948
 273   2.0000      -0.422581       -11.4990
 274   2.0000      -0.420240       -11.4353
 275   2.0000      -0.419355       -11.4112
 276   2.0000      -0.417813       -11.3693
 277   2.0000      -0.416653       -11.3377
 278   2.0000      -0.408663       -11.1203
 279   2.0000      -0.406113       -11.0509
 280   2.0000      -0.402596       -10.9552
 281   2.0000      -0.401125       -10.9152
 282   2.0000      -0.396392       -10.7864
 283   2.0000      -0.385551       -10.4914
 284   2.0000      -0.378152       -10.2900
 285   2.0000      -0.373348       -10.1593
 286   2.0000      -0.365848        -9.9552
 287   2.0000      -0.356628        -9.7043
 288   2.0000      -0.354733        -9.6528
 289   2.0000      -0.349539        -9.5114
 290   2.0000      -0.343989        -9.3604
 291   2.0000      -0.340418        -9.2632
 292   2.0000      -0.336756        -9.1636
 293   2.0000      -0.335196        -9.1211
 294   2.0000      -0.328332        -8.9344
 295   2.0000      -0.326333        -8.8800
 296   2.0000      -0.322889        -8.7863
 297   2.0000      -0.316864        -8.6223
 298   2.0000      -0.313643        -8.5347
 299   2.0000      -0.298680        -8.1275
 300   2.0000      -0.294419        -8.0115
 301   2.0000      -0.288388        -7.8474
 302   2.0000      -0.267860        -7.2888
 303   2.0000      -0.237428        -6.4607
 304   0.0000      -0.117915        -3.2086
 305   0.0000      -0.111956        -3.0465
 306   0.0000      -0.090534        -2.4636
 307   0.0000      -0.088638        -2.4120
 308   0.0000      -0.063631        -1.7315

MULLIKEN ATOMIC CHARGES
-----------------------
   0 C :    0.255127
   1 C :   -0.334616
   2 C :   -0.174638
   3 N :    0.152748
   4 C :   -0.204906
   5 N :    0.171145
   6 C :    0.035624
   7 C :    0.012884
   8 C :   -0.082987
   9 C :    0.095324
  10 C :    0.095321
  11 C :   -0.081630
  12 C :   -0.020017
  13 C :    0.036904
  14 C :    0.035834
  15 C :   -0.017957
  16 C :    0.142480
  17 O :   -0.142131
  18 C :   -0.146790
  19 C :    0.046836
  20 C :   -0.102665
  21 C :    0.014610
  22 C :    0.020392
  23 C :   -0.075133
  24 S :    0.202243
  25 C :   -0.107715
  26 C :    0.030150
  27 C :    0.296300
  28 C :   -0.289253
  29 C :   -0.190461
  30 N :    0.178276
  31 C :   -0.190469
  32 N :    0.181843
  33 C :   -0.071651
  34 C :   -0.038795
  35 S :    0.186813
  36 C :   -0.060007
  37 C :   -0.070196
  38 C :    0.019204
  39 C :   -0.079840
  40 S :    0.171291
  41 C :   -0.081806
  42 C :    0.015682
  43 C :   -0.110573
  44 C :    0.106057
  45 C :    0.103903
  46 C :   -0.066224
  47 C :   -0.062776
  48 S :    0.171343
  49 C :   -0.038455
  50 C :   -0.071398
  51 C :    0.027860
  52 C :   -0.108108
  53 S :    0.184315
  54 C :   -0.075132
  55 C :   -0.017553
  56 C :    0.305564
  57 C :   -0.294764
  58 C :   -0.188724
  59 N :    0.191772
  60 C :   -0.190386
  61 N :    0.175619
  62 C :    0.014391
  63 C :   -0.112084
  64 S :    0.200721
  65 C :    0.030650
  66 C :   -0.096693
  67 C :    0.306120
  68 C :   -0.349825
  69 C :   -0.182681
  70 N :    0.145083
  71 C :   -0.203944
  72 N :    0.151585
  73 C :    0.048611
  74 C :   -0.008996
  75 C :    0.156496
  76 O :   -0.152821
  77 C :   -0.076129
  78 C :    0.094983
  79 C :    0.092762
  80 C :   -0.080227
  81 C :   -0.017790
  82 C :    0.037248
  83 C :    0.032531
  84 C :   -0.013537
  85 H :   -0.010283
  86 H :   -0.005984
  87 H :   -0.010222
  88 H :   -0.005377
  89 H :   -0.005005
  90 H :   -0.015771
  91 H :    0.034704
  92 H :    0.018615
  93 H :    0.016143
  94 H :   -0.012911
  95 H :    0.025690
  96 H :    0.013162
  97 H :    0.013202
  98 H :    0.025796
  99 H :    0.012960
 100 H :    0.013258
 101 H :   -0.012678
 102 H :    0.016401
 103 H :    0.036782
 104 H :    0.016795
 105 H :   -0.011116
 106 H :   -0.008666
 107 H :   -0.009990
 108 H :   -0.006113
 109 H :   -0.004243
 110 H :   -0.017310
Sum of atomic charges:   -0.0000000

LOEWDIN ATOMIC CHARGES
----------------------
   0 C :    0.061126
   1 C :   -0.147684
   2 C :   -0.019793
   3 N :   -0.054016
   4 C :   -0.035907
   5 N :   -0.051232
   6 C :   -0.023310
   7 C :   -0.056513
   8 C :    0.032413
   9 C :   -0.009106
  10 C :   -0.005810
  11 C :    0.014713
  12 C :   -0.007106
  13 C :   -0.013007
  14 C :   -0.013093
  15 C :   -0.009115
  16 C :    0.082883
  17 O :   -0.143664
  18 C :   -0.103022
  19 C :    0.051714
  20 C :   -0.181385
  21 C :    0.016898
  22 C :   -0.076498
  23 C :   -0.147003
  24 S :    0.504023
  25 C :   -0.194884
  26 C :   -0.048631
  27 C :    0.080630
  28 C :   -0.095483
  29 C :   -0.016582
  30 N :   -0.028891
  31 C :   -0.017030
  32 N :   -0.026089
  33 C :   -0.042455
  34 C :   -0.161697
  35 S :    0.476996
  36 C :   -0.185972
  37 C :   -0.054853
  38 C :   -0.033654
  39 C :   -0.190487
  40 S :    0.457688
  41 C :   -0.189377
  42 C :   -0.034587
  43 C :   -0.034673
  44 C :   -0.022921
  45 C :   -0.023066
  46 C :   -0.053770
  47 C :   -0.187541
  48 S :    0.457820
  49 C :   -0.159957
  50 C :   -0.044376
  51 C :   -0.047767
  52 C :   -0.197897
  53 S :    0.474721
  54 C :   -0.155136
  55 C :   -0.078775
  56 C :    0.076454
  57 C :   -0.092474
  58 C :   -0.021341
  59 N :   -0.015617
  60 C :   -0.015565
  61 N :   -0.029923
  62 C :    0.022988
  63 C :   -0.178841
  64 S :    0.490368
  65 C :    0.042192
  66 C :   -0.098255
  67 C :    0.076894
  68 C :   -0.145987
  69 C :   -0.017627
  70 N :   -0.057153
  71 C :   -0.025048
  72 N :   -0.058082
  73 C :   -0.026340
  74 C :   -0.054806
  75 C :    0.084903
  76 O :   -0.141186
  77 C :    0.032753
  78 C :   -0.008524
  79 C :   -0.006777
  80 C :    0.018865
  81 C :   -0.005912
  82 C :   -0.013904
  83 C :   -0.013108
  84 C :   -0.009113
  85 H :    0.039715
  86 H :    0.038240
  87 H :    0.034067
  88 H :    0.032932
  89 H :    0.032818
  90 H :    0.032156
  91 H :    0.054849
  92 H :    0.047464
  93 H :    0.037570
  94 H :    0.026992
  95 H :    0.031708
  96 H :    0.024852
  97 H :    0.024859
  98 H :    0.031868
  99 H :    0.024724
 100 H :    0.024943
 101 H :    0.026940
 102 H :    0.037419
 103 H :    0.044864
 104 H :    0.042963
 105 H :    0.039741
 106 H :    0.038762
 107 H :    0.034401
 108 H :    0.032711
 109 H :    0.032740
 110 H :    0.032057

  Mayer bond orders larger than 0.100000
B(  0-C ,  1-C ) :   1.6436 B(  0-C ,  6-C ) :   1.0029 B(  0-C , 18-C ) :   1.0409
B(  1-C ,  2-C ) :   1.1388 B(  1-C ,  4-C ) :   1.1551 B(  2-C ,  3-N ) :   2.9881
B(  4-C ,  5-N ) :   3.0186 B(  6-C ,  7-C ) :   1.2164 B(  6-C , 11-C ) :   1.4588
B(  7-C ,  8-C ) :   1.4765 B(  7-C , 16-C ) :   0.9202 B(  8-C ,  9-C ) :   1.1838
B(  8-C , 85-H ) :   1.0166 B(  9-C , 10-C ) :   1.2583 B(  9-C , 15-C ) :   1.2449
B( 10-C , 11-C ) :   1.2029 B( 10-C , 12-C ) :   1.2407 B( 11-C , 86-H ) :   0.9944
B( 12-C , 13-C ) :   1.4886 B( 12-C , 87-H ) :   0.9981 B( 13-C , 14-C ) :   1.2610
B( 13-C , 88-H ) :   0.9892 B( 14-C , 15-C ) :   1.4887 B( 14-C , 89-H ) :   0.9889
B( 15-C , 90-H ) :   0.9983 B( 16-C , 17-O ) :   2.2736 B( 16-C , 18-C ) :   0.9389
B( 18-C , 19-C ) :   1.6308 B( 19-C , 20-C ) :   1.1438 B( 19-C , 91-H ) :   0.9470
B( 20-C , 21-C ) :   1.3996 B( 20-C , 24-S ) :   1.0785 B( 21-C , 22-C ) :   1.3070
B( 21-C , 92-H ) :   0.9998 B( 22-C , 23-C ) :   1.3914 B( 22-C , 27-C ) :   0.9982
B( 23-C , 24-S ) :   1.1555 B( 23-C , 25-C ) :   1.2196 B( 25-C , 26-C ) :   1.4364
B( 25-C , 35-S ) :   1.0980 B( 26-C , 27-C ) :   0.9891 B( 26-C , 33-C ) :   1.3125
B( 27-C , 28-C ) :   1.7200 B( 28-C , 29-C ) :   1.1348 B( 28-C , 31-C ) :   1.1339
B( 29-C , 30-N ) :   2.9915 B( 31-C , 32-N ) :   2.9954 B( 33-C , 34-C ) :   1.4361
B( 33-C , 93-H ) :   0.9893 B( 34-C , 35-S ) :   1.1197 B( 34-C , 36-C ) :   1.1809
B( 36-C , 37-C ) :   1.4379 B( 36-C , 40-S ) :   1.1135 B( 37-C , 38-C ) :   1.3311
B( 37-C , 94-H ) :   0.9963 B( 38-C , 39-C ) :   1.5211 B( 38-C , 43-C ) :   0.9384
B( 39-C , 40-S ) :   1.0863 B( 39-C , 41-C ) :   1.1780 B( 41-C , 42-C ) :   1.5217
B( 41-C , 48-S ) :   1.0871 B( 42-C , 43-C ) :   0.9384 B( 42-C , 46-C ) :   1.3328
B( 43-C , 44-C ) :   1.0329 B( 43-C , 45-C ) :   1.0363 B( 44-C , 95-H ) :   0.9641
B( 44-C , 96-H ) :   0.9645 B( 44-C , 97-H ) :   0.9646 B( 45-C , 98-H ) :   0.9647
B( 45-C , 99-H ) :   0.9642 B( 45-C ,100-H ) :   0.9642 B( 46-C , 47-C ) :   1.4361
B( 46-C ,101-H ) :   0.9959 B( 47-C , 48-S ) :   1.1126 B( 47-C , 49-C ) :   1.1842
B( 49-C , 50-C ) :   1.4347 B( 49-C , 53-S ) :   1.1199 B( 50-C , 51-C ) :   1.3116
B( 50-C ,102-H ) :   0.9892 B( 51-C , 52-C ) :   1.4357 B( 51-C , 56-C ) :   0.9899
B( 52-C , 53-S ) :   1.0958 B( 52-C , 54-C ) :   1.2132 B( 54-C , 55-C ) :   1.3711
B( 54-C , 64-S ) :   1.1669 B( 55-C , 56-C ) :   0.9988 B( 55-C , 62-C ) :   1.3311
B( 56-C , 57-C ) :   1.7198 B( 57-C , 58-C ) :   1.1346 B( 57-C , 60-C ) :   1.1359
B( 58-C , 59-N ) :   2.9959 B( 60-C , 61-N ) :   2.9894 B( 62-C , 63-C ) :   1.3975
B( 62-C ,103-H ) :   0.9727 B( 63-C , 64-S ) :   1.0676 B( 63-C , 65-C ) :   1.2152
B( 65-C , 66-C ) :   1.5834 B( 65-C ,104-H ) :   0.9202 B( 66-C , 67-C ) :   1.0817
B( 66-C , 75-C ) :   0.9432 B( 67-C , 68-C ) :   1.6211 B( 67-C , 73-C ) :   0.9877
B( 68-C , 69-C ) :   1.1477 B( 68-C , 71-C ) :   1.1397 B( 69-C , 70-N ) :   2.9649
B( 71-C , 72-N ) :   2.9874 B( 73-C , 74-C ) :   1.2142 B( 73-C , 80-C ) :   1.4507
B( 74-C , 75-C ) :   0.9475 B( 74-C , 77-C ) :   1.4767 B( 75-C , 76-O ) :   2.1854
B( 77-C , 78-C ) :   1.1758 B( 77-C ,105-H ) :   1.0160 B( 78-C , 79-C ) :   1.2583
B( 78-C , 84-C ) :   1.2463 B( 79-C , 80-C ) :   1.2054 B( 79-C , 81-C ) :   1.2402
B( 80-C ,106-H ) :   0.9896 B( 81-C , 82-C ) :   1.4889 B( 81-C ,107-H ) :   0.9970
B( 82-C , 83-C ) :   1.2605 B( 82-C ,108-H ) :   0.9888 B( 83-C , 84-C ) :   1.4867
B( 83-C ,109-H ) :   0.9895 B( 84-C ,110-H ) :   0.9977

-----------------------------------------------------------------------------
         ABSORPTION SPECTRUM VIA TRANSITION ELECTRIC DIPOLE MOMENTS
-----------------------------------------------------------------------------
State   Energy  Wavelength   fosc         T2         TX        TY        TZ
        (cm-1)    (nm)                  (au**2)     (au)      (au)      (au)
-----------------------------------------------------------------------------
   0   10895.2    917.8   0.925142485  27.95424  -0.99379   4.71447  -2.17724
   1   12037.9    830.7   0.061283135   1.67597  -0.58398   1.09867  -0.35756
   2   17859.7    559.9   1.705198514  31.43230   0.75337  -4.82174   2.75963
   3   19363.1    516.4   0.327134758   5.56196   1.22007  -2.01000  -0.18245
   4   19895.9    502.6   0.075676298   1.25219   0.73665  -0.79627  -0.27476
   5   20977.8    476.7   0.203708615   3.19686  -0.27222   1.65476  -0.62009
   6   24215.9    413.0   0.326548856   4.43939   0.78115  -1.87648   0.55499
   7   25104.9    398.3   0.103824637   1.36150   0.56861  -0.57596   0.84050
   8   25304.8    395.2   0.029395690   0.38243   0.43882  -0.24207   0.36232
   9   26196.2    381.7   0.039882498   0.50121   0.39954   0.01287  -0.58430
  10   26807.2    373.0   0.005747685   0.07059   0.11662   0.09911  -0.21717
  11   26959.1    370.9   0.155650247   1.90073  -0.14745   1.13002  -0.77591
  12   27155.8    368.2   0.046033222   0.55806  -0.47029   0.37508   0.44295
  13   27622.4    362.0   0.052164463   0.62171   0.16985   0.73708   0.22266
  14   27798.4    359.7   0.053638680   0.63523   0.04886   0.78834   0.10661
  15   28665.9    348.8   0.099234319   1.13965   0.35543  -0.45469   0.89810
  16   28773.9    347.5   0.018820025   0.21533   0.05808  -0.46034   0.00599
  17   29206.2    342.4   0.019146278   0.21582   0.35293  -0.15484   0.25939
  18   29368.5    340.5   0.018964450   0.21259   0.22311  -0.27299  -0.29712
  19   30027.4    333.0   0.132799110   1.45597   0.88836  -0.56666   0.58796
  20   30296.0    330.1   0.497606654   5.40725  -0.32401   0.47065  -2.25405
  21   30643.4    326.3   0.289099224   3.10589   0.39773  -0.90886  -1.45659
  22   30959.6    323.0   0.309628083   3.29246   0.41108   0.60193   1.66167
  23   31357.8    318.9   0.257261666   2.70088  -0.03759   0.59058   1.53319
  24   31900.7    313.5   0.041028286   0.42341  -0.22725  -0.27530  -0.54404
  25   31974.9    312.7   0.070486742   0.72573   0.31565  -0.61585  -0.49682
  26   32661.0    306.2   0.176708705   1.78116  -0.79284   0.78450  -0.73289
  27   32853.4    304.4   0.150682324   1.50993   0.36917  -0.34437   1.12029
  28   32960.1    303.4   0.321135451   3.20756  -0.29787   1.24840  -1.24913
  29   33219.3    301.0   0.093548089   0.92709  -0.22684   0.02690   0.93536
  30   33438.5    299.1   0.099812559   0.98268   0.71371  -0.46115   0.51053
  31   33596.2    297.7   0.026574583   0.26041   0.13166   0.21329  -0.44450
  32   33872.1    295.2   0.040141039   0.39014  -0.23498   0.33729   0.47028
  33   34051.1    293.7   0.273262843   2.64195   0.89003  -0.08852   1.35719
  34   34212.5    292.3   0.021566096   0.20752  -0.31352   0.30416  -0.12929
  35   34289.3    291.6   0.057687293   0.55386   0.03354   0.56566   0.48246
  36   34462.9    290.2   0.277705897   2.65282  -0.11902  -0.65905  -1.48469
  37   34620.3    288.8   0.348745136   3.31630   0.97966  -0.30531   1.50444
  38   34859.9    286.9   0.230068371   2.17273   1.16367  -0.46119   0.77841
  39   34934.6    286.2   0.015809096   0.14898   0.06260   0.31263   0.21753
  40   35089.8    285.0   0.239655524   2.24844   0.29989  -0.74582   1.26580
  41   35450.4    282.1   0.043258824   0.40173   0.19642  -0.15338   0.58277
  42   35650.4    280.5   0.165055349   1.52420  -0.54870   0.34619  -1.05037
  43   35874.5    278.7   0.032190272   0.29540   0.19611  -0.31421   0.39776
  44   36166.6    276.5   0.008277395   0.07535   0.06565  -0.20803   0.16661
  45   36573.3    273.4   0.124536016   1.12100   0.12376   0.40664   0.96971
  46   36612.0    273.1   0.077074358   0.69305   0.28141   0.77030   0.14313
  47   36873.7    271.2   0.122324340   1.09212   0.49950  -0.21222   0.89308
  48   37256.3    268.4   0.028854336   0.25497  -0.14965  -0.45311  -0.16513
  49   37481.7    266.8   0.024814776   0.21795  -0.01604   0.46362   0.05247
  50   37678.2    265.4   0.014646345   0.12797   0.05673  -0.25846  -0.24073
  51   37939.8    263.6   0.018144165   0.15744   0.13473  -0.28394   0.24222
  52   38233.3    261.6   0.011706711   0.10080  -0.22072  -0.13006  -0.18754
  53   38597.6    259.1   0.028001423   0.23883   0.21518   0.32824   0.29119
  54   38731.1    258.2   0.011366534   0.09661  -0.02097   0.25962   0.16962
  55   38966.2    256.6   0.007594779   0.06417  -0.05874   0.20930  -0.13004
  56   39122.5    255.6   0.005297576   0.04458   0.18542   0.08260  -0.05811
  57   39463.3    253.4   0.169011112   1.40993  -0.34930  -0.99344  -0.54863
  58   39600.4    252.5   0.077234493   0.64208  -0.12666  -0.59676  -0.51953
  59   39760.5    251.5   0.007030659   0.05821  -0.16566  -0.06508   0.16290
  60   40056.8    249.6   0.045671072   0.37535  -0.31426   0.49425   0.17975

FINAL SINGLE POINT ENERGY     -5617.577091534762

DIPOLE MOMENT
-------------
                                X             Y             Z
Electronic contribution:      9.51997     -11.36897     -25.45687
Nuclear contribution   :     -9.34066      11.62687      29.27077
                        -----------------------------------------
Total Dipole Moment    :      0.17931       0.25790       3.81390
                        -----------------------------------------
Magnitude (a.u.)       :      3.82682
Magnitude (Debye)      :      9.72700

Rotational constants in cm-1:     0.001913     0.000115     0.000111
Rotational constants in MHz :    57.344216     3.441657     3.325059

                             ****ORCA TERMINATED NORMALLY****
TOTAL RUN TIME: 0 days 0 hours 19 minutes 29 seconds 174 msec
