                         Program Version 4.2.0 -  RELEASE  -
|  1> # ORCA input file
|  2> # SCF done       -228.435365857029          0.000410151792
|  3> ! CAM-B3LYP def2-SVP def2/J RIJCOSX Grid4 TightSCF
|  4> %maxcore 5000
|  5> %tddft
|  6>     Mode sTDDFT
|  7>     Ethresh 5.0
|  8>     maxcore 5000
|  9> end
| 10>
| 11> %pal
| 12>   nprocs 6
| 13>   end
| 14> * xyz 0 1
| 15>    C       -3.14795        -6.96210        -3.80766
| 16>    C       -3.42001        -7.94941        -4.74041
| 17>    C       -3.57939        -7.57393        -6.07448
| 18>    C       -3.86358        -8.56500        -7.04815
| 19>    N       -4.09261        -9.37044        -7.82815
| 20>    C       -3.46451        -6.22711        -6.47323
| 21>    C       -3.62026        -5.88124        -7.83823
| 22>    N       -3.74116        -5.58477        -8.93724
| 23>    C       -3.20398        -5.23405        -5.52838
| 24>    C       -3.05337        -5.61367        -4.21035
| 25>    C       -2.81979        -4.75326        -3.03079
| 26>    O       -2.63465        -3.56648        -2.99368
| 27>    C       -2.94328        -5.68293        -1.85984
| 28>    C       -2.91864        -7.04825        -2.36970
| 29>    C       -2.57573        -8.16974        -1.67375
| 30>    C       -2.52366        -9.46430        -2.24047
| 31>    N       -2.48033       -10.53207        -2.65424
| 32>    C       -2.17430        -8.15613        -0.32110
| 33>    N       -1.81612        -8.18283         0.76850
| 34>    C       -3.22966        -5.18595        -0.64596
| 35>    C       -3.68039        -5.89541         0.53828
| 36>    C       -3.04902        -5.67303         1.76326
| 37>    C       -1.86885        -4.81883         2.04511
| 38>    O       -1.26207        -4.11450         1.28262
| 39>    N       -1.59692        -4.99992         3.40257
| 40>    C       -2.49553        -5.89496         4.01556
| 41>    O       -2.47592        -6.19955         5.17250
| 42>    C       -3.41925        -6.32649         2.93636
| 43>    C       -4.47241        -7.22128         2.97155
| 44>    C       -5.13420        -7.42742         1.76700
| 45>    C       -4.75817        -6.79928         0.57712
| 46>    C       -5.60679        -7.16135        -0.57831
| 47>    O       -5.51420        -6.78020        -1.71154
| 48>    S       -6.85903        -8.32586        -0.06009
| 49>    C       -6.29007        -8.34171         1.64850
| 50>    O       -6.79598        -8.99258         2.50616
| 51>    C       -0.57609        -4.41859         4.13825
| 52>    C        0.28969        -3.50180         3.67836
| 53>    C        1.31093        -2.95179         4.50894
| 54>    S        2.38152        -1.69082         3.94502
| 55>    C        3.25975        -1.56368         5.45553
| 56>    C        2.72060        -2.48351         6.32694
| 57>    C        1.65323        -3.23935         5.80972
| 58>    O        1.23453        -4.09060         6.78782
| 59>    C        2.02680        -3.85820         7.86115
| 60>    S        1.90630        -4.63877         9.26539
| 61>    O        2.93666        -2.88841         7.60545
| 62>    C        4.31133        -0.62735         5.64937
| 63>    C        4.92804        -0.49079         6.84094
| 64>    C        5.94812         0.46884         7.17344
| 65>    C        5.95375         1.02402         8.46491
| 66>    C        5.03769         0.75344         9.59238
| 67>    O        4.09944         0.00885         9.67168
| 68>    N        5.47269         1.58392        10.64681
| 69>    C        6.57532         2.36841        10.28178
| 70>    O        7.15508         3.14738        10.98569
| 71>    C        6.86316         1.99892         8.87213
| 72>    C        7.84172         2.48334         8.02482
| 73>    C        7.88545         1.90882         6.75955
| 74>    C        6.98932         0.92739         6.33336
| 75>    C        7.32768         0.36613         5.00693
| 76>    O        6.82724        -0.55164         4.43036
| 77>    S        8.73850         1.25410         4.32439
| 78>    C        8.92341         2.28711         5.77316
| 79>    O        9.76106         3.12631         5.89351
| 80>    C        4.78078         1.62008        11.83911
| 81>    C        5.00828         2.49175        12.83679
| 82>    C        4.20619         2.52414        14.01013
| 83>    C        4.12488         3.56154        14.88271
| 84>    C        3.55415         3.36958        16.24279
| 85>    O        2.91382         2.42770        16.64010
| 86>    C        3.99341         4.55882        17.01139
| 87>    C        3.82560         4.82086        18.35472
| 88>    C        4.35795         6.00546        18.86620
| 89>    C        5.05186         6.89267        18.02063
| 90>    C        5.20919         6.62218        16.66019
| 91>    C        4.66978         5.45131        16.15491
| 92>    C        4.63267         4.91717        14.79245
| 93>    C        4.81708         5.64888        13.65128
| 94>    C        4.48578         5.20303        12.35216
| 95>    N        4.17477         4.91937        11.28477
| 96>    C        5.24914         6.99420        13.64555
| 97>    N        5.60714         8.08239        13.59359
| 98>    C        5.60182         8.08188        18.56156
| 99>    N        6.05107         9.04308        18.99098
|100>    C        4.20468         6.31441        20.23965
|101>    N        4.07168         6.54763        21.35265
|102>    H       -3.52569        -8.98718        -4.46579
|103>    H       -3.12459        -4.19756        -5.81944
|104>    H       -3.11710        -4.11160        -0.53284
|105>    H       -4.76857        -7.73699         3.87112
|106>    H       -0.54612        -4.77923         5.15874
|107>    H        0.24495        -3.14206         2.66256
|108>    H        4.55840        -0.01100         4.79909
|109>    H        4.56930        -1.07754         7.67614
|110>    H        8.54409         3.24571         8.32098
|111>    H        3.96570         0.90669        11.87005
|112>    H        5.81472         3.20393        12.75036
|113>    H        3.64603         1.63316        14.27099
|114>    H        3.29729         4.12833        18.99229
|115>    H        5.75134         7.32053        16.04226
|116> *
|117>
|118>                          ****END OF INPUT****

CARTESIAN COORDINATES (ANGSTROEM)
---------------------------------
  C     -3.147950   -6.962100   -3.807660
  C     -3.420010   -7.949410   -4.740410
  C     -3.579390   -7.573930   -6.074480
  C     -3.863580   -8.565000   -7.048150
  N     -4.092610   -9.370440   -7.828150
  C     -3.464510   -6.227110   -6.473230
  C     -3.620260   -5.881240   -7.838230
  N     -3.741160   -5.584770   -8.937240
  C     -3.203980   -5.234050   -5.528380
  C     -3.053370   -5.613670   -4.210350
  C     -2.819790   -4.753260   -3.030790
  O     -2.634650   -3.566480   -2.993680
  C     -2.943280   -5.682930   -1.859840
  C     -2.918640   -7.048250   -2.369700
  C     -2.575730   -8.169740   -1.673750
  C     -2.523660   -9.464300   -2.240470
  N     -2.480330  -10.532070   -2.654240
  C     -2.174300   -8.156130   -0.321100
  N     -1.816120   -8.182830    0.768500
  C     -3.229660   -5.185950   -0.645960
  C     -3.680390   -5.895410    0.538280
  C     -3.049020   -5.673030    1.763260
  C     -1.868850   -4.818830    2.045110
  O     -1.262070   -4.114500    1.282620
  N     -1.596920   -4.999920    3.402570
  C     -2.495530   -5.894960    4.015560
  O     -2.475920   -6.199550    5.172500
  C     -3.419250   -6.326490    2.936360
  C     -4.472410   -7.221280    2.971550
  C     -5.134200   -7.427420    1.767000
  C     -4.758170   -6.799280    0.577120
  C     -5.606790   -7.161350   -0.578310
  O     -5.514200   -6.780200   -1.711540
  S     -6.859030   -8.325860   -0.060090
  C     -6.290070   -8.341710    1.648500
  O     -6.795980   -8.992580    2.506160
  C     -0.576090   -4.418590    4.138250
  C      0.289690   -3.501800    3.678360
  C      1.310930   -2.951790    4.508940
  S      2.381520   -1.690820    3.945020
  C      3.259750   -1.563680    5.455530
  C      2.720600   -2.483510    6.326940
  C      1.653230   -3.239350    5.809720
  O      1.234530   -4.090600    6.787820
  C      2.026800   -3.858200    7.861150
  S      1.906300   -4.638770    9.265390
  O      2.936660   -2.888410    7.605450
  C      4.311330   -0.627350    5.649370
  C      4.928040   -0.490790    6.840940
  C      5.948120    0.468840    7.173440
  C      5.953750    1.024020    8.464910
  C      5.037690    0.753440    9.592380
  O      4.099440    0.008850    9.671680
  N      5.472690    1.583920   10.646810
  C      6.575320    2.368410   10.281780
  O      7.155080    3.147380   10.985690
  C      6.863160    1.998920    8.872130
  C      7.841720    2.483340    8.024820
  C      7.885450    1.908820    6.759550
  C      6.989320    0.927390    6.333360
  C      7.327680    0.366130    5.006930
  O      6.827240   -0.551640    4.430360
  S      8.738500    1.254100    4.324390
  C      8.923410    2.287110    5.773160
  O      9.761060    3.126310    5.893510
  C      4.780780    1.620080   11.839110
  C      5.008280    2.491750   12.836790
  C      4.206190    2.524140   14.010130
  C      4.124880    3.561540   14.882710
  C      3.554150    3.369580   16.242790
  O      2.913820    2.427700   16.640100
  C      3.993410    4.558820   17.011390
  C      3.825600    4.820860   18.354720
  C      4.357950    6.005460   18.866200
  C      5.051860    6.892670   18.020630
  C      5.209190    6.622180   16.660190
  C      4.669780    5.451310   16.154910
  C      4.632670    4.917170   14.792450
  C      4.817080    5.648880   13.651280
  C      4.485780    5.203030   12.352160
  N      4.174770    4.919370   11.284770
  C      5.249140    6.994200   13.645550
  N      5.607140    8.082390   13.593590
  C      5.601820    8.081880   18.561560
  N      6.051070    9.043080   18.990980
  C      4.204680    6.314410   20.239650
  N      4.071680    6.547630   21.352650
  H     -3.525690   -8.987180   -4.465790
  H     -3.124590   -4.197560   -5.819440
  H     -3.117100   -4.111600   -0.532840
  H     -4.768570   -7.736990    3.871120
  H     -0.546120   -4.779230    5.158740
  H      0.244950   -3.142060    2.662560
  H      4.558400   -0.011000    4.799090
  H      4.569300   -1.077540    7.676140
  H      8.544090    3.245710    8.320980
  H      3.965700    0.906690   11.870050
  H      5.814720    3.203930   12.750360
  H      3.646030    1.633160   14.270990
  H      3.297290    4.128330   18.992290
  H      5.751340    7.320530   16.042260

 Total Charge           Charge          ....    0
 Multiplicity           Mult            ....    1
 Number of Electrons    NEL             ....  610
 Basis Dimension        Dim             .... 1304

ORBITAL ENERGIES
----------------

  NO   OCC          E(Eh)            E(eV)
   0   2.0000     -88.992440     -2421.6074
   1   2.0000     -88.979605     -2421.2581
   2   2.0000     -88.965068     -2420.8626
   3   2.0000     -88.901615     -2419.1359
   4   2.0000     -19.333434      -526.0895
   5   2.0000     -19.332917      -526.0754
   6   2.0000     -19.273503      -524.4587
   7   2.0000     -19.270609      -524.3799
   8   2.0000     -19.262534      -524.1602
   9   2.0000     -19.260137      -524.0950
  10   2.0000     -19.258621      -524.0537
  11   2.0000     -19.257764      -524.0304
  12   2.0000     -19.257598      -524.0259
  13   2.0000     -19.257209      -524.0153
  14   2.0000     -19.257191      -524.0148
  15   2.0000     -19.239730      -523.5397
  16   2.0000     -14.511180      -394.8693
  17   2.0000     -14.510694      -394.8561
  18   2.0000     -14.456038      -393.3688
  19   2.0000     -14.451458      -393.2442
  20   2.0000     -14.439921      -392.9302
  21   2.0000     -14.439243      -392.9118
  22   2.0000     -14.435899      -392.8208
  23   2.0000     -14.435175      -392.8011
  24   2.0000     -14.430505      -392.6740
  25   2.0000     -14.429857      -392.6564
  26   2.0000     -10.454866      -284.4914
  27   2.0000     -10.441497      -284.1276
  28   2.0000     -10.438364      -284.0423
  29   2.0000     -10.437499      -284.0188
  30   2.0000     -10.436862      -284.0015
  31   2.0000     -10.436602      -283.9944
  32   2.0000     -10.431253      -283.8488
  33   2.0000     -10.422212      -283.6028
  34   2.0000     -10.418164      -283.4927
  35   2.0000     -10.407497      -283.2024
  36   2.0000     -10.390646      -282.7438
  37   2.0000     -10.387723      -282.6643
  38   2.0000     -10.382793      -282.5301
  39   2.0000     -10.374739      -282.3110
  40   2.0000     -10.373863      -282.2872
  41   2.0000     -10.373714      -282.2831
  42   2.0000     -10.370247      -282.1888
  43   2.0000     -10.369960      -282.1810
  44   2.0000     -10.368816      -282.1498
  45   2.0000     -10.365017      -282.0464
  46   2.0000     -10.363124      -281.9949
  47   2.0000     -10.362869      -281.9880
  48   2.0000     -10.362095      -281.9669
  49   2.0000     -10.359559      -281.8979
  50   2.0000     -10.357552      -281.8433
  51   2.0000     -10.356672      -281.8194
  52   2.0000     -10.354886      -281.7708
  53   2.0000     -10.353882      -281.7435
  54   2.0000     -10.352941      -281.7178
  55   2.0000     -10.351744      -281.6853
  56   2.0000     -10.351716      -281.6845
  57   2.0000     -10.351231      -281.6713
  58   2.0000     -10.350381      -281.6482
  59   2.0000     -10.349092      -281.6131
  60   2.0000     -10.348849      -281.6065
  61   2.0000     -10.348669      -281.6016
  62   2.0000     -10.346132      -281.5326
  63   2.0000     -10.343734      -281.4673
  64   2.0000     -10.343305      -281.4556
  65   2.0000     -10.342933      -281.4455
  66   2.0000     -10.342097      -281.4228
  67   2.0000     -10.341973      -281.4194
  68   2.0000     -10.340885      -281.3898
  69   2.0000     -10.340302      -281.3739
  70   2.0000     -10.338907      -281.3360
  71   2.0000     -10.337233      -281.2904
  72   2.0000     -10.337146      -281.2880
  73   2.0000     -10.337133      -281.2877
  74   2.0000     -10.336989      -281.2838
  75   2.0000     -10.336910      -281.2816
  76   2.0000     -10.336128      -281.2603
  77   2.0000     -10.335980      -281.2563
  78   2.0000     -10.335097      -281.2323
  79   2.0000     -10.328414      -281.0504
  80   2.0000     -10.327009      -281.0122
  81   2.0000     -10.326106      -280.9876
  82   2.0000     -10.322618      -280.8927
  83   2.0000     -10.315818      -280.7077
  84   2.0000     -10.312787      -280.6252
  85   2.0000     -10.306798      -280.4622
  86   2.0000     -10.303404      -280.3699
  87   2.0000      -8.087455      -220.0708
  88   2.0000      -8.078744      -219.8338
  89   2.0000      -8.064401      -219.4435
  90   2.0000      -7.999709      -217.6831
  91   2.0000      -6.056977      -164.8187
  92   2.0000      -6.053059      -164.7121
  93   2.0000      -6.048863      -164.5979
  94   2.0000      -6.047591      -164.5633
  95   2.0000      -6.044307      -164.4740
  96   2.0000      -6.039819      -164.3518
  97   2.0000      -6.033234      -164.1726
  98   2.0000      -6.029982      -164.0842
  99   2.0000      -6.025449      -163.9608
 100   2.0000      -5.969587      -162.4407
 101   2.0000      -5.966054      -162.3446
 102   2.0000      -5.959580      -162.1684
 103   2.0000      -1.301314       -35.4105
 104   2.0000      -1.207998       -32.8713
 105   2.0000      -1.205506       -32.8035
 106   2.0000      -1.197737       -32.5921
 107   2.0000      -1.192929       -32.4613
 108   2.0000      -1.192856       -32.4593
 109   2.0000      -1.185228       -32.2517
 110   2.0000      -1.183553       -32.2061
 111   2.0000      -1.181785       -32.1580
 112   2.0000      -1.179096       -32.0848
 113   2.0000      -1.174201       -31.9516
 114   2.0000      -1.155599       -31.4455
 115   2.0000      -1.100919       -29.9575
 116   2.0000      -1.099006       -29.9055
 117   2.0000      -1.062059       -28.9001
 118   2.0000      -1.048338       -28.5267
 119   2.0000      -1.046331       -28.4721
 120   2.0000      -1.041738       -28.3471
 121   2.0000      -1.031738       -28.0750
 122   2.0000      -1.031197       -28.0603
 123   2.0000      -1.030076       -28.0298
 124   2.0000      -1.026794       -27.9405
 125   2.0000      -1.025169       -27.8963
 126   2.0000      -1.018687       -27.7199
 127   2.0000      -1.014167       -27.5969
 128   2.0000      -1.013614       -27.5818
 129   2.0000      -1.009487       -27.4695
 130   2.0000      -0.996166       -27.1071
 131   2.0000      -0.983321       -26.7575
 132   2.0000      -0.983212       -26.7546
 133   2.0000      -0.974219       -26.5099
 134   2.0000      -0.956204       -26.0196
 135   2.0000      -0.949284       -25.8313
 136   2.0000      -0.946075       -25.7440
 137   2.0000      -0.937133       -25.5007
 138   2.0000      -0.930624       -25.3236
 139   2.0000      -0.929916       -25.3043
 140   2.0000      -0.919954       -25.0332
 141   2.0000      -0.916060       -24.9273
 142   2.0000      -0.909468       -24.7479
 143   2.0000      -0.908899       -24.7324
 144   2.0000      -0.905841       -24.6492
 145   2.0000      -0.902702       -24.5638
 146   2.0000      -0.881152       -23.9774
 147   2.0000      -0.873170       -23.7602
 148   2.0000      -0.849201       -23.1079
 149   2.0000      -0.839624       -22.8473
 150   2.0000      -0.834179       -22.6992
 151   2.0000      -0.829696       -22.5772
 152   2.0000      -0.826441       -22.4886
 153   2.0000      -0.822040       -22.3688
 154   2.0000      -0.813678       -22.1413
 155   2.0000      -0.811736       -22.0885
 156   2.0000      -0.806873       -21.9561
 157   2.0000      -0.793060       -21.5803
 158   2.0000      -0.779930       -21.2230
 159   2.0000      -0.776871       -21.1397
 160   2.0000      -0.771750       -21.0004
 161   2.0000      -0.763643       -20.7798
 162   2.0000      -0.758174       -20.6310
 163   2.0000      -0.756212       -20.5776
 164   2.0000      -0.744791       -20.2668
 165   2.0000      -0.738094       -20.0846
 166   2.0000      -0.731059       -19.8931
 167   2.0000      -0.729343       -19.8464
 168   2.0000      -0.720181       -19.5971
 169   2.0000      -0.715090       -19.4586
 170   2.0000      -0.714488       -19.4422
 171   2.0000      -0.713643       -19.4192
 172   2.0000      -0.703078       -19.1317
 173   2.0000      -0.700040       -19.0491
 174   2.0000      -0.695951       -18.9378
 175   2.0000      -0.688111       -18.7244
 176   2.0000      -0.680348       -18.5132
 177   2.0000      -0.676454       -18.4072
 178   2.0000      -0.670898       -18.2561
 179   2.0000      -0.662136       -18.0176
 180   2.0000      -0.661102       -17.9895
 181   2.0000      -0.657756       -17.8985
 182   2.0000      -0.653807       -17.7910
 183   2.0000      -0.645890       -17.5756
 184   2.0000      -0.638353       -17.3705
 185   2.0000      -0.635077       -17.2813
 186   2.0000      -0.632657       -17.2155
 187   2.0000      -0.632032       -17.1985
 188   2.0000      -0.629790       -17.1375
 189   2.0000      -0.624641       -16.9973
 190   2.0000      -0.617633       -16.8067
 191   2.0000      -0.615667       -16.7532
 192   2.0000      -0.615006       -16.7352
 193   2.0000      -0.612120       -16.6566
 194   2.0000      -0.607844       -16.5403
 195   2.0000      -0.604800       -16.4575
 196   2.0000      -0.602469       -16.3940
 197   2.0000      -0.597634       -16.2624
 198   2.0000      -0.594723       -16.1832
 199   2.0000      -0.589691       -16.0463
 200   2.0000      -0.588032       -16.0012
 201   2.0000      -0.584193       -15.8967
 202   2.0000      -0.583832       -15.8869
 203   2.0000      -0.581093       -15.8124
 204   2.0000      -0.578539       -15.7429
 205   2.0000      -0.576414       -15.6850
 206   2.0000      -0.573201       -15.5976
 207   2.0000      -0.571349       -15.5472
 208   2.0000      -0.568780       -15.4773
 209   2.0000      -0.568209       -15.4617
 210   2.0000      -0.566392       -15.4123
 211   2.0000      -0.564626       -15.3642
 212   2.0000      -0.563636       -15.3373
 213   2.0000      -0.561762       -15.2863
 214   2.0000      -0.558180       -15.1888
 215   2.0000      -0.555389       -15.1129
 216   2.0000      -0.552910       -15.0455
 217   2.0000      -0.552627       -15.0377
 218   2.0000      -0.549709       -14.9583
 219   2.0000      -0.544003       -14.8031
 220   2.0000      -0.542093       -14.7511
 221   2.0000      -0.538657       -14.6576
 222   2.0000      -0.534232       -14.5372
 223   2.0000      -0.534153       -14.5351
 224   2.0000      -0.533229       -14.5099
 225   2.0000      -0.531887       -14.4734
 226   2.0000      -0.529849       -14.4179
 227   2.0000      -0.527947       -14.3662
 228   2.0000      -0.525166       -14.2905
 229   2.0000      -0.524733       -14.2787
 230   2.0000      -0.524246       -14.2655
 231   2.0000      -0.522215       -14.2102
 232   2.0000      -0.520373       -14.1601
 233   2.0000      -0.519904       -14.1473
 234   2.0000      -0.519129       -14.1262
 235   2.0000      -0.518111       -14.0985
 236   2.0000      -0.515340       -14.0231
 237   2.0000      -0.511252       -13.9119
 238   2.0000      -0.507323       -13.8050
 239   2.0000      -0.506878       -13.7929
 240   2.0000      -0.503984       -13.7141
 241   2.0000      -0.501185       -13.6379
 242   2.0000      -0.498095       -13.5538
 243   2.0000      -0.496523       -13.5111
 244   2.0000      -0.493067       -13.4170
 245   2.0000      -0.490457       -13.3460
 246   2.0000      -0.487638       -13.2693
 247   2.0000      -0.486129       -13.2283
 248   2.0000      -0.483469       -13.1559
 249   2.0000      -0.476968       -12.9790
 250   2.0000      -0.472989       -12.8707
 251   2.0000      -0.471648       -12.8342
 252   2.0000      -0.469343       -12.7715
 253   2.0000      -0.468043       -12.7361
 254   2.0000      -0.466924       -12.7056
 255   2.0000      -0.465332       -12.6623
 256   2.0000      -0.463897       -12.6233
 257   2.0000      -0.463038       -12.5999
 258   2.0000      -0.462795       -12.5933
 259   2.0000      -0.462374       -12.5818
 260   2.0000      -0.460172       -12.5219
 261   2.0000      -0.456116       -12.4115
 262   2.0000      -0.455864       -12.4047
 263   2.0000      -0.454633       -12.3712
 264   2.0000      -0.454244       -12.3606
 265   2.0000      -0.453864       -12.3503
 266   2.0000      -0.451430       -12.2840
 267   2.0000      -0.446806       -12.1582
 268   2.0000      -0.446158       -12.1406
 269   2.0000      -0.443989       -12.0816
 270   2.0000      -0.439840       -11.9687
 271   2.0000      -0.439083       -11.9481
 272   2.0000      -0.436928       -11.8894
 273   2.0000      -0.432639       -11.7727
 274   2.0000      -0.430076       -11.7030
 275   2.0000      -0.429862       -11.6972
 276   2.0000      -0.424242       -11.5442
 277   2.0000      -0.411334       -11.1930
 278   2.0000      -0.405335       -11.0297
 279   2.0000      -0.404434       -11.0052
 280   2.0000      -0.400300       -10.8927
 281   2.0000      -0.396976       -10.8023
 282   2.0000      -0.392634       -10.6841
 283   2.0000      -0.392039       -10.6679
 284   2.0000      -0.389794       -10.6068
 285   2.0000      -0.387280       -10.5384
 286   2.0000      -0.384896       -10.4736
 287   2.0000      -0.383491       -10.4353
 288   2.0000      -0.383072       -10.4239
 289   2.0000      -0.379862       -10.3366
 290   2.0000      -0.377671       -10.2770
 291   2.0000      -0.376480       -10.2445
 292   2.0000      -0.373964       -10.1761
 293   2.0000      -0.371115       -10.0985
 294   2.0000      -0.363334        -9.8868
 295   2.0000      -0.362105        -9.8534
 296   2.0000      -0.361696        -9.8422
 297   2.0000      -0.361175        -9.8281
 298   2.0000      -0.348867        -9.4931
 299   2.0000      -0.343988        -9.3604
 300   2.0000      -0.342116        -9.3095
 301   2.0000      -0.313044        -8.5184
 302   2.0000      -0.312910        -8.5147
 303   2.0000      -0.308268        -8.3884
 304   2.0000      -0.281347        -7.6558
 305   0.0000      -0.131887        -3.5888
 306   0.0000      -0.118236        -3.2174
 307   0.0000      -0.112232        -3.0540
 308   0.0000      -0.110131        -2.9968
 309   0.0000      -0.107481        -2.9247

MULLIKEN ATOMIC CHARGES
-----------------------
   0 C :    0.050976
   1 C :   -0.030534
   2 C :   -0.060899
   3 C :   -0.171429
   4 N :    0.208091
   5 C :   -0.063975
   6 C :   -0.171818
   7 N :    0.203335
   8 C :   -0.028259
   9 C :    0.005518
  10 C :    0.145989
  11 O :   -0.103583
  12 C :   -0.078311
  13 C :    0.283908
  14 C :   -0.326195
  15 C :   -0.188946
  16 N :    0.188737
  17 C :   -0.174775
  18 N :    0.172064
  19 C :    0.017551
  20 C :   -0.057390
  21 C :    0.011077
  22 C :    0.222307
  23 O :   -0.144862
  24 N :   -0.235430
  25 C :    0.203709
  26 O :   -0.109595
  27 C :    0.029098
  28 C :   -0.045043
  29 C :    0.051240
  30 C :    0.065007
  31 C :    0.044344
  32 O :   -0.144009
  33 S :    0.039421
  34 C :    0.048356
  35 O :   -0.100233
  36 C :    0.066466
  37 C :    0.071203
  38 C :   -0.203499
  39 S :    0.176968
  40 C :   -0.227499
  41 C :    0.189044
  42 C :    0.198591
  43 O :   -0.182620
  44 C :    0.240387
  45 S :   -0.141289
  46 O :   -0.170473
  47 C :    0.153217
  48 C :   -0.086388
  49 C :    0.075243
  50 C :   -0.037100
  51 C :    0.207059
  52 O :   -0.130324
  53 N :   -0.243428
  54 C :    0.235495
  55 O :   -0.126703
  56 C :    0.008976
  57 C :   -0.070575
  58 C :    0.046675
  59 C :    0.024388
  60 C :    0.031893
  61 O :   -0.121118
  62 S :    0.020443
  63 C :    0.051786
  64 O :   -0.111795
  65 C :    0.111050
  66 C :   -0.009462
  67 C :    0.037328
  68 C :   -0.118475
  69 C :    0.150556
  70 O :   -0.120054
  71 C :   -0.002799
  72 C :   -0.031513
  73 C :   -0.065643
  74 C :   -0.063947
  75 C :   -0.035111
  76 C :    0.036163
  77 C :    0.272561
  78 C :   -0.307645
  79 C :   -0.197264
  80 N :    0.166725
  81 C :   -0.185399
  82 N :    0.172651
  83 C :   -0.174561
  84 N :    0.206039
  85 C :   -0.173785
  86 N :    0.197680
  87 H :    0.025425
  88 H :    0.022844
  89 H :    0.054259
  90 H :    0.027820
  91 H :    0.051661
  92 H :    0.013245
  93 H :   -0.011890
  94 H :    0.041614
  95 H :    0.023964
  96 H :    0.050950
  97 H :    0.063921
  98 H :    0.027596
  99 H :    0.018823
 100 H :    0.024211
Sum of atomic charges:   -0.0000000

LOEWDIN ATOMIC CHARGES
----------------------
   0 C :    0.009641
   1 C :    0.039619
   2 C :   -0.018129
   3 C :   -0.032041
   4 N :   -0.003826
   5 C :   -0.023473
   6 C :   -0.032696
   7 N :   -0.006333
   8 C :    0.053684
   9 C :   -0.028241
  10 C :    0.090866
  11 O :   -0.104958
  12 C :   -0.054399
  13 C :    0.072055
  14 C :   -0.117113
  15 C :   -0.024307
  16 N :   -0.019105
  17 C :   -0.013625
  18 N :   -0.039787
  19 C :    0.070062
  20 C :    0.014184
  21 C :   -0.016763
  22 C :    0.105053
  23 O :   -0.124203
  24 N :   -0.009682
  25 C :    0.104507
  26 O :   -0.108338
  27 C :   -0.018600
  28 C :    0.058943
  29 C :   -0.046343
  30 C :   -0.053584
  31 C :   -0.046877
  32 O :   -0.124152
  33 S :    0.322817
  34 C :   -0.042090
  35 O :   -0.092802
  36 C :    0.041969
  37 C :   -0.059348
  38 C :   -0.181577
  39 S :    0.468338
  40 C :   -0.199738
  41 C :    0.007045
  42 C :   -0.010616
  43 O :   -0.014941
  44 C :   -0.062127
  45 S :    0.021079
  46 O :   -0.005713
  47 C :    0.014578
  48 C :   -0.040670
  49 C :    0.039602
  50 C :   -0.041081
  51 C :    0.109112
  52 O :   -0.117110
  53 N :   -0.010614
  54 C :    0.110085
  55 O :   -0.114006
  56 C :   -0.025247
  57 C :    0.037755
  58 C :   -0.044782
  59 C :   -0.062399
  60 C :   -0.043495
  61 O :   -0.108796
  62 S :    0.308193
  63 C :   -0.049026
  64 O :   -0.104252
  65 C :    0.088909
  66 C :   -0.056539
  67 C :    0.084336
  68 C :   -0.099330
  69 C :    0.082905
  70 O :   -0.123864
  71 C :   -0.031473
  72 C :    0.049848
  73 C :   -0.028658
  74 C :   -0.022510
  75 C :    0.032853
  76 C :    0.004499
  77 C :    0.064853
  78 C :   -0.118277
  79 C :   -0.015119
  80 N :   -0.043690
  81 C :   -0.022517
  82 N :   -0.030916
  83 C :   -0.031746
  84 N :   -0.009515
  85 C :   -0.032187
  86 N :   -0.012689
  87 H :    0.053998
  88 H :    0.056700
  89 H :    0.058924
  90 H :    0.056847
  91 H :    0.040114
  92 H :    0.037972
  93 H :    0.032418
  94 H :    0.038570
  95 H :    0.053723
  96 H :    0.044167
  97 H :    0.038242
  98 H :    0.049154
  99 H :    0.054990
 100 H :    0.052827

  Mayer bond orders larger than 0.100000
B(  0-C ,  1-C ) :   1.3555 B(  0-C ,  9-C ) :   1.3341 B(  0-C , 13-C ) :   0.9889
B(  1-C ,  2-C ) :   1.3983 B(  1-C , 87-H ) :   0.9902 B(  2-C ,  3-C ) :   1.0835
B(  2-C ,  5-C ) :   1.3963 B(  3-C ,  4-N ) :   3.0435 B(  5-C ,  6-C ) :   1.0879
B(  5-C ,  8-C ) :   1.3741 B(  6-C ,  7-N ) :   3.0442 B(  8-C ,  9-C ) :   1.3623
B(  8-C , 88-H ) :   1.0141 B(  9-C , 10-C ) :   0.9001 B( 10-C , 11-O ) :   2.3063
B( 10-C , 12-C ) :   0.9222 B( 12-C , 13-C ) :   0.9833 B( 12-C , 19-C ) :   1.8254
B( 13-C , 14-C ) :   1.7029 B( 14-C , 15-C ) :   1.1229 B( 14-C , 17-C ) :   1.1713
B( 15-C , 16-N ) :   2.9919 B( 17-C , 18-N ) :   2.9941 B( 19-C , 20-C ) :   0.9950
B( 19-C , 89-H ) :   0.9231 B( 20-C , 21-C ) :   1.4247 B( 20-C , 30-C ) :   1.3674
B( 21-C , 22-C ) :   0.8921 B( 21-C , 27-C ) :   1.3918 B( 22-C , 23-O ) :   2.1443
B( 22-C , 24-N ) :   1.0522 B( 24-N , 25-C ) :   1.0061 B( 24-N , 36-C ) :   1.0222
B( 25-C , 26-O ) :   2.2604 B( 25-C , 27-C ) :   0.8661 B( 27-C , 28-C ) :   1.3286
B( 28-C , 29-C ) :   1.3417 B( 28-C , 90-H ) :   1.0241 B( 29-C , 30-C ) :   1.3379
B( 29-C , 34-C ) :   0.8339 B( 30-C , 31-C ) :   0.8520 B( 31-C , 32-O ) :   2.1372
B( 31-C , 33-S ) :   1.0556 B( 32-O , 33-S ) :   0.1090 B( 33-S , 34-C ) :   1.0123
B( 33-S , 35-O ) :   0.1051 B( 34-C , 35-O ) :   2.2404 B( 36-C , 37-C ) :   1.7146
B( 36-C , 91-H ) :   0.9655 B( 37-C , 38-C ) :   1.1037 B( 37-C , 92-H ) :   0.9537
B( 38-C , 39-S ) :   1.1155 B( 38-C , 40-C ) :   0.1020 B( 38-C , 42-C ) :   1.4925
B( 39-S , 40-C ) :   1.0811 B( 40-C , 41-C ) :   1.4865 B( 40-C , 47-C ) :   1.1580
B( 41-C , 42-C ) :   1.2609 B( 41-C , 46-O ) :   1.0719 B( 42-C , 43-O ) :   1.0582
B( 43-O , 44-C ) :   1.0879 B( 44-C , 45-S ) :   1.8139 B( 44-C , 46-O ) :   1.0859
B( 47-C , 48-C ) :   1.7008 B( 47-C , 93-H ) :   0.9480 B( 48-C , 49-C ) :   1.1148
B( 48-C , 94-H ) :   0.9356 B( 49-C , 50-C ) :   1.3588 B( 49-C , 59-C ) :   1.3260
B( 50-C , 51-C ) :   0.9101 B( 50-C , 56-C ) :   1.3854 B( 51-C , 52-O ) :   2.1755
B( 51-C , 53-N ) :   1.0078 B( 53-N , 54-C ) :   1.0060 B( 53-N , 65-C ) :   1.0570
B( 54-C , 55-O ) :   2.2144 B( 54-C , 56-C ) :   0.8810 B( 56-C , 57-C ) :   1.3296
B( 57-C , 58-C ) :   1.3386 B( 57-C , 95-H ) :   1.0295 B( 58-C , 59-C ) :   1.3486
B( 58-C , 63-C ) :   0.8373 B( 59-C , 60-C ) :   0.8498 B( 60-C , 61-O ) :   2.1863
B( 60-C , 62-S ) :   1.0259 B( 61-O , 62-S ) :   0.1052 B( 62-S , 63-C ) :   1.0269
B( 62-S , 64-O ) :   0.1089 B( 63-C , 64-O ) :   2.2256 B( 65-C , 66-C ) :   1.6802
B( 65-C , 96-H ) :   0.9745 B( 66-C , 67-C ) :   1.1121 B( 66-C , 97-H ) :   0.9324
B( 67-C , 68-C ) :   1.6426 B( 67-C , 98-H ) :   0.9588 B( 68-C , 69-C ) :   0.9430
B( 68-C , 77-C ) :   1.0382 B( 69-C , 70-O ) :   2.2931 B( 69-C , 71-C ) :   0.8990
B( 71-C , 72-C ) :   1.3708 B( 71-C , 76-C ) :   1.3338 B( 72-C , 73-C ) :   1.3645
B( 72-C , 99-H ) :   1.0144 B( 73-C , 74-C ) :   1.4016 B( 73-C , 85-C ) :   1.0888
B( 74-C , 75-C ) :   1.3897 B( 74-C , 83-C ) :   1.0864 B( 75-C , 76-C ) :   1.3595
B( 75-C ,100-H ) :   0.9894 B( 76-C , 77-C ) :   0.9798 B( 77-C , 78-C ) :   1.6688
B( 78-C , 79-C ) :   1.1591 B( 78-C , 81-C ) :   1.1300 B( 79-C , 80-N ) :   2.9979
B( 81-C , 82-N ) :   2.9841 B( 83-C , 84-N ) :   3.0457 B( 85-C , 86-N ) :   3.0446

-----------------------------------------------------------------------------
         ABSORPTION SPECTRUM VIA TRANSITION ELECTRIC DIPOLE MOMENTS
-----------------------------------------------------------------------------
State   Energy  Wavelength   fosc         T2         TX        TY        TZ
        (cm-1)    (nm)                  (au**2)     (au)      (au)      (au)
-----------------------------------------------------------------------------
   0   19913.4    502.2   0.022172804   0.36656  -0.42216  -0.39630  -0.17689
   1   20206.0    494.9   0.046840675   0.76317   0.74800   0.26008  -0.36881
   2   21269.8    470.2   0.367361369   5.68599   1.35194   1.20815   1.54875
   3   23825.4    419.7   0.998990093  13.80376   1.82439   2.58199   1.95159
   4   25333.2    394.7   0.174879946   2.27261   1.43131  -0.46517  -0.08709
   5   26050.4    383.9   0.022920818   0.28966   0.44329  -0.25468  -0.16821
   6   26817.4    372.9   0.003147290   0.03864   0.03926  -0.14135   0.13083
   7   27238.4    367.1   0.072261735   0.87338   0.65356   0.46573   0.47889
   8   28049.4    356.5   0.205374866   2.41045   0.91982   1.09998   0.59534
   9   28122.8    355.6   0.062099928   0.72696  -0.46200  -0.38621  -0.60362
  10   28512.7    350.7   0.028755387   0.33201   0.37944   0.32785   0.28382
  11   28903.0    346.0   0.046302738   0.52740  -0.45394   0.48376  -0.29548
  12   28968.2    345.2   0.252553901   2.87017  -0.95772   0.59206   1.26587
  13   29143.7    343.1   0.031964555   0.36108  -0.17776  -0.18636   0.54291
  14   29330.0    340.9   0.033865763   0.38012   0.10249  -0.14999   0.58917
  15   29592.8    337.9   0.000083092   0.00092   0.01024  -0.02123  -0.01921
  16   29772.6    335.9   0.029513799   0.32635  -0.46126   0.33507   0.03630
  17   30151.5    331.7   0.070475494   0.76949   0.12638   0.33948   0.79892
  18   30370.4    329.3   0.036617297   0.39693   0.17581  -0.20615   0.56879
  19   30453.7    328.4   0.000865191   0.00935  -0.03215   0.01477  -0.09001
  20   30832.3    324.3   0.035207818   0.37593   0.38182  -0.30705  -0.36860
  21   31147.0    321.1   0.000059349   0.00063  -0.01094  -0.00323   0.02230
  22   31171.3    320.8   0.061078809   0.64508  -0.02026  -0.40536   0.69307
  23   31406.8    318.4   0.019807775   0.20763   0.21756  -0.37552   0.13885
  24   31619.8    316.3   0.101330076   1.05500  -0.82731  -0.39784   0.46075
  25   31882.8    313.6   0.322656779   3.33165  -0.03514  -0.47027  -1.76331
  26   31952.4    313.0   0.000842951   0.00869   0.00011   0.05112   0.07792
  27   32074.1    311.8   0.006596638   0.06771   0.17322   0.10987  -0.16010
  28   32623.8    306.5   0.025079794   0.25308   0.08285  -0.46269  -0.17927
  29   32711.5    305.7   0.069521023   0.69967   0.56728   0.07366   0.61028
  30   33081.5    302.3   0.008784512   0.08742  -0.04744  -0.25178   0.14757
  31   33151.2    301.6   0.186704226   1.85409  -0.13991   0.32625   1.31456
  32   33302.1    300.3   0.024681322   0.24399  -0.40043  -0.27653   0.08474
  33   33519.7    298.3   0.023540139   0.23120  -0.03343   0.22617   0.42300
  34   33639.4    297.3   0.031466600   0.30795   0.20726   0.27475  -0.43532
  35   33662.6    297.1   0.006644923   0.06499   0.09794  -0.05304   0.22930
  36   33795.8    295.9   0.067420706   0.65676  -0.47014  -0.52290   0.40286
  37   33971.2    294.4   0.012674413   0.12283  -0.21419   0.07622   0.26672
  38   34033.3    293.8   0.000201255   0.00195  -0.01208   0.02266   0.03588
  39   34326.9    291.3   0.011158060   0.10701   0.08223  -0.09167  -0.30306
  40   34706.9    288.1   0.058449495   0.55442   0.41491  -0.36736   0.49730
  41   34882.0    286.7   0.002852381   0.02692   0.11184   0.11602   0.03085
  42   34987.5    285.8   0.001442546   0.01357  -0.02602   0.11071  -0.02529
  43   35167.9    284.4   0.095094368   0.89019   0.22907   0.46695  -0.78719
  44   35371.6    282.7   0.786150561   7.31690   0.34283   0.15370  -2.67876
  45   35514.4    281.6   0.407466747   3.77714  -0.23760  -0.96039   1.67282
  46   35606.2    280.9   0.056709978   0.52434  -0.52433   0.12030  -0.48471
  47   35790.4    279.4   0.442499280   4.07026   0.13548  -0.27906   1.99350
  48   36135.1    276.7   0.016396100   0.14938   0.24655   0.21880  -0.20180
  49   36327.9    275.3   0.027470120   0.24894  -0.44435  -0.22688   0.00408
  50   36579.7    273.4   0.000671523   0.00604   0.00958  -0.02157   0.07407
  51   36639.0    272.9   0.058340531   0.52421   0.58916   0.36080   0.21660
  52   36737.5    272.2   0.000486996   0.00436  -0.04505   0.01789  -0.04488
  53   36835.3    271.5   0.037503842   0.33519   0.41496   0.40241   0.03260
  54   36929.1    270.8   0.022540740   0.20094  -0.20253   0.25830  -0.30530
  55   37161.6    269.1   0.087736047   0.77725   0.18760  -0.85913   0.06286
  56   37307.5    268.0   0.000122825   0.00108   0.02209  -0.02240   0.00971
  57   37359.7    267.7   0.006535610   0.05759  -0.05091  -0.14630   0.18329
  58   37438.0    267.1   0.020468617   0.17999  -0.06818  -0.18560   0.37536
  59   37468.8    266.9   0.004258716   0.03742   0.03369   0.18435  -0.04794
  60   37849.7    264.2   0.092150154   0.80151  -0.38106  -0.80774   0.06209
  61   37917.8    263.7   0.050502887   0.43848  -0.05805   0.36999   0.54609
  62   38626.5    258.9   0.003616714   0.03083  -0.05104   0.16191  -0.04479
  63   38824.5    257.6   0.000186805   0.00158   0.02389   0.00976   0.03030
  64   38920.9    256.9   0.002236860   0.01892  -0.05422   0.10049  -0.07670
  65   39396.6    253.8   0.004053446   0.03387   0.07575  -0.12293   0.11412
  66   39450.7    253.5   0.016174572   0.13498   0.08337   0.32961  -0.13921
  67   39555.9    252.8   0.057129169   0.47547   0.38996   0.46991   0.32028
  68   39576.3    252.7   0.066249048   0.55109  -0.04638   0.02461  -0.74049
  69   40100.5    249.4   0.071467328   0.58672  -0.24459  -0.14747  -0.71074
  70   40172.8    248.9   0.003585645   0.02938   0.12698   0.10283   0.05183

FINAL SINGLE POINT ENERGY     -5370.658985094051

DIPOLE MOMENT
-------------
                                X             Y             Z
Electronic contribution:     -7.11533     -11.55874     -16.97501
Nuclear contribution   :      6.26271      10.39503      15.58321
                        -----------------------------------------
Total Dipole Moment    :     -0.85261      -1.16371      -1.39180
                        -----------------------------------------
Magnitude (a.u.)       :      2.00457
Magnitude (Debye)      :      5.09520

Rotational constants in cm-1:     0.001180     0.000153     0.000142
Rotational constants in MHz :    35.367416     4.582661     4.255680

                             ****ORCA TERMINATED NORMALLY****
TOTAL RUN TIME: 0 days 0 hours 11 minutes 53 seconds 127 msec
