                         Program Version 4.2.0 -  RELEASE  -
|  1> # ORCA input file
|  2> # SCF done       -206.812913785460          0.000524087631
|  3> ! CAM-B3LYP def2-SVP def2/J RIJCOSX Grid4 TightSCF
|  4> %maxcore 5000
|  5> %tddft
|  6>     Mode sTDDFT
|  7>     Ethresh 5.0
|  8>     maxcore 5000
|  9> end
| 10>
| 11> %pal
| 12>   nprocs 6
| 13>   end
| 14> * xyz 0 1
| 15>    C        1.08510        -1.75302        -1.85583
| 16>    C        1.49272        -2.58060        -0.84505
| 17>    C        2.84402        -2.79277        -0.50170
| 18>    N        3.92958        -3.01374        -0.20228
| 19>    C        0.60727        -3.25135         0.02521
| 20>    N       -0.05847        -3.76611         0.80518
| 21>    C        1.94363        -0.83438        -2.59852
| 22>    C        1.14313         0.16622        -3.18037
| 23>    C        1.69426         1.19499        -3.91703
| 24>    C        3.07313         1.22029        -4.08657
| 25>    C        3.87413         0.22111        -3.52072
| 26>    C        3.31748        -0.80854        -2.77047
| 27>   Cl        5.57477         0.25784        -3.75305
| 28>   Cl        3.79562         2.48317        -4.99832
| 29>    C       -0.28196        -0.10387        -2.88377
| 30>    O       -1.24166         0.57003        -3.17318
| 31>    C       -0.28663        -1.42650        -2.20122
| 32>    C       -1.43868        -2.13303        -2.09067
| 33>    C       -1.59547        -3.53737        -1.82626
| 34>    C       -2.74299        -3.99129        -1.15688
| 35>    C       -2.88229        -5.33057        -0.89424
| 36>    C       -1.91210        -6.24998        -1.33560
| 37>    C       -0.79956        -5.81610        -2.04550
| 38>    C       -0.64410        -4.46685        -2.27432
| 39>    C       -2.32222        -7.57639        -0.94079
| 40>    C       -3.54523        -7.48187        -0.25379
| 41>    C       -3.99154        -6.04236        -0.15797
| 42>    C       -4.06885        -5.58128         1.31073
| 43>    C       -2.75188        -5.75138         2.05817
| 44>    C       -5.35572        -5.82847        -0.83941
| 45>    C       -5.36206        -6.26134        -2.30075
| 46>    C       -4.17318        -8.60614         0.22232
| 47>    C       -3.58406        -9.86527         0.01934
| 48>    C       -2.35349        -9.94105        -0.65690
| 49>    C       -1.72210        -8.81459        -1.13555
| 50>    C       -4.23301       -11.06576         0.48256
| 51>    C       -3.94894       -12.35919         0.16730
| 52>    C       -4.85076       -13.26650         0.82714
| 53>    C       -5.73908       -12.57208         1.58792
| 54>    C       -5.39847       -11.11051         1.43107
| 55>    O       -5.96214       -10.19811         1.98161
| 56>    C       -6.81923       -12.98221         2.41134
| 57>    C       -7.24681       -14.25956         2.54220
| 58>    C       -8.34814       -14.71985         3.34488
| 59>    C       -9.03218       -13.88604         4.24651
| 60>    C      -10.08182       -14.38700         4.97586
| 61>    C      -10.50746       -15.71756         4.78966
| 62>    C       -9.83352       -16.55766         3.91230
| 63>    C       -8.75658       -16.05779         3.21383
| 64>    C      -11.68358       -15.94411         5.59423
| 65>    C      -11.98554       -14.75776         6.28654
| 66>    C      -10.94303       -13.69760         6.00925
| 67>    C      -10.17472       -13.48604         7.33737
| 68>    C       -8.98377       -12.53979         7.27048
| 69>    C      -11.55817       -12.39093         5.49046
| 70>    C      -12.43039       -12.61023         4.25929
| 71>    C      -13.07500       -14.68448         7.11701
| 72>    C      -13.89437       -15.81437         7.27432
| 73>    C      -13.60760       -16.97968         6.53804
| 74>    C      -12.50566       -17.05972         5.71742
| 75>    C      -15.04802       -15.83088         8.12488
| 76>    C      -15.28215       -15.14205         9.27706
| 77>    C      -16.52864       -15.20554        10.02760
| 78>    C      -17.74329       -15.62383         9.55521
| 79>    C      -18.92511       -15.64550        10.32692
| 80>    N      -19.91494       -15.69505        10.90550
| 81>    C      -18.00145       -16.05408         8.23516
| 82>    N      -18.30088       -16.39496         7.18050
| 83>    C      -16.27793       -14.65851        11.35608
| 84>    C      -14.95460       -14.19073        11.40774
| 85>    C      -14.28158       -14.42555        10.11063
| 86>    O      -13.13772       -14.13013         9.84660
| 87>    C      -14.42972       -13.61361        12.54618
| 88>    C      -15.24670       -13.50045        13.66367
| 89>    C      -16.56583       -13.96754        13.62290
| 90>    C      -17.09039       -14.54716        12.47332
| 91>   Cl      -17.56193       -13.82970        15.01476
| 92>   Cl      -14.63329       -12.78673        15.09968
| 93>    H        1.06815         1.95915        -4.34976
| 94>    H        3.96078        -1.56493        -2.35078
| 95>    H       -2.34706        -1.57266        -2.28974
| 96>    H       -3.47802        -3.27454        -0.82193
| 97>    H       -0.06764        -6.52078        -2.41022
| 98>    H        0.20305        -4.11510        -2.84600
| 99>    H       -4.84890        -6.15901         1.81101
|100>    H       -4.36394        -4.53014         1.33074
|101>    H       -2.44671        -6.79557         2.06539
|102>    H       -2.86729        -5.42235         3.08814
|103>    H       -1.96214        -5.16347         1.59766
|104>    H       -5.61878        -4.77084        -0.77298
|105>    H       -6.11019        -6.39547        -0.29094
|106>    H       -4.63057        -5.69585        -2.87428
|107>    H       -6.34439        -6.09352        -2.73614
|108>    H       -5.12338        -7.31900        -2.38923
|109>    H       -5.11294        -8.53395         0.74482
|110>    H       -1.88663       -10.90416        -0.79205
|111>    H       -0.77625        -8.89385        -1.65042
|112>    H       -3.17648       -12.69961        -0.49884
|113>    H       -4.79880       -14.33382         0.70928
|114>    H       -7.31636       -12.17393         2.93110
|115>    H       -6.73745       -15.02770         1.97423
|116>    H       -8.73188       -12.85649         4.35421
|117>    H      -10.15032       -17.58088         3.77645
|118>    H       -8.22137       -16.69900         2.52800
|119>    H       -9.82660       -14.46428         7.67938
|120>    H      -10.88816       -13.11929         8.07766
|121>    H       -8.21527       -12.92470         6.60524
|122>    H       -8.55039       -12.44218         8.26340
|123>    H       -9.27946       -11.54919         6.93562
|124>    H      -10.75821       -11.69432         5.23788
|125>    H      -12.15503       -11.94344         6.28748
|126>    H      -11.84837       -13.04715         3.45040
|127>    H      -12.83848       -11.66264         3.91547
|128>    H      -13.25814       -13.27906         4.48503
|129>    H      -13.32378       -13.76514         7.61852
|130>    H      -14.25873       -17.83520         6.64602
|131>    H      -12.28992       -17.96715         5.17396
|132>    H      -15.81142       -16.53822         7.81967
|133>    H      -13.41074       -13.26050        12.56368
|134>    H      -18.10849       -14.90021        12.48038
|135> *
|136>
|137>                          ****END OF INPUT****

CARTESIAN COORDINATES (ANGSTROEM)
---------------------------------
  C      1.085100   -1.753020   -1.855830
  C      1.492720   -2.580600   -0.845050
  C      2.844020   -2.792770   -0.501700
  N      3.929580   -3.013740   -0.202280
  C      0.607270   -3.251350    0.025210
  N     -0.058470   -3.766110    0.805180
  C      1.943630   -0.834380   -2.598520
  C      1.143130    0.166220   -3.180370
  C      1.694260    1.194990   -3.917030
  C      3.073130    1.220290   -4.086570
  C      3.874130    0.221110   -3.520720
  C      3.317480   -0.808540   -2.770470
  Cl     5.574770    0.257840   -3.753050
  Cl     3.795620    2.483170   -4.998320
  C     -0.281960   -0.103870   -2.883770
  O     -1.241660    0.570030   -3.173180
  C     -0.286630   -1.426500   -2.201220
  C     -1.438680   -2.133030   -2.090670
  C     -1.595470   -3.537370   -1.826260
  C     -2.742990   -3.991290   -1.156880
  C     -2.882290   -5.330570   -0.894240
  C     -1.912100   -6.249980   -1.335600
  C     -0.799560   -5.816100   -2.045500
  C     -0.644100   -4.466850   -2.274320
  C     -2.322220   -7.576390   -0.940790
  C     -3.545230   -7.481870   -0.253790
  C     -3.991540   -6.042360   -0.157970
  C     -4.068850   -5.581280    1.310730
  C     -2.751880   -5.751380    2.058170
  C     -5.355720   -5.828470   -0.839410
  C     -5.362060   -6.261340   -2.300750
  C     -4.173180   -8.606140    0.222320
  C     -3.584060   -9.865270    0.019340
  C     -2.353490   -9.941050   -0.656900
  C     -1.722100   -8.814590   -1.135550
  C     -4.233010  -11.065760    0.482560
  C     -3.948940  -12.359190    0.167300
  C     -4.850760  -13.266500    0.827140
  C     -5.739080  -12.572080    1.587920
  C     -5.398470  -11.110510    1.431070
  O     -5.962140  -10.198110    1.981610
  C     -6.819230  -12.982210    2.411340
  C     -7.246810  -14.259560    2.542200
  C     -8.348140  -14.719850    3.344880
  C     -9.032180  -13.886040    4.246510
  C    -10.081820  -14.387000    4.975860
  C    -10.507460  -15.717560    4.789660
  C     -9.833520  -16.557660    3.912300
  C     -8.756580  -16.057790    3.213830
  C    -11.683580  -15.944110    5.594230
  C    -11.985540  -14.757760    6.286540
  C    -10.943030  -13.697600    6.009250
  C    -10.174720  -13.486040    7.337370
  C     -8.983770  -12.539790    7.270480
  C    -11.558170  -12.390930    5.490460
  C    -12.430390  -12.610230    4.259290
  C    -13.075000  -14.684480    7.117010
  C    -13.894370  -15.814370    7.274320
  C    -13.607600  -16.979680    6.538040
  C    -12.505660  -17.059720    5.717420
  C    -15.048020  -15.830880    8.124880
  C    -15.282150  -15.142050    9.277060
  C    -16.528640  -15.205540   10.027600
  C    -17.743290  -15.623830    9.555210
  C    -18.925110  -15.645500   10.326920
  N    -19.914940  -15.695050   10.905500
  C    -18.001450  -16.054080    8.235160
  N    -18.300880  -16.394960    7.180500
  C    -16.277930  -14.658510   11.356080
  C    -14.954600  -14.190730   11.407740
  C    -14.281580  -14.425550   10.110630
  O    -13.137720  -14.130130    9.846600
  C    -14.429720  -13.613610   12.546180
  C    -15.246700  -13.500450   13.663670
  C    -16.565830  -13.967540   13.622900
  C    -17.090390  -14.547160   12.473320
  Cl   -17.561930  -13.829700   15.014760
  Cl   -14.633290  -12.786730   15.099680
  H      1.068150    1.959150   -4.349760
  H      3.960780   -1.564930   -2.350780
  H     -2.347060   -1.572660   -2.289740
  H     -3.478020   -3.274540   -0.821930
  H     -0.067640   -6.520780   -2.410220
  H      0.203050   -4.115100   -2.846000
  H     -4.848900   -6.159010    1.811010
  H     -4.363940   -4.530140    1.330740
  H     -2.446710   -6.795570    2.065390
  H     -2.867290   -5.422350    3.088140
  H     -1.962140   -5.163470    1.597660
  H     -5.618780   -4.770840   -0.772980
  H     -6.110190   -6.395470   -0.290940
  H     -4.630570   -5.695850   -2.874280
  H     -6.344390   -6.093520   -2.736140
  H     -5.123380   -7.319000   -2.389230
  H     -5.112940   -8.533950    0.744820
  H     -1.886630  -10.904160   -0.792050
  H     -0.776250   -8.893850   -1.650420
  H     -3.176480  -12.699610   -0.498840
  H     -4.798800  -14.333820    0.709280
  H     -7.316360  -12.173930    2.931100
  H     -6.737450  -15.027700    1.974230
  H     -8.731880  -12.856490    4.354210
  H    -10.150320  -17.580880    3.776450
  H     -8.221370  -16.699000    2.528000
  H     -9.826600  -14.464280    7.679380
  H    -10.888160  -13.119290    8.077660
  H     -8.215270  -12.924700    6.605240
  H     -8.550390  -12.442180    8.263400
  H     -9.279460  -11.549190    6.935620
  H    -10.758210  -11.694320    5.237880
  H    -12.155030  -11.943440    6.287480
  H    -11.848370  -13.047150    3.450400
  H    -12.838480  -11.662640    3.915470
  H    -13.258140  -13.279060    4.485030
  H    -13.323780  -13.765140    7.618520
  H    -14.258730  -17.835200    6.646020
  H    -12.289920  -17.967150    5.173960
  H    -15.811420  -16.538220    7.819670
  H    -13.410740  -13.260500   12.563680
  H    -18.108490  -14.900210   12.480380

 Total Charge           Charge          ....    0
 Multiplicity           Mult            ....    1
 Number of Electrons    NEL             ....  564
 Basis Dimension        Dim             .... 1318

ORBITAL ENERGIES
----------------

  NO   OCC          E(Eh)            E(eV)
   0   2.0000    -101.602755     -2764.7515
   1   2.0000    -101.602754     -2764.7515
   2   2.0000    -101.602068     -2764.7328
   3   2.0000    -101.601099     -2764.7065
   4   2.0000     -19.237968      -523.4917
   5   2.0000     -19.225303      -523.1471
   6   2.0000     -19.222140      -523.0610
   7   2.0000     -14.421080      -392.4175
   8   2.0000     -14.419929      -392.3862
   9   2.0000     -14.419731      -392.3808
  10   2.0000     -14.418769      -392.3547
  11   2.0000     -10.377759      -282.3932
  12   2.0000     -10.373767      -282.2845
  13   2.0000     -10.371083      -282.2115
  14   2.0000     -10.359771      -281.9037
  15   2.0000     -10.359123      -281.8861
  16   2.0000     -10.359105      -281.8856
  17   2.0000     -10.358729      -281.8753
  18   2.0000     -10.350080      -281.6400
  19   2.0000     -10.349279      -281.6182
  20   2.0000     -10.348526      -281.5977
  21   2.0000     -10.347102      -281.5589
  22   2.0000     -10.323106      -280.9060
  23   2.0000     -10.322407      -280.8870
  24   2.0000     -10.322008      -280.8761
  25   2.0000     -10.321345      -280.8581
  26   2.0000     -10.320656      -280.8393
  27   2.0000     -10.319874      -280.8180
  28   2.0000     -10.318536      -280.7816
  29   2.0000     -10.318426      -280.7786
  30   2.0000     -10.312782      -280.6251
  31   2.0000     -10.312658      -280.6217
  32   2.0000     -10.312068      -280.6056
  33   2.0000     -10.311627      -280.5936
  34   2.0000     -10.305466      -280.4260
  35   2.0000     -10.304381      -280.3965
  36   2.0000     -10.303140      -280.3627
  37   2.0000     -10.300224      -280.2833
  38   2.0000     -10.294074      -280.1160
  39   2.0000     -10.291558      -280.0475
  40   2.0000     -10.291416      -280.0437
  41   2.0000     -10.291393      -280.0430
  42   2.0000     -10.287080      -279.9257
  43   2.0000     -10.286449      -279.9085
  44   2.0000     -10.285833      -279.8917
  45   2.0000     -10.285690      -279.8878
  46   2.0000     -10.284625      -279.8589
  47   2.0000     -10.283994      -279.8417
  48   2.0000     -10.282778      -279.8086
  49   2.0000     -10.282647      -279.8051
  50   2.0000     -10.282459      -279.7999
  51   2.0000     -10.282381      -279.7978
  52   2.0000     -10.282068      -279.7893
  53   2.0000     -10.281180      -279.7651
  54   2.0000     -10.280870      -279.7567
  55   2.0000     -10.279981      -279.7325
  56   2.0000     -10.279418      -279.7172
  57   2.0000     -10.279138      -279.7096
  58   2.0000     -10.278294      -279.6866
  59   2.0000     -10.277281      -279.6590
  60   2.0000     -10.276856      -279.6475
  61   2.0000     -10.276806      -279.6461
  62   2.0000     -10.275698      -279.6159
  63   2.0000     -10.275112      -279.6000
  64   2.0000     -10.275095      -279.5996
  65   2.0000     -10.275046      -279.5982
  66   2.0000     -10.273539      -279.5572
  67   2.0000     -10.273109      -279.5455
  68   2.0000     -10.269265      -279.4409
  69   2.0000     -10.266130      -279.3556
  70   2.0000     -10.265452      -279.3372
  71   2.0000     -10.262740      -279.2633
  72   2.0000     -10.262691      -279.2620
  73   2.0000     -10.256702      -279.0990
  74   2.0000     -10.251227      -278.9501
  75   2.0000     -10.249402      -278.9004
  76   2.0000     -10.247287      -278.8428
  77   2.0000     -10.231377      -278.4099
  78   2.0000      -9.557799      -260.0809
  79   2.0000      -9.557791      -260.0807
  80   2.0000      -9.557089      -260.0616
  81   2.0000      -9.556148      -260.0360
  82   2.0000      -7.328185      -199.4100
  83   2.0000      -7.328173      -199.4097
  84   2.0000      -7.327499      -199.3914
  85   2.0000      -7.326549      -199.3655
  86   2.0000      -7.318069      -199.1348
  87   2.0000      -7.318048      -199.1342
  88   2.0000      -7.317338      -199.1149
  89   2.0000      -7.317327      -199.1146
  90   2.0000      -7.317307      -199.1141
  91   2.0000      -7.316608      -199.0950
  92   2.0000      -7.316396      -199.0893
  93   2.0000      -7.315662      -199.0693
  94   2.0000      -1.147728       -31.2313
  95   2.0000      -1.140995       -31.0481
  96   2.0000      -1.137662       -30.9574
  97   2.0000      -1.034652       -28.1543
  98   2.0000      -1.034043       -28.1377
  99   2.0000      -1.019436       -27.7403
 100   2.0000      -1.019264       -27.7356
 101   2.0000      -0.999004       -27.1843
 102   2.0000      -0.998255       -27.1639
 103   2.0000      -0.996291       -27.1105
 104   2.0000      -0.994425       -27.0597
 105   2.0000      -0.993670       -27.0391
 106   2.0000      -0.991997       -26.9936
 107   2.0000      -0.972869       -26.4731
 108   2.0000      -0.964700       -26.2508
 109   2.0000      -0.964198       -26.2372
 110   2.0000      -0.957494       -26.0547
 111   2.0000      -0.952972       -25.9317
 112   2.0000      -0.938137       -25.5280
 113   2.0000      -0.935879       -25.4666
 114   2.0000      -0.927420       -25.2364
 115   2.0000      -0.920867       -25.0581
 116   2.0000      -0.904313       -24.6076
 117   2.0000      -0.903577       -24.5876
 118   2.0000      -0.897001       -24.4086
 119   2.0000      -0.886859       -24.1327
 120   2.0000      -0.880680       -23.9645
 121   2.0000      -0.864810       -23.5327
 122   2.0000      -0.864105       -23.5135
 123   2.0000      -0.863266       -23.4907
 124   2.0000      -0.852870       -23.2078
 125   2.0000      -0.842123       -22.9153
 126   2.0000      -0.840970       -22.8840
 127   2.0000      -0.838262       -22.8103
 128   2.0000      -0.836639       -22.7661
 129   2.0000      -0.834823       -22.7167
 130   2.0000      -0.830413       -22.5967
 131   2.0000      -0.826923       -22.5017
 132   2.0000      -0.814353       -22.1597
 133   2.0000      -0.791441       -21.5362
 134   2.0000      -0.781150       -21.2562
 135   2.0000      -0.772465       -21.0198
 136   2.0000      -0.771001       -20.9800
 137   2.0000      -0.768664       -20.9164
 138   2.0000      -0.763382       -20.7727
 139   2.0000      -0.759705       -20.6726
 140   2.0000      -0.759039       -20.6545
 141   2.0000      -0.739801       -20.1310
 142   2.0000      -0.729151       -19.8412
 143   2.0000      -0.721915       -19.6443
 144   2.0000      -0.714596       -19.4451
 145   2.0000      -0.705334       -19.1931
 146   2.0000      -0.704602       -19.1732
 147   2.0000      -0.698171       -18.9982
 148   2.0000      -0.693400       -18.8684
 149   2.0000      -0.690712       -18.7952
 150   2.0000      -0.689311       -18.7571
 151   2.0000      -0.685628       -18.6569
 152   2.0000      -0.678654       -18.4671
 153   2.0000      -0.674712       -18.3598
 154   2.0000      -0.669339       -18.2136
 155   2.0000      -0.668384       -18.1876
 156   2.0000      -0.666782       -18.1441
 157   2.0000      -0.662504       -18.0276
 158   2.0000      -0.650100       -17.6901
 159   2.0000      -0.638639       -17.3783
 160   2.0000      -0.632964       -17.2238
 161   2.0000      -0.627163       -17.0660
 162   2.0000      -0.623658       -16.9706
 163   2.0000      -0.621962       -16.9244
 164   2.0000      -0.610368       -16.6089
 165   2.0000      -0.604741       -16.4558
 166   2.0000      -0.599601       -16.3160
 167   2.0000      -0.598688       -16.2911
 168   2.0000      -0.597284       -16.2529
 169   2.0000      -0.595391       -16.2014
 170   2.0000      -0.592757       -16.1297
 171   2.0000      -0.582272       -15.8444
 172   2.0000      -0.579062       -15.7571
 173   2.0000      -0.573130       -15.5957
 174   2.0000      -0.564997       -15.3744
 175   2.0000      -0.562313       -15.3013
 176   2.0000      -0.557646       -15.1743
 177   2.0000      -0.554122       -15.0784
 178   2.0000      -0.550936       -14.9917
 179   2.0000      -0.549779       -14.9602
 180   2.0000      -0.548764       -14.9326
 181   2.0000      -0.546512       -14.8713
 182   2.0000      -0.544836       -14.8257
 183   2.0000      -0.541901       -14.7459
 184   2.0000      -0.541084       -14.7236
 185   2.0000      -0.536890       -14.6095
 186   2.0000      -0.536375       -14.5955
 187   2.0000      -0.534353       -14.5405
 188   2.0000      -0.533609       -14.5202
 189   2.0000      -0.530288       -14.4299
 190   2.0000      -0.529692       -14.4137
 191   2.0000      -0.527273       -14.3478
 192   2.0000      -0.525171       -14.2906
 193   2.0000      -0.521959       -14.2032
 194   2.0000      -0.521533       -14.1916
 195   2.0000      -0.519834       -14.1454
 196   2.0000      -0.517739       -14.0884
 197   2.0000      -0.515111       -14.0169
 198   2.0000      -0.513774       -13.9805
 199   2.0000      -0.510966       -13.9041
 200   2.0000      -0.509945       -13.8763
 201   2.0000      -0.508915       -13.8483
 202   2.0000      -0.504895       -13.7389
 203   2.0000      -0.503428       -13.6990
 204   2.0000      -0.502323       -13.6689
 205   2.0000      -0.500732       -13.6256
 206   2.0000      -0.497115       -13.5272
 207   2.0000      -0.494861       -13.4659
 208   2.0000      -0.492466       -13.4007
 209   2.0000      -0.488281       -13.2868
 210   2.0000      -0.485841       -13.2204
 211   2.0000      -0.482205       -13.1215
 212   2.0000      -0.481307       -13.0970
 213   2.0000      -0.478976       -13.0336
 214   2.0000      -0.477302       -12.9880
 215   2.0000      -0.475089       -12.9278
 216   2.0000      -0.471037       -12.8176
 217   2.0000      -0.469928       -12.7874
 218   2.0000      -0.467808       -12.7297
 219   2.0000      -0.463926       -12.6241
 220   2.0000      -0.460940       -12.5428
 221   2.0000      -0.459321       -12.4987
 222   2.0000      -0.457718       -12.4551
 223   2.0000      -0.455837       -12.4040
 224   2.0000      -0.454712       -12.3734
 225   2.0000      -0.452195       -12.3049
 226   2.0000      -0.449657       -12.2358
 227   2.0000      -0.447268       -12.1708
 228   2.0000      -0.446319       -12.1449
 229   2.0000      -0.446078       -12.1384
 230   2.0000      -0.441608       -12.0168
 231   2.0000      -0.441295       -12.0083
 232   2.0000      -0.438971       -11.9450
 233   2.0000      -0.438653       -11.9364
 234   2.0000      -0.436578       -11.8799
 235   2.0000      -0.433218       -11.7885
 236   2.0000      -0.432730       -11.7752
 237   2.0000      -0.431726       -11.7479
 238   2.0000      -0.431111       -11.7311
 239   2.0000      -0.429913       -11.6985
 240   2.0000      -0.429880       -11.6976
 241   2.0000      -0.428886       -11.6706
 242   2.0000      -0.427634       -11.6365
 243   2.0000      -0.426974       -11.6186
 244   2.0000      -0.424656       -11.5555
 245   2.0000      -0.422471       -11.4960
 246   2.0000      -0.419073       -11.4036
 247   2.0000      -0.417143       -11.3510
 248   2.0000      -0.415768       -11.3136
 249   2.0000      -0.414425       -11.2771
 250   2.0000      -0.412145       -11.2150
 251   2.0000      -0.411062       -11.1856
 252   2.0000      -0.407829       -11.0976
 253   2.0000      -0.403669       -10.9844
 254   2.0000      -0.400151       -10.8887
 255   2.0000      -0.396489       -10.7890
 256   2.0000      -0.392503       -10.6806
 257   2.0000      -0.389410       -10.5964
 258   2.0000      -0.388340       -10.5673
 259   2.0000      -0.387114       -10.5339
 260   2.0000      -0.384353       -10.4588
 261   2.0000      -0.383923       -10.4471
 262   2.0000      -0.382877       -10.4186
 263   2.0000      -0.382254       -10.4016
 264   2.0000      -0.375975       -10.2308
 265   2.0000      -0.364600        -9.9213
 266   2.0000      -0.351915        -9.5761
 267   2.0000      -0.348412        -9.4808
 268   2.0000      -0.345764        -9.4087
 269   2.0000      -0.343076        -9.3356
 270   2.0000      -0.340093        -9.2544
 271   2.0000      -0.337022        -9.1708
 272   2.0000      -0.327275        -8.9056
 273   2.0000      -0.326496        -8.8844
 274   2.0000      -0.323511        -8.8032
 275   2.0000      -0.319777        -8.7016
 276   2.0000      -0.317247        -8.6327
 277   2.0000      -0.314449        -8.5566
 278   2.0000      -0.312223        -8.4960
 279   2.0000      -0.295884        -8.0514
 280   2.0000      -0.274161        -7.4603
 281   2.0000      -0.242080        -6.5873
 282   0.0000      -0.097116        -2.6427
 283   0.0000      -0.091028        -2.4770
 284   0.0000      -0.083643        -2.2760
 285   0.0000      -0.068452        -1.8627
 286   0.0000      -0.064173        -1.7462

MULLIKEN ATOMIC CHARGES
-----------------------
   0 C :    0.253757
   1 C :   -0.328116
   2 C :   -0.183226
   3 N :    0.161184
   4 C :   -0.193528
   5 N :    0.205495
   6 C :    0.018536
   7 C :    0.001613
   8 C :   -0.031249
   9 C :    0.058312
  10 C :    0.049234
  11 C :   -0.015144
  12 Cl:   -0.035371
  13 Cl:   -0.041621
  14 C :    0.139432
  15 O :   -0.134388
  16 C :   -0.119609
  17 C :    0.036895
  18 C :    0.048407
  19 C :   -0.066386
  20 C :    0.020301
  21 C :    0.130870
  22 C :   -0.051364
  23 C :    0.018924
  24 C :    0.104056
  25 C :    0.020701
  26 C :   -0.140140
  27 C :    0.071379
  28 C :    0.016435
  29 C :    0.063627
  30 C :    0.027224
  31 C :   -0.113265
  32 C :    0.131114
  33 C :   -0.040295
  34 C :   -0.039473
  35 C :    0.018909
  36 C :   -0.037547
  37 C :   -0.027698
  38 C :    0.025724
  39 C :    0.125431
  40 O :   -0.121518
  41 C :    0.029318
  42 C :   -0.006501
  43 C :    0.129424
  44 C :   -0.092086
  45 C :    0.037087
  46 C :    0.085768
  47 C :   -0.041193
  48 C :   -0.021305
  49 C :    0.113750
  50 C :   -0.016519
  51 C :   -0.140892
  52 C :    0.080839
  53 C :    0.031869
  54 C :    0.046821
  55 C :    0.027068
  56 C :   -0.000800
  57 C :    0.071561
  58 C :    0.002708
  59 C :   -0.046406
  60 C :   -0.029133
  61 C :   -0.083090
  62 C :    0.291009
  63 C :   -0.335586
  64 C :   -0.189418
  65 N :    0.157668
  66 C :   -0.206524
  67 N :    0.170188
  68 C :    0.032484
  69 C :   -0.017689
  70 C :    0.148807
  71 O :   -0.138030
  72 C :   -0.029509
  73 C :    0.061348
  74 C :    0.047069
  75 C :   -0.010813
  76 Cl:   -0.033542
  77 Cl:   -0.041276
  78 H :    0.002407
  79 H :    0.003131
  80 H :    0.026024
  81 H :   -0.030858
  82 H :   -0.030971
  83 H :   -0.012295
  84 H :    0.003320
  85 H :   -0.005091
  86 H :    0.014544
  87 H :    0.004199
  88 H :    0.033430
  89 H :   -0.002254
  90 H :    0.005093
  91 H :    0.016337
  92 H :    0.009060
  93 H :    0.020630
  94 H :   -0.018895
  95 H :   -0.035841
  96 H :   -0.036055
  97 H :   -0.009629
  98 H :   -0.010052
  99 H :   -0.007801
 100 H :   -0.030415
 101 H :   -0.031395
 102 H :   -0.032454
 103 H :   -0.027426
 104 H :    0.001920
 105 H :    0.011598
 106 H :    0.017204
 107 H :    0.014527
 108 H :    0.005090
 109 H :    0.010240
 110 H :    0.003074
 111 H :    0.018922
 112 H :    0.011240
 113 H :    0.019234
 114 H :   -0.025396
 115 H :   -0.013808
 116 H :   -0.030012
 117 H :    0.028188
 118 H :   -0.001107
 119 H :    0.000245
Sum of atomic charges:   -0.0000000

LOEWDIN ATOMIC CHARGES
----------------------
   0 C :    0.066332
   1 C :   -0.130088
   2 C :   -0.021485
   3 N :   -0.045381
   4 C :   -0.009407
   5 N :   -0.030610
   6 C :   -0.011966
   7 C :   -0.045379
   8 C :    0.001695
   9 C :   -0.134555
  10 C :   -0.129739
  11 C :   -0.014446
  12 Cl:    0.162897
  13 Cl:    0.159557
  14 C :    0.084191
  15 O :   -0.135216
  16 C :   -0.096937
  17 C :    0.088432
  18 C :   -0.046796
  19 C :    0.005633
  20 C :    0.011085
  21 C :    0.008316
  22 C :   -0.015928
  23 C :   -0.002139
  24 C :   -0.021057
  25 C :    0.009478
  26 C :   -0.035768
  27 C :   -0.010067
  28 C :   -0.062179
  29 C :   -0.011693
  30 C :   -0.058230
  31 C :   -0.014271
  32 C :   -0.016481
  33 C :   -0.015165
  34 C :   -0.014098
  35 C :   -0.062146
  36 C :    0.011947
  37 C :    0.001599
  38 C :   -0.061733
  39 C :    0.114840
  40 O :   -0.093727
  41 C :   -0.021506
  42 C :   -0.002055
  43 C :   -0.019587
  44 C :   -0.014187
  45 C :    0.012108
  46 C :   -0.020712
  47 C :   -0.014110
  48 C :   -0.017234
  49 C :    0.008575
  50 C :    0.001343
  51 C :   -0.034975
  52 C :   -0.007581
  53 C :   -0.059177
  54 C :   -0.015768
  55 C :   -0.056323
  56 C :    0.022991
  57 C :   -0.046229
  58 C :    0.006315
  59 C :   -0.024908
  60 C :    0.088522
  61 C :   -0.101440
  62 C :    0.074896
  63 C :   -0.133846
  64 C :   -0.019893
  65 N :   -0.045711
  66 C :   -0.025952
  67 N :   -0.044273
  68 C :   -0.014591
  69 C :   -0.043513
  70 C :    0.084855
  71 O :   -0.132555
  72 C :    0.000560
  73 C :   -0.133860
  74 C :   -0.130180
  75 C :   -0.011901
  76 Cl:    0.163010
  77 Cl:    0.159689
  78 H :    0.046763
  79 H :    0.044502
  80 H :    0.047378
  81 H :    0.029162
  82 H :    0.029461
  83 H :    0.028471
  84 H :    0.021866
  85 H :    0.018738
  86 H :    0.022972
  87 H :    0.023937
  88 H :    0.024590
  89 H :    0.019592
  90 H :    0.023277
  91 H :    0.023083
  92 H :    0.024216
  93 H :    0.025201
  94 H :    0.026786
  95 H :    0.024316
  96 H :    0.027247
  97 H :    0.027591
  98 H :    0.026738
  99 H :    0.029684
 100 H :    0.025112
 101 H :    0.025595
 102 H :    0.028159
 103 H :    0.026469
 104 H :    0.026491
 105 H :    0.026061
 106 H :    0.023280
 107 H :    0.029014
 108 H :    0.020580
 109 H :    0.021418
 110 H :    0.022205
 111 H :    0.025060
 112 H :    0.024989
 113 H :    0.024145
 114 H :    0.028287
 115 H :    0.031858
 116 H :    0.029240
 117 H :    0.046225
 118 H :    0.045562
 119 H :    0.044564

  Mayer bond orders larger than 0.100000
B(  0-C ,  1-C ) :   1.6766 B(  0-C ,  6-C ) :   1.0061 B(  0-C , 16-C ) :   1.0233
B(  1-C ,  2-C ) :   1.1303 B(  1-C ,  4-C ) :   1.1491 B(  2-C ,  3-N ) :   2.9920
B(  4-C ,  5-N ) :   3.0067 B(  6-C ,  7-C ) :   1.3302 B(  6-C , 11-C ) :   1.3449
B(  7-C ,  8-C ) :   1.3467 B(  7-C , 14-C ) :   0.9157 B(  8-C ,  9-C ) :   1.3470
B(  8-C , 78-H ) :   1.0160 B(  9-C , 10-C ) :   1.4058 B(  9-C , 13-Cl) :   1.0479
B( 10-C , 11-C ) :   1.3606 B( 10-C , 12-Cl) :   1.0703 B( 11-C , 79-H ) :   0.9906
B( 14-C , 15-O ) :   2.2800 B( 14-C , 16-C ) :   0.9377 B( 16-C , 17-C ) :   1.6890
B( 17-C , 18-C ) :   1.0428 B( 17-C , 80-H ) :   0.9494 B( 18-C , 19-C ) :   1.2843
B( 18-C , 23-C ) :   1.3334 B( 19-C , 20-C ) :   1.3916 B( 19-C , 81-H ) :   1.0112
B( 20-C , 21-C ) :   1.3557 B( 20-C , 26-C ) :   0.9138 B( 21-C , 22-C ) :   1.3277
B( 21-C , 24-C ) :   1.0050 B( 22-C , 23-C ) :   1.4017 B( 22-C , 82-H ) :   0.9925
B( 23-C , 83-H ) :   0.9831 B( 24-C , 25-C ) :   1.3670 B( 24-C , 34-C ) :   1.3218
B( 25-C , 26-C ) :   0.9168 B( 25-C , 31-C ) :   1.3675 B( 26-C , 27-C ) :   1.0358
B( 26-C , 29-C ) :   1.0365 B( 27-C , 28-C ) :   1.0991 B( 27-C , 84-H ) :   0.9391
B( 27-C , 85-H ) :   0.9384 B( 28-C , 86-H ) :   0.9611 B( 28-C , 87-H ) :   0.9591
B( 28-C , 88-H ) :   0.9545 B( 29-C , 30-C ) :   1.1007 B( 29-C , 89-H ) :   0.9395
B( 29-C , 90-H ) :   0.9399 B( 30-C , 91-H ) :   0.9638 B( 30-C , 92-H ) :   0.9643
B( 30-C , 93-H ) :   0.9644 B( 31-C , 32-C ) :   1.3053 B( 31-C , 94-H ) :   1.0022
B( 32-C , 33-C ) :   1.3284 B( 32-C , 35-C ) :   1.0398 B( 33-C , 34-C ) :   1.4051
B( 33-C , 95-H ) :   0.9896 B( 34-C , 96-H ) :   0.9894 B( 35-C , 36-C ) :   1.6697
B( 35-C , 39-C ) :   0.9276 B( 36-C , 37-C ) :   1.0248 B( 36-C , 97-H ) :   1.0025
B( 37-C , 38-C ) :   1.6488 B( 37-C , 98-H ) :   1.0061 B( 38-C , 39-C ) :   0.9209
B( 38-C , 41-C ) :   1.1268 B( 39-C , 40-O ) :   2.1801 B( 41-C , 42-C ) :   1.6426
B( 41-C , 99-H ) :   0.9629 B( 42-C , 43-C ) :   1.0762 B( 42-C ,100-H ) :   0.9865
B( 43-C , 44-C ) :   1.2913 B( 43-C , 48-C ) :   1.3246 B( 44-C , 45-C ) :   1.4166
B( 44-C ,101-H ) :   0.9929 B( 45-C , 46-C ) :   1.3607 B( 45-C , 51-C ) :   0.9198
B( 46-C , 47-C ) :   1.3374 B( 46-C , 49-C ) :   1.0071 B( 47-C , 48-C ) :   1.3806
B( 47-C ,102-H ) :   0.9902 B( 48-C ,103-H ) :   0.9950 B( 49-C , 50-C ) :   1.3614
B( 49-C , 59-C ) :   1.3233 B( 50-C , 51-C ) :   0.9242 B( 50-C , 56-C ) :   1.4289
B( 51-C , 52-C ) :   1.0124 B( 51-C , 54-C ) :   1.0344 B( 52-C , 53-C ) :   1.1132
B( 52-C ,104-H ) :   0.9371 B( 52-C ,105-H ) :   0.9367 B( 53-C ,106-H ) :   0.9604
B( 53-C ,107-H ) :   0.9594 B( 53-C ,108-H ) :   0.9629 B( 54-C , 55-C ) :   1.1039
B( 54-C ,109-H ) :   0.9375 B( 54-C ,110-H ) :   0.9397 B( 55-C ,111-H ) :   0.9650
B( 55-C ,112-H ) :   0.9647 B( 55-C ,113-H ) :   0.9630 B( 56-C , 57-C ) :   1.2999
B( 56-C ,114-H ) :   0.9846 B( 57-C , 58-C ) :   1.2919 B( 57-C , 60-C ) :   1.1053
B( 58-C , 59-C ) :   1.4019 B( 58-C ,115-H ) :   0.9923 B( 59-C ,116-H ) :   0.9921
B( 60-C , 61-C ) :   1.6007 B( 60-C ,117-H ) :   0.9527 B( 61-C , 62-C ) :   1.0562
B( 61-C , 70-C ) :   0.9384 B( 62-C , 63-C ) :   1.6551 B( 62-C , 68-C ) :   0.9962
B( 63-C , 64-C ) :   1.1375 B( 63-C , 66-C ) :   1.1392 B( 64-C , 65-N ) :   2.9772
B( 66-C , 67-N ) :   2.9985 B( 68-C , 69-C ) :   1.3289 B( 68-C , 75-C ) :   1.3381
B( 69-C , 70-C ) :   0.9435 B( 69-C , 72-C ) :   1.3472 B( 70-C , 71-O ) :   2.2184
B( 72-C , 73-C ) :   1.3421 B( 72-C ,118-H ) :   1.0158 B( 73-C , 74-C ) :   1.4054
B( 73-C , 77-Cl) :   1.0486 B( 74-C , 75-C ) :   1.3627 B( 74-C , 76-Cl) :   1.0772
B( 75-C ,119-H ) :   0.9868

-----------------------------------------------------------------------------
         ABSORPTION SPECTRUM VIA TRANSITION ELECTRIC DIPOLE MOMENTS
-----------------------------------------------------------------------------
State   Energy  Wavelength   fosc         T2         TX        TY        TZ
        (cm-1)    (nm)                  (au**2)     (au)      (au)      (au)
-----------------------------------------------------------------------------
   0   15281.6    654.4   0.941364850  20.27980  -2.94575  -2.71248   2.06028
   1   20324.7    492.0   0.290991810   4.71337   1.28189   1.74972  -0.09278
   2   21436.0    466.5   0.738788380  11.34626   2.51769  -0.27181  -2.22117
   3   24590.1    406.7   0.059500349   0.79659  -0.38471   0.62933   0.50252
   4   25587.1    390.8   0.024847706   0.31970   0.29974  -0.26720  -0.39807
   5   26050.4    383.9   0.095787303   1.21051  -0.53637  -0.10587   0.95478
   6   26989.0    370.5   0.213249131   2.60122  -0.05939   1.57700  -0.33282
   7   27465.2    364.1   0.211006069   2.52923   1.28210   0.83068  -0.44206
   8   28245.6    354.0   0.034188444   0.39848   0.41058   0.42032   0.23073
   9   29682.8    336.9   0.145846216   1.61758   0.86600  -0.08967  -0.92713
  10   30142.4    331.8   0.025302617   0.27635  -0.41169  -0.08640   0.31528
  11   30758.1    325.1   0.161679858   1.73050   0.32751   0.96227  -0.83503
  12   31033.6    322.2   0.063815157   0.67697  -0.49815  -0.57948   0.30498
  13   31213.4    320.4   0.084418649   0.89037  -0.16269   0.63721  -0.67666
  14   31458.1    317.9   0.141910838   1.48511   0.19334   0.27446   1.17150
  15   31552.3    316.9   0.279794891   2.91934  -1.08475  -1.27629   0.33726
  16   32424.2    308.4   0.007146216   0.07256  -0.19046  -0.15464   0.11120
  17   33030.1    302.8   0.143447431   1.42975   0.98983   0.58691   0.32484
  18   33223.4    301.0   0.086243660   0.85459   0.27019   0.77159  -0.43155
  19   33592.9    297.7   0.257708371   2.52555  -0.33481  -0.91023   1.25894
  20   33852.7    295.4   0.071168266   0.69210  -0.11208   0.57512   0.59057
  21   34080.3    293.4   0.023684168   0.22879   0.03022  -0.43226   0.20254
  22   34315.7    291.4   0.185470499   1.77933  -0.80194  -0.43325   0.97392
  23   35085.9    285.0   0.020921738   0.19631   0.39842   0.18919  -0.04212
  24   35282.7    283.4   0.148895191   1.38929   0.99002  -0.42805   0.47533
  25   35585.6    281.0   0.021158849   0.19575  -0.33112  -0.26613  -0.12361
  26   35863.1    278.8   0.901193410   8.27267   1.54867   2.42334   0.04113
  27   36066.7    277.3   0.077287671   0.70547  -0.29766  -0.44749  -0.64546
  28   36159.4    276.6   0.463117896   4.21644   0.18351  -0.64122   1.94206
  29   37227.6    268.6   0.135183137   1.19545  -1.09218   0.04240  -0.02811
  30   37651.8    265.6   0.138369176   1.20984   1.01594   0.29352  -0.30257
  31   37829.7    264.3   0.052182652   0.45412   0.49291   0.44543  -0.11290
  32   37848.7    264.2   0.069496844   0.60449   0.36324  -0.19075   0.66042
  33   38092.5    262.5   0.129065128   1.11544   0.55235  -0.87350   0.21758
  34   38195.9    261.8   0.024011363   0.20695  -0.25308   0.24508  -0.28782
  35   39027.6    256.2   0.054617605   0.46072   0.03349   0.35397   0.57819
  36   39596.4    252.5   0.003333569   0.02772  -0.11296  -0.10060   0.06954
  37   39745.9    251.6   0.052176283   0.43217   0.18091  -0.26638   0.57314
  38   39920.6    250.5   0.026083326   0.21510  -0.33517   0.30859  -0.08677
  39   40154.6    249.0   0.020270448   0.16619   0.18030  -0.36093   0.05838
  40   40255.2    248.4   0.035500143   0.29032   0.26329  -0.40631  -0.23647

FINAL SINGLE POINT ENERGY     -4859.420155484419

DIPOLE MOMENT
-------------
                                X             Y             Z
Electronic contribution:     15.10799      50.56971      35.76919
Nuclear contribution   :    -13.54846     -51.68751     -37.33131
                        -----------------------------------------
Total Dipole Moment    :      1.55953      -1.11780      -1.56212
                        -----------------------------------------
Magnitude (a.u.)       :      2.47424
Magnitude (Debye)      :      6.28901

Rotational constants in cm-1:     0.001635     0.000133     0.000127
Rotational constants in MHz :    49.005300     3.976801     3.812706

                             ****ORCA TERMINATED NORMALLY****
TOTAL RUN TIME: 0 days 0 hours 16 minutes 42 seconds 555 msec
