                         Program Version 4.2.0 -  RELEASE  -
|  1> # ORCA input file
|  2> # SCF done       -219.469367603144          0.000616295735
|  3> ! CAM-B3LYP def2-SVP def2/J RIJCOSX Grid4 TightSCF
|  4> %maxcore 5000
|  5> %tddft
|  6>     Mode sTDDFT
|  7>     Ethresh 5.0
|  8>     maxcore 5000
|  9> end
| 10>
| 11> %pal
| 12>   nprocs 6
| 13>   end
| 14> * xyz 0 1
| 15>    C        0.45057        -0.41409        -4.12314
| 16>    C        0.79818         0.45943        -5.11109
| 17>    C        0.05810         1.61805        -5.44194
| 18>    N       -0.49996         2.56874        -5.75711
| 19>    C        1.95287         0.34601        -5.91925
| 20>    N        2.88099         0.33062        -6.59287
| 21>    C       -0.68949        -0.29565        -3.22366
| 22>    C       -0.65232        -1.34112        -2.28047
| 23>    C       -1.61341        -1.46617        -1.29542
| 24>    C       -2.63715        -0.52959        -1.24757
| 25>    C       -2.68421         0.51351        -2.18492
| 26>    C       -1.71496         0.63683        -3.17356
| 27>   Cl       -3.95682         1.65925        -2.11762
| 28>   Cl       -3.84847        -0.64994        -0.04090
| 29>    C        0.50872        -2.20720        -2.53598
| 30>    O        0.83506        -3.20434        -1.93392
| 31>    C        1.18461        -1.61527        -3.73233
| 32>    C        2.23785        -2.18076        -4.34502
| 33>    C        2.91735        -3.36419        -3.83631
| 34>    C        3.52421        -3.41424        -2.58266
| 35>    C        3.60317        -2.37572        -1.52459
| 36>    O        3.17785        -1.25041        -1.52474
| 37>    N        4.31099        -2.96217        -0.47130
| 38>    C        4.70103        -4.27292        -0.75551
| 39>    O        5.32276        -5.00749        -0.03798
| 40>    C        4.18837        -4.55043        -2.12579
| 41>    C        4.29733        -5.70349        -2.88449
| 42>    C        3.69999        -5.66436        -4.13852
| 43>    C        3.02968        -4.53276        -4.59944
| 44>    C        2.40323        -4.68113        -5.92502
| 45>    O        1.73498        -3.87406        -6.50068
| 46>    S        2.78560        -6.31054        -6.56576
| 47>    C        3.70151        -6.79665        -5.09030
| 48>    O        4.20915        -7.86503        -4.95366
| 49>    C        4.56418        -2.24069         0.69689
| 50>    C        5.31177        -2.66887         1.71712
| 51>    C        5.59444        -1.91088         2.92260
| 52>    C        6.66767        -2.35033         3.72746
| 53>    C        7.05088        -1.70507         4.87835
| 54>    C        6.31478        -0.58489         5.25096
| 55>    C        5.22615        -0.15203         4.45765
| 56>    C        4.84962        -0.79286         3.29619
| 57>    O        4.69034         0.93342         5.06381
| 58>    C        5.45132         1.10888         6.17082
| 59>    N        6.41019         0.25252         6.32560
| 60>    C        5.19805         2.22486         7.06661
| 61>    C        5.00431         3.52674         6.60241
| 62>    C        4.98221         4.05790         5.21535
| 63>    O        5.13478         3.49783         4.16856
| 64>    N        4.74500         5.44287         5.34744
| 65>    C        4.65231         5.84378         6.68369
| 66>    O        4.46364         6.95924         7.08289
| 67>    C        4.83926         4.60136         7.47895
| 68>    C        4.88983         4.45129         8.85186
| 69>    C        5.07221         3.15426         9.31906
| 70>    C        5.19554         2.06315         8.46189
| 71>    C        5.21961         0.75456         9.15750
| 72>    O        5.10619        -0.33690         8.69928
| 73>    S        5.32793         1.05239        10.93482
| 74>    C        5.14850         2.82442        10.76224
| 75>    O        5.10321         3.58651        11.67786
| 76>    C        4.68609         6.25354         4.22764
| 77>    C        4.29309         7.53819         4.22921
| 78>    C        4.24009         8.36989         3.06969
| 79>    C        5.07270         8.35810         1.99465
| 80>    C        4.95588         9.23587         0.83715
| 81>    C        3.81968         9.86864         0.41624
| 82>    C        3.75282        10.69438        -0.72757
| 83>    N        3.64110        11.38094        -1.63965
| 84>    C        2.55749         9.75018         1.04000
| 85>    N        1.49954         9.67946         1.47870
| 86>    C        6.24441         9.24168         0.15609
| 87>    C        7.09912         8.32661         0.79573
| 88>    C        6.39920         7.68444         1.92781
| 89>    O        6.84956         6.83197         2.65860
| 90>    C        8.39187         8.11315         0.36026
| 91>    C        8.84485         8.83228        -0.73830
| 92>    C        8.00188         9.75129        -1.37754
| 93>    C        6.69978         9.96082        -0.93764
| 94>   Cl        8.57867        10.63980        -2.72678
| 95>   Cl       10.44359         8.59343        -1.31298
| 96>    H       -1.56625        -2.27425        -0.58245
| 97>    H       -1.78441         1.44960        -3.87799
| 98>    H        2.62021        -1.78723        -5.27783
| 99>    H        4.80709        -6.58374        -2.52640
|100>    H        4.09824        -1.26542         0.66691
|101>    H        5.77891        -3.64042         1.65945
|102>    H        7.21080        -3.22834         3.41107
|103>    H        7.87416        -2.04738         5.48245
|104>    H        4.00994        -0.44267         2.72033
|105>    H        4.78990         5.28519         9.52860
|106>    H        4.94382         5.72045         3.32332
|107>    H        3.93950         7.98847         5.14595
|108>    H        3.47688         9.13880         3.10589
|109>    H        9.03055         7.40351         0.86207
|110>    H        6.08008        10.67857        -1.44987
|111> *
|112>
|113>                          ****END OF INPUT****

CARTESIAN COORDINATES (ANGSTROEM)
---------------------------------
  C      0.450570   -0.414090   -4.123140
  C      0.798180    0.459430   -5.111090
  C      0.058100    1.618050   -5.441940
  N     -0.499960    2.568740   -5.757110
  C      1.952870    0.346010   -5.919250
  N      2.880990    0.330620   -6.592870
  C     -0.689490   -0.295650   -3.223660
  C     -0.652320   -1.341120   -2.280470
  C     -1.613410   -1.466170   -1.295420
  C     -2.637150   -0.529590   -1.247570
  C     -2.684210    0.513510   -2.184920
  C     -1.714960    0.636830   -3.173560
  Cl    -3.956820    1.659250   -2.117620
  Cl    -3.848470   -0.649940   -0.040900
  C      0.508720   -2.207200   -2.535980
  O      0.835060   -3.204340   -1.933920
  C      1.184610   -1.615270   -3.732330
  C      2.237850   -2.180760   -4.345020
  C      2.917350   -3.364190   -3.836310
  C      3.524210   -3.414240   -2.582660
  C      3.603170   -2.375720   -1.524590
  O      3.177850   -1.250410   -1.524740
  N      4.310990   -2.962170   -0.471300
  C      4.701030   -4.272920   -0.755510
  O      5.322760   -5.007490   -0.037980
  C      4.188370   -4.550430   -2.125790
  C      4.297330   -5.703490   -2.884490
  C      3.699990   -5.664360   -4.138520
  C      3.029680   -4.532760   -4.599440
  C      2.403230   -4.681130   -5.925020
  O      1.734980   -3.874060   -6.500680
  S      2.785600   -6.310540   -6.565760
  C      3.701510   -6.796650   -5.090300
  O      4.209150   -7.865030   -4.953660
  C      4.564180   -2.240690    0.696890
  C      5.311770   -2.668870    1.717120
  C      5.594440   -1.910880    2.922600
  C      6.667670   -2.350330    3.727460
  C      7.050880   -1.705070    4.878350
  C      6.314780   -0.584890    5.250960
  C      5.226150   -0.152030    4.457650
  C      4.849620   -0.792860    3.296190
  O      4.690340    0.933420    5.063810
  C      5.451320    1.108880    6.170820
  N      6.410190    0.252520    6.325600
  C      5.198050    2.224860    7.066610
  C      5.004310    3.526740    6.602410
  C      4.982210    4.057900    5.215350
  O      5.134780    3.497830    4.168560
  N      4.745000    5.442870    5.347440
  C      4.652310    5.843780    6.683690
  O      4.463640    6.959240    7.082890
  C      4.839260    4.601360    7.478950
  C      4.889830    4.451290    8.851860
  C      5.072210    3.154260    9.319060
  C      5.195540    2.063150    8.461890
  C      5.219610    0.754560    9.157500
  O      5.106190   -0.336900    8.699280
  S      5.327930    1.052390   10.934820
  C      5.148500    2.824420   10.762240
  O      5.103210    3.586510   11.677860
  C      4.686090    6.253540    4.227640
  C      4.293090    7.538190    4.229210
  C      4.240090    8.369890    3.069690
  C      5.072700    8.358100    1.994650
  C      4.955880    9.235870    0.837150
  C      3.819680    9.868640    0.416240
  C      3.752820   10.694380   -0.727570
  N      3.641100   11.380940   -1.639650
  C      2.557490    9.750180    1.040000
  N      1.499540    9.679460    1.478700
  C      6.244410    9.241680    0.156090
  C      7.099120    8.326610    0.795730
  C      6.399200    7.684440    1.927810
  O      6.849560    6.831970    2.658600
  C      8.391870    8.113150    0.360260
  C      8.844850    8.832280   -0.738300
  C      8.001880    9.751290   -1.377540
  C      6.699780    9.960820   -0.937640
  Cl     8.578670   10.639800   -2.726780
  Cl    10.443590    8.593430   -1.312980
  H     -1.566250   -2.274250   -0.582450
  H     -1.784410    1.449600   -3.877990
  H      2.620210   -1.787230   -5.277830
  H      4.807090   -6.583740   -2.526400
  H      4.098240   -1.265420    0.666910
  H      5.778910   -3.640420    1.659450
  H      7.210800   -3.228340    3.411070
  H      7.874160   -2.047380    5.482450
  H      4.009940   -0.442670    2.720330
  H      4.789900    5.285190    9.528600
  H      4.943820    5.720450    3.323320
  H      3.939500    7.988470    5.145950
  H      3.476880    9.138800    3.105890
  H      9.030550    7.403510    0.862070
  H      6.080080   10.678570   -1.449870

 Total Charge           Charge          ....    0
 Multiplicity           Mult            ....    1
 Number of Electrons    NEL             ....  594
 Basis Dimension        Dim             .... 1233

ORBITAL ENERGIES
----------------

  NO   OCC          E(Eh)            E(eV)
   0   2.0000    -101.612722     -2765.0227
   1   2.0000    -101.611143     -2764.9798
   2   2.0000    -101.605047     -2764.8139
   3   2.0000    -101.603352     -2764.7678
   4   2.0000     -88.964388     -2420.8441
   5   2.0000     -88.961803     -2420.7737
   6   2.0000     -19.311015      -525.4794
   7   2.0000     -19.259090      -524.0665
   8   2.0000     -19.256816      -524.0046
   9   2.0000     -19.255368      -523.9652
  10   2.0000     -19.253609      -523.9173
  11   2.0000     -19.253553      -523.9158
  12   2.0000     -19.253387      -523.9113
  13   2.0000     -19.246406      -523.7213
  14   2.0000     -19.245958      -523.7091
  15   2.0000     -19.243155      -523.6329
  16   2.0000     -19.230169      -523.2795
  17   2.0000     -14.505575      -394.7168
  18   2.0000     -14.496460      -394.4687
  19   2.0000     -14.433610      -392.7585
  20   2.0000     -14.432911      -392.7395
  21   2.0000     -14.423624      -392.4868
  22   2.0000     -14.422789      -392.4640
  23   2.0000     -14.422708      -392.4618
  24   2.0000     -10.434079      -283.9257
  25   2.0000     -10.433416      -283.9077
  26   2.0000     -10.426713      -283.7253
  27   2.0000     -10.425611      -283.6953
  28   2.0000     -10.419610      -283.5320
  29   2.0000     -10.418174      -283.4929
  30   2.0000     -10.417325      -283.4698
  31   2.0000     -10.417103      -283.4638
  32   2.0000     -10.393917      -282.8328
  33   2.0000     -10.388245      -282.6785
  34   2.0000     -10.382109      -282.5115
  35   2.0000     -10.371139      -282.2131
  36   2.0000     -10.370540      -282.1967
  37   2.0000     -10.366739      -282.0933
  38   2.0000     -10.361867      -281.9607
  39   2.0000     -10.361496      -281.9506
  40   2.0000     -10.361169      -281.9417
  41   2.0000     -10.358511      -281.8694
  42   2.0000     -10.353458      -281.7319
  43   2.0000     -10.351566      -281.6804
  44   2.0000     -10.350479      -281.6509
  45   2.0000     -10.350331      -281.6468
  46   2.0000     -10.347608      -281.5727
  47   2.0000     -10.346359      -281.5387
  48   2.0000     -10.344187      -281.4796
  49   2.0000     -10.343980      -281.4740
  50   2.0000     -10.342775      -281.4412
  51   2.0000     -10.341328      -281.4019
  52   2.0000     -10.340030      -281.3665
  53   2.0000     -10.339288      -281.3463
  54   2.0000     -10.339057      -281.3401
  55   2.0000     -10.339008      -281.3387
  56   2.0000     -10.336856      -281.2801
  57   2.0000     -10.335606      -281.2461
  58   2.0000     -10.334662      -281.2205
  59   2.0000     -10.333893      -281.1995
  60   2.0000     -10.332785      -281.1694
  61   2.0000     -10.327968      -281.0383
  62   2.0000     -10.327145      -281.0159
  63   2.0000     -10.324938      -280.9558
  64   2.0000     -10.324859      -280.9537
  65   2.0000     -10.324674      -280.9487
  66   2.0000     -10.324434      -280.9421
  67   2.0000     -10.323306      -280.9114
  68   2.0000     -10.321882      -280.8727
  69   2.0000     -10.318249      -280.7738
  70   2.0000     -10.315289      -280.6933
  71   2.0000     -10.314666      -280.6763
  72   2.0000     -10.310212      -280.5551
  73   2.0000     -10.308286      -280.5027
  74   2.0000     -10.307597      -280.4840
  75   2.0000     -10.297387      -280.2062
  76   2.0000     -10.294369      -280.1240
  77   2.0000     -10.291031      -280.0332
  78   2.0000     -10.285911      -279.8939
  79   2.0000     -10.285394      -279.8798
  80   2.0000     -10.282145      -279.7914
  81   2.0000      -9.567804      -260.3532
  82   2.0000      -9.566209      -260.3098
  83   2.0000      -9.560097      -260.1435
  84   2.0000      -9.558440      -260.0984
  85   2.0000      -8.063431      -219.4171
  86   2.0000      -8.061001      -219.3510
  87   2.0000      -7.338167      -199.6817
  88   2.0000      -7.336593      -199.6389
  89   2.0000      -7.330485      -199.4726
  90   2.0000      -7.328853      -199.4282
  91   2.0000      -7.328086      -199.4074
  92   2.0000      -7.327309      -199.3862
  93   2.0000      -7.326493      -199.3640
  94   2.0000      -7.325683      -199.3420
  95   2.0000      -7.320365      -199.1972
  96   2.0000      -7.319613      -199.1768
  97   2.0000      -7.318675      -199.1513
  98   2.0000      -7.317938      -199.1312
  99   2.0000      -6.032325      -164.1479
 100   2.0000      -6.029852      -164.0806
 101   2.0000      -6.029019      -164.0579
 102   2.0000      -6.026593      -163.9919
 103   2.0000      -6.024483      -163.9345
 104   2.0000      -6.022052      -163.8684
 105   2.0000      -1.242344       -33.8059
 106   2.0000      -1.201280       -32.6885
 107   2.0000      -1.193268       -32.4705
 108   2.0000      -1.182672       -32.1821
 109   2.0000      -1.180215       -32.1153
 110   2.0000      -1.178493       -32.0684
 111   2.0000      -1.177973       -32.0543
 112   2.0000      -1.176204       -32.0061
 113   2.0000      -1.170192       -31.8426
 114   2.0000      -1.158816       -31.5330
 115   2.0000      -1.146302       -31.1925
 116   2.0000      -1.094630       -29.7864
 117   2.0000      -1.085964       -29.5506
 118   2.0000      -1.046267       -28.4704
 119   2.0000      -1.038377       -28.2557
 120   2.0000      -1.036972       -28.2174
 121   2.0000      -1.032367       -28.0921
 122   2.0000      -1.028551       -27.9883
 123   2.0000      -1.028095       -27.9759
 124   2.0000      -1.022054       -27.8115
 125   2.0000      -1.011250       -27.5175
 126   2.0000      -1.007398       -27.4127
 127   2.0000      -1.001181       -27.2435
 128   2.0000      -0.997570       -27.1452
 129   2.0000      -0.975179       -26.5360
 130   2.0000      -0.972766       -26.4703
 131   2.0000      -0.970689       -26.4138
 132   2.0000      -0.966893       -26.3105
 133   2.0000      -0.965138       -26.2627
 134   2.0000      -0.953669       -25.9507
 135   2.0000      -0.943688       -25.6790
 136   2.0000      -0.937662       -25.5151
 137   2.0000      -0.931165       -25.3383
 138   2.0000      -0.923902       -25.1407
 139   2.0000      -0.909705       -24.7543
 140   2.0000      -0.907212       -24.6865
 141   2.0000      -0.905657       -24.6442
 142   2.0000      -0.886106       -24.1122
 143   2.0000      -0.877768       -23.8853
 144   2.0000      -0.876170       -23.8418
 145   2.0000      -0.866760       -23.5857
 146   2.0000      -0.864979       -23.5373
 147   2.0000      -0.857384       -23.3306
 148   2.0000      -0.846439       -23.0328
 149   2.0000      -0.836451       -22.7610
 150   2.0000      -0.813067       -22.1247
 151   2.0000      -0.808863       -22.0103
 152   2.0000      -0.806776       -21.9535
 153   2.0000      -0.801909       -21.8210
 154   2.0000      -0.792322       -21.5602
 155   2.0000      -0.783130       -21.3101
 156   2.0000      -0.775423       -21.1003
 157   2.0000      -0.772068       -21.0090
 158   2.0000      -0.769551       -20.9405
 159   2.0000      -0.760380       -20.6910
 160   2.0000      -0.752081       -20.4652
 161   2.0000      -0.737163       -20.0592
 162   2.0000      -0.731974       -19.9180
 163   2.0000      -0.725331       -19.7373
 164   2.0000      -0.713422       -19.4132
 165   2.0000      -0.711551       -19.3623
 166   2.0000      -0.710379       -19.3304
 167   2.0000      -0.704256       -19.1638
 168   2.0000      -0.702419       -19.1138
 169   2.0000      -0.700876       -19.0718
 170   2.0000      -0.695876       -18.9358
 171   2.0000      -0.693009       -18.8577
 172   2.0000      -0.680254       -18.5107
 173   2.0000      -0.676385       -18.4054
 174   2.0000      -0.667247       -18.1567
 175   2.0000      -0.654865       -17.8198
 176   2.0000      -0.646495       -17.5920
 177   2.0000      -0.643788       -17.5184
 178   2.0000      -0.641109       -17.4455
 179   2.0000      -0.636990       -17.3334
 180   2.0000      -0.631434       -17.1822
 181   2.0000      -0.629432       -17.1277
 182   2.0000      -0.626036       -17.0353
 183   2.0000      -0.624491       -16.9933
 184   2.0000      -0.619070       -16.8458
 185   2.0000      -0.614048       -16.7091
 186   2.0000      -0.612348       -16.6628
 187   2.0000      -0.608645       -16.5621
 188   2.0000      -0.606971       -16.5165
 189   2.0000      -0.603013       -16.4088
 190   2.0000      -0.598318       -16.2810
 191   2.0000      -0.594513       -16.1775
 192   2.0000      -0.592897       -16.1335
 193   2.0000      -0.586230       -15.9521
 194   2.0000      -0.584595       -15.9076
 195   2.0000      -0.580354       -15.7922
 196   2.0000      -0.579361       -15.7652
 197   2.0000      -0.576838       -15.6966
 198   2.0000      -0.575165       -15.6510
 199   2.0000      -0.573202       -15.5976
 200   2.0000      -0.567105       -15.4317
 201   2.0000      -0.566285       -15.4094
 202   2.0000      -0.563875       -15.3438
 203   2.0000      -0.563322       -15.3288
 204   2.0000      -0.562820       -15.3151
 205   2.0000      -0.557773       -15.1778
 206   2.0000      -0.556881       -15.1535
 207   2.0000      -0.554730       -15.0950
 208   2.0000      -0.554409       -15.0862
 209   2.0000      -0.553042       -15.0490
 210   2.0000      -0.552297       -15.0288
 211   2.0000      -0.550251       -14.9731
 212   2.0000      -0.549434       -14.9509
 213   2.0000      -0.548196       -14.9172
 214   2.0000      -0.541790       -14.7428
 215   2.0000      -0.540517       -14.7082
 216   2.0000      -0.539384       -14.6774
 217   2.0000      -0.538668       -14.6579
 218   2.0000      -0.534750       -14.5513
 219   2.0000      -0.532869       -14.5001
 220   2.0000      -0.530668       -14.4402
 221   2.0000      -0.529538       -14.4095
 222   2.0000      -0.522148       -14.2084
 223   2.0000      -0.522018       -14.2048
 224   2.0000      -0.521645       -14.1947
 225   2.0000      -0.519156       -14.1270
 226   2.0000      -0.518554       -14.1106
 227   2.0000      -0.515290       -14.0218
 228   2.0000      -0.512751       -13.9527
 229   2.0000      -0.510051       -13.8792
 230   2.0000      -0.509226       -13.8567
 231   2.0000      -0.504026       -13.7152
 232   2.0000      -0.501954       -13.6589
 233   2.0000      -0.500738       -13.6258
 234   2.0000      -0.500297       -13.6138
 235   2.0000      -0.497146       -13.5280
 236   2.0000      -0.491535       -13.3753
 237   2.0000      -0.489874       -13.3301
 238   2.0000      -0.487469       -13.2647
 239   2.0000      -0.486979       -13.2514
 240   2.0000      -0.485222       -13.2036
 241   2.0000      -0.482227       -13.1221
 242   2.0000      -0.479268       -13.0415
 243   2.0000      -0.473353       -12.8806
 244   2.0000      -0.469029       -12.7629
 245   2.0000      -0.464202       -12.6316
 246   2.0000      -0.462671       -12.5899
 247   2.0000      -0.459231       -12.4963
 248   2.0000      -0.455025       -12.3819
 249   2.0000      -0.453173       -12.3315
 250   2.0000      -0.450493       -12.2585
 251   2.0000      -0.447680       -12.1820
 252   2.0000      -0.444422       -12.0933
 253   2.0000      -0.443667       -12.0728
 254   2.0000      -0.443471       -12.0674
 255   2.0000      -0.443181       -12.0596
 256   2.0000      -0.442044       -12.0286
 257   2.0000      -0.436819       -11.8865
 258   2.0000      -0.434987       -11.8366
 259   2.0000      -0.433656       -11.8004
 260   2.0000      -0.432982       -11.7820
 261   2.0000      -0.427999       -11.6464
 262   2.0000      -0.427083       -11.6215
 263   2.0000      -0.423328       -11.5194
 264   2.0000      -0.420773       -11.4498
 265   2.0000      -0.419575       -11.4172
 266   2.0000      -0.413844       -11.2613
 267   2.0000      -0.410169       -11.1613
 268   2.0000      -0.400720       -10.9041
 269   2.0000      -0.395516       -10.7625
 270   2.0000      -0.394009       -10.7215
 271   2.0000      -0.391775       -10.6607
 272   2.0000      -0.390199       -10.6179
 273   2.0000      -0.389569       -10.6007
 274   2.0000      -0.386723       -10.5233
 275   2.0000      -0.386115       -10.5067
 276   2.0000      -0.384132       -10.4528
 277   2.0000      -0.382022       -10.3953
 278   2.0000      -0.381663       -10.3856
 279   2.0000      -0.377380       -10.2690
 280   2.0000      -0.375919       -10.2293
 281   2.0000      -0.371301       -10.1036
 282   2.0000      -0.369649       -10.0586
 283   2.0000      -0.361977        -9.8499
 284   2.0000      -0.359374        -9.7791
 285   2.0000      -0.356970        -9.7137
 286   2.0000      -0.356350        -9.6968
 287   2.0000      -0.353416        -9.6169
 288   2.0000      -0.352497        -9.5919
 289   2.0000      -0.345717        -9.4074
 290   2.0000      -0.344363        -9.3706
 291   2.0000      -0.337014        -9.1706
 292   2.0000      -0.326528        -8.8853
 293   2.0000      -0.323656        -8.8071
 294   2.0000      -0.318396        -8.6640
 295   2.0000      -0.301108        -8.1936
 296   2.0000      -0.281555        -7.6615
 297   0.0000      -0.107322        -2.9204
 298   0.0000      -0.106226        -2.8905
 299   0.0000      -0.104217        -2.8359
 300   0.0000      -0.097062        -2.6412
 301   0.0000      -0.085693        -2.3318

MULLIKEN ATOMIC CHARGES
-----------------------
   0 C :    0.304477
   1 C :   -0.316176
   2 C :   -0.193850
   3 N :    0.173556
   4 C :   -0.187774
   5 N :    0.171374
   6 C :    0.037659
   7 C :   -0.020862
   8 C :   -0.020614
   9 C :    0.057500
  10 C :    0.048800
  11 C :   -0.010713
  12 Cl:   -0.022210
  13 Cl:   -0.032501
  14 C :    0.161291
  15 O :   -0.146765
  16 C :   -0.028682
  17 C :   -0.058426
  18 C :    0.012091
  19 C :    0.025841
  20 C :    0.191823
  21 O :   -0.149754
  22 N :   -0.230419
  23 C :    0.214657
  24 O :   -0.132597
  25 C :    0.007459
  26 C :   -0.064691
  27 C :    0.060664
  28 C :    0.047675
  29 C :    0.044311
  30 O :   -0.127199
  31 S :    0.022468
  32 C :    0.045731
  33 O :   -0.108328
  34 C :    0.088878
  35 C :   -0.013973
  36 C :    0.109944
  37 C :   -0.020320
  38 C :   -0.028969
  39 C :    0.016509
  40 C :    0.246341
  41 C :   -0.125922
  42 O :   -0.175079
  43 C :    0.023234
  44 N :   -0.024938
  45 C :    0.050953
  46 C :   -0.006875
  47 C :    0.201845
  48 O :   -0.108908
  49 N :   -0.247948
  50 C :    0.219973
  51 O :   -0.125148
  52 C :   -0.008223
  53 C :   -0.052144
  54 C :    0.031089
  55 C :    0.061746
  56 C :    0.043720
  57 O :   -0.093101
  58 S :    0.018824
  59 C :    0.054534
  60 O :   -0.113691
  61 C :    0.155516
  62 C :   -0.025308
  63 C :    0.001141
  64 C :   -0.091115
  65 C :    0.279229
  66 C :   -0.323341
  67 C :   -0.186690
  68 N :    0.162324
  69 C :   -0.209035
  70 N :    0.168240
  71 C :    0.034598
  72 C :   -0.018371
  73 C :    0.151898
  74 O :   -0.145031
  75 C :   -0.028261
  76 C :    0.062433
  77 C :    0.051098
  78 C :   -0.014471
  79 Cl:   -0.031285
  80 Cl:   -0.039523
  81 H :    0.003734
  82 H :    0.005911
  83 H :    0.055142
  84 H :    0.022008
  85 H :    0.027966
  86 H :    0.020267
  87 H :   -0.013597
  88 H :   -0.014934
  89 H :   -0.019981
  90 H :    0.027450
  91 H :    0.050614
  92 H :    0.039698
  93 H :    0.039883
  94 H :    0.000132
  95 H :    0.003489
Sum of atomic charges:    0.0000000

LOEWDIN ATOMIC CHARGES
----------------------
   0 C :    0.073954
   1 C :   -0.110900
   2 C :   -0.019607
   3 N :   -0.030658
   4 C :   -0.017457
   5 N :   -0.031126
   6 C :   -0.008803
   7 C :   -0.044650
   8 C :    0.005339
   9 C :   -0.132813
  10 C :   -0.125950
  11 C :   -0.009983
  12 Cl:    0.173545
  13 Cl:    0.167841
  14 C :    0.093091
  15 O :   -0.135410
  16 C :   -0.055726
  17 C :    0.074114
  18 C :    0.027074
  19 C :   -0.014468
  20 C :    0.102437
  21 O :   -0.138827
  22 N :   -0.007892
  23 C :    0.103253
  24 O :   -0.122657
  25 C :   -0.025648
  26 C :    0.049772
  27 C :   -0.053265
  28 C :   -0.050688
  29 C :   -0.045346
  30 O :   -0.108045
  31 S :    0.308181
  32 C :   -0.041985
  33 O :   -0.101479
  34 C :    0.026267
  35 C :   -0.031424
  36 C :   -0.014926
  37 C :   -0.019013
  38 C :   -0.009725
  39 C :   -0.032497
  40 C :    0.041945
  41 C :   -0.033173
  42 O :    0.011492
  43 C :    0.046971
  44 N :   -0.073822
  45 C :    0.015616
  46 C :   -0.026390
  47 C :    0.103930
  48 O :   -0.106465
  49 N :   -0.011811
  50 C :    0.102839
  51 O :   -0.116394
  52 C :   -0.029777
  53 C :    0.050129
  54 C :   -0.048304
  55 C :   -0.036044
  56 C :   -0.042081
  57 O :   -0.086840
  58 S :    0.307351
  59 C :   -0.049962
  60 O :   -0.106468
  61 C :    0.099857
  62 C :   -0.070896
  63 C :    0.077337
  64 C :   -0.097407
  65 C :    0.073512
  66 C :   -0.129466
  67 C :   -0.020553
  68 N :   -0.041328
  69 C :   -0.025215
  70 N :   -0.042096
  71 C :   -0.013789
  72 C :   -0.043864
  73 C :    0.085189
  74 O :   -0.132926
  75 C :    0.001642
  76 C :   -0.133734
  77 C :   -0.129482
  78 C :   -0.011456
  79 Cl:    0.166125
  80 Cl:    0.161972
  81 H :    0.047491
  82 H :    0.046265
  83 H :    0.052927
  84 H :    0.053754
  85 H :    0.031297
  86 H :    0.035215
  87 H :    0.031637
  88 H :    0.038984
  89 H :    0.035253
  90 H :    0.055233
  91 H :    0.040229
  92 H :    0.041414
  93 H :    0.048932
  94 H :    0.046107
  95 H :    0.045197

  Mayer bond orders larger than 0.100000
B(  0-C ,  1-C ) :   1.6919 B(  0-C ,  6-C ) :   1.0094 B(  0-C , 16-C ) :   1.0258
B(  1-C ,  2-C ) :   1.1331 B(  1-C ,  4-C ) :   1.1423 B(  2-C ,  3-N ) :   2.9786
B(  4-C ,  5-N ) :   2.9761 B(  6-C ,  7-C ) :   1.3231 B(  6-C , 11-C ) :   1.3339
B(  7-C ,  8-C ) :   1.3364 B(  7-C , 14-C ) :   0.9578 B(  8-C ,  9-C ) :   1.3522
B(  8-C , 81-H ) :   1.0163 B(  9-C , 10-C ) :   1.3897 B(  9-C , 13-Cl) :   1.0563
B( 10-C , 11-C ) :   1.3680 B( 10-C , 12-Cl) :   1.0875 B( 11-C , 82-H ) :   0.9859
B( 14-C , 15-O ) :   2.2146 B( 14-C , 16-C ) :   0.9156 B( 16-C , 17-C ) :   1.7866
B( 17-C , 18-C ) :   1.0012 B( 17-C , 83-H ) :   0.9104 B( 18-C , 19-C ) :   1.3993
B( 18-C , 28-C ) :   1.4131 B( 19-C , 20-C ) :   0.8783 B( 19-C , 25-C ) :   1.4019
B( 20-C , 21-O ) :   2.1780 B( 20-C , 22-N ) :   1.0551 B( 22-N , 23-C ) :   1.0288
B( 22-N , 34-C ) :   1.0008 B( 23-C , 24-O ) :   2.2096 B( 23-C , 25-C ) :   0.8766
B( 25-C , 26-C ) :   1.3260 B( 26-C , 27-C ) :   1.3373 B( 26-C , 84-H ) :   1.0271
B( 27-C , 28-C ) :   1.3299 B( 27-C , 32-C ) :   0.8332 B( 28-C , 29-C ) :   0.8545
B( 29-C , 30-O ) :   2.1593 B( 29-C , 31-S ) :   1.0370 B( 30-O , 31-S ) :   0.1087
B( 31-S , 32-C ) :   1.0166 B( 31-S , 33-O ) :   0.1074 B( 32-C , 33-O ) :   2.2362
B( 34-C , 35-C ) :   1.7454 B( 34-C , 85-H ) :   0.9663 B( 35-C , 36-C ) :   1.0497
B( 35-C , 86-H ) :   0.9697 B( 36-C , 37-C ) :   1.3073 B( 36-C , 41-C ) :   1.3493
B( 37-C , 38-C ) :   1.4019 B( 37-C , 87-H ) :   0.9954 B( 38-C , 39-C ) :   1.2898
B( 38-C , 41-C ) :   0.1068 B( 38-C , 88-H ) :   1.0184 B( 39-C , 40-C ) :   1.2706
B( 39-C , 44-N ) :   1.2935 B( 40-C , 41-C ) :   1.3264 B( 40-C , 42-O ) :   1.1058
B( 41-C , 89-H ) :   1.0128 B( 42-O , 43-C ) :   1.1699 B( 43-C , 44-N ) :   1.7566
B( 43-C , 45-C ) :   0.9411 B( 45-C , 46-C ) :   1.4289 B( 45-C , 55-C ) :   1.4262
B( 46-C , 47-C ) :   0.8779 B( 46-C , 52-C ) :   1.3727 B( 47-C , 48-O ) :   2.2361
B( 47-C , 49-N ) :   1.0085 B( 49-N , 50-C ) :   1.0173 B( 49-N , 61-C ) :   1.0551
B( 50-C , 51-O ) :   2.2260 B( 50-C , 52-C ) :   0.8777 B( 52-C , 53-C ) :   1.3475
B( 53-C , 54-C ) :   1.3347 B( 53-C , 90-H ) :   1.0263 B( 54-C , 55-C ) :   1.3468
B( 54-C , 59-C ) :   0.8342 B( 55-C , 56-C ) :   0.8312 B( 56-C , 57-O ) :   2.2246
B( 56-C , 58-S ) :   1.0139 B( 57-O , 58-S ) :   0.1080 B( 58-S , 59-C ) :   1.0363
B( 58-S , 60-O ) :   0.1118 B( 59-C , 60-O ) :   2.2249 B( 61-C , 62-C ) :   1.6932
B( 61-C , 91-H ) :   0.9607 B( 62-C , 63-C ) :   1.1558 B( 62-C , 92-H ) :   0.9403
B( 63-C , 64-C ) :   1.6406 B( 63-C , 93-H ) :   0.9475 B( 64-C , 65-C ) :   1.0488
B( 64-C , 73-C ) :   0.9406 B( 65-C , 66-C ) :   1.6699 B( 65-C , 71-C ) :   1.0009
B( 66-C , 67-C ) :   1.1313 B( 66-C , 69-C ) :   1.1367 B( 67-C , 68-N ) :   2.9817
B( 69-C , 70-N ) :   3.0087 B( 71-C , 72-C ) :   1.3272 B( 71-C , 78-C ) :   1.3394
B( 72-C , 73-C ) :   0.9492 B( 72-C , 75-C ) :   1.3433 B( 73-C , 74-O ) :   2.2131
B( 75-C , 76-C ) :   1.3438 B( 75-C , 94-H ) :   1.0174 B( 76-C , 77-C ) :   1.4003
B( 76-C , 80-Cl) :   1.0507 B( 77-C , 78-C ) :   1.3610 B( 77-C , 79-Cl) :   1.0791
B( 78-C , 95-H ) :   0.9885

-----------------------------------------------------------------------------
         ABSORPTION SPECTRUM VIA TRANSITION ELECTRIC DIPOLE MOMENTS
-----------------------------------------------------------------------------
State   Energy  Wavelength   fosc         T2         TX        TY        TZ
        (cm-1)    (nm)                  (au**2)     (au)      (au)      (au)
-----------------------------------------------------------------------------
   0   21938.9    455.8   0.014070338   0.21114  -0.01697   0.23123  -0.39671
   1   22312.9    448.2   0.010922476   0.16115  -0.20680   0.07828  -0.33505
   2   24726.0    404.4   0.221173607   2.94480   0.46458   1.39037   0.89209
   3   25373.8    394.1   0.411568117   5.33987  -0.23896   1.57474  -1.67420
   4   25470.0    392.6   0.085634056   1.10686   0.13727  -0.92135   0.48900
   5   26579.0    376.2   0.355030204   4.39747   0.10177  -0.83767  -1.91974
   6   27720.6    360.7   0.022447552   0.26659   0.34568  -0.22026   0.31398
   7   27947.5    357.8   0.006409350   0.07550   0.04769   0.10124   0.25095
   8   28315.4    353.2   0.045006803   0.52328  -0.28207   0.60759  -0.27305
   9   28585.8    349.8   0.011409947   0.13140  -0.00123   0.10642   0.34652
  10   29283.0    341.5   0.024438619   0.27475  -0.31032  -0.32798  -0.26623
  11   29669.5    337.0   0.101024537   1.12097   0.65484   0.02544  -0.83157
  12   30494.4    327.9   0.050621503   0.54650   0.34001   0.65608   0.02117
  13   30862.0    324.0   0.001522650   0.01624   0.07238  -0.02083  -0.10281
  14   30909.8    323.5   0.184316630   1.96310  -1.36141   0.18633   0.27378
  15   31277.0    319.7   0.137676157   1.44914  -0.75094   0.80823  -0.48166
  16   31655.9    315.9   0.146933895   1.52807  -0.09649   0.99046   0.73331
  17   32383.7    308.8   0.055025432   0.55939  -0.44372   0.59458   0.09475
  18   32768.0    305.2   0.270735318   2.72001  -0.20311  -0.71966   1.46998
  19   33002.3    303.0   0.041474762   0.41373  -0.22905  -0.56124   0.21511
  20   33053.7    302.5   0.068100994   0.67828  -0.29851   0.74234   0.19519
  21   33457.4    298.9   0.006924864   0.06814   0.20506  -0.07155  -0.14481
  22   33496.0    298.5   0.069068589   0.67883  -0.47462  -0.07948   0.66877
  23   33749.2    296.3   0.034844730   0.33990  -0.07148   0.40484  -0.41339
  24   33793.6    295.9   0.014317286   0.13948   0.01750  -0.21363   0.30583
  25   33921.1    294.8   0.136072870   1.32062   0.33891   0.61550  -0.90935
  26   34130.1    293.0   0.042213472   0.40718   0.39206  -0.49891  -0.06755
  27   34189.7    292.5   0.047867843   0.46092   0.61606   0.16858   0.23015
  28   34281.0    291.7   0.059238339   0.56889  -0.36377  -0.18817  -0.63336
  29   34607.4    289.0   0.214162928   2.03728  -1.39035  -0.32199  -0.02328
  30   34657.5    288.5   0.292665000   2.78003   0.16923   1.03032  -1.29994
  31   34781.2    287.5   0.304479894   2.88197   0.27048  -0.30717  -1.64756
  32   34960.5    286.0   0.186769539   1.75875   0.64419  -0.31888  -1.11449
  33   35075.0    285.1   0.007915687   0.07430   0.24032   0.10772   0.07026
  34   35100.4    284.9   0.001555045   0.01458   0.08754  -0.00932  -0.08267
  35   35341.7    283.0   0.419270467   3.90555   1.77756   0.19149  -0.84212
  36   35486.1    281.8   0.121271284   1.12506   0.31522  -1.00122   0.15248
  37   35574.8    281.1   0.290522619   2.68852   1.25091  -0.13594  -1.05132
  38   35761.6    279.6   0.014645396   0.13482  -0.26450   0.22035   0.12769
  39   36213.3    276.1   0.240860394   2.18964  -0.48399   0.99404  -0.98351
  40   36565.5    273.5   0.038027930   0.34238   0.38073  -0.39345   0.20645
  41   36781.7    271.9   0.059419855   0.53183   0.66214  -0.28861  -0.10052
  42   37015.1    270.2   0.011880834   0.10567   0.24741  -0.05570   0.20335
  43   37244.0    268.5   0.001827679   0.01616  -0.00755  -0.05129  -0.11605
  44   37567.7    266.2   0.036875170   0.32314   0.05433  -0.49567  -0.27296
  45   37590.5    266.0   0.022773571   0.19945  -0.22216   0.38089   0.07084
  46   37823.5    264.4   0.067785893   0.59000  -0.54833   0.53790   0.00154
  47   37964.9    263.4   0.000378967   0.00329  -0.03483   0.01596   0.04264
  48   38218.7    261.7   0.138296847   1.19128  -0.79502   0.70327  -0.25422
  49   38304.6    261.1   0.002351528   0.02021  -0.03551   0.00203   0.13764
  50   38363.2    260.7   0.001514713   0.01300   0.09065  -0.06913  -0.00134
  51   38504.0    259.7   0.002883527   0.02465   0.12442  -0.09575  -0.00251
  52   38813.0    257.6   0.047646580   0.40414  -0.54657   0.31481  -0.07934
  53   39030.8    256.2   0.001389132   0.01172   0.05239  -0.08520   0.04139
  54   39110.8    255.7   0.095197382   0.80132   0.64414  -0.30238   0.54311
  55   39127.6    255.6   0.000009910   0.00008  -0.00085  -0.00657   0.00628
  56   39297.5    254.5   0.003576412   0.02996  -0.12979   0.04844  -0.10378
  57   39527.4    253.0   0.152579439   1.27079  -0.62569   0.75020   0.56258
  58   39903.8    250.6   0.106360759   0.87749  -0.22249   0.75672   0.50534
  59   40213.6    248.7   0.023763444   0.19454   0.37037  -0.20119   0.12995
  60   40307.2    248.1   0.035662222   0.29127   0.41320   0.01437   0.34689

FINAL SINGLE POINT ENERGY     -6024.085175086774

DIPOLE MOMENT
-------------
                                X             Y             Z
Electronic contribution:    -12.96077      16.78870     -20.79135
Nuclear contribution   :     13.58498     -18.47633      22.50979
                        -----------------------------------------
Total Dipole Moment    :      0.62421      -1.68763       1.71844
                        -----------------------------------------
Magnitude (a.u.)       :      2.48813
Magnitude (Debye)      :      6.32432

Rotational constants in cm-1:     0.000560     0.000336     0.000271
Rotational constants in MHz :    16.791892    10.078275     8.122278

                             ****ORCA TERMINATED NORMALLY****
TOTAL RUN TIME: 0 days 0 hours 9 minutes 41 seconds 516 msec
