                         Program Version 4.2.0 -  RELEASE  -
|  1> # ORCA input file
|  2> # SCF done       -202.843637529020          0.000950807250
|  3> ! CAM-B3LYP def2-SVP def2/J RIJCOSX Grid4 TightSCF
|  4> %maxcore 5000
|  5> %tddft
|  6>     Mode sTDDFT
|  7>     Ethresh 5.0
|  8>     maxcore 5000
|  9> end
| 10>
| 11> %pal
| 12>   nprocs 6
| 13>   end
| 14> * xyz 0 1
| 15>    C       -5.76228        -8.62107        -2.84405
| 16>    C       -6.05234        -9.85268        -2.30913
| 17>    C       -7.26752       -10.53576        -2.51372
| 18>    N       -8.23836       -11.13717        -2.63517
| 19>    C       -5.17604       -10.61364        -1.50937
| 20>    N       -4.51694       -11.30226        -0.86728
| 21>    C       -6.62865        -7.86649        -3.74832
| 22>    C       -5.94749        -6.70714        -4.15325
| 23>    C       -6.51730        -5.79046        -5.01096
| 24>    C       -7.80110        -6.03928        -5.48161
| 25>    C       -8.48701        -7.18914        -5.08298
| 26>    C       -7.90859        -8.11043        -4.21559
| 27>   Cl      -10.07825        -7.48044        -5.66586
| 28>   Cl       -8.54452        -4.92286        -6.55714
| 29>    C       -4.61039        -6.66355        -3.51278
| 30>    O       -3.80713        -5.75518        -3.61528
| 31>    C       -4.53556        -7.87683        -2.68430
| 32>    C       -3.57714        -8.13850        -1.72841
| 33>    C       -2.30006        -7.57615        -1.59785
| 34>    C       -1.59297        -7.48102        -0.36934
| 35>    C       -2.13349        -7.92757         0.93951
| 36>    C       -0.36355        -6.81957        -0.56336
| 37>    C       -0.28445        -6.51245        -1.92434
| 38>    C       -1.45996        -7.00969        -2.60713
| 39>    C       -1.46987        -6.97859        -3.97918
| 40>    C       -0.39676        -6.33707        -4.62782
| 41>    C        0.63584        -5.82643        -3.89537
| 42>    O        0.72147        -5.93462        -2.57674
| 43>    C        0.63580        -6.47753         0.44317
| 44>    C        1.00379        -7.37103         1.41170
| 45>    C        1.93956        -6.99721         2.40601
| 46>    C        2.44366        -7.67622         3.50104
| 47>    C        2.17098        -9.07692         3.94507
| 48>    C        0.68597        -9.28690         4.29272
| 49>    N        0.56016       -10.38967         5.22873
| 50>    C        2.66110       -10.08429         2.88948
| 51>    N        2.60835       -11.44490         3.40544
| 52>    C        3.31613        -6.75708         4.19522
| 53>    C        4.00860        -6.88243         5.34197
| 54>    C        4.78363        -5.75174         5.91641
| 55>    C        4.81878        -4.52128         5.05951
| 56>    C        4.13167        -4.41614         3.90779
| 57>    C        3.34218        -5.49426         3.44430
| 58>    C        2.50066        -5.65059         2.36252
| 59>    C        2.12619        -4.76757         1.32318
| 60>    C        1.22393        -5.17237         0.39526
| 61>    C        6.19085        -6.11957         6.31752
| 62>    C        6.85381        -7.19026         5.88794
| 63>    C        8.21918        -7.50712         6.25481
| 64>    C        8.73647        -8.78347         6.41386
| 65>    C        7.93653       -10.02933         6.34033
| 66>    C       10.12251        -8.70847         6.81641
| 67>    C       10.41351        -7.34546         6.93806
| 68>    C        9.25515        -6.56816         6.54304
| 69>    C        9.39649        -5.20176         6.47821
| 70>    C       10.63062        -4.64700         6.86235
| 71>    C       11.65812        -5.46306         7.25033
| 72>    O       11.57097        -6.78505         7.26734
| 73>    C       11.05866        -9.70844         7.15523
| 74>    C       11.16516       -10.99169         6.68444
| 75>    C       12.01979       -12.01819         7.24217
| 76>    C       12.68303       -11.97394         8.44255
| 77>    C       13.49491       -13.01567         8.93668
| 78>    N       14.17128       -13.82284         9.39422
| 79>    C       12.64306       -10.90055         9.35642
| 80>    N       12.64556       -10.08292        10.16368
| 81>    C       11.99385       -13.16033         6.33117
| 82>    C       11.15298       -12.85419         5.24838
| 83>    C       10.61653       -11.48151         5.40528
| 84>    O        9.96441       -10.87264         4.58302
| 85>    C       10.93395       -13.74913         4.22228
| 86>    C       11.56249       -14.98687         4.28202
| 87>    C       12.40154       -15.30035         5.35556
| 88>    C       12.62485       -14.39217         6.38479
| 89>   Cl       13.17962       -16.83148         5.41285
| 90>   Cl       11.30559       -16.13400         3.02855
| 91>    H       -5.97887        -4.90421        -5.30742
| 92>    H       -8.46974        -8.98351        -3.92558
| 93>    H       -3.85571        -8.82697        -0.93979
| 94>    H       -3.17389        -7.62518         1.04444
| 95>    H       -1.55807        -7.50422         1.75883
| 96>    H       -2.09875        -9.01591         1.01142
| 97>    H       -2.25468        -7.43405        -4.55889
| 98>    H       -0.38338        -6.24486        -5.70019
| 99>    H        1.48319        -5.31425        -4.32648
|100>    H        0.59195        -8.36751         1.41045
|101>    H        2.72830        -9.26701         4.86781
|102>    H        0.11127        -9.43444         3.36460
|103>    H        0.30372        -8.38391         4.78193
|104>    H        0.96570       -11.21883         4.80154
|105>    H       -0.41825       -10.57792         5.42043
|106>    H        3.67488        -9.78409         2.57153
|107>    H        2.01516       -10.04072         2.00967
|108>    H        3.27303       -11.55482         4.16516
|109>    H        2.85736       -12.10692         2.67823
|110>    H        3.99104        -7.79351         5.92516
|111>    H        4.26181        -5.47705         6.85140
|112>    H        5.42283        -3.70515         5.42710
|113>    H        4.17116        -3.50634         3.32565
|114>    H        2.55497        -3.77656         1.28657
|115>    H        0.91103        -4.50365        -0.39272
|116>    H        6.66308        -5.42078         6.99382
|117>    H        6.36452        -7.90193         5.23673
|118>    H        6.91200        -9.84170         6.65386
|119>    H        8.37142       -10.80178         6.97086
|120>    H        7.92691       -10.40437         5.31620
|121>    H        8.59980        -4.56231         6.13319
|122>    H       10.77975        -3.58086         6.84870
|123>    H       12.62702        -5.10277         7.56100
|124>    H       11.81007        -9.37965         7.86479
|125>    H       10.28844       -13.49397         3.39685
|126>    H       13.28304       -14.66583         7.19293
|127> *
|128>
|129>                          ****END OF INPUT****

CARTESIAN COORDINATES (ANGSTROEM)
---------------------------------
  C     -5.762280   -8.621070   -2.844050
  C     -6.052340   -9.852680   -2.309130
  C     -7.267520  -10.535760   -2.513720
  N     -8.238360  -11.137170   -2.635170
  C     -5.176040  -10.613640   -1.509370
  N     -4.516940  -11.302260   -0.867280
  C     -6.628650   -7.866490   -3.748320
  C     -5.947490   -6.707140   -4.153250
  C     -6.517300   -5.790460   -5.010960
  C     -7.801100   -6.039280   -5.481610
  C     -8.487010   -7.189140   -5.082980
  C     -7.908590   -8.110430   -4.215590
  Cl   -10.078250   -7.480440   -5.665860
  Cl    -8.544520   -4.922860   -6.557140
  C     -4.610390   -6.663550   -3.512780
  O     -3.807130   -5.755180   -3.615280
  C     -4.535560   -7.876830   -2.684300
  C     -3.577140   -8.138500   -1.728410
  C     -2.300060   -7.576150   -1.597850
  C     -1.592970   -7.481020   -0.369340
  C     -2.133490   -7.927570    0.939510
  C     -0.363550   -6.819570   -0.563360
  C     -0.284450   -6.512450   -1.924340
  C     -1.459960   -7.009690   -2.607130
  C     -1.469870   -6.978590   -3.979180
  C     -0.396760   -6.337070   -4.627820
  C      0.635840   -5.826430   -3.895370
  O      0.721470   -5.934620   -2.576740
  C      0.635800   -6.477530    0.443170
  C      1.003790   -7.371030    1.411700
  C      1.939560   -6.997210    2.406010
  C      2.443660   -7.676220    3.501040
  C      2.170980   -9.076920    3.945070
  C      0.685970   -9.286900    4.292720
  N      0.560160  -10.389670    5.228730
  C      2.661100  -10.084290    2.889480
  N      2.608350  -11.444900    3.405440
  C      3.316130   -6.757080    4.195220
  C      4.008600   -6.882430    5.341970
  C      4.783630   -5.751740    5.916410
  C      4.818780   -4.521280    5.059510
  C      4.131670   -4.416140    3.907790
  C      3.342180   -5.494260    3.444300
  C      2.500660   -5.650590    2.362520
  C      2.126190   -4.767570    1.323180
  C      1.223930   -5.172370    0.395260
  C      6.190850   -6.119570    6.317520
  C      6.853810   -7.190260    5.887940
  C      8.219180   -7.507120    6.254810
  C      8.736470   -8.783470    6.413860
  C      7.936530  -10.029330    6.340330
  C     10.122510   -8.708470    6.816410
  C     10.413510   -7.345460    6.938060
  C      9.255150   -6.568160    6.543040
  C      9.396490   -5.201760    6.478210
  C     10.630620   -4.647000    6.862350
  C     11.658120   -5.463060    7.250330
  O     11.570970   -6.785050    7.267340
  C     11.058660   -9.708440    7.155230
  C     11.165160  -10.991690    6.684440
  C     12.019790  -12.018190    7.242170
  C     12.683030  -11.973940    8.442550
  C     13.494910  -13.015670    8.936680
  N     14.171280  -13.822840    9.394220
  C     12.643060  -10.900550    9.356420
  N     12.645560  -10.082920   10.163680
  C     11.993850  -13.160330    6.331170
  C     11.152980  -12.854190    5.248380
  C     10.616530  -11.481510    5.405280
  O      9.964410  -10.872640    4.583020
  C     10.933950  -13.749130    4.222280
  C     11.562490  -14.986870    4.282020
  C     12.401540  -15.300350    5.355560
  C     12.624850  -14.392170    6.384790
  Cl    13.179620  -16.831480    5.412850
  Cl    11.305590  -16.134000    3.028550
  H     -5.978870   -4.904210   -5.307420
  H     -8.469740   -8.983510   -3.925580
  H     -3.855710   -8.826970   -0.939790
  H     -3.173890   -7.625180    1.044440
  H     -1.558070   -7.504220    1.758830
  H     -2.098750   -9.015910    1.011420
  H     -2.254680   -7.434050   -4.558890
  H     -0.383380   -6.244860   -5.700190
  H      1.483190   -5.314250   -4.326480
  H      0.591950   -8.367510    1.410450
  H      2.728300   -9.267010    4.867810
  H      0.111270   -9.434440    3.364600
  H      0.303720   -8.383910    4.781930
  H      0.965700  -11.218830    4.801540
  H     -0.418250  -10.577920    5.420430
  H      3.674880   -9.784090    2.571530
  H      2.015160  -10.040720    2.009670
  H      3.273030  -11.554820    4.165160
  H      2.857360  -12.106920    2.678230
  H      3.991040   -7.793510    5.925160
  H      4.261810   -5.477050    6.851400
  H      5.422830   -3.705150    5.427100
  H      4.171160   -3.506340    3.325650
  H      2.554970   -3.776560    1.286570
  H      0.911030   -4.503650   -0.392720
  H      6.663080   -5.420780    6.993820
  H      6.364520   -7.901930    5.236730
  H      6.912000   -9.841700    6.653860
  H      8.371420  -10.801780    6.970860
  H      7.926910  -10.404370    5.316200
  H      8.599800   -4.562310    6.133190
  H     10.779750   -3.580860    6.848700
  H     12.627020   -5.102770    7.561000
  H     11.810070   -9.379650    7.864790
  H     10.288440  -13.493970    3.396850
  H     13.283040  -14.665830    7.192930

 Total Charge           Charge          ....    0
 Multiplicity           Mult            ....    1
 Number of Electrons    NEL             ....  550
 Basis Dimension        Dim             .... 1260

ORBITAL ENERGIES
----------------

  NO   OCC          E(Eh)            E(eV)
   0   2.0000    -101.597803     -2764.6168
   1   2.0000    -101.595468     -2764.5532
   2   2.0000    -101.593336     -2764.4952
   3   2.0000    -101.590643     -2764.4219
   4   2.0000     -19.350174      -526.5450
   5   2.0000     -19.341984      -526.3221
   6   2.0000     -19.214323      -522.8483
   7   2.0000     -19.206240      -522.6283
   8   2.0000     -14.413010      -392.1980
   9   2.0000     -14.411342      -392.1526
  10   2.0000     -14.405568      -391.9954
  11   2.0000     -14.403861      -391.9490
  12   2.0000     -14.388227      -391.5236
  13   2.0000     -14.353100      -390.5677
  14   2.0000     -10.383247      -282.5425
  15   2.0000     -10.376943      -282.3710
  16   2.0000     -10.369915      -282.1797
  17   2.0000     -10.366017      -282.0737
  18   2.0000     -10.363577      -282.0073
  19   2.0000     -10.358891      -281.8798
  20   2.0000     -10.352655      -281.7101
  21   2.0000     -10.351760      -281.6857
  22   2.0000     -10.346985      -281.5558
  23   2.0000     -10.346108      -281.5319
  24   2.0000     -10.338867      -281.3349
  25   2.0000     -10.338272      -281.3187
  26   2.0000     -10.330597      -281.1098
  27   2.0000     -10.329106      -281.0693
  28   2.0000     -10.329077      -281.0685
  29   2.0000     -10.321533      -280.8632
  30   2.0000     -10.316621      -280.7295
  31   2.0000     -10.316420      -280.7241
  32   2.0000     -10.315805      -280.7073
  33   2.0000     -10.314492      -280.6716
  34   2.0000     -10.310575      -280.5650
  35   2.0000     -10.309517      -280.5362
  36   2.0000     -10.307926      -280.4929
  37   2.0000     -10.307846      -280.4908
  38   2.0000     -10.307540      -280.4824
  39   2.0000     -10.307493      -280.4812
  40   2.0000     -10.305568      -280.4288
  41   2.0000     -10.304802      -280.4079
  42   2.0000     -10.303823      -280.3813
  43   2.0000     -10.300846      -280.3003
  44   2.0000     -10.299937      -280.2755
  45   2.0000     -10.299075      -280.2521
  46   2.0000     -10.299017      -280.2505
  47   2.0000     -10.297754      -280.2161
  48   2.0000     -10.296779      -280.1896
  49   2.0000     -10.295724      -280.1609
  50   2.0000     -10.293131      -280.0903
  51   2.0000     -10.290486      -280.0183
  52   2.0000     -10.289515      -279.9919
  53   2.0000     -10.285123      -279.8724
  54   2.0000     -10.284134      -279.8455
  55   2.0000     -10.282555      -279.8025
  56   2.0000     -10.280014      -279.7334
  57   2.0000     -10.279432      -279.7176
  58   2.0000     -10.278592      -279.6947
  59   2.0000     -10.277380      -279.6617
  60   2.0000     -10.273085      -279.5448
  61   2.0000     -10.272287      -279.5231
  62   2.0000     -10.272281      -279.5230
  63   2.0000     -10.271877      -279.5120
  64   2.0000     -10.271213      -279.4939
  65   2.0000     -10.270379      -279.4712
  66   2.0000     -10.270192      -279.4661
  67   2.0000     -10.269291      -279.4416
  68   2.0000     -10.266555      -279.3672
  69   2.0000     -10.265939      -279.3504
  70   2.0000     -10.263535      -279.2850
  71   2.0000     -10.262482      -279.2563
  72   2.0000     -10.261341      -279.2253
  73   2.0000     -10.261237      -279.2225
  74   2.0000     -10.260689      -279.2075
  75   2.0000     -10.256330      -279.0889
  76   2.0000      -9.552815      -259.9453
  77   2.0000      -9.550490      -259.8820
  78   2.0000      -9.548285      -259.8221
  79   2.0000      -9.545677      -259.7511
  80   2.0000      -7.323173      -199.2737
  81   2.0000      -7.320902      -199.2119
  82   2.0000      -7.318641      -199.1503
  83   2.0000      -7.316052      -199.0799
  84   2.0000      -7.313085      -198.9992
  85   2.0000      -7.312380      -198.9800
  86   2.0000      -7.310726      -198.9350
  87   2.0000      -7.310028      -198.9160
  88   2.0000      -7.308568      -198.8763
  89   2.0000      -7.307868      -198.8572
  90   2.0000      -7.305929      -198.8044
  91   2.0000      -7.305241      -198.7857
  92   2.0000      -1.260535       -34.3009
  93   2.0000      -1.251999       -34.0686
  94   2.0000      -1.129337       -30.7308
  95   2.0000      -1.121270       -30.5113
  96   2.0000      -1.027130       -27.9496
  97   2.0000      -1.021298       -27.7909
  98   2.0000      -1.011912       -27.5355
  99   2.0000      -1.004846       -27.3432
 100   2.0000      -0.996797       -27.1242
 101   2.0000      -0.994271       -27.0555
 102   2.0000      -0.990850       -26.9624
 103   2.0000      -0.985852       -26.8264
 104   2.0000      -0.983668       -26.7670
 105   2.0000      -0.981476       -26.7073
 106   2.0000      -0.978970       -26.6391
 107   2.0000      -0.969238       -26.3743
 108   2.0000      -0.958329       -26.0774
 109   2.0000      -0.953323       -25.9412
 110   2.0000      -0.948859       -25.8198
 111   2.0000      -0.945998       -25.7419
 112   2.0000      -0.937190       -25.5022
 113   2.0000      -0.934207       -25.4211
 114   2.0000      -0.929029       -25.2802
 115   2.0000      -0.923438       -25.1280
 116   2.0000      -0.910050       -24.7637
 117   2.0000      -0.898305       -24.4441
 118   2.0000      -0.893871       -24.3235
 119   2.0000      -0.888664       -24.1818
 120   2.0000      -0.880542       -23.9608
 121   2.0000      -0.877700       -23.8834
 122   2.0000      -0.870683       -23.6925
 123   2.0000      -0.862604       -23.4726
 124   2.0000      -0.856730       -23.3128
 125   2.0000      -0.851024       -23.1575
 126   2.0000      -0.849071       -23.1044
 127   2.0000      -0.836719       -22.7683
 128   2.0000      -0.827610       -22.5204
 129   2.0000      -0.823559       -22.4102
 130   2.0000      -0.815159       -22.1816
 131   2.0000      -0.815075       -22.1793
 132   2.0000      -0.810243       -22.0478
 133   2.0000      -0.793194       -21.5839
 134   2.0000      -0.777129       -21.1468
 135   2.0000      -0.775896       -21.1132
 136   2.0000      -0.761819       -20.7302
 137   2.0000      -0.755102       -20.5474
 138   2.0000      -0.753326       -20.4990
 139   2.0000      -0.753086       -20.4925
 140   2.0000      -0.735701       -20.0194
 141   2.0000      -0.729076       -19.8392
 142   2.0000      -0.726700       -19.7745
 143   2.0000      -0.718807       -19.5597
 144   2.0000      -0.715232       -19.4624
 145   2.0000      -0.703203       -19.1351
 146   2.0000      -0.691505       -18.8168
 147   2.0000      -0.690086       -18.7782
 148   2.0000      -0.683687       -18.6041
 149   2.0000      -0.678989       -18.4762
 150   2.0000      -0.676703       -18.4140
 151   2.0000      -0.670339       -18.2409
 152   2.0000      -0.667112       -18.1530
 153   2.0000      -0.666283       -18.1305
 154   2.0000      -0.659937       -17.9578
 155   2.0000      -0.658509       -17.9189
 156   2.0000      -0.646354       -17.5882
 157   2.0000      -0.639665       -17.4062
 158   2.0000      -0.632746       -17.2179
 159   2.0000      -0.624949       -17.0057
 160   2.0000      -0.623707       -16.9719
 161   2.0000      -0.617796       -16.8111
 162   2.0000      -0.613913       -16.7054
 163   2.0000      -0.607866       -16.5409
 164   2.0000      -0.603835       -16.4312
 165   2.0000      -0.600514       -16.3408
 166   2.0000      -0.597792       -16.2667
 167   2.0000      -0.596542       -16.2327
 168   2.0000      -0.592655       -16.1270
 169   2.0000      -0.589733       -16.0475
 170   2.0000      -0.585897       -15.9431
 171   2.0000      -0.579809       -15.7774
 172   2.0000      -0.575892       -15.6708
 173   2.0000      -0.570105       -15.5133
 174   2.0000      -0.564759       -15.3679
 175   2.0000      -0.561672       -15.2839
 176   2.0000      -0.560019       -15.2389
 177   2.0000      -0.559460       -15.2237
 178   2.0000      -0.556003       -15.1296
 179   2.0000      -0.555307       -15.1107
 180   2.0000      -0.550421       -14.9777
 181   2.0000      -0.547955       -14.9106
 182   2.0000      -0.545161       -14.8346
 183   2.0000      -0.541082       -14.7236
 184   2.0000      -0.540859       -14.7175
 185   2.0000      -0.539694       -14.6858
 186   2.0000      -0.536976       -14.6119
 187   2.0000      -0.534036       -14.5318
 188   2.0000      -0.532216       -14.4823
 189   2.0000      -0.529301       -14.4030
 190   2.0000      -0.523753       -14.2520
 191   2.0000      -0.522168       -14.2089
 192   2.0000      -0.518338       -14.1047
 193   2.0000      -0.516820       -14.0634
 194   2.0000      -0.516793       -14.0626
 195   2.0000      -0.515073       -14.0159
 196   2.0000      -0.511897       -13.9294
 197   2.0000      -0.509866       -13.8741
 198   2.0000      -0.509185       -13.8556
 199   2.0000      -0.505122       -13.7451
 200   2.0000      -0.504502       -13.7282
 201   2.0000      -0.501725       -13.6526
 202   2.0000      -0.498274       -13.5587
 203   2.0000      -0.497309       -13.5325
 204   2.0000      -0.496630       -13.5140
 205   2.0000      -0.495295       -13.4777
 206   2.0000      -0.492287       -13.3958
 207   2.0000      -0.488524       -13.2934
 208   2.0000      -0.486479       -13.2378
 209   2.0000      -0.483088       -13.1455
 210   2.0000      -0.481810       -13.1107
 211   2.0000      -0.480834       -13.0842
 212   2.0000      -0.476796       -12.9743
 213   2.0000      -0.472064       -12.8455
 214   2.0000      -0.466577       -12.6962
 215   2.0000      -0.466307       -12.6889
 216   2.0000      -0.465423       -12.6648
 217   2.0000      -0.463793       -12.6205
 218   2.0000      -0.461596       -12.5607
 219   2.0000      -0.459115       -12.4931
 220   2.0000      -0.454073       -12.3559
 221   2.0000      -0.452485       -12.3128
 222   2.0000      -0.449451       -12.2302
 223   2.0000      -0.448428       -12.2023
 224   2.0000      -0.446897       -12.1607
 225   2.0000      -0.443207       -12.0603
 226   2.0000      -0.441356       -12.0099
 227   2.0000      -0.440002       -11.9731
 228   2.0000      -0.439534       -11.9603
 229   2.0000      -0.437030       -11.8922
 230   2.0000      -0.433855       -11.8058
 231   2.0000      -0.432598       -11.7716
 232   2.0000      -0.430095       -11.7035
 233   2.0000      -0.428668       -11.6647
 234   2.0000      -0.426351       -11.6016
 235   2.0000      -0.424390       -11.5482
 236   2.0000      -0.423137       -11.5141
 237   2.0000      -0.422502       -11.4969
 238   2.0000      -0.421376       -11.4662
 239   2.0000      -0.418743       -11.3946
 240   2.0000      -0.417723       -11.3668
 241   2.0000      -0.415888       -11.3169
 242   2.0000      -0.412891       -11.2353
 243   2.0000      -0.409427       -11.1411
 244   2.0000      -0.408716       -11.1217
 245   2.0000      -0.407283       -11.0827
 246   2.0000      -0.404698       -11.0124
 247   2.0000      -0.403045       -10.9674
 248   2.0000      -0.400967       -10.9109
 249   2.0000      -0.398949       -10.8560
 250   2.0000      -0.395427       -10.7601
 251   2.0000      -0.393037       -10.6951
 252   2.0000      -0.388033       -10.5589
 253   2.0000      -0.384892       -10.4734
 254   2.0000      -0.378813       -10.3080
 255   2.0000      -0.374257       -10.1841
 256   2.0000      -0.370294       -10.0762
 257   2.0000      -0.362587        -9.8665
 258   2.0000      -0.347185        -9.4474
 259   2.0000      -0.346832        -9.4378
 260   2.0000      -0.338112        -9.2005
 261   2.0000      -0.335349        -9.1253
 262   2.0000      -0.334007        -9.0888
 263   2.0000      -0.331214        -9.0128
 264   2.0000      -0.327517        -8.9122
 265   2.0000      -0.314722        -8.5640
 266   2.0000      -0.310239        -8.4420
 267   2.0000      -0.308403        -8.3921
 268   2.0000      -0.301996        -8.2177
 269   2.0000      -0.294157        -8.0044
 270   2.0000      -0.289093        -7.8666
 271   2.0000      -0.282370        -7.6837
 272   2.0000      -0.260553        -7.0900
 273   2.0000      -0.257159        -6.9977
 274   2.0000      -0.221274        -6.0212
 275   0.0000      -0.084184        -2.2908
 276   0.0000      -0.075602        -2.0572
 277   0.0000      -0.067195        -1.8285
 278   0.0000      -0.066380        -1.8063
 279   0.0000      -0.063321        -1.7230

MULLIKEN ATOMIC CHARGES
-----------------------
   0 C :    0.302801
   1 C :   -0.356381
   2 C :   -0.192482
   3 N :    0.145865
   4 C :   -0.199838
   5 N :    0.149742
   6 C :    0.031350
   7 C :   -0.016484
   8 C :   -0.039500
   9 C :    0.060379
  10 C :    0.048722
  11 C :   -0.020113
  12 Cl:   -0.043771
  13 Cl:   -0.053306
  14 C :    0.118504
  15 O :   -0.166090
  16 C :   -0.120346
  17 C :   -0.064013
  18 C :    0.052140
  19 C :   -0.141054
  20 C :    0.109862
  21 C :   -0.001466
  22 C :    0.083336
  23 C :    0.031905
  24 C :    0.098516
  25 C :   -0.047492
  26 C :    0.176171
  27 O :   -0.128765
  28 C :    0.059068
  29 C :   -0.095737
  30 C :    0.040201
  31 C :   -0.029635
  32 C :   -0.053547
  33 C :    0.156053
  34 N :   -0.225793
  35 C :    0.139561
  36 N :   -0.217176
  37 C :    0.101491
  38 C :   -0.162113
  39 C :    0.183830
  40 C :   -0.044205
  41 C :    0.020032
  42 C :    0.017141
  43 C :    0.025963
  44 C :   -0.004103
  45 C :   -0.003463
  46 C :   -0.120441
  47 C :   -0.002586
  48 C :    0.038133
  49 C :   -0.107703
  50 C :    0.119124
  51 C :   -0.001917
  52 C :    0.105558
  53 C :    0.027369
  54 C :    0.037187
  55 C :   -0.039557
  56 C :    0.177635
  57 O :   -0.121767
  58 C :   -0.054077
  59 C :   -0.104487
  60 C :    0.309188
  61 C :   -0.351117
  62 C :   -0.190798
  63 N :    0.148835
  64 C :   -0.202497
  65 N :    0.155895
  66 C :    0.033859
  67 C :   -0.015336
  68 C :    0.127805
  69 O :   -0.156533
  70 C :   -0.036496
  71 C :    0.059400
  72 C :    0.050153
  73 C :   -0.019693
  74 Cl:   -0.040057
  75 Cl:   -0.048180
  76 H :   -0.009440
  77 H :   -0.001850
  78 H :    0.014960
  79 H :    0.032773
  80 H :    0.037436
  81 H :    0.052710
  82 H :    0.005405
  83 H :    0.021823
  84 H :    0.038669
  85 H :   -0.040446
  86 H :   -0.037654
  87 H :   -0.028793
  88 H :   -0.004288
  89 H :    0.079290
  90 H :    0.081446
  91 H :   -0.005271
  92 H :   -0.009103
  93 H :    0.100002
  94 H :    0.098370
  95 H :    0.001138
  96 H :    0.044941
  97 H :   -0.024748
  98 H :   -0.039842
  99 H :   -0.041042
 100 H :   -0.033217
 101 H :   -0.010779
 102 H :    0.003055
 103 H :    0.011642
 104 H :    0.014319
 105 H :    0.055300
 106 H :    0.003142
 107 H :    0.022605
 108 H :    0.043700
 109 H :    0.026651
 110 H :   -0.005752
 111 H :    0.000191
Sum of atomic charges:   -0.0000000

LOEWDIN ATOMIC CHARGES
----------------------
   0 C :    0.076274
   1 C :   -0.153964
   2 C :   -0.021253
   3 N :   -0.060899
   4 C :   -0.023789
   5 N :   -0.064231
   6 C :   -0.014745
   7 C :   -0.042069
   8 C :   -0.006831
   9 C :   -0.137299
  10 C :   -0.134273
  11 C :   -0.013830
  12 Cl:    0.154064
  13 Cl:    0.150024
  14 C :    0.073263
  15 O :   -0.160569
  16 C :   -0.140809
  17 C :    0.080516
  18 C :   -0.097800
  19 C :    0.053578
  20 C :   -0.052486
  21 C :   -0.089291
  22 C :    0.082612
  23 C :   -0.019148
  24 C :    0.072981
  25 C :   -0.064716
  26 C :    0.091544
  27 O :    0.072610
  28 C :   -0.024576
  29 C :   -0.023218
  30 C :   -0.019121
  31 C :   -0.037328
  32 C :   -0.040410
  33 C :    0.031132
  34 N :   -0.132743
  35 C :    0.027001
  36 N :   -0.103005
  37 C :   -0.015499
  38 C :    0.061767
  39 C :   -0.032000
  40 C :   -0.033404
  41 C :   -0.019509
  42 C :   -0.035829
  43 C :   -0.030760
  44 C :   -0.008635
  45 C :   -0.030688
  46 C :   -0.022244
  47 C :   -0.022669
  48 C :   -0.085412
  49 C :    0.035435
  50 C :   -0.054184
  51 C :   -0.103477
  52 C :    0.086346
  53 C :   -0.020554
  54 C :    0.043312
  55 C :   -0.069643
  56 C :    0.092117
  57 O :    0.077419
  58 C :    0.082733
  59 C :   -0.122876
  60 C :    0.075589
  61 C :   -0.145616
  62 C :   -0.020673
  63 N :   -0.054832
  64 C :   -0.023339
  65 N :   -0.057517
  66 C :   -0.014749
  67 C :   -0.042131
  68 C :    0.080851
  69 O :   -0.145566
  70 C :   -0.004153
  71 C :   -0.135396
  72 C :   -0.132579
  73 C :   -0.013168
  74 Cl:    0.157684
  75 Cl:    0.153971
  76 H :    0.041944
  77 H :    0.043708
  78 H :    0.043010
  79 H :    0.041128
  80 H :    0.039736
  81 H :    0.050791
  82 H :    0.040869
  83 H :    0.045900
  84 H :    0.037428
  85 H :    0.019991
  86 H :    0.020153
  87 H :   -0.004167
  88 H :    0.015936
  89 H :    0.034345
  90 H :    0.049709
  91 H :    0.002981
  92 H :    0.016012
  93 H :    0.055614
  94 H :    0.058036
  95 H :    0.031243
  96 H :    0.066145
  97 H :    0.019193
  98 H :    0.028234
  99 H :    0.025800
 100 H :    0.022482
 101 H :    0.019503
 102 H :    0.029667
 103 H :    0.030053
 104 H :    0.034549
 105 H :    0.045750
 106 H :    0.039645
 107 H :    0.045664
 108 H :    0.039409
 109 H :    0.044636
 110 H :    0.043410
 111 H :    0.044169

  Mayer bond orders larger than 0.100000
B(  0-C ,  1-C ) :   1.6190 B(  0-C ,  6-C ) :   0.9807 B(  0-C , 16-C ) :   1.1033
B(  1-C ,  2-C ) :   1.1422 B(  1-C ,  4-C ) :   1.1467 B(  2-C ,  3-N ) :   2.9716
B(  4-C ,  5-N ) :   2.9861 B(  6-C ,  7-C ) :   1.3322 B(  6-C , 11-C ) :   1.3473
B(  7-C ,  8-C ) :   1.3544 B(  7-C , 14-C ) :   0.9333 B(  8-C ,  9-C ) :   1.3301
B(  8-C , 76-H ) :   1.0172 B(  9-C , 10-C ) :   1.4223 B(  9-C , 13-Cl) :   1.0380
B( 10-C , 11-C ) :   1.3489 B( 10-C , 12-Cl) :   1.0665 B( 11-C , 77-H ) :   0.9880
B( 14-C , 15-O ) :   2.1923 B( 14-C , 16-C ) :   0.9889 B( 16-C , 17-C ) :   1.4310
B( 17-C , 18-C ) :   1.3063 B( 17-C , 78-H ) :   0.9361 B( 18-C , 19-C ) :   1.2850
B( 18-C , 23-C ) :   1.1016 B( 19-C , 20-C ) :   1.1265 B( 19-C , 21-C ) :   1.3816
B( 20-C , 79-H ) :   0.9316 B( 20-C , 80-H ) :   0.9364 B( 20-C , 81-H ) :   0.9233
B( 21-C , 22-C ) :   1.3556 B( 21-C , 28-C ) :   0.9239 B( 22-C , 23-C ) :   1.1365
B( 22-C , 27-O ) :   1.1728 B( 23-C , 24-C ) :   1.4762 B( 24-C , 25-C ) :   1.2431
B( 24-C , 82-H ) :   0.9770 B( 25-C , 26-C ) :   1.5653 B( 25-C , 83-H ) :   0.9678
B( 26-C , 27-O ) :   1.1780 B( 26-C , 84-H ) :   0.9821 B( 28-C , 29-C ) :   1.5738
B( 28-C , 45-C ) :   1.1429 B( 29-C , 30-C ) :   1.1152 B( 29-C , 85-H ) :   0.9919
B( 30-C , 31-C ) :   1.4834 B( 30-C , 43-C ) :   1.1237 B( 31-C , 32-C ) :   1.0234
B( 31-C , 37-C ) :   1.1128 B( 32-C , 33-C ) :   1.0306 B( 32-C , 35-C ) :   1.0474
B( 32-C , 86-H ) :   0.8764 B( 33-C , 34-N ) :   1.1071 B( 33-C , 87-H ) :   0.9246
B( 33-C , 88-H ) :   0.9463 B( 34-N , 89-H ) :   0.9424 B( 34-N , 90-H ) :   0.9664
B( 35-C , 36-N ) :   1.0798 B( 35-C , 91-H ) :   0.9465 B( 35-C , 92-H ) :   0.9330
B( 36-N , 89-H ) :   0.1027 B( 36-N , 93-H ) :   0.9638 B( 36-N , 94-H ) :   0.9672
B( 37-C , 38-C ) :   1.6462 B( 37-C , 42-C ) :   1.0534 B( 38-C , 39-C ) :   0.9748
B( 38-C , 95-H ) :   0.9720 B( 39-C , 40-C ) :   0.9859 B( 39-C , 46-C ) :   0.9556
B( 39-C , 96-H ) :   0.8378 B( 40-C , 41-C ) :   1.7310 B( 40-C , 97-H ) :   0.9669
B( 41-C , 42-C ) :   1.1331 B( 41-C , 98-H ) :   0.9860 B( 42-C , 43-C ) :   1.4367
B( 43-C , 44-C ) :   1.1433 B( 44-C , 45-C ) :   1.5999 B( 44-C , 99-H ) :   0.9910
B( 45-C ,100-H ) :   0.9860 B( 46-C , 47-C ) :   1.8743 B( 46-C ,101-H ) :   0.9712
B( 47-C , 48-C ) :   1.0388 B( 47-C ,102-H ) :   0.9419 B( 48-C , 49-C ) :   1.5443
B( 48-C , 53-C ) :   1.1276 B( 49-C , 50-C ) :   1.1379 B( 49-C , 51-C ) :   1.1473
B( 50-C ,103-H ) :   0.9361 B( 50-C ,104-H ) :   0.9362 B( 50-C ,105-H ) :   0.9141
B( 51-C , 52-C ) :   1.3535 B( 51-C , 58-C ) :   1.1992 B( 52-C , 53-C ) :   1.1056
B( 52-C , 57-O ) :   1.1829 B( 53-C , 54-C ) :   1.4724 B( 54-C , 55-C ) :   1.2378
B( 54-C ,106-H ) :   0.9827 B( 55-C , 56-C ) :   1.5607 B( 55-C ,107-H ) :   0.9685
B( 56-C , 57-O ) :   1.1790 B( 56-C ,108-H ) :   0.9817 B( 58-C , 59-C ) :   1.4974
B( 58-C ,109-H ) :   0.9435 B( 59-C , 60-C ) :   1.0843 B( 59-C , 68-C ) :   0.9783
B( 60-C , 61-C ) :   1.6282 B( 60-C , 66-C ) :   0.9891 B( 61-C , 62-C ) :   1.1411
B( 61-C , 64-C ) :   1.1463 B( 62-C , 63-N ) :   2.9713 B( 64-C , 65-N ) :   2.9859
B( 66-C , 67-C ) :   1.3318 B( 66-C , 73-C ) :   1.3427 B( 67-C , 68-C ) :   0.9287
B( 67-C , 70-C ) :   1.3490 B( 68-C , 69-O ) :   2.1963 B( 70-C , 71-C ) :   1.3378
B( 70-C ,110-H ) :   1.0163 B( 71-C , 72-C ) :   1.4153 B( 71-C , 75-Cl) :   1.0422
B( 72-C , 73-C ) :   1.3555 B( 72-C , 74-Cl) :   1.0709 B( 73-C ,111-H ) :   0.9866

-----------------------------------------------------------------------------
         ABSORPTION SPECTRUM VIA TRANSITION ELECTRIC DIPOLE MOMENTS
-----------------------------------------------------------------------------
State   Energy  Wavelength   fosc         T2         TX        TY        TZ
        (cm-1)    (nm)                  (au**2)     (au)      (au)      (au)
-----------------------------------------------------------------------------
   0   15516.1    644.5   0.041081085   0.87163  -0.41052  -0.83850   0.00533
   1   16811.9    594.8   0.111860013   2.19046  -1.40212  -0.35814  -0.31024
   2   18896.7    529.2   0.071724017   1.24955  -0.47219   1.00178  -0.15171
   3   20200.4    495.0   0.070039155   1.14145  -0.39302   0.98942  -0.08963
   4   20618.7    485.0   0.013950626   0.22274  -0.30030  -0.29263  -0.21664
   5   20842.0    479.8   0.565596821   8.93396  -2.73753  -0.76405  -0.92526
   6   21893.0    456.8   0.280265326   4.21444   0.94257  -1.72986   0.57756
   7   23077.2    433.3   0.174261317   2.48595   0.88750  -1.20617   0.49340
   8   23635.6    423.1   0.119621630   1.66617  -1.03349  -0.75132  -0.18324
   9   24835.1    402.7   0.289476232   3.83727   1.67092  -0.10708   1.01678
  10   25160.2    397.5   0.069823998   0.91362  -0.17603   0.88697   0.30970
  11   26294.1    380.3   0.014544282   0.18210   0.18098  -0.37954   0.07277
  12   26670.3    374.9   0.249410076   3.07866  -0.61860   1.26404  -1.04795
  13   26768.3    373.6   0.260057953   3.19834  -0.14951   1.69495   0.55058
  14   27170.4    368.0   0.013800759   0.16722  -0.14829  -0.01591  -0.38076
  15   28515.8    350.7   0.043441095   0.50152   0.41040   0.13030  -0.56225
  16   28714.4    348.3   0.003516515   0.04032   0.01946   0.10140   0.17221
  17   29753.4    336.1   0.163173117   1.80546  -0.87781  -0.11000  -1.01134
  18   30102.5    332.2   0.059956165   0.65570  -0.59842  -0.18117  -0.51457
  19   30243.1    330.7   0.010625743   0.11567   0.14983  -0.30096  -0.05142
  20   30687.9    325.9   0.000377365   0.00405   0.00185   0.01295   0.06227
  21   31215.0    320.4   0.126628916   1.33550   0.19139   0.59154   0.97414
  22   31626.5    316.2   0.065594669   0.68280  -0.81188  -0.05934   0.14186
  23   31972.2    312.8   0.203305781   2.09340   0.97013  -0.71577   0.79995
  24   32452.2    308.1   0.241543988   2.45035   0.22929  -1.53981  -0.16355
  25   32963.5    303.4   0.050861751   0.50796   0.07075   0.38591  -0.59500
  26   33090.1    302.2   0.070634317   0.70274  -0.18481  -0.43428   0.69280
  27   33199.5    301.2   0.221278340   2.19424  -0.21617  -1.22961  -0.79723
  28   33338.6    300.0   0.014104582   0.13928  -0.13000  -0.19682   0.28921
  29   33539.7    298.2   0.553485631   5.43279  -1.25844  -0.10417  -1.95915
  30   33690.6    296.8   0.003439165   0.03361   0.09102  -0.01087   0.15876
  31   33886.4    295.1   0.002492302   0.02421  -0.04401   0.02203  -0.14762
  32   34614.5    288.9   0.163172832   1.55190  -0.44055  -1.07688   0.44513
  33   34637.1    288.7   0.003492757   0.03320  -0.00182  -0.08561   0.16083
  34   34822.2    287.2   0.407141067   3.84915   0.59007  -1.61313   0.94804
  35   34948.8    286.1   0.450777036   4.24625   0.43631   0.92593   1.78844
  36   35163.6    284.4   0.195200716   1.82752  -0.83924  -0.68897  -0.80531
  37   35777.9    279.5   0.025857153   0.23793  -0.48291   0.01405  -0.06728
  38   35843.0    279.0   0.007054034   0.06479   0.23955  -0.00120  -0.08604
  39   35958.8    278.1   0.212430956   1.94486  -0.72355   0.30689  -1.15202
  40   36386.6    274.8   0.147577851   1.33523   0.28918  -0.96506   0.56593
  41   36478.2    274.1   0.029620076   0.26732  -0.07779  -0.44837  -0.24542
  42   36554.6    273.6   0.003058726   0.02755   0.10116  -0.00317  -0.13154
  43   36712.5    272.4   0.069062997   0.61931   0.45599   0.21180   0.60541
  44   36786.4    271.8   0.016068618   0.14380  -0.19301  -0.32164  -0.05562
  45   36837.3    271.5   0.085899712   0.76768   0.86953   0.10246   0.03316
  46   36856.5    271.3   0.000977892   0.00873   0.08561  -0.03738  -0.00290
  47   36987.6    270.4   0.000566941   0.00505   0.06081   0.03515  -0.01064
  48   37338.8    267.8   0.070341949   0.62020   0.45890   0.32806  -0.54953
  49   38366.8    260.6   0.044404609   0.38102  -0.02965   0.59688  -0.15450
  50   38758.3    258.0   0.092053235   0.78190  -0.21038   0.10124  -0.85287
  51   38875.3    257.2   0.000223405   0.00189   0.01968   0.02966  -0.02500
  52   39293.7    254.5   0.008753800   0.07334   0.13422   0.01899   0.23445
  53   39430.2    253.6   0.055704688   0.46509   0.38855  -0.40826   0.38399
  54   39500.3    253.2   0.026703330   0.22256  -0.42188  -0.13622  -0.16130
  55   39611.1    252.5   0.002191154   0.01821   0.12897  -0.03678  -0.01499
  56   39701.8    251.9   0.016973348   0.14074  -0.16652  -0.15278   0.29946
  57   39761.5    251.5   0.106959431   0.88559   0.28383  -0.19426   0.87595
  58   39868.0    250.8   0.025110825   0.20735   0.34750   0.28061  -0.08860
  59   40127.1    249.2   0.518698747   4.25553   1.75155   0.34128   1.03496
  60   40323.9    248.0   0.076097764   0.62128  -0.73610  -0.23864   0.14996

FINAL SINGLE POINT ENERGY     -4849.899594292372

DIPOLE MOMENT
-------------
                                X             Y             Z
Electronic contribution:     -8.84178     -36.16594     -50.75146
Nuclear contribution   :     11.44686      40.65164      49.21081
                        -----------------------------------------
Total Dipole Moment    :      2.60509       4.48570      -1.54065
                        -----------------------------------------
Magnitude (a.u.)       :      5.41124
Magnitude (Debye)      :     13.75429

Rotational constants in cm-1:     0.001446     0.000196     0.000182
Rotational constants in MHz :    43.349064     5.877722     5.466434

                             ****ORCA TERMINATED NORMALLY****
TOTAL RUN TIME: 0 days 0 hours 11 minutes 59 seconds 275 msec
