                         Program Version 4.2.0 -  RELEASE  -
|  1> # ORCA input file
|  2> # SCF done       -137.562438350941          0.000221943788
|  3> ! CAM-B3LYP def2-SVP def2/J RIJCOSX Grid4 TightSCF
|  4> %maxcore 5000
|  5> %tddft
|  6>     Mode sTDDFT
|  7>     Ethresh 5.0
|  8>     maxcore 5000
|  9> end
| 10>
| 11> %pal
| 12>   nprocs 6
| 13>   end
| 14> * xyz 0 1
| 15>    C       -6.24197         6.23263         1.90053
| 16>    C       -5.69846         7.22436         1.16323
| 17>    C       -4.26836         7.02677         0.97371
| 18>    C       -3.92348         5.88607         1.61006
| 19>    C       -5.17711         5.29994         2.24869
| 20>    O       -5.17432         4.27169         2.88887
| 21>    N       -2.78225         5.18015         1.80460
| 22>    C       -1.52727         5.43054         1.39045
| 23>    S       -1.14650         6.83255         0.44886
| 24>    C        0.52168         6.34281         0.42492
| 25>    N        1.41675         7.16609        -0.26767
| 26>    O        2.58675         6.83640        -0.29872
| 27>    O        0.94274         8.16102        -0.79147
| 28>    C        0.76445         5.18026         1.09913
| 29>    C       -0.40075         4.62170         1.66953
| 30>    C       -0.46100         3.41384         2.41700
| 31>    C        0.61395         2.64446         2.76144
| 32>    C        0.49801         1.45541         3.49057
| 33>    C        1.56103         0.66874         3.87713
| 34>    C        1.49863        -0.54135         4.60235
| 35>    C        2.71689        -1.10600         4.85164
| 36>    C        3.80121        -0.36764         4.33916
| 37>    S        3.23403         1.06426         3.52273
| 38>    C        5.15532        -0.67249         4.43857
| 39>    C        5.73592        -1.79702         5.05592
| 40>    C        7.10170        -1.82439         4.99463
| 41>    C        7.67081        -0.72123         4.33151
| 42>    S        6.39429         0.35635         3.77895
| 43>    C        8.97222        -0.33907         4.05686
| 44>    C       10.22443        -0.91139         4.31083
| 45>    C       11.37056        -0.15255         3.88783
| 46>    C       12.71880        -0.61135         4.06777
| 47>    N       13.72197         0.02977         3.45278
| 48>    C       13.48850         1.16136         2.84056
| 49>    C       12.17585         1.73219         2.85513
| 50>    N       11.16139         1.03987         3.32197
| 51>    C       11.94595         3.02568         2.32935
| 52>    N       11.79258         4.07495         1.89465
| 53>    C       14.53877         1.80088         2.13586
| 54>    N       15.35878         2.34699         1.55179
| 55>    C       13.01889        -1.78175         4.80732
| 56>    C       11.90341        -2.56491         5.17906
| 57>    C       10.53705        -2.15167         4.93749
| 58>    N        9.67766        -3.06024         5.38659
| 59>    S       10.48019        -4.29219         6.04523
| 60>    N       11.96736        -3.74222         5.79929
| 61>    C       14.34808        -2.13123         5.16685
| 62>    C       14.86785        -3.35371         5.45379
| 63>    C       16.26747        -3.21975         5.81256
| 64>    C       16.63323        -1.92629         5.78948
| 65>    C       15.44923        -1.11397         5.43087
| 66>    O       15.33684         0.08385         5.47480
| 67>    H       -7.26517         6.11525         2.19755
| 68>    H       -6.22218         8.06852         0.75170
| 69>    H       -3.64656         7.70057         0.41740
| 70>    H       -2.93996         4.34090         2.36313
| 71>    H        1.74862         4.75497         1.16531
| 72>    H       -1.43696         3.07486         2.74115
| 73>    H        1.61036         2.94902         2.47435
| 74>    H       -0.49046         1.11998         3.77721
| 75>    H        0.55923        -0.95938         4.91794
| 76>    H        2.85623        -2.02572         5.39012
| 77>    H        5.14341        -2.55971         5.52832
| 78>    H        7.71845        -2.60247         5.40326
| 79>    H        9.05708         0.61069         3.53913
| 80>    H       14.34742        -4.29093         5.39203
| 81>    H       16.89463        -4.06105         6.05043
| 82>    H       17.58866        -1.49627         6.01988
| 83> *
| 84>
| 85>                          ****END OF INPUT****

CARTESIAN COORDINATES (ANGSTROEM)
---------------------------------
  C     -6.241970    6.232630    1.900530
  C     -5.698460    7.224360    1.163230
  C     -4.268360    7.026770    0.973710
  C     -3.923480    5.886070    1.610060
  C     -5.177110    5.299940    2.248690
  O     -5.174320    4.271690    2.888870
  N     -2.782250    5.180150    1.804600
  C     -1.527270    5.430540    1.390450
  S     -1.146500    6.832550    0.448860
  C      0.521680    6.342810    0.424920
  N      1.416750    7.166090   -0.267670
  O      2.586750    6.836400   -0.298720
  O      0.942740    8.161020   -0.791470
  C      0.764450    5.180260    1.099130
  C     -0.400750    4.621700    1.669530
  C     -0.461000    3.413840    2.417000
  C      0.613950    2.644460    2.761440
  C      0.498010    1.455410    3.490570
  C      1.561030    0.668740    3.877130
  C      1.498630   -0.541350    4.602350
  C      2.716890   -1.106000    4.851640
  C      3.801210   -0.367640    4.339160
  S      3.234030    1.064260    3.522730
  C      5.155320   -0.672490    4.438570
  C      5.735920   -1.797020    5.055920
  C      7.101700   -1.824390    4.994630
  C      7.670810   -0.721230    4.331510
  S      6.394290    0.356350    3.778950
  C      8.972220   -0.339070    4.056860
  C     10.224430   -0.911390    4.310830
  C     11.370560   -0.152550    3.887830
  C     12.718800   -0.611350    4.067770
  N     13.721970    0.029770    3.452780
  C     13.488500    1.161360    2.840560
  C     12.175850    1.732190    2.855130
  N     11.161390    1.039870    3.321970
  C     11.945950    3.025680    2.329350
  N     11.792580    4.074950    1.894650
  C     14.538770    1.800880    2.135860
  N     15.358780    2.346990    1.551790
  C     13.018890   -1.781750    4.807320
  C     11.903410   -2.564910    5.179060
  C     10.537050   -2.151670    4.937490
  N      9.677660   -3.060240    5.386590
  S     10.480190   -4.292190    6.045230
  N     11.967360   -3.742220    5.799290
  C     14.348080   -2.131230    5.166850
  C     14.867850   -3.353710    5.453790
  C     16.267470   -3.219750    5.812560
  C     16.633230   -1.926290    5.789480
  C     15.449230   -1.113970    5.430870
  O     15.336840    0.083850    5.474800
  H     -7.265170    6.115250    2.197550
  H     -6.222180    8.068520    0.751700
  H     -3.646560    7.700570    0.417400
  H     -2.939960    4.340900    2.363130
  H      1.748620    4.754970    1.165310
  H     -1.436960    3.074860    2.741150
  H      1.610360    2.949020    2.474350
  H     -0.490460    1.119980    3.777210
  H      0.559230   -0.959380    4.917940
  H      2.856230   -2.025720    5.390120
  H      5.143410   -2.559710    5.528320
  H      7.718450   -2.602470    5.403260
  H      9.057080    0.610690    3.539130
  H     14.347420   -4.290930    5.392030
  H     16.894630   -4.061050    6.050430
  H     17.588660   -1.496270    6.019880

 Total Charge           Charge          ....    0
 Multiplicity           Mult            ....    1
 Number of Electrons    NEL             ....  384
 Basis Dimension        Dim             ....  824

ORBITAL ENERGIES
----------------

  NO   OCC          E(Eh)            E(eV)
   0   2.0000     -89.033002     -2422.7111
   1   2.0000     -88.994406     -2421.6609
   2   2.0000     -88.963877     -2420.8302
   3   2.0000     -88.955898     -2420.6130
   4   2.0000     -19.252305      -523.8819
   5   2.0000     -19.239674      -523.5381
   6   2.0000     -19.239505      -523.5335
   7   2.0000     -19.215579      -522.8825
   8   2.0000     -14.651530      -398.6884
   9   2.0000     -14.501615      -394.6090
  10   2.0000     -14.448506      -393.1638
  11   2.0000     -14.443516      -393.0281
  12   2.0000     -14.440729      -392.9522
  13   2.0000     -14.437031      -392.8516
  14   2.0000     -14.410246      -392.1227
  15   2.0000     -14.410065      -392.1178
  16   2.0000     -10.387770      -282.6656
  17   2.0000     -10.381113      -282.4845
  18   2.0000     -10.359038      -281.8838
  19   2.0000     -10.358429      -281.8672
  20   2.0000     -10.353742      -281.7396
  21   2.0000     -10.347625      -281.5732
  22   2.0000     -10.344438      -281.4865
  23   2.0000     -10.336332      -281.2659
  24   2.0000     -10.332446      -281.1602
  25   2.0000     -10.331403      -281.1318
  26   2.0000     -10.330993      -281.1206
  27   2.0000     -10.330528      -281.1080
  28   2.0000     -10.323538      -280.9178
  29   2.0000     -10.322179      -280.8808
  30   2.0000     -10.321023      -280.8493
  31   2.0000     -10.316318      -280.7213
  32   2.0000     -10.315867      -280.7090
  33   2.0000     -10.310909      -280.5741
  34   2.0000     -10.310075      -280.5514
  35   2.0000     -10.309653      -280.5399
  36   2.0000     -10.304717      -280.4056
  37   2.0000     -10.303983      -280.3856
  38   2.0000     -10.303802      -280.3807
  39   2.0000     -10.303580      -280.3747
  40   2.0000     -10.302695      -280.3506
  41   2.0000     -10.297991      -280.2226
  42   2.0000     -10.297454      -280.2080
  43   2.0000     -10.293927      -280.1120
  44   2.0000     -10.291673      -280.0507
  45   2.0000     -10.286341      -279.9056
  46   2.0000     -10.284975      -279.8684
  47   2.0000     -10.280553      -279.7481
  48   2.0000     -10.279331      -279.7148
  49   2.0000     -10.279107      -279.7087
  50   2.0000     -10.276722      -279.6438
  51   2.0000     -10.265032      -279.3257
  52   2.0000      -8.124561      -221.0806
  53   2.0000      -8.089511      -220.1268
  54   2.0000      -8.060101      -219.3265
  55   2.0000      -8.052430      -219.1178
  56   2.0000      -6.095757      -165.8740
  57   2.0000      -6.088028      -165.6637
  58   2.0000      -6.087023      -165.6363
  59   2.0000      -6.059222      -164.8798
  60   2.0000      -6.054717      -164.7572
  61   2.0000      -6.050971      -164.6553
  62   2.0000      -6.029721      -164.0770
  63   2.0000      -6.025758      -163.9692
  64   2.0000      -6.021993      -163.8668
  65   2.0000      -6.021176      -163.8445
  66   2.0000      -6.017945      -163.7566
  67   2.0000      -6.013620      -163.6389
  68   2.0000      -1.320859       -35.9424
  69   2.0000      -1.162749       -31.6400
  70   2.0000      -1.140297       -31.0291
  71   2.0000      -1.132025       -30.8040
  72   2.0000      -1.126649       -30.6577
  73   2.0000      -1.103643       -30.0317
  74   2.0000      -1.100962       -29.9587
  75   2.0000      -1.026371       -27.9290
  76   2.0000      -1.013043       -27.5663
  77   2.0000      -1.010414       -27.4948
  78   2.0000      -0.995075       -27.0774
  79   2.0000      -0.990080       -26.9414
  80   2.0000      -0.984829       -26.7986
  81   2.0000      -0.983610       -26.7654
  82   2.0000      -0.975425       -26.5427
  83   2.0000      -0.965313       -26.2675
  84   2.0000      -0.949056       -25.8251
  85   2.0000      -0.936395       -25.4806
  86   2.0000      -0.907874       -24.7045
  87   2.0000      -0.896481       -24.3945
  88   2.0000      -0.890950       -24.2440
  89   2.0000      -0.883977       -24.0542
  90   2.0000      -0.867506       -23.6060
  91   2.0000      -0.855728       -23.2855
  92   2.0000      -0.843224       -22.9453
  93   2.0000      -0.838987       -22.8300
  94   2.0000      -0.831710       -22.6320
  95   2.0000      -0.821301       -22.3487
  96   2.0000      -0.806131       -21.9359
  97   2.0000      -0.799543       -21.7567
  98   2.0000      -0.791427       -21.5358
  99   2.0000      -0.774507       -21.0754
 100   2.0000      -0.762349       -20.7446
 101   2.0000      -0.751842       -20.4587
 102   2.0000      -0.742956       -20.2169
 103   2.0000      -0.728005       -19.8100
 104   2.0000      -0.720815       -19.6144
 105   2.0000      -0.704451       -19.1691
 106   2.0000      -0.695898       -18.9363
 107   2.0000      -0.690483       -18.7890
 108   2.0000      -0.687739       -18.7143
 109   2.0000      -0.672937       -18.3115
 110   2.0000      -0.666648       -18.1404
 111   2.0000      -0.658151       -17.9092
 112   2.0000      -0.644643       -17.5416
 113   2.0000      -0.643433       -17.5087
 114   2.0000      -0.637542       -17.3484
 115   2.0000      -0.636538       -17.3211
 116   2.0000      -0.632903       -17.2222
 117   2.0000      -0.629395       -17.1267
 118   2.0000      -0.627089       -17.0640
 119   2.0000      -0.625998       -17.0343
 120   2.0000      -0.614417       -16.7191
 121   2.0000      -0.606163       -16.4945
 122   2.0000      -0.605753       -16.4834
 123   2.0000      -0.594983       -16.1903
 124   2.0000      -0.591989       -16.1088
 125   2.0000      -0.580996       -15.8097
 126   2.0000      -0.576366       -15.6837
 127   2.0000      -0.570542       -15.5252
 128   2.0000      -0.568006       -15.4562
 129   2.0000      -0.562924       -15.3179
 130   2.0000      -0.560947       -15.2642
 131   2.0000      -0.557663       -15.1748
 132   2.0000      -0.552884       -15.0447
 133   2.0000      -0.545253       -14.8371
 134   2.0000      -0.536669       -14.6035
 135   2.0000      -0.530455       -14.4344
 136   2.0000      -0.520619       -14.1668
 137   2.0000      -0.520092       -14.1524
 138   2.0000      -0.519354       -14.1324
 139   2.0000      -0.516970       -14.0675
 140   2.0000      -0.513036       -13.9604
 141   2.0000      -0.511224       -13.9111
 142   2.0000      -0.508070       -13.8253
 143   2.0000      -0.503896       -13.7117
 144   2.0000      -0.500684       -13.6243
 145   2.0000      -0.494160       -13.4468
 146   2.0000      -0.492033       -13.3889
 147   2.0000      -0.490079       -13.3357
 148   2.0000      -0.487765       -13.2728
 149   2.0000      -0.482778       -13.1370
 150   2.0000      -0.481974       -13.1152
 151   2.0000      -0.476990       -12.9796
 152   2.0000      -0.473509       -12.8848
 153   2.0000      -0.467455       -12.7201
 154   2.0000      -0.466256       -12.6875
 155   2.0000      -0.464463       -12.6387
 156   2.0000      -0.462365       -12.5816
 157   2.0000      -0.457006       -12.4358
 158   2.0000      -0.453349       -12.3363
 159   2.0000      -0.444100       -12.0846
 160   2.0000      -0.438083       -11.9209
 161   2.0000      -0.436619       -11.8810
 162   2.0000      -0.436118       -11.8674
 163   2.0000      -0.435768       -11.8578
 164   2.0000      -0.427043       -11.6204
 165   2.0000      -0.424137       -11.5414
 166   2.0000      -0.418533       -11.3889
 167   2.0000      -0.416064       -11.3217
 168   2.0000      -0.414614       -11.2822
 169   2.0000      -0.408135       -11.1059
 170   2.0000      -0.406608       -11.0644
 171   2.0000      -0.398771       -10.8511
 172   2.0000      -0.396576       -10.7914
 173   2.0000      -0.390517       -10.6265
 174   2.0000      -0.387145       -10.5347
 175   2.0000      -0.383907       -10.4466
 176   2.0000      -0.379255       -10.3201
 177   2.0000      -0.370343       -10.0775
 178   2.0000      -0.368499       -10.0274
 179   2.0000      -0.366356        -9.9691
 180   2.0000      -0.359821        -9.7912
 181   2.0000      -0.350060        -9.5256
 182   2.0000      -0.343342        -9.3428
 183   2.0000      -0.341247        -9.2858
 184   2.0000      -0.334484        -9.1018
 185   2.0000      -0.333397        -9.0722
 186   2.0000      -0.328244        -8.9320
 187   2.0000      -0.319838        -8.7032
 188   2.0000      -0.308371        -8.3912
 189   2.0000      -0.283309        -7.7092
 190   2.0000      -0.260598        -7.0912
 191   2.0000      -0.210155        -5.7186
 192   0.0000      -0.124102        -3.3770
 193   0.0000      -0.090903        -2.4736
 194   0.0000      -0.072516        -1.9733
 195   0.0000      -0.060420        -1.6441
 196   0.0000      -0.048328        -1.3151

MULLIKEN ATOMIC CHARGES
-----------------------
   0 C :   -0.059704
   1 C :    0.074352
   2 C :   -0.114898
   3 C :    0.002318
   4 C :    0.158570
   5 O :   -0.145702
   6 N :    0.039847
   7 C :   -0.095730
   8 S :    0.158356
   9 C :    0.002713
  10 N :    0.277244
  11 O :   -0.244399
  12 O :   -0.265765
  13 C :    0.009721
  14 C :    0.140268
  15 C :   -0.045358
  16 C :    0.003260
  17 C :    0.000465
  18 C :   -0.026801
  19 C :    0.043199
  20 C :    0.024526
  21 C :   -0.032247
  22 S :    0.097222
  23 C :   -0.044280
  24 C :    0.013643
  25 C :    0.043135
  26 C :   -0.055202
  27 S :    0.115490
  28 C :   -0.050307
  29 C :    0.109764
  30 C :   -0.051756
  31 C :   -0.077381
  32 N :    0.062075
  33 C :   -0.126880
  34 C :   -0.145387
  35 N :    0.038812
  36 C :   -0.201725
  37 N :    0.218691
  38 C :   -0.203017
  39 N :    0.221677
  40 C :    0.146603
  41 C :   -0.014138
  42 C :    0.038151
  43 N :   -0.301987
  44 S :    0.518457
  45 N :   -0.288361
  46 C :   -0.135954
  47 C :   -0.005249
  48 C :    0.063321
  49 C :   -0.027250
  50 C :    0.147382
  51 O :   -0.116546
  52 H :   -0.002871
  53 H :    0.016433
  54 H :    0.008717
  55 H :    0.138859
  56 H :    0.014856
  57 H :   -0.022354
  58 H :    0.004854
  59 H :   -0.009024
  60 H :   -0.006399
  61 H :   -0.006642
  62 H :   -0.015039
  63 H :   -0.011365
  64 H :    0.007401
  65 H :   -0.004350
  66 H :   -0.000075
  67 H :   -0.006239
Sum of atomic charges:   -0.0000000

LOEWDIN ATOMIC CHARGES
----------------------
   0 C :   -0.100685
   1 C :    0.063394
   2 C :   -0.100158
   3 C :   -0.012385
   4 C :    0.095214
   5 O :   -0.116391
   6 N :    0.067148
   7 C :   -0.095539
   8 S :    0.478453
   9 C :   -0.207755
  10 N :    0.273301
  11 O :   -0.211163
  12 O :   -0.232485
  13 C :    0.006923
  14 C :   -0.103070
  15 C :   -0.013775
  16 C :   -0.032395
  17 C :   -0.033480
  18 C :   -0.152943
  19 C :   -0.020861
  20 C :   -0.034562
  21 C :   -0.158170
  22 S :    0.392242
  23 C :   -0.189387
  24 C :   -0.022009
  25 C :   -0.039773
  26 C :   -0.118089
  27 S :    0.405725
  28 C :   -0.050793
  29 C :   -0.020549
  30 C :   -0.008912
  31 C :    0.003074
  32 N :    0.008990
  33 C :   -0.026889
  34 C :   -0.038868
  35 N :   -0.003272
  36 C :   -0.037433
  37 N :   -0.018345
  38 C :   -0.030960
  39 N :   -0.014041
  40 C :   -0.048926
  41 C :   -0.034481
  42 C :   -0.039835
  43 N :   -0.266990
  44 S :    0.642912
  45 N :   -0.287509
  46 C :   -0.055261
  47 C :    0.009188
  48 C :    0.017146
  49 C :   -0.055957
  50 C :    0.096543
  51 O :   -0.090642
  52 H :    0.032386
  53 H :    0.036485
  54 H :    0.020344
  55 H :    0.094966
  56 H :    0.046595
  57 H :    0.026533
  58 H :    0.024455
  59 H :    0.035849
  60 H :    0.036295
  61 H :    0.034518
  62 H :    0.031731
  63 H :    0.023108
  64 H :    0.034876
  65 H :    0.026039
  66 H :    0.029926
  67 H :    0.030376

  Mayer bond orders larger than 0.100000
B(  0-C ,  1-C ) :   1.6936 B(  0-C ,  4-C ) :   1.0388 B(  0-C , 52-H ) :   1.0216
B(  1-C ,  2-C ) :   1.0238 B(  1-C , 53-H ) :   0.9957 B(  2-C ,  3-C ) :   1.6452
B(  2-C , 54-H ) :   1.0163 B(  3-C ,  4-C ) :   0.9161 B(  3-C ,  6-N ) :   1.1980
B(  4-C ,  5-O ) :   2.1462 B(  6-N ,  7-C ) :   1.2484 B(  6-N , 55-H ) :   0.8661
B(  7-C ,  8-S ) :   1.1431 B(  7-C , 14-C ) :   1.3119 B(  8-S ,  9-C ) :   1.0669
B(  9-C , 10-N ) :   0.9715 B(  9-C , 13-C ) :   1.5048 B( 10-N , 11-O ) :   1.5353
B( 10-N , 12-O ) :   1.5061 B( 11-O , 12-O ) :   0.2587 B( 13-C , 14-C ) :   1.2246
B( 13-C , 56-H ) :   0.9989 B( 14-C , 15-C ) :   1.0826 B( 15-C , 16-C ) :   1.6416
B( 15-C , 57-H ) :   0.9807 B( 16-C , 17-C ) :   1.1721 B( 16-C , 58-H ) :   0.9717
B( 17-C , 18-C ) :   1.5261 B( 17-C , 59-H ) :   0.9856 B( 18-C , 19-C ) :   1.1623
B( 18-C , 22-S ) :   1.0332 B( 19-C , 20-C ) :   1.5546 B( 19-C , 60-H ) :   1.0006
B( 20-C , 21-C ) :   1.2225 B( 20-C , 61-H ) :   0.9942 B( 21-C , 22-S ) :   1.0763
B( 21-C , 23-C ) :   1.4191 B( 23-C , 24-C ) :   1.2331 B( 23-C , 27-S ) :   1.0639
B( 24-C , 25-C ) :   1.5172 B( 24-C , 62-H ) :   0.9947 B( 25-C , 26-C ) :   1.2275
B( 25-C , 63-H ) :   0.9651 B( 26-C , 27-S ) :   1.0867 B( 26-C , 28-C ) :   1.3885
B( 28-C , 29-C ) :   1.3813 B( 28-C , 64-H ) :   0.9107 B( 29-C , 30-C ) :   1.1798
B( 29-C , 40-C ) :   0.1113 B( 29-C , 42-C ) :   1.1224 B( 30-C , 31-C ) :   1.1102
B( 30-C , 35-N ) :   1.4745 B( 31-C , 32-N ) :   1.4379 B( 31-C , 40-C ) :   1.2616
B( 32-N , 33-C ) :   1.7222 B( 33-C , 34-C ) :   1.2073 B( 33-C , 38-C ) :   1.1480
B( 34-C , 35-N ) :   1.7060 B( 34-C , 36-C ) :   1.1473 B( 36-C , 37-N ) :   3.0479
B( 38-C , 39-N ) :   3.0533 B( 40-C , 41-C ) :   1.2175 B( 40-C , 46-C ) :   1.0949
B( 41-C , 42-C ) :   1.1035 B( 41-C , 45-N ) :   1.5327 B( 42-C , 43-N ) :   1.5127
B( 43-N , 44-S ) :   1.2522 B( 43-N , 45-N ) :   0.1418 B( 43-N , 63-H ) :   0.1043
B( 44-S , 45-N ) :   1.2567 B( 46-C , 47-C ) :   1.6970 B( 46-C , 50-C ) :   0.8999
B( 47-C , 48-C ) :   1.0059 B( 47-C , 65-H ) :   1.0024 B( 48-C , 49-C ) :   1.7100
B( 48-C , 66-H ) :   1.0002 B( 49-C , 50-C ) :   0.9881 B( 49-C , 67-H ) :   1.0140
B( 50-C , 51-O ) :   2.2026

-----------------------------------------------------------------------------
         ABSORPTION SPECTRUM VIA TRANSITION ELECTRIC DIPOLE MOMENTS
-----------------------------------------------------------------------------
State   Energy  Wavelength   fosc         T2         TX        TY        TZ
        (cm-1)    (nm)                  (au**2)     (au)      (au)      (au)
-----------------------------------------------------------------------------
   0    6240.9   1602.3   0.759030049  40.03965   5.97444  -1.89676   0.86491
   1   14650.7    682.6   0.389412690   8.75037   2.64673  -1.25854   0.40155
   2   16156.2    619.0   0.177650658   3.61994   1.40398  -1.15694   0.55702
   3   16703.0    598.7   0.082920252   1.63434   1.03131  -0.55385   0.51380
   4   17491.2    571.7   0.068633938   1.29180   0.66720  -0.88038   0.26753
   5   20504.0    487.7   0.041392534   0.66460  -0.76340   0.28312  -0.04064
   6   22379.5    446.8   0.037176961   0.54689  -0.29848   0.53744  -0.41104
   7   23266.8    429.8   0.290587921   4.11166  -0.89938  -1.47575   1.06063
   8   23352.5    428.2   0.003219348   0.04538   0.07431  -0.06593   0.18846
   9   23895.0    418.5   0.023813958   0.32809   0.04460  -0.51740   0.24167
  10   24120.9    414.6   0.044049325   0.60120  -0.66164   0.39255  -0.09665
  11   25935.8    385.6   0.049056191   0.62269  -0.75110  -0.19665  -0.14093
  12   26397.2    378.8   0.024903604   0.31058  -0.44396   0.32814  -0.07618
  13   27243.4    367.1   0.015850650   0.19154  -0.38184  -0.16060   0.14123
  14   27399.2    365.0   0.209949894   2.52263   0.59134   1.24527  -0.78882
  15   28108.2    355.8   0.003193645   0.03740  -0.18785  -0.04497   0.00981
  16   28882.4    346.2   0.020247939   0.23079  -0.45606   0.14426  -0.04461
  17   28937.8    345.6   0.001098450   0.01250   0.11039  -0.00749   0.01596
  18   29013.6    344.7   0.032389061   0.36751  -0.11702   0.55537  -0.21305
  19   29463.8    339.4   0.029256119   0.32689   0.18034  -0.39776   0.36899
  20   30737.2    325.3   0.748790985   8.01997  -1.03375  -2.25793   1.36127
  21   31363.7    318.8   0.029593235   0.31063  -0.54141   0.06879   0.11303
  22   31520.4    317.3   0.031177339   0.32563   0.54880  -0.14798  -0.05045
  23   32095.0    311.6   0.015399639   0.15796  -0.07545   0.36445  -0.13944
  24   32549.5    307.2   0.072932695   0.73766  -0.85179   0.10714  -0.02505
  25   33245.0    300.8   0.001874843   0.01857  -0.09888   0.08247  -0.04458
  26   33315.9    300.2   0.033723267   0.33324   0.56291  -0.06255  -0.11159
  27   34370.6    290.9   0.024040068   0.23026  -0.14846  -0.37048   0.26640
  28   35168.6    284.3   0.134097680   1.25528  -0.95236   0.55359  -0.20453
  29   35637.9    280.6   0.041339617   0.38188   0.25675   0.43771  -0.35266
  30   36228.0    276.0   0.009306431   0.08457  -0.04721   0.24929  -0.14211
  31   36306.0    275.4   0.019692541   0.17857   0.23527   0.30417  -0.17519
  32   36562.4    273.5   0.071990363   0.64821   0.55767   0.47341  -0.33630
  33   37187.0    268.9   0.040945951   0.36249   0.07583   0.45355  -0.38863
  34   37385.3    267.5   0.028982373   0.25522   0.41661   0.17302  -0.22741
  35   37506.2    266.6   0.046430561   0.40755  -0.31078  -0.48484   0.27549
  36   37564.4    266.2   0.001011017   0.00886   0.07178   0.06078  -0.00383
  37   37788.7    264.6   0.213409615   1.85921  -0.00722  -1.14935   0.73359
  38   38265.7    261.3   0.039442802   0.33934   0.26259  -0.47542   0.21063
  39   38514.6    259.6   0.005320436   0.04548   0.13391  -0.14092   0.08769
  40   38946.1    256.8   0.001865857   0.01577  -0.11857  -0.03686  -0.01885
  41   39285.5    254.5   0.096678459   0.81016  -0.67832   0.49520  -0.32376
  42   39884.8    250.7   0.025423216   0.20984  -0.31924   0.27270  -0.18320
  43   40283.5    248.2   0.095541860   0.78080  -0.26993  -0.73112   0.41642

FINAL SINGLE POINT ENERGY     -3709.721238680428

DIPOLE MOMENT
-------------
                                X             Y             Z
Electronic contribution:     32.21515      -0.31307      -3.31814
Nuclear contribution   :    -37.89085      -3.06918       5.35062
                        -----------------------------------------
Total Dipole Moment    :     -5.67570      -3.38225       2.03248
                        -----------------------------------------
Magnitude (a.u.)       :      6.91260
Magnitude (Debye)      :     17.57044

Rotational constants in cm-1:     0.003230     0.000410     0.000366
Rotational constants in MHz :    96.819406    12.293624    10.965578

                             ****ORCA TERMINATED NORMALLY****
TOTAL RUN TIME: 0 days 0 hours 5 minutes 50 seconds 842 msec
