                         Program Version 4.2.0 -  RELEASE  -
|  1> # ORCA input file
|  2> # SCF done       -192.385448994964          0.000606002850
|  3> ! CAM-B3LYP def2-SVP def2/J RIJCOSX Grid4 TightSCF
|  4> %maxcore 5000
|  5> %tddft
|  6>     Mode sTDDFT
|  7>     Ethresh 5.0
|  8>     maxcore 5000
|  9> end
| 10>
| 11> %pal
| 12>   nprocs 6
| 13>   end
| 14> * xyz 0 1
| 15>    C      -16.50499       -12.14338        -1.18474
| 16>    C      -15.55094       -11.93108        -0.21510
| 17>    C      -14.89760       -12.96121         0.48909
| 18>    N      -14.32699       -13.75105         1.09799
| 19>    C      -15.08813       -10.67605         0.22657
| 20>    N      -14.65178        -9.69967         0.64851
| 21>    C      -16.97718       -13.45544        -1.62421
| 22>    C      -17.97714       -13.27072        -2.60963
| 23>    C      -18.61211       -14.31918        -3.22736
| 24>    C      -18.23996       -15.61688        -2.85816
| 25>    C      -17.24049       -15.79186        -1.87368
| 26>    C      -16.60029       -14.72945        -1.24585
| 27>    S      -16.92784       -17.47493        -1.57200
| 28>    C      -18.12765       -17.91346        -2.75881
| 29>    C      -18.73319       -16.85677        -3.34994
| 30>   Br      -18.46593       -19.72590        -3.10633
| 31>    C      -18.17502       -11.82293        -2.83622
| 32>    O      -18.96438       -11.31840        -3.61149
| 33>    C      -17.21850       -11.14655        -1.93960
| 34>    C      -17.02982        -9.77972        -1.88118
| 35>    C      -17.72016        -8.83973        -2.63784
| 36>    C      -17.44161        -7.48624        -2.57762
| 37>    C      -18.05444        -6.45813        -3.32682
| 38>    C      -17.54046        -5.21434        -3.09251
| 39>    C      -16.50025        -5.20411        -2.14203
| 40>    S      -16.20135        -6.81794        -1.54129
| 41>    C      -15.74047        -4.12783        -1.70884
| 42>    C      -15.79004        -2.78729        -2.14444
| 43>    C      -14.85688        -1.98544        -1.55621
| 44>    C      -14.02662        -2.64533        -0.61786
| 45>    S      -14.49520        -4.33034        -0.50421
| 46>    C      -12.97755        -2.06535         0.05824
| 47>    C      -12.12740        -2.65753         1.00042
| 48>    S      -10.71003        -1.74105         1.52409
| 49>    C      -10.21953        -3.03210         2.55256
| 50>    C      -11.13813        -4.10049         2.50004
| 51>    C      -12.19555        -3.89781         1.62966
| 52>    S      -10.69417        -5.42191         3.54564
| 53>    C       -9.26441        -4.55020         4.03144
| 54>    C       -8.21004        -4.84505         4.87662
| 55>    C       -7.25209        -3.83124         4.90433
| 56>    S       -7.70789        -2.47747         3.87432
| 57>    C       -9.15577        -3.29093         3.40677
| 58>    C       -6.05004        -3.87866         5.61860
| 59>    C       -5.00708        -2.98351         5.58510
| 60>    C       -3.77407        -3.13263         6.26647
| 61>    C       -2.86326        -2.15691         5.99405
| 62>    C       -3.33269        -1.17714         5.09515
| 63>    S       -4.98069        -1.52024         4.62006
| 64>    C       -2.63864        -0.09527         4.58253
| 65>    C       -3.11620         0.88201         3.68727
| 66>    C       -2.17397         1.79821         3.32120
| 67>    C       -0.90391         1.57939         3.89997
| 68>    S       -0.95482         0.19430         4.96373
| 69>    C        0.23931         2.32021         3.66675
| 70>    C        1.48426         2.00585         4.19850
| 71>    C        2.67927         2.66731         4.01124
| 72>    C        2.98931         3.96076         3.46839
| 73>    C        2.18320         5.07637         3.46488
| 74>    C        2.57164         6.32454         2.94193
| 75>    N        2.82618         7.35808         2.50950
| 76>    C        0.91739         5.14411         4.07876
| 77>    N       -0.09782         5.27467         4.60027
| 78>    C        4.40726         3.95308         3.10653
| 79>    C        4.99467         2.76355         3.60486
| 80>    C        3.94712         1.94206         4.24886
| 81>    O        4.08507         0.87720         4.81199
| 82>    C        6.32806         2.47732         3.44920
| 83>    C        7.11811         3.40298         2.75760
| 84>    C        6.51964         4.58065         2.25350
| 85>    C        5.17088         4.87564         2.41982
| 86>    S        7.67329         5.57758         1.41959
| 87>    C        8.92789         4.41483         1.75834
| 88>    C        8.50691         3.33539         2.45834
| 89>   Br       10.67420         4.73474         1.15183
| 90>    H      -19.36993       -14.14542        -3.97518
| 91>    H      -15.84350       -14.91719        -0.50291
| 92>    H      -19.49508       -16.94526        -4.10276
| 93>    H      -16.27273        -9.39768        -1.20715
| 94>    H      -18.49310        -9.17233        -3.31537
| 95>    H      -18.84898        -6.66913        -4.02012
| 96>    H      -17.88160        -4.31712        -3.57698
| 97>    H      -16.49532        -2.45393        -2.88387
| 98>    H      -14.73444        -0.93844        -1.77024
| 99>    H      -12.76626        -1.03244        -0.18799
|100>    H      -12.98533        -4.60746         1.47393
|101>    H       -8.11330        -5.75502         5.43921
|102>    H       -5.91265        -4.75333         6.24193
|103>    H       -3.59699        -3.96595         6.92289
|104>    H       -1.86892        -2.10874         6.40174
|105>    H       -4.13566         0.87262         3.34261
|106>    H       -2.34782         2.62085         2.65113
|107>    H        0.13772         3.15476         2.98862
|108>    H        1.56739         1.07247         4.74824
|109>    H        6.75043         1.56721         3.84527
|110>    H        4.75923         5.78432         2.01296
|111>    H        9.14661         2.52311         2.75167
|112> *
|113>
|114>                          ****END OF INPUT****

CARTESIAN COORDINATES (ANGSTROEM)
---------------------------------
  C    -16.504990  -12.143380   -1.184740
  C    -15.550940  -11.931080   -0.215100
  C    -14.897600  -12.961210    0.489090
  N    -14.326990  -13.751050    1.097990
  C    -15.088130  -10.676050    0.226570
  N    -14.651780   -9.699670    0.648510
  C    -16.977180  -13.455440   -1.624210
  C    -17.977140  -13.270720   -2.609630
  C    -18.612110  -14.319180   -3.227360
  C    -18.239960  -15.616880   -2.858160
  C    -17.240490  -15.791860   -1.873680
  C    -16.600290  -14.729450   -1.245850
  S    -16.927840  -17.474930   -1.572000
  C    -18.127650  -17.913460   -2.758810
  C    -18.733190  -16.856770   -3.349940
  Br   -18.465930  -19.725900   -3.106330
  C    -18.175020  -11.822930   -2.836220
  O    -18.964380  -11.318400   -3.611490
  C    -17.218500  -11.146550   -1.939600
  C    -17.029820   -9.779720   -1.881180
  C    -17.720160   -8.839730   -2.637840
  C    -17.441610   -7.486240   -2.577620
  C    -18.054440   -6.458130   -3.326820
  C    -17.540460   -5.214340   -3.092510
  C    -16.500250   -5.204110   -2.142030
  S    -16.201350   -6.817940   -1.541290
  C    -15.740470   -4.127830   -1.708840
  C    -15.790040   -2.787290   -2.144440
  C    -14.856880   -1.985440   -1.556210
  C    -14.026620   -2.645330   -0.617860
  S    -14.495200   -4.330340   -0.504210
  C    -12.977550   -2.065350    0.058240
  C    -12.127400   -2.657530    1.000420
  S    -10.710030   -1.741050    1.524090
  C    -10.219530   -3.032100    2.552560
  C    -11.138130   -4.100490    2.500040
  C    -12.195550   -3.897810    1.629660
  S    -10.694170   -5.421910    3.545640
  C     -9.264410   -4.550200    4.031440
  C     -8.210040   -4.845050    4.876620
  C     -7.252090   -3.831240    4.904330
  S     -7.707890   -2.477470    3.874320
  C     -9.155770   -3.290930    3.406770
  C     -6.050040   -3.878660    5.618600
  C     -5.007080   -2.983510    5.585100
  C     -3.774070   -3.132630    6.266470
  C     -2.863260   -2.156910    5.994050
  C     -3.332690   -1.177140    5.095150
  S     -4.980690   -1.520240    4.620060
  C     -2.638640   -0.095270    4.582530
  C     -3.116200    0.882010    3.687270
  C     -2.173970    1.798210    3.321200
  C     -0.903910    1.579390    3.899970
  S     -0.954820    0.194300    4.963730
  C      0.239310    2.320210    3.666750
  C      1.484260    2.005850    4.198500
  C      2.679270    2.667310    4.011240
  C      2.989310    3.960760    3.468390
  C      2.183200    5.076370    3.464880
  C      2.571640    6.324540    2.941930
  N      2.826180    7.358080    2.509500
  C      0.917390    5.144110    4.078760
  N     -0.097820    5.274670    4.600270
  C      4.407260    3.953080    3.106530
  C      4.994670    2.763550    3.604860
  C      3.947120    1.942060    4.248860
  O      4.085070    0.877200    4.811990
  C      6.328060    2.477320    3.449200
  C      7.118110    3.402980    2.757600
  C      6.519640    4.580650    2.253500
  C      5.170880    4.875640    2.419820
  S      7.673290    5.577580    1.419590
  C      8.927890    4.414830    1.758340
  C      8.506910    3.335390    2.458340
  Br    10.674200    4.734740    1.151830
  H    -19.369930  -14.145420   -3.975180
  H    -15.843500  -14.917190   -0.502910
  H    -19.495080  -16.945260   -4.102760
  H    -16.272730   -9.397680   -1.207150
  H    -18.493100   -9.172330   -3.315370
  H    -18.848980   -6.669130   -4.020120
  H    -17.881600   -4.317120   -3.576980
  H    -16.495320   -2.453930   -2.883870
  H    -14.734440   -0.938440   -1.770240
  H    -12.766260   -1.032440   -0.187990
  H    -12.985330   -4.607460    1.473930
  H     -8.113300   -5.755020    5.439210
  H     -5.912650   -4.753330    6.241930
  H     -3.596990   -3.965950    6.922890
  H     -1.868920   -2.108740    6.401740
  H     -4.135660    0.872620    3.342610
  H     -2.347820    2.620850    2.651130
  H      0.137720    3.154760    2.988620
  H      1.567390    1.072470    4.748240
  H      6.750430    1.567210    3.845270
  H      4.759230    5.784320    2.012960
  H      9.146610    2.523110    2.751670

 Total Charge           Charge          ....    0
 Multiplicity           Mult            ....    1
 Number of Electrons    NEL             ....  628
 Basis Dimension        Dim             .... 1232

ORBITAL ENERGIES
----------------

  NO   OCC          E(Eh)            E(eV)
   0   2.0000    -482.879092    -13139.8081
   1   2.0000    -482.877916    -13139.7761
   2   2.0000     -88.980376     -2421.2791
   3   2.0000     -88.978348     -2421.2240
   4   2.0000     -88.973050     -2421.0798
   5   2.0000     -88.970386     -2421.0073
   6   2.0000     -88.969530     -2420.9840
   7   2.0000     -88.967035     -2420.9161
   8   2.0000     -88.966028     -2420.8887
   9   2.0000     -88.963251     -2420.8131
  10   2.0000     -88.962145     -2420.7830
  11   2.0000     -62.556782     -1702.2566
  12   2.0000     -62.555622     -1702.2250
  13   2.0000     -56.390723     -1534.4696
  14   2.0000     -56.389561     -1534.4380
  15   2.0000     -56.388025     -1534.3962
  16   2.0000     -56.387992     -1534.3953
  17   2.0000     -56.386868     -1534.3647
  18   2.0000     -56.386829     -1534.3636
  19   2.0000     -19.202853      -522.5362
  20   2.0000     -19.198899      -522.4286
  21   2.0000     -14.404422      -391.9642
  22   2.0000     -14.402103      -391.9011
  23   2.0000     -14.401188      -391.8763
  24   2.0000     -14.399748      -391.8371
  25   2.0000     -10.353060      -281.7211
  26   2.0000     -10.350592      -281.6539
  27   2.0000     -10.349857      -281.6339
  28   2.0000     -10.349282      -281.6183
  29   2.0000     -10.339237      -281.3449
  30   2.0000     -10.337490      -281.2974
  31   2.0000     -10.330349      -281.1031
  32   2.0000     -10.329519      -281.0805
  33   2.0000     -10.329419      -281.0778
  34   2.0000     -10.329416      -281.0777
  35   2.0000     -10.329139      -281.0702
  36   2.0000     -10.328455      -281.0515
  37   2.0000     -10.327486      -281.0252
  38   2.0000     -10.326905      -281.0094
  39   2.0000     -10.326847      -281.0078
  40   2.0000     -10.326322      -280.9935
  41   2.0000     -10.326307      -280.9931
  42   2.0000     -10.326221      -280.9907
  43   2.0000     -10.325676      -280.9759
  44   2.0000     -10.324963      -280.9565
  45   2.0000     -10.322345      -280.8853
  46   2.0000     -10.321998      -280.8758
  47   2.0000     -10.315994      -280.7125
  48   2.0000     -10.315427      -280.6970
  49   2.0000     -10.314751      -280.6786
  50   2.0000     -10.314337      -280.6674
  51   2.0000     -10.310372      -280.5595
  52   2.0000     -10.310331      -280.5584
  53   2.0000     -10.308930      -280.5202
  54   2.0000     -10.308422      -280.5064
  55   2.0000     -10.306216      -280.4464
  56   2.0000     -10.306082      -280.4428
  57   2.0000     -10.305731      -280.4332
  58   2.0000     -10.305613      -280.4300
  59   2.0000     -10.304753      -280.4066
  60   2.0000     -10.303909      -280.3836
  61   2.0000     -10.303792      -280.3804
  62   2.0000     -10.303186      -280.3640
  63   2.0000     -10.300779      -280.2984
  64   2.0000     -10.300479      -280.2903
  65   2.0000     -10.297362      -280.2055
  66   2.0000     -10.296724      -280.1881
  67   2.0000     -10.296395      -280.1791
  68   2.0000     -10.296340      -280.1777
  69   2.0000     -10.296159      -280.1727
  70   2.0000     -10.296082      -280.1706
  71   2.0000     -10.294220      -280.1200
  72   2.0000     -10.293511      -280.1007
  73   2.0000     -10.290234      -280.0115
  74   2.0000     -10.289581      -279.9937
  75   2.0000     -10.288812      -279.9728
  76   2.0000     -10.287671      -279.9418
  77   2.0000     -10.283130      -279.8182
  78   2.0000     -10.280219      -279.7390
  79   2.0000     -10.279794      -279.7274
  80   2.0000     -10.279654      -279.7236
  81   2.0000     -10.278171      -279.6833
  82   2.0000     -10.277187      -279.6565
  83   2.0000      -8.786189      -239.0844
  84   2.0000      -8.785044      -239.0532
  85   2.0000      -8.075213      -219.7377
  86   2.0000      -8.073691      -219.6963
  87   2.0000      -8.068309      -219.5498
  88   2.0000      -8.066376      -219.4973
  89   2.0000      -8.065540      -219.4745
  90   2.0000      -8.063002      -219.4054
  91   2.0000      -8.061987      -219.3778
  92   2.0000      -8.059352      -219.3061
  93   2.0000      -8.058206      -219.2749
  94   2.0000      -6.622437      -180.2057
  95   2.0000      -6.621283      -180.1743
  96   2.0000      -6.607953      -179.8115
  97   2.0000      -6.607750      -179.8060
  98   2.0000      -6.606797      -179.7801
  99   2.0000      -6.606631      -179.7756
 100   2.0000      -6.044860      -164.4890
 101   2.0000      -6.043241      -164.4450
 102   2.0000      -6.040655      -164.3746
 103   2.0000      -6.039240      -164.3361
 104   2.0000      -6.038073      -164.3043
 105   2.0000      -6.036699      -164.2669
 106   2.0000      -6.036078      -164.2500
 107   2.0000      -6.035333      -164.2297
 108   2.0000      -6.035133      -164.2243
 109   2.0000      -6.034208      -164.1992
 110   2.0000      -6.032669      -164.1573
 111   2.0000      -6.031893      -164.1362
 112   2.0000      -6.031685      -164.1305
 113   2.0000      -6.031215      -164.1177
 114   2.0000      -6.029149      -164.0615
 115   2.0000      -6.028996      -164.0573
 116   2.0000      -6.028441      -164.0422
 117   2.0000      -6.027802      -164.0248
 118   2.0000      -6.027486      -164.0162
 119   2.0000      -6.027420      -164.0144
 120   2.0000      -6.026414      -163.9871
 121   2.0000      -6.025032      -163.9495
 122   2.0000      -6.024237      -163.9278
 123   2.0000      -6.023752      -163.9146
 124   2.0000      -6.023215      -163.9000
 125   2.0000      -6.020383      -163.8229
 126   2.0000      -6.019388      -163.7959
 127   2.0000      -2.738343       -74.5141
 128   2.0000      -2.737181       -74.4825
 129   2.0000      -2.734208       -74.4016
 130   2.0000      -2.734134       -74.3996
 131   2.0000      -2.733086       -74.3710
 132   2.0000      -2.732968       -74.3678
 133   2.0000      -2.722583       -74.0852
 134   2.0000      -2.722582       -74.0852
 135   2.0000      -2.721444       -74.0543
 136   2.0000      -2.721438       -74.0541
 137   2.0000      -1.116203       -30.3734
 138   2.0000      -1.113313       -30.2948
 139   2.0000      -1.036199       -28.1964
 140   2.0000      -1.017615       -27.6907
 141   2.0000      -1.016372       -27.6569
 142   2.0000      -1.011888       -27.5349
 143   2.0000      -1.010978       -27.5101
 144   2.0000      -1.002134       -27.2694
 145   2.0000      -1.000689       -27.2301
 146   2.0000      -0.999602       -27.2006
 147   2.0000      -0.993856       -27.0442
 148   2.0000      -0.989358       -26.9218
 149   2.0000      -0.982034       -26.7225
 150   2.0000      -0.979849       -26.6630
 151   2.0000      -0.977222       -26.5916
 152   2.0000      -0.976246       -26.5650
 153   2.0000      -0.948249       -25.8032
 154   2.0000      -0.933244       -25.3949
 155   2.0000      -0.932360       -25.3708
 156   2.0000      -0.916124       -24.9290
 157   2.0000      -0.913351       -24.8535
 158   2.0000      -0.899857       -24.4863
 159   2.0000      -0.899189       -24.4682
 160   2.0000      -0.897154       -24.4128
 161   2.0000      -0.896264       -24.3886
 162   2.0000      -0.880576       -23.9617
 163   2.0000      -0.875561       -23.8252
 164   2.0000      -0.874706       -23.8020
 165   2.0000      -0.873684       -23.7742
 166   2.0000      -0.867106       -23.5952
 167   2.0000      -0.865294       -23.5459
 168   2.0000      -0.860382       -23.4122
 169   2.0000      -0.853685       -23.2300
 170   2.0000      -0.850960       -23.1558
 171   2.0000      -0.841503       -22.8985
 172   2.0000      -0.841124       -22.8882
 173   2.0000      -0.833363       -22.6770
 174   2.0000      -0.819513       -22.3001
 175   2.0000      -0.818370       -22.2690
 176   2.0000      -0.814628       -22.1672
 177   2.0000      -0.807361       -21.9694
 178   2.0000      -0.797065       -21.6892
 179   2.0000      -0.782575       -21.2950
 180   2.0000      -0.771739       -21.0001
 181   2.0000      -0.755803       -20.5664
 182   2.0000      -0.748815       -20.3763
 183   2.0000      -0.746117       -20.3029
 184   2.0000      -0.736726       -20.0473
 185   2.0000      -0.726898       -19.7799
 186   2.0000      -0.711133       -19.3509
 187   2.0000      -0.700419       -19.0594
 188   2.0000      -0.690699       -18.7949
 189   2.0000      -0.687131       -18.6978
 190   2.0000      -0.682668       -18.5763
 191   2.0000      -0.679296       -18.4846
 192   2.0000      -0.675921       -18.3927
 193   2.0000      -0.674193       -18.3457
 194   2.0000      -0.663679       -18.0596
 195   2.0000      -0.659211       -17.9380
 196   2.0000      -0.655038       -17.8245
 197   2.0000      -0.651718       -17.7341
 198   2.0000      -0.647554       -17.6208
 199   2.0000      -0.645718       -17.5709
 200   2.0000      -0.643496       -17.5104
 201   2.0000      -0.637361       -17.3435
 202   2.0000      -0.637145       -17.3376
 203   2.0000      -0.633714       -17.2442
 204   2.0000      -0.629194       -17.1212
 205   2.0000      -0.622382       -16.9359
 206   2.0000      -0.614855       -16.7310
 207   2.0000      -0.612634       -16.6706
 208   2.0000      -0.611054       -16.6276
 209   2.0000      -0.605897       -16.4873
 210   2.0000      -0.590133       -16.0583
 211   2.0000      -0.589627       -16.0446
 212   2.0000      -0.584909       -15.9162
 213   2.0000      -0.584658       -15.9094
 214   2.0000      -0.579881       -15.7794
 215   2.0000      -0.579346       -15.7648
 216   2.0000      -0.565828       -15.3970
 217   2.0000      -0.560386       -15.2489
 218   2.0000      -0.554214       -15.0809
 219   2.0000      -0.546794       -14.8790
 220   2.0000      -0.544316       -14.8116
 221   2.0000      -0.537683       -14.6311
 222   2.0000      -0.536735       -14.6053
 223   2.0000      -0.535028       -14.5588
 224   2.0000      -0.534624       -14.5479
 225   2.0000      -0.531250       -14.4561
 226   2.0000      -0.528060       -14.3692
 227   2.0000      -0.526098       -14.3159
 228   2.0000      -0.524687       -14.2775
 229   2.0000      -0.522848       -14.2274
 230   2.0000      -0.520995       -14.1770
 231   2.0000      -0.518598       -14.1118
 232   2.0000      -0.517523       -14.0825
 233   2.0000      -0.516028       -14.0418
 234   2.0000      -0.513841       -13.9823
 235   2.0000      -0.510417       -13.8892
 236   2.0000      -0.506010       -13.7692
 237   2.0000      -0.502952       -13.6860
 238   2.0000      -0.499425       -13.5900
 239   2.0000      -0.499268       -13.5858
 240   2.0000      -0.498028       -13.5520
 241   2.0000      -0.496634       -13.5141
 242   2.0000      -0.495360       -13.4794
 243   2.0000      -0.494349       -13.4519
 244   2.0000      -0.488666       -13.2973
 245   2.0000      -0.487152       -13.2561
 246   2.0000      -0.486149       -13.2288
 247   2.0000      -0.485226       -13.2037
 248   2.0000      -0.484335       -13.1794
 249   2.0000      -0.482645       -13.1334
 250   2.0000      -0.481346       -13.0981
 251   2.0000      -0.480173       -13.0662
 252   2.0000      -0.478407       -13.0181
 253   2.0000      -0.475977       -12.9520
 254   2.0000      -0.473459       -12.8835
 255   2.0000      -0.469914       -12.7870
 256   2.0000      -0.463728       -12.6187
 257   2.0000      -0.461518       -12.5585
 258   2.0000      -0.458871       -12.4865
 259   2.0000      -0.453975       -12.3533
 260   2.0000      -0.451672       -12.2906
 261   2.0000      -0.448826       -12.2132
 262   2.0000      -0.448372       -12.2008
 263   2.0000      -0.445506       -12.1228
 264   2.0000      -0.441904       -12.0248
 265   2.0000      -0.439758       -11.9664
 266   2.0000      -0.437697       -11.9103
 267   2.0000      -0.437334       -11.9005
 268   2.0000      -0.436358       -11.8739
 269   2.0000      -0.435017       -11.8374
 270   2.0000      -0.432391       -11.7659
 271   2.0000      -0.431663       -11.7461
 272   2.0000      -0.430142       -11.7048
 273   2.0000      -0.429391       -11.6843
 274   2.0000      -0.429127       -11.6771
 275   2.0000      -0.424482       -11.5507
 276   2.0000      -0.422280       -11.4908
 277   2.0000      -0.416523       -11.3342
 278   2.0000      -0.415401       -11.3036
 279   2.0000      -0.414645       -11.2831
 280   2.0000      -0.412180       -11.2160
 281   2.0000      -0.411939       -11.2094
 282   2.0000      -0.411207       -11.1895
 283   2.0000      -0.408298       -11.1104
 284   2.0000      -0.401991       -10.9387
 285   2.0000      -0.399473       -10.8702
 286   2.0000      -0.396380       -10.7861
 287   2.0000      -0.395861       -10.7719
 288   2.0000      -0.388780       -10.5793
 289   2.0000      -0.380993       -10.3673
 290   2.0000      -0.377327       -10.2676
 291   2.0000      -0.373878       -10.1737
 292   2.0000      -0.368587       -10.0298
 293   2.0000      -0.367453        -9.9989
 294   2.0000      -0.363744        -9.8980
 295   2.0000      -0.358902        -9.7662
 296   2.0000      -0.356500        -9.7009
 297   2.0000      -0.351522        -9.5654
 298   2.0000      -0.348666        -9.4877
 299   2.0000      -0.345246        -9.3946
 300   2.0000      -0.341141        -9.2829
 301   2.0000      -0.336952        -9.1689
 302   2.0000      -0.325650        -8.8614
 303   2.0000      -0.323191        -8.7945
 304   2.0000      -0.318469        -8.6660
 305   2.0000      -0.305837        -8.3223
 306   2.0000      -0.304560        -8.2875
 307   2.0000      -0.301470        -8.2034
 308   2.0000      -0.299955        -8.1622
 309   2.0000      -0.284940        -7.7536
 310   2.0000      -0.283482        -7.7139
 311   2.0000      -0.275352        -7.4927
 312   2.0000      -0.236995        -6.4490
 313   2.0000      -0.218722        -5.9517
 314   0.0000      -0.122797        -3.3415
 315   0.0000      -0.105154        -2.8614
 316   0.0000      -0.067018        -1.8236
 317   0.0000      -0.058634        -1.5955
 318   0.0000      -0.047422        -1.2904

MULLIKEN ATOMIC CHARGES
-----------------------
   0 C :    0.327091
   1 C :   -0.364883
   2 C :   -0.193229
   3 N :    0.139618
   4 C :   -0.189486
   5 N :    0.130704
   6 C :    0.014160
   7 C :   -0.008263
   8 C :   -0.076980
   9 C :    0.117823
  10 C :   -0.092180
  11 C :   -0.026187
  12 S :    0.179325
  13 C :   -0.122815
  14 C :    0.035756
  15 Br:    0.015822
  16 C :    0.134613
  17 O :   -0.164990
  18 C :   -0.085162
  19 C :   -0.043205
  20 C :   -0.022707
  21 C :    0.004863
  22 C :    0.025360
  23 C :    0.043668
  24 C :   -0.048927
  25 S :    0.105735
  26 C :   -0.023474
  27 C :    0.024958
  28 C :    0.046156
  29 C :   -0.044691
  30 S :    0.090665
  31 C :    0.055605
  32 C :   -0.104567
  33 S :    0.153529
  34 C :   -0.065503
  35 C :   -0.040278
  36 C :   -0.023684
  37 S :    0.181787
  38 C :   -0.001564
  39 C :   -0.041382
  40 C :   -0.056186
  41 S :    0.134989
  42 C :   -0.069402
  43 C :    0.011330
  44 C :   -0.043676
  45 C :    0.050743
  46 C :    0.022465
  47 C :   -0.019957
  48 S :    0.071318
  49 C :   -0.062868
  50 C :    0.036785
  51 C :    0.040718
  52 C :   -0.017056
  53 S :    0.104616
  54 C :   -0.003859
  55 C :    0.025824
  56 C :   -0.129270
  57 C :    0.288223
  58 C :   -0.351980
  59 C :   -0.176478
  60 N :    0.136505
  61 C :   -0.220943
  62 N :    0.160819
  63 C :    0.008440
  64 C :   -0.004103
  65 C :    0.137615
  66 O :   -0.156885
  67 C :   -0.077440
  68 C :    0.115381
  69 C :   -0.090144
  70 C :   -0.026473
  71 S :    0.178880
  72 C :   -0.124798
  73 C :    0.037920
  74 Br:    0.015168
  75 H :   -0.014712
  76 H :   -0.009812
  77 H :   -0.005425
  78 H :    0.015147
  79 H :    0.017567
  80 H :    0.000787
  81 H :   -0.005087
  82 H :   -0.006023
  83 H :   -0.001428
  84 H :   -0.004069
  85 H :    0.015191
  86 H :   -0.005611
  87 H :    0.000099
  88 H :    0.001419
  89 H :    0.008927
  90 H :    0.005651
  91 H :    0.004703
  92 H :    0.008082
  93 H :    0.012343
  94 H :   -0.013861
  95 H :   -0.007241
  96 H :   -0.005948
Sum of atomic charges:   -0.0000000

LOEWDIN ATOMIC CHARGES
----------------------
   0 C :    0.073244
   1 C :   -0.157061
   2 C :   -0.019147
   3 N :   -0.068806
   4 C :   -0.020182
   5 N :   -0.070260
   6 C :   -0.018302
   7 C :   -0.048788
   8 C :    0.017468
   9 C :   -0.035662
  10 C :   -0.145716
  11 C :   -0.013577
  12 S :    0.427744
  13 C :   -0.274398
  14 C :   -0.071153
  15 Br:    0.130634
  16 C :    0.081933
  17 O :   -0.158044
  18 C :   -0.106764
  19 C :    0.047790
  20 C :   -0.070983
  21 C :   -0.104337
  22 C :   -0.040516
  23 C :   -0.008619
  24 C :   -0.191268
  25 S :    0.411806
  26 C :   -0.150004
  27 C :   -0.042109
  28 C :   -0.011537
  29 C :   -0.155577
  30 S :    0.410586
  31 C :   -0.048212
  32 C :   -0.163724
  33 S :    0.428680
  34 C :   -0.210073
  35 C :   -0.181445
  36 C :   -0.059973
  37 S :    0.421578
  38 C :   -0.184187
  39 C :   -0.051931
  40 C :   -0.162632
  41 S :    0.424140
  42 C :   -0.212534
  43 C :   -0.046816
  44 C :   -0.161073
  45 C :   -0.006217
  46 C :   -0.042942
  47 C :   -0.148518
  48 S :    0.384529
  49 C :   -0.187438
  50 C :   -0.013834
  51 C :   -0.029144
  52 C :   -0.102391
  53 S :    0.405902
  54 C :   -0.068058
  55 C :    0.050192
  56 C :   -0.105259
  57 C :    0.068272
  58 C :   -0.154005
  59 C :   -0.019947
  60 N :   -0.064817
  61 C :   -0.024839
  62 N :   -0.061755
  63 C :   -0.015785
  64 C :   -0.050880
  65 C :    0.078453
  66 O :   -0.156995
  67 C :    0.018524
  68 C :   -0.036704
  69 C :   -0.144958
  70 C :   -0.016128
  71 S :    0.427111
  72 C :   -0.275014
  73 C :   -0.070711
  74 Br:    0.130205
  75 H :    0.038950
  76 H :    0.040002
  77 H :    0.037701
  78 H :    0.030826
  79 H :    0.038992
  80 H :    0.039111
  81 H :    0.035455
  82 H :    0.035003
  83 H :    0.037920
  84 H :    0.038513
  85 H :    0.027555
  86 H :    0.037751
  87 H :    0.046033
  88 H :    0.039135
  89 H :    0.035690
  90 H :    0.034151
  91 H :    0.041026
  92 H :    0.038179
  93 H :    0.034011
  94 H :    0.039474
  95 H :    0.039759
  96 H :    0.037721

  Mayer bond orders larger than 0.100000
B(  0-C ,  1-C ) :   1.5796 B(  0-C ,  6-C ) :   0.9907 B(  0-C , 18-C ) :   1.1159
B(  1-C ,  2-C ) :   1.1516 B(  1-C ,  4-C ) :   1.1560 B(  2-C ,  3-N ) :   2.9628
B(  4-C ,  5-N ) :   2.9555 B(  6-C ,  7-C ) :   1.2795 B(  6-C , 11-C ) :   1.4204
B(  7-C ,  8-C ) :   1.4286 B(  7-C , 16-C ) :   0.9366 B(  8-C ,  9-C ) :   1.2403
B(  8-C , 75-H ) :   1.0172 B(  9-C , 10-C ) :   1.3159 B(  9-C , 14-C ) :   1.1610
B( 10-C , 11-C ) :   1.3201 B( 10-C , 12-S ) :   1.0832 B( 11-C , 76-H ) :   0.9801
B( 12-S , 13-C ) :   1.0855 B( 13-C , 14-C ) :   1.6178 B( 13-C , 15-Br) :   1.0143
B( 14-C , 77-H ) :   1.0010 B( 16-C , 17-O ) :   2.1875 B( 16-C , 18-C ) :   0.9653
B( 18-C , 19-C ) :   1.4806 B( 19-C , 20-C ) :   1.2603 B( 19-C , 78-H ) :   0.9418
B( 20-C , 21-C ) :   1.4126 B( 20-C , 79-H ) :   0.9792 B( 21-C , 22-C ) :   1.1815
B( 21-C , 25-S ) :   1.0861 B( 22-C , 23-C ) :   1.5356 B( 22-C , 80-H ) :   1.0028
B( 23-C , 24-C ) :   1.2202 B( 23-C , 81-H ) :   0.9956 B( 24-C , 25-S ) :   1.0493
B( 24-C , 26-C ) :   1.4551 B( 26-C , 27-C ) :   1.2048 B( 26-C , 30-S ) :   1.0766
B( 27-C , 28-C ) :   1.5667 B( 27-C , 82-H ) :   0.9946 B( 28-C , 29-C ) :   1.1630
B( 28-C , 83-H ) :   0.9990 B( 29-C , 30-S ) :   1.0358 B( 29-C , 31-C ) :   1.5740
B( 31-C , 32-C ) :   1.1998 B( 31-C , 84-H ) :   0.9508 B( 32-C , 33-S ) :   1.0716
B( 32-C , 36-C ) :   1.4362 B( 33-S , 34-C ) :   1.0788 B( 34-C , 35-C ) :   1.4067
B( 34-C , 42-C ) :   1.3451 B( 35-C , 36-C ) :   1.3412 B( 35-C , 37-S ) :   1.0536
B( 36-C , 85-H ) :   0.9778 B( 37-S , 38-C ) :   1.0455 B( 38-C , 39-C ) :   1.3173
B( 38-C , 42-C ) :   1.3996 B( 39-C , 40-C ) :   1.4148 B( 39-C , 86-H ) :   1.0076
B( 40-C , 41-S ) :   1.0711 B( 40-C , 43-C ) :   1.2228 B( 41-S , 42-C ) :   1.0791
B( 43-C , 44-C ) :   1.5328 B( 43-C , 87-H ) :   0.9692 B( 44-C , 45-C ) :   1.1594
B( 44-C , 48-S ) :   1.0332 B( 45-C , 46-C ) :   1.5755 B( 45-C , 88-H ) :   1.0013
B( 46-C , 47-C ) :   1.1777 B( 46-C , 89-H ) :   0.9918 B( 47-C , 48-S ) :   1.0679
B( 47-C , 49-C ) :   1.5133 B( 49-C , 50-C ) :   1.1950 B( 49-C , 53-S ) :   1.0435
B( 50-C , 51-C ) :   1.5496 B( 50-C , 90-H ) :   0.9914 B( 51-C , 52-C ) :   1.1793
B( 51-C , 91-H ) :   1.0022 B( 52-C , 53-S ) :   1.0854 B( 52-C , 54-C ) :   1.4963
B( 54-C , 55-C ) :   1.2226 B( 54-C , 92-H ) :   0.9627 B( 55-C , 56-C ) :   1.5323
B( 55-C , 93-H ) :   0.9392 B( 56-C , 57-C ) :   1.0854 B( 56-C , 65-C ) :   0.9657
B( 57-C , 58-C ) :   1.5992 B( 57-C , 63-C ) :   1.0035 B( 58-C , 59-C ) :   1.1332
B( 58-C , 61-C ) :   1.1697 B( 59-C , 60-N ) :   2.9757 B( 61-C , 62-N ) :   3.0101
B( 63-C , 64-C ) :   1.2745 B( 63-C , 70-C ) :   1.4228 B( 64-C , 65-C ) :   0.9184
B( 64-C , 67-C ) :   1.4339 B( 65-C , 66-O ) :   2.2442 B( 67-C , 68-C ) :   1.2437
B( 67-C , 94-H ) :   1.0162 B( 68-C , 69-C ) :   1.3162 B( 68-C , 73-C ) :   1.1613
B( 69-C , 70-C ) :   1.3181 B( 69-C , 71-S ) :   1.0829 B( 70-C , 95-H ) :   0.9818
B( 71-S , 72-C ) :   1.0850 B( 72-C , 73-C ) :   1.6223 B( 72-C , 74-Br) :   1.0136
B( 73-C , 96-H ) :   0.9998

-----------------------------------------------------------------------------
         ABSORPTION SPECTRUM VIA TRANSITION ELECTRIC DIPOLE MOMENTS
-----------------------------------------------------------------------------
State   Energy  Wavelength   fosc         T2         TX        TY        TZ
        (cm-1)    (nm)                  (au**2)     (au)      (au)      (au)
-----------------------------------------------------------------------------
   0    8823.8   1133.3   2.448311503  91.34541   7.26908   5.91291   1.88240
   1   12675.5    788.9   0.291308631   7.56593  -2.39549   0.50089   1.25565
   2   15006.3    666.4   0.015198424   0.33343   0.23978  -0.51060  -0.12337
   3   18803.3    531.8   0.607944411  10.64404   0.61274  -2.63319   1.82617
   4   20431.3    489.4   0.076025686   1.22501   0.22262   1.01796  -0.37311
   5   21894.7    456.7   0.068638648   1.03206   0.52132  -0.66231   0.56713
   6   22026.9    454.0   0.361665756   5.40542  -1.36657   1.04377  -1.56475
   7   23734.6    421.3   0.112739121   1.56376   1.00997  -0.32902   0.65989
   8   24017.8    416.4   0.116884790   1.60214  -0.40193  -0.59919  -1.03998
   9   24586.6    406.7   0.056544012   0.75712   0.42502   0.46105  -0.60325
  10   24982.6    400.3   0.222570637   2.93296  -0.50665  -1.54532   0.53690
  11   25272.9    395.7   0.044290015   0.57693  -0.16772   0.59120  -0.44642
  12   26470.5    377.8   0.191521228   2.38194   1.04331  -1.04659   0.44508
  13   26878.9    372.0   0.000262398   0.00321   0.03459  -0.04336   0.01174
  14   27064.7    369.5   0.007859665   0.09560  -0.26925  -0.15189   0.00608
  15   27712.1    360.9   0.022636922   0.26892   0.41123  -0.04405   0.31285
  16   28031.3    356.7   0.033697104   0.39575  -0.43677   0.33931  -0.29976
  17   28309.2    353.2   0.004504004   0.05238  -0.20561   0.09869   0.01910
  18   28428.6    351.8   0.073285282   0.84867  -0.71306   0.51692  -0.27020
  19   28789.0    347.4   0.058027198   0.66356   0.37897  -0.70445   0.15392
  20   29307.6    341.2   0.026565679   0.29841   0.54030   0.00938  -0.08002
  21   30033.2    333.0   0.044857462   0.49171   0.19375  -0.65259   0.16822
  22   30502.9    327.8   0.103137882   1.11315  -0.03025  -0.99588   0.34706
  23   30815.0    324.5   0.162965687   1.74105  -1.03323  -0.81951  -0.04346
  24   31168.9    320.8   0.137695910   1.45437  -0.86318  -0.81992  -0.19244
  25   31705.7    315.4   0.233649550   2.42607  -0.99843   0.93682   0.74268
  26   32138.3    311.2   0.132855211   1.36092   0.32119   0.88182   0.69292
  27   32381.0    308.8   0.120169249   1.22174   0.17548   1.07228   0.20288
  28   32605.9    306.7   0.046863438   0.47317  -0.64416  -0.22543  -0.08606
  29   32651.1    306.3   0.231532499   2.33448  -1.48746  -0.34678  -0.04109
  30   32914.6    303.8   0.126268432   1.26294   0.69003   0.84169   0.27993
  31   33005.3    303.0   0.001211515   0.01208  -0.10537   0.02435   0.01972
  32   33221.9    301.0   0.107873426   1.06897  -0.98993   0.22781   0.19266
  33   33367.2    299.7   0.050865044   0.50185  -0.49926   0.45151  -0.22073
  34   33673.7    297.0   0.076025827   0.74327   0.52252  -0.44605  -0.52085
  35   34349.7    291.1   0.014116630   0.13530  -0.20222   0.24756  -0.18198
  36   34453.2    290.2   0.000440783   0.00421  -0.00778  -0.04701   0.04406
  37   34735.1    287.9   0.088779439   0.84143   0.48516  -0.74504   0.22575
  38   35167.2    284.4   0.056348342   0.52750  -0.52389   0.30081  -0.40317
  39   35496.6    281.7   0.021091954   0.19562  -0.31407   0.29524  -0.09904
  40   35746.0    279.8   0.094519634   0.87050   0.10113  -0.76307  -0.52725
  41   35815.3    279.2   0.132301033   1.21610  -0.88560   0.06985  -0.65340
  42   36153.3    276.6   0.026579959   0.24204  -0.33912   0.35604  -0.01640
  43   36275.9    275.7   0.035856211   0.32540   0.15818   0.35802   0.41498
  44   36408.7    274.7   0.112413155   1.01645   1.00201   0.04786   0.10072
  45   36688.8    272.6   0.024840464   0.22290  -0.44991  -0.11629   0.08338
  46   37321.8    267.9   0.011275650   0.09946   0.28418  -0.10015   0.09313
  47   37465.2    266.9   0.004679541   0.04112   0.10127   0.16657  -0.05584
  48   37843.2    264.2   0.033438905   0.29090   0.08097   0.53321  -0.00493
  49   38096.7    262.5   0.042436808   0.36672   0.52444  -0.03083   0.30120
  50   38182.0    261.9   0.102051085   0.87990   0.63407  -0.48369   0.49386
  51   38511.0    259.7   0.041922995   0.35838  -0.03765  -0.53681   0.26228
  52   39018.7    256.3   0.079437993   0.67024   0.48043   0.65353   0.11104
  53   39037.1    256.2   0.068779190   0.58004   0.45548  -0.35418   0.49713
  54   39150.8    255.4   0.044526953   0.37442  -0.53749   0.14610  -0.25334
  55   39255.5    254.7   0.006931522   0.05813  -0.04512   0.22199  -0.08256
  56   39452.3    253.5   0.081525155   0.68029   0.24069  -0.45092   0.64733
  57   39627.0    252.4   0.136199874   1.13152  -0.09020   1.00592   0.33393
  58   40296.8    248.2   0.027151718   0.22182  -0.14163  -0.33194  -0.30262

FINAL SINGLE POINT ENERGY    -11319.997122531337

DIPOLE MOMENT
-------------
                                X             Y             Z
Electronic contribution:     84.74455     -70.11590     -38.85290
Nuclear contribution   :    -87.27675      69.62097      37.46659
                        -----------------------------------------
Total Dipole Moment    :     -2.53220      -0.49493      -1.38630
                        -----------------------------------------
Magnitude (a.u.)       :      2.92896
Magnitude (Debye)      :      7.44483

Rotational constants in cm-1:     0.000971     0.000088     0.000085
Rotational constants in MHz :    29.100175     2.642253     2.547003

                             ****ORCA TERMINATED NORMALLY****
TOTAL RUN TIME: 0 days 0 hours 10 minutes 38 seconds 845 msec
