                         Program Version 4.2.0 -  RELEASE  -
|  1> # ORCA input file
|  2> # SCF done       -189.569000260115          0.000564493050
|  3> ! CAM-B3LYP def2-SVP def2/J RIJCOSX Grid4 TightSCF
|  4> %maxcore 5000
|  5> %tddft
|  6>     Mode sTDDFT
|  7>     Ethresh 5.0
|  8>     maxcore 5000
|  9> end
| 10>
| 11> %pal
| 12>   nprocs 6
| 13>   end
| 14> * xyz 0 1
| 15>    C        1.89350         4.24603         2.92266
| 16>    C        3.01454         4.22716         3.70495
| 17>    F        3.79805         5.31031         3.78418
| 18>    C        3.35989         3.07286         4.43533
| 19>    F        4.46407         3.08205         5.19384
| 20>    C        2.57899         1.95221         4.37330
| 21>    C        1.41859         1.94070         3.57619
| 22>    C        1.06811         3.10739         2.83700
| 23>    C       -0.09264         3.11888         2.02909
| 24>    C       -0.87720         1.99856         1.96103
| 25>    C       -0.51865         0.83571         2.70421
| 26>    C        0.59416         0.79583         3.49344
| 27>    C       -1.51828        -0.21262         2.45527
| 28>    O       -1.55231        -1.34513         2.92018
| 29>    C       -2.49880         0.37293         1.53563
| 30>    C       -2.10956         1.72696         1.22381
| 31>    C       -2.74751         2.60005         0.37822
| 32>    C       -3.93088         2.30689        -0.32509
| 33>    N       -4.89078         2.11626        -0.92762
| 34>    C       -2.29081         3.90201         0.09004
| 35>    N       -1.96755         4.96719        -0.19117
| 36>    C       -3.59211        -0.33348         1.10041
| 37>    N       -3.78535        -1.60587         1.47558
| 38>    C       -4.79077        -2.42937         1.05740
| 39>    S       -5.33488        -3.69664         2.10937
| 40>    C       -6.55422        -4.10966         0.94891
| 41>    N       -7.39272        -5.19345         1.25261
| 42>    O       -8.24516        -5.49587         0.44185
| 43>    O       -7.19231        -5.75140         2.31746
| 44>    C       -6.53848        -3.32183        -0.17075
| 45>    C       -5.51392        -2.35573        -0.13679
| 46>    C       -5.17265        -1.46599        -1.21934
| 47>    C       -6.03427        -0.96654        -2.12249
| 48>    C       -5.64373        -0.04631        -3.13813
| 49>    C       -6.49171         0.64819        -3.98830
| 50>    C       -7.87201         0.38551        -3.99909
| 51>    N       -8.98127         0.09637        -3.98723
| 52>    C       -5.80067         1.57012        -4.81917
| 53>    C       -4.43019         1.52003        -4.58419
| 54>    S       -3.96690         0.39113        -3.37632
| 55>    S       -3.47265         2.59281        -5.54852
| 56>    C       -4.94216         3.13684        -6.29268
| 57>    C       -6.10343         2.53342        -5.82693
| 58>    C       -7.26177         3.05948        -6.46467
| 59>    C       -8.56319         2.81876        -6.00829
| 60>    N       -9.62026         2.68092        -5.58199
| 61>    C       -6.95191         4.02133        -7.42742
| 62>    S       -5.21595         4.32990        -7.50022
| 63>    C       -7.76469         4.76817        -8.30139
| 64>    C       -8.99116         4.44685        -8.83139
| 65>    C       -9.74325         5.30252        -9.67800
| 66>    C      -10.88286         4.74291       -10.17013
| 67>    C      -11.08781         3.41215        -9.75075
| 68>    S       -9.79412         2.89785        -8.69216
| 69>    C      -12.13702         2.56986       -10.08440
| 70>    C      -13.24308         2.85881       -10.91020
| 71>    C      -14.11661         1.81952       -11.05619
| 72>    C      -13.74519         0.65360       -10.35472
| 73>    S      -12.23622         0.93311        -9.49604
| 74>    C      -14.34992        -0.58430       -10.25437
| 75>    C      -15.52751        -1.03987       -10.83781
| 76>    S      -16.55151        -0.08878       -11.87772
| 77>    C      -17.69190        -1.36978       -12.10968
| 78>    C      -17.29876        -2.51349       -11.40328
| 79>    C      -16.07935        -2.33752       -10.68309
| 80>    C      -15.55920        -3.39517        -9.93033
| 81>    C      -16.23098        -4.59584        -9.89262
| 82>    S      -15.54380        -5.90839        -8.93644
| 83>    C      -17.43656        -4.77392       -10.60139
| 84>    C      -17.96238        -3.75620       -11.34206
| 85>    C      -18.85026        -1.20350       -12.92500
| 86>    C      -19.17424        -0.08252       -13.57587
| 87>    H        1.64372         5.13809         2.36974
| 88>    H        2.85724         1.07663         4.93869
| 89>    H       -0.33180         4.01756         1.48392
| 90>    H        0.84361        -0.09667         4.04687
| 91>    H       -4.34279         0.11462         0.46506
| 92>    H       -3.10622        -1.94589         2.17502
| 93>    H       -7.21733        -3.46312        -0.99182
| 94>    H       -4.12795        -1.18664        -1.29062
| 95>    H       -7.09095        -1.19037        -2.07066
| 96>    H       -7.32621         5.69154        -8.66037
| 97>    H       -9.41685         6.30572        -9.88760
| 98>    H      -11.57138         5.24928       -10.82220
| 99>    H      -13.37205         3.82031       -11.37342
|100>    H      -15.01105         1.87535       -11.64859
|101>    H      -13.83442        -1.30415        -9.63259
|102>    H      -14.63946        -3.28259        -9.37876
|103>    H      -16.50566        -6.79411        -9.19350
|104>    H      -17.94392        -5.72655       -10.55377
|105>    H      -18.88553        -3.90169       -11.88077
|106>    H      -19.49291        -2.07043       -12.99988
|107>    H      -18.55553         0.79776       -13.52206
|108>    H      -20.06287        -0.01758       -14.17713
|109> *
|110>
|111>                          ****END OF INPUT****

CARTESIAN COORDINATES (ANGSTROEM)
---------------------------------
  C      1.893500    4.246030    2.922660
  C      3.014540    4.227160    3.704950
  F      3.798050    5.310310    3.784180
  C      3.359890    3.072860    4.435330
  F      4.464070    3.082050    5.193840
  C      2.578990    1.952210    4.373300
  C      1.418590    1.940700    3.576190
  C      1.068110    3.107390    2.837000
  C     -0.092640    3.118880    2.029090
  C     -0.877200    1.998560    1.961030
  C     -0.518650    0.835710    2.704210
  C      0.594160    0.795830    3.493440
  C     -1.518280   -0.212620    2.455270
  O     -1.552310   -1.345130    2.920180
  C     -2.498800    0.372930    1.535630
  C     -2.109560    1.726960    1.223810
  C     -2.747510    2.600050    0.378220
  C     -3.930880    2.306890   -0.325090
  N     -4.890780    2.116260   -0.927620
  C     -2.290810    3.902010    0.090040
  N     -1.967550    4.967190   -0.191170
  C     -3.592110   -0.333480    1.100410
  N     -3.785350   -1.605870    1.475580
  C     -4.790770   -2.429370    1.057400
  S     -5.334880   -3.696640    2.109370
  C     -6.554220   -4.109660    0.948910
  N     -7.392720   -5.193450    1.252610
  O     -8.245160   -5.495870    0.441850
  O     -7.192310   -5.751400    2.317460
  C     -6.538480   -3.321830   -0.170750
  C     -5.513920   -2.355730   -0.136790
  C     -5.172650   -1.465990   -1.219340
  C     -6.034270   -0.966540   -2.122490
  C     -5.643730   -0.046310   -3.138130
  C     -6.491710    0.648190   -3.988300
  C     -7.872010    0.385510   -3.999090
  N     -8.981270    0.096370   -3.987230
  C     -5.800670    1.570120   -4.819170
  C     -4.430190    1.520030   -4.584190
  S     -3.966900    0.391130   -3.376320
  S     -3.472650    2.592810   -5.548520
  C     -4.942160    3.136840   -6.292680
  C     -6.103430    2.533420   -5.826930
  C     -7.261770    3.059480   -6.464670
  C     -8.563190    2.818760   -6.008290
  N     -9.620260    2.680920   -5.581990
  C     -6.951910    4.021330   -7.427420
  S     -5.215950    4.329900   -7.500220
  C     -7.764690    4.768170   -8.301390
  C     -8.991160    4.446850   -8.831390
  C     -9.743250    5.302520   -9.678000
  C    -10.882860    4.742910  -10.170130
  C    -11.087810    3.412150   -9.750750
  S     -9.794120    2.897850   -8.692160
  C    -12.137020    2.569860  -10.084400
  C    -13.243080    2.858810  -10.910200
  C    -14.116610    1.819520  -11.056190
  C    -13.745190    0.653600  -10.354720
  S    -12.236220    0.933110   -9.496040
  C    -14.349920   -0.584300  -10.254370
  C    -15.527510   -1.039870  -10.837810
  S    -16.551510   -0.088780  -11.877720
  C    -17.691900   -1.369780  -12.109680
  C    -17.298760   -2.513490  -11.403280
  C    -16.079350   -2.337520  -10.683090
  C    -15.559200   -3.395170   -9.930330
  C    -16.230980   -4.595840   -9.892620
  S    -15.543800   -5.908390   -8.936440
  C    -17.436560   -4.773920  -10.601390
  C    -17.962380   -3.756200  -11.342060
  C    -18.850260   -1.203500  -12.925000
  C    -19.174240   -0.082520  -13.575870
  H      1.643720    5.138090    2.369740
  H      2.857240    1.076630    4.938690
  H     -0.331800    4.017560    1.483920
  H      0.843610   -0.096670    4.046870
  H     -4.342790    0.114620    0.465060
  H     -3.106220   -1.945890    2.175020
  H     -7.217330   -3.463120   -0.991820
  H     -4.127950   -1.186640   -1.290620
  H     -7.090950   -1.190370   -2.070660
  H     -7.326210    5.691540   -8.660370
  H     -9.416850    6.305720   -9.887600
  H    -11.571380    5.249280  -10.822200
  H    -13.372050    3.820310  -11.373420
  H    -15.011050    1.875350  -11.648590
  H    -13.834420   -1.304150   -9.632590
  H    -14.639460   -3.282590   -9.378760
  H    -16.505660   -6.794110   -9.193500
  H    -17.943920   -5.726550  -10.553770
  H    -18.885530   -3.901690  -11.880770
  H    -19.492910   -2.070430  -12.999880
  H    -18.555530    0.797760  -13.522060
  H    -20.062870   -0.017580  -14.177130

 Total Charge           Charge          ....    0
 Multiplicity           Mult            ....    1
 Number of Electrons    NEL             ....  552
 Basis Dimension        Dim             .... 1150

ORBITAL ENERGIES
----------------

  NO   OCC          E(Eh)            E(eV)
   0   2.0000     -88.995403     -2421.6880
   1   2.0000     -88.977029     -2421.1880
   2   2.0000     -88.976430     -2421.1718
   3   2.0000     -88.966933     -2420.9133
   4   2.0000     -88.963719     -2420.8259
   5   2.0000     -88.940778     -2420.2016
   6   2.0000     -88.939272     -2420.1606
   7   2.0000     -88.928805     -2419.8758
   8   2.0000     -24.803998      -674.9511
   9   2.0000     -24.803063      -674.9257
  10   2.0000     -19.244460      -523.6684
  11   2.0000     -19.244361      -523.6657
  12   2.0000     -19.237010      -523.4657
  13   2.0000     -14.656063      -398.8117
  14   2.0000     -14.503912      -394.6715
  15   2.0000     -14.426502      -392.5651
  16   2.0000     -14.420365      -392.3981
  17   2.0000     -14.395209      -391.7135
  18   2.0000     -14.384391      -391.4192
  19   2.0000     -10.387909      -282.6694
  20   2.0000     -10.387214      -282.6505
  21   2.0000     -10.384675      -282.5814
  22   2.0000     -10.376909      -282.3700
  23   2.0000     -10.375975      -282.3446
  24   2.0000     -10.354338      -281.7559
  25   2.0000     -10.352756      -281.7128
  26   2.0000     -10.347572      -281.5718
  27   2.0000     -10.329172      -281.0711
  28   2.0000     -10.328494      -281.0526
  29   2.0000     -10.324660      -280.9483
  30   2.0000     -10.323724      -280.9228
  31   2.0000     -10.322929      -280.9012
  32   2.0000     -10.320593      -280.8376
  33   2.0000     -10.317796      -280.7615
  34   2.0000     -10.317481      -280.7529
  35   2.0000     -10.317344      -280.7492
  36   2.0000     -10.315894      -280.7097
  37   2.0000     -10.315795      -280.7071
  38   2.0000     -10.315493      -280.6988
  39   2.0000     -10.312078      -280.6059
  40   2.0000     -10.311302      -280.5848
  41   2.0000     -10.310223      -280.5554
  42   2.0000     -10.309379      -280.5325
  43   2.0000     -10.307909      -280.4925
  44   2.0000     -10.306830      -280.4631
  45   2.0000     -10.305981      -280.4400
  46   2.0000     -10.305086      -280.4156
  47   2.0000     -10.304721      -280.4057
  48   2.0000     -10.304319      -280.3948
  49   2.0000     -10.304259      -280.3931
  50   2.0000     -10.303639      -280.3763
  51   2.0000     -10.302690      -280.3504
  52   2.0000     -10.302467      -280.3444
  53   2.0000     -10.302155      -280.3359
  54   2.0000     -10.301683      -280.3231
  55   2.0000     -10.299309      -280.2584
  56   2.0000     -10.296143      -280.1723
  57   2.0000     -10.294772      -280.1350
  58   2.0000     -10.289367      -279.9879
  59   2.0000     -10.286506      -279.9100
  60   2.0000     -10.284983      -279.8686
  61   2.0000     -10.284882      -279.8659
  62   2.0000     -10.284324      -279.8507
  63   2.0000     -10.284097      -279.8445
  64   2.0000     -10.284068      -279.8437
  65   2.0000     -10.282850      -279.8106
  66   2.0000     -10.282452      -279.7997
  67   2.0000     -10.280847      -279.7561
  68   2.0000     -10.278651      -279.6963
  69   2.0000     -10.276735      -279.6442
  70   2.0000     -10.274808      -279.5917
  71   2.0000     -10.270230      -279.4672
  72   2.0000      -8.091119      -220.1705
  73   2.0000      -8.072090      -219.6527
  74   2.0000      -8.071367      -219.6331
  75   2.0000      -8.062572      -219.3937
  76   2.0000      -8.058492      -219.2827
  77   2.0000      -8.037371      -218.7080
  78   2.0000      -8.035266      -218.6507
  79   2.0000      -8.024482      -218.3573
  80   2.0000      -6.060700      -164.9200
  81   2.0000      -6.056315      -164.8007
  82   2.0000      -6.052648      -164.7009
  83   2.0000      -6.042030      -164.4120
  84   2.0000      -6.040932      -164.3821
  85   2.0000      -6.037847      -164.2982
  86   2.0000      -6.036814      -164.2701
  87   2.0000      -6.032987      -164.1659
  88   2.0000      -6.032975      -164.1656
  89   2.0000      -6.032195      -164.1444
  90   2.0000      -6.028069      -164.0321
  91   2.0000      -6.027487      -164.0163
  92   2.0000      -6.023928      -163.9194
  93   2.0000      -6.023517      -163.9082
  94   2.0000      -6.021210      -163.8455
  95   2.0000      -6.007111      -163.4618
  96   2.0000      -6.004978      -163.4038
  97   2.0000      -6.003031      -163.3508
  98   2.0000      -6.000812      -163.2904
  99   2.0000      -5.998221      -163.2199
 100   2.0000      -5.996238      -163.1659
 101   2.0000      -5.994834      -163.1277
 102   2.0000      -5.990675      -163.0146
 103   2.0000      -5.984514      -162.8469
 104   2.0000      -1.326560       -36.0975
 105   2.0000      -1.326119       -36.0855
 106   2.0000      -1.311671       -35.6924
 107   2.0000      -1.152253       -31.3544
 108   2.0000      -1.145538       -31.1717
 109   2.0000      -1.108133       -30.1538
 110   2.0000      -1.029713       -28.0199
 111   2.0000      -1.028264       -27.9805
 112   2.0000      -1.016984       -27.6735
 113   2.0000      -1.012789       -27.5594
 114   2.0000      -1.001849       -27.2617
 115   2.0000      -0.998549       -27.1719
 116   2.0000      -0.996799       -27.1243
 117   2.0000      -0.990220       -26.9453
 118   2.0000      -0.988826       -26.9073
 119   2.0000      -0.978660       -26.6307
 120   2.0000      -0.969361       -26.3776
 121   2.0000      -0.965065       -26.2607
 122   2.0000      -0.944464       -25.7002
 123   2.0000      -0.942848       -25.6562
 124   2.0000      -0.939090       -25.5539
 125   2.0000      -0.923191       -25.1213
 126   2.0000      -0.913618       -24.8608
 127   2.0000      -0.905416       -24.6376
 128   2.0000      -0.901501       -24.5311
 129   2.0000      -0.896029       -24.3822
 130   2.0000      -0.886606       -24.1258
 131   2.0000      -0.880435       -23.9578
 132   2.0000      -0.874913       -23.8076
 133   2.0000      -0.868744       -23.6397
 134   2.0000      -0.861346       -23.4384
 135   2.0000      -0.854140       -23.2423
 136   2.0000      -0.852516       -23.1981
 137   2.0000      -0.848587       -23.0912
 138   2.0000      -0.844173       -22.9711
 139   2.0000      -0.839978       -22.8570
 140   2.0000      -0.820529       -22.3277
 141   2.0000      -0.817084       -22.2340
 142   2.0000      -0.816229       -22.2107
 143   2.0000      -0.808380       -21.9971
 144   2.0000      -0.798236       -21.7211
 145   2.0000      -0.789047       -21.4711
 146   2.0000      -0.778458       -21.1829
 147   2.0000      -0.777074       -21.1453
 148   2.0000      -0.758239       -20.6327
 149   2.0000      -0.752514       -20.4770
 150   2.0000      -0.740587       -20.1524
 151   2.0000      -0.729238       -19.8436
 152   2.0000      -0.725038       -19.7293
 153   2.0000      -0.719389       -19.5756
 154   2.0000      -0.706470       -19.2240
 155   2.0000      -0.699553       -19.0358
 156   2.0000      -0.696850       -18.9622
 157   2.0000      -0.693190       -18.8627
 158   2.0000      -0.687771       -18.7152
 159   2.0000      -0.683672       -18.6037
 160   2.0000      -0.675356       -18.3774
 161   2.0000      -0.669816       -18.2266
 162   2.0000      -0.665817       -18.1178
 163   2.0000      -0.662466       -18.0266
 164   2.0000      -0.656876       -17.8745
 165   2.0000      -0.650119       -17.6906
 166   2.0000      -0.647476       -17.6187
 167   2.0000      -0.641000       -17.4425
 168   2.0000      -0.637376       -17.3439
 169   2.0000      -0.633429       -17.2365
 170   2.0000      -0.632667       -17.2158
 171   2.0000      -0.630274       -17.1506
 172   2.0000      -0.627555       -17.0766
 173   2.0000      -0.622467       -16.9382
 174   2.0000      -0.615614       -16.7517
 175   2.0000      -0.611837       -16.6489
 176   2.0000      -0.609674       -16.5901
 177   2.0000      -0.604334       -16.4448
 178   2.0000      -0.598784       -16.2937
 179   2.0000      -0.593862       -16.1598
 180   2.0000      -0.591206       -16.0875
 181   2.0000      -0.583409       -15.8754
 182   2.0000      -0.580542       -15.7973
 183   2.0000      -0.574676       -15.6377
 184   2.0000      -0.567141       -15.4327
 185   2.0000      -0.562723       -15.3125
 186   2.0000      -0.562427       -15.3044
 187   2.0000      -0.561778       -15.2868
 188   2.0000      -0.559535       -15.2257
 189   2.0000      -0.555145       -15.1063
 190   2.0000      -0.552598       -15.0370
 191   2.0000      -0.550343       -14.9756
 192   2.0000      -0.543871       -14.7995
 193   2.0000      -0.541882       -14.7454
 194   2.0000      -0.537657       -14.6304
 195   2.0000      -0.534127       -14.5343
 196   2.0000      -0.531020       -14.4498
 197   2.0000      -0.529839       -14.4176
 198   2.0000      -0.527352       -14.3500
 199   2.0000      -0.525283       -14.2937
 200   2.0000      -0.523080       -14.2337
 201   2.0000      -0.520414       -14.1612
 202   2.0000      -0.511186       -13.9101
 203   2.0000      -0.510173       -13.8825
 204   2.0000      -0.509151       -13.8547
 205   2.0000      -0.507954       -13.8221
 206   2.0000      -0.507476       -13.8091
 207   2.0000      -0.504295       -13.7226
 208   2.0000      -0.503831       -13.7099
 209   2.0000      -0.499584       -13.5944
 210   2.0000      -0.497028       -13.5248
 211   2.0000      -0.495539       -13.4843
 212   2.0000      -0.494741       -13.4626
 213   2.0000      -0.494154       -13.4466
 214   2.0000      -0.489129       -13.3099
 215   2.0000      -0.482757       -13.1365
 216   2.0000      -0.478555       -13.0221
 217   2.0000      -0.478217       -13.0129
 218   2.0000      -0.473909       -12.8957
 219   2.0000      -0.471083       -12.8188
 220   2.0000      -0.467222       -12.7138
 221   2.0000      -0.463442       -12.6109
 222   2.0000      -0.461412       -12.5557
 223   2.0000      -0.457780       -12.4568
 224   2.0000      -0.457704       -12.4548
 225   2.0000      -0.455789       -12.4027
 226   2.0000      -0.454677       -12.3724
 227   2.0000      -0.453893       -12.3511
 228   2.0000      -0.451075       -12.2744
 229   2.0000      -0.450153       -12.2493
 230   2.0000      -0.446039       -12.1373
 231   2.0000      -0.442853       -12.0506
 232   2.0000      -0.441125       -12.0036
 233   2.0000      -0.439271       -11.9532
 234   2.0000      -0.435957       -11.8630
 235   2.0000      -0.435020       -11.8375
 236   2.0000      -0.432050       -11.7567
 237   2.0000      -0.429860       -11.6971
 238   2.0000      -0.427721       -11.6389
 239   2.0000      -0.424378       -11.5479
 240   2.0000      -0.423020       -11.5110
 241   2.0000      -0.418487       -11.3876
 242   2.0000      -0.417309       -11.3556
 243   2.0000      -0.415614       -11.3094
 244   2.0000      -0.413742       -11.2585
 245   2.0000      -0.410469       -11.1694
 246   2.0000      -0.409668       -11.1476
 247   2.0000      -0.405851       -11.0438
 248   2.0000      -0.403771       -10.9872
 249   2.0000      -0.402152       -10.9431
 250   2.0000      -0.393450       -10.7063
 251   2.0000      -0.391297       -10.6477
 252   2.0000      -0.390706       -10.6317
 253   2.0000      -0.387379       -10.5411
 254   2.0000      -0.383097       -10.4246
 255   2.0000      -0.374662       -10.1951
 256   2.0000      -0.372609       -10.1392
 257   2.0000      -0.371352       -10.1050
 258   2.0000      -0.362828        -9.8730
 259   2.0000      -0.362078        -9.8526
 260   2.0000      -0.360058        -9.7977
 261   2.0000      -0.351893        -9.5755
 262   2.0000      -0.346917        -9.4401
 263   2.0000      -0.334886        -9.1127
 264   2.0000      -0.331008        -9.0072
 265   2.0000      -0.329550        -8.9675
 266   2.0000      -0.326653        -8.8887
 267   2.0000      -0.313877        -8.5410
 268   2.0000      -0.312992        -8.5170
 269   2.0000      -0.305818        -8.3217
 270   2.0000      -0.294764        -8.0209
 271   2.0000      -0.290911        -7.9161
 272   2.0000      -0.283804        -7.7227
 273   2.0000      -0.263805        -7.1785
 274   2.0000      -0.251858        -6.8534
 275   2.0000      -0.198185        -5.3929
 276   0.0000      -0.094512        -2.5718
 277   0.0000      -0.089587        -2.4378
 278   0.0000      -0.073158        -1.9907
 279   0.0000      -0.055203        -1.5022
 280   0.0000      -0.048783        -1.3274

MULLIKEN ATOMIC CHARGES
-----------------------
   0 C :   -0.106992
   1 C :    0.243070
   2 F :   -0.169456
   3 C :    0.240241
   4 F :   -0.170031
   5 C :   -0.104350
   6 C :    0.113718
   7 C :    0.114009
   8 C :   -0.082469
   9 C :    0.042620
  10 C :   -0.001077
  11 C :   -0.077624
  12 C :    0.179471
  13 O :   -0.210693
  14 C :   -0.146095
  15 C :    0.342265
  16 C :   -0.353779
  17 C :   -0.194601
  18 N :    0.146423
  19 C :   -0.184850
  20 N :    0.153142
  21 C :    0.006034
  22 N :   -0.000456
  23 C :   -0.116993
  24 S :    0.205185
  25 C :   -0.004907
  26 N :    0.277424
  27 O :   -0.236958
  28 O :   -0.257753
  29 C :    0.004911
  30 C :    0.112075
  31 C :   -0.073901
  32 C :    0.020474
  33 C :   -0.080005
  34 C :   -0.002264
  35 C :   -0.310616
  36 N :    0.199047
  37 C :    0.164408
  38 C :   -0.221032
  39 S :    0.135084
  40 S :    0.182668
  41 C :   -0.232657
  42 C :    0.116416
  43 C :   -0.003039
  44 C :   -0.334559
  45 N :    0.191416
  46 C :   -0.100342
  47 S :    0.146117
  48 C :   -0.034793
  49 C :   -0.011743
  50 C :    0.022205
  51 C :    0.036789
  52 C :   -0.060581
  53 S :    0.128435
  54 C :   -0.036646
  55 C :    0.010623
  56 C :    0.026194
  57 C :   -0.087530
  58 S :    0.113161
  59 C :    0.031932
  60 C :   -0.095409
  61 S :    0.106216
  62 C :   -0.095432
  63 C :    0.108370
  64 C :    0.129610
  65 C :   -0.043159
  66 C :   -0.058544
  67 S :    0.035318
  68 C :    0.020747
  69 C :   -0.026746
  70 C :   -0.002868
  71 C :   -0.023385
  72 H :    0.009036
  73 H :    0.000263
  74 H :   -0.005097
  75 H :   -0.008953
  76 H :    0.067772
  77 H :    0.169917
  78 H :    0.023318
  79 H :    0.018644
  80 H :    0.022335
  81 H :   -0.010951
  82 H :   -0.014404
  83 H :   -0.013411
  84 H :   -0.015558
  85 H :   -0.002937
  86 H :   -0.011510
  87 H :   -0.024219
  88 H :    0.055080
  89 H :   -0.025902
  90 H :   -0.025616
  91 H :   -0.007602
  92 H :    0.021275
  93 H :    0.027041
Sum of atomic charges:   -0.0000000

LOEWDIN ATOMIC CHARGES
----------------------
   0 C :   -0.028201
   1 C :    0.068273
   2 F :   -0.047269
   3 C :    0.068816
   4 F :   -0.047992
   5 C :   -0.032103
   6 C :   -0.009588
   7 C :   -0.006337
   8 C :    0.020343
   9 C :   -0.021207
  10 C :   -0.052602
  11 C :    0.032387
  12 C :    0.092913
  13 O :   -0.173460
  14 C :   -0.151506
  15 C :    0.080113
  16 C :   -0.151528
  17 C :   -0.020946
  18 N :   -0.056651
  19 C :   -0.020016
  20 N :   -0.054749
  21 C :    0.121032
  22 N :    0.074387
  23 C :   -0.121632
  24 S :    0.477206
  25 C :   -0.197497
  26 N :    0.273488
  27 O :   -0.202994
  28 O :   -0.224272
  29 C :    0.005083
  30 C :   -0.080778
  31 C :   -0.042220
  32 C :   -0.014019
  33 C :   -0.128294
  34 C :   -0.082602
  35 C :   -0.037850
  36 N :   -0.035250
  37 C :   -0.060652
  38 C :   -0.326066
  39 S :    0.448583
  40 S :    0.420199
  41 C :   -0.339610
  42 C :   -0.058924
  43 C :   -0.121976
  44 C :   -0.060857
  45 N :   -0.042654
  46 C :   -0.122044
  47 S :    0.429057
  48 C :   -0.112174
  49 C :   -0.126083
  50 C :   -0.044939
  51 C :   -0.024766
  52 C :   -0.190137
  53 S :    0.426254
  54 C :   -0.165013
  55 C :   -0.029536
  56 C :   -0.041659
  57 C :   -0.160589
  58 S :    0.395197
  59 C :   -0.056432
  60 C :   -0.178349
  61 S :    0.475228
  62 C :   -0.170156
  63 C :   -0.049798
  64 C :   -0.030504
  65 C :   -0.048034
  66 C :   -0.146753
  67 S :    0.231924
  68 C :   -0.046745
  69 C :   -0.004021
  70 C :   -0.041109
  71 C :   -0.046478
  72 H :    0.048466
  73 H :    0.045272
  74 H :    0.040973
  75 H :    0.041172
  76 H :    0.046394
  77 H :    0.086946
  78 H :    0.050958
  79 H :    0.022045
  80 H :    0.045867
  81 H :    0.032850
  82 H :    0.031818
  83 H :    0.031657
  84 H :    0.031782
  85 H :    0.019111
  86 H :    0.037004
  87 H :    0.027225
  88 H :   -0.026507
  89 H :    0.026002
  90 H :    0.029488
  91 H :    0.034183
  92 H :    0.016928
  93 H :    0.027506

  Mayer bond orders larger than 0.100000
B(  0-C ,  1-C ) :   1.4362 B(  0-C ,  5-C ) :   0.1081 B(  0-C ,  7-C ) :   1.1923
B(  0-C , 72-H ) :   1.0068 B(  1-C ,  2-F ) :   1.1362 B(  1-C ,  3-C ) :   1.1950
B(  3-C ,  4-F ) :   1.1354 B(  3-C ,  5-C ) :   1.4401 B(  5-C ,  6-C ) :   1.1928
B(  5-C , 73-H ) :   1.0070 B(  6-C ,  7-C ) :   1.2598 B(  6-C , 11-C ) :   1.1858
B(  7-C ,  8-C ) :   1.2073 B(  8-C ,  9-C ) :   1.4633 B(  8-C , 74-H ) :   0.9895
B(  9-C , 10-C ) :   1.2204 B(  9-C , 15-C ) :   0.9858 B( 10-C , 11-C ) :   1.4709
B( 10-C , 12-C ) :   0.9721 B( 11-C , 75-H ) :   1.0176 B( 12-C , 13-O ) :   2.0688
B( 12-C , 14-C ) :   0.9930 B( 13-O , 77-H ) :   0.1367 B( 14-C , 15-C ) :   1.1095
B( 14-C , 21-C ) :   1.4395 B( 15-C , 16-C ) :   1.6200 B( 16-C , 17-C ) :   1.1547
B( 16-C , 19-C ) :   1.1483 B( 17-C , 18-N ) :   2.9298 B( 19-C , 20-N ) :   2.9629
B( 21-C , 22-N ) :   1.3585 B( 21-C , 76-H ) :   0.9272 B( 22-N , 23-C ) :   1.1371
B( 22-N , 77-H ) :   0.8359 B( 23-C , 24-S ) :   1.1425 B( 23-C , 30-C ) :   1.4043
B( 24-S , 25-C ) :   1.1027 B( 25-C , 26-N ) :   0.9567 B( 25-C , 29-C ) :   1.4897
B( 26-N , 27-O ) :   1.5471 B( 26-N , 28-O ) :   1.5145 B( 27-O , 28-O ) :   0.2663
B( 29-C , 30-C ) :   1.2358 B( 29-C , 78-H ) :   1.0053 B( 30-C , 31-C ) :   1.0492
B( 31-C , 32-C ) :   1.7065 B( 31-C , 79-H ) :   0.9606 B( 32-C , 33-C ) :   1.1686
B( 32-C , 80-H ) :   0.9650 B( 33-C , 34-C ) :   1.4977 B( 33-C , 39-S ) :   1.1146
B( 34-C , 35-C ) :   1.1596 B( 34-C , 37-C ) :   1.2482 B( 35-C , 36-N ) :   2.9889
B( 37-C , 38-C ) :   1.4092 B( 37-C , 42-C ) :   1.0797 B( 38-C , 39-S ) :   1.0967
B( 38-C , 40-S ) :   1.0895 B( 40-S , 41-C ) :   1.0761 B( 41-C , 42-C ) :   1.4305
B( 41-C , 47-S ) :   1.0743 B( 42-C , 43-C ) :   1.2479 B( 43-C , 44-C ) :   1.1696
B( 43-C , 46-C ) :   1.4468 B( 44-C , 45-N ) :   2.9792 B( 46-C , 47-S ) :   1.1144
B( 46-C , 48-C ) :   1.1819 B( 48-C , 49-C ) :   1.5815 B( 48-C , 81-H ) :   0.9376
B( 49-C , 50-C ) :   1.1495 B( 49-C , 53-S ) :   1.0747 B( 50-C , 51-C ) :   1.5759
B( 50-C , 82-H ) :   0.9992 B( 51-C , 52-C ) :   1.2030 B( 51-C , 83-H ) :   0.9920
B( 52-C , 53-S ) :   1.0578 B( 52-C , 54-C ) :   1.4639 B( 54-C , 55-C ) :   1.2124
B( 54-C , 58-S ) :   1.0779 B( 55-C , 56-C ) :   1.5823 B( 55-C , 84-H ) :   0.9924
B( 56-C , 57-C ) :   1.1792 B( 56-C , 85-H ) :   0.9783 B( 57-C , 58-S ) :   1.0421
B( 57-C , 59-C ) :   1.5131 B( 59-C , 60-C ) :   1.2973 B( 59-C , 86-H ) :   0.9402
B( 60-C , 61-S ) :   1.1119 B( 60-C , 64-C ) :   1.2765 B( 61-S , 62-C ) :   1.1374
B( 62-C , 63-C ) :   1.3378 B( 62-C , 70-C ) :   1.1552 B( 63-C , 64-C ) :   1.2139
B( 63-C , 69-C ) :   1.1963 B( 64-C , 65-C ) :   1.2633 B( 65-C , 66-C ) :   1.4978
B( 65-C , 87-H ) :   0.9813 B( 66-C , 67-S ) :   1.0497 B( 66-C , 68-C ) :   1.2210
B( 67-S , 88-H ) :   0.9562 B( 68-C , 69-C ) :   1.5790 B( 68-C , 89-H ) :   0.9773
B( 69-C , 90-H ) :   0.9887 B( 70-C , 71-C ) :   1.8914 B( 70-C , 91-H ) :   0.9578
B( 71-C , 92-H ) :   0.9567 B( 71-C , 93-H ) :   0.9485

-----------------------------------------------------------------------------
         ABSORPTION SPECTRUM VIA TRANSITION ELECTRIC DIPOLE MOMENTS
-----------------------------------------------------------------------------
State   Energy  Wavelength   fosc         T2         TX        TY        TZ
        (cm-1)    (nm)                  (au**2)     (au)      (au)      (au)
-----------------------------------------------------------------------------
   0   10988.2    910.1   1.324462449  39.68148   5.08102   2.91902   2.31171
   1   14610.9    684.4   0.000520423   0.01173   0.03824  -0.07348   0.06975
   2   19386.1    515.8   0.006419069   0.10901  -0.02892   0.31097  -0.10710
   3   19946.4    501.3   0.002013766   0.03324   0.15375   0.05689   0.07977
   4   20340.6    491.6   0.240504115   3.89255   1.34132   1.06014   0.98464
   5   21361.2    468.1   0.014379173   0.22161   0.25873  -0.28326   0.27282
   6   22415.0    446.1   0.196933568   2.89239   0.75762  -0.99385   1.15354
   7   24049.8    415.8   0.000265936   0.00364   0.02421  -0.05159   0.01982
   8   25481.7    392.4   0.006184376   0.07990  -0.06203  -0.26482   0.07694
   9   25961.2    385.2   0.256806246   3.25654  -1.42989  -0.58804  -0.93067
  10   26573.4    376.3   0.017808034   0.22062  -0.13026   0.42353  -0.15581
  11   26938.3    371.2   0.081429745   0.99515  -0.46002  -0.83693  -0.28823
  12   27088.1    369.2   0.155419342   1.88887  -0.57335  -1.19566   0.36131
  13   27888.4    358.6   0.007991852   0.09434  -0.07067  -0.10665   0.27923
  14   28866.1    346.4   0.762870194   8.70038  -0.48239  -2.31211   1.76688
  15   29997.2    333.4   0.135521638   1.48732   0.83765   0.88315  -0.07564
  16   30104.5    332.2   0.460283925   5.03349  -1.24236   0.74752  -1.71209
  17   30153.5    331.6   0.039123474   0.42714   0.33116  -0.41936   0.37632
  18   30401.5    328.9   0.076433345   0.82768   0.02777  -0.90607   0.07709
  19   30720.6    325.5   0.106199057   1.13806  -0.77464  -0.73018   0.06949
  20   31075.2    321.8   0.150352354   1.59284   0.75192   0.91580  -0.43448
  21   31476.3    317.7   0.072069478   0.75378   0.01286  -0.63270   0.59439
  22   32150.6    311.0   0.032017658   0.32785  -0.00186  -0.49433   0.28894
  23   32408.9    308.6   0.338939911   3.44297  -1.58814  -0.43969  -0.85290
  24   32459.4    308.1   0.195604411   1.98387  -1.09928  -0.83309  -0.28531
  25   32684.9    306.0   0.050643485   0.51010   0.53015  -0.39069   0.27640
  26   32825.9    304.6   0.016383821   0.16431  -0.02196   0.40273  -0.04053
  27   33484.9    298.6   0.030529762   0.30016  -0.15119   0.44786  -0.27699
  28   33969.0    294.4   0.142253221   1.37865   0.44790  -0.83541   0.69291
  29   34041.3    293.8   0.037820366   0.36576  -0.25259   0.53883  -0.10781
  30   34300.5    291.5   0.149051563   1.43058  -0.44056   0.65348  -0.89969
  31   34358.4    291.0   0.009184518   0.08800   0.28607   0.03984   0.06768
  32   34912.6    286.4   0.644944409   6.08158   1.98609  -0.20193   1.44784
  33   34964.8    286.0   0.036018205   0.33913  -0.06412   0.54616  -0.19165
  34   35262.7    283.6   0.004502510   0.04204   0.05622   0.18478  -0.06878
  35   35426.2    282.3   0.159578309   1.48294   0.67799   0.93780  -0.37923
  36   35879.4    278.7   0.006347144   0.05824   0.13340   0.14616  -0.13813
  37   35964.7    278.1   0.010769420   0.09858  -0.27704   0.09231  -0.11538
  38   36311.8    275.4   0.001082456   0.00981  -0.00940   0.06005  -0.07823
  39   36674.6    272.7   0.012423993   0.11152  -0.22931  -0.02436  -0.24156
  40   36838.7    271.5   0.068560259   0.61269   0.23288  -0.49841   0.55682
  41   36879.7    271.2   0.029227264   0.26090   0.41171   0.30221   0.00782
  42   37149.9    269.2   0.020173100   0.17877   0.03617  -0.37480   0.19232
  43   37597.8    266.0   0.207577443   1.81758  -0.54039   0.92614  -0.81720
  44   37772.6    264.7   0.016008716   0.13953  -0.11673  -0.32462   0.14325
  45   38445.3    260.1   0.048941732   0.41909   0.20093   0.61503  -0.02141
  46   38615.9    259.0   0.100705306   0.85854  -0.29338   0.58269  -0.65799
  47   38768.6    257.9   0.046075168   0.39126   0.56792  -0.04228   0.25872
  48   38856.8    257.4   0.165207986   1.39971   0.02790   1.06760  -0.50909
  49   39047.0    256.1   0.259371231   2.18680  -0.45991  -1.35593   0.36977
  50   39533.6    252.9   0.025175395   0.20965  -0.21545  -0.39789   0.07007
  51   39599.2    252.5   0.045292092   0.37654  -0.13959  -0.51938   0.29547
  52   39970.3    250.2   0.011046614   0.09098   0.15463   0.00111   0.25898
  53   40288.5    248.2   0.132988000   1.08669  -0.51260   0.74624  -0.51678

FINAL SINGLE POINT ENERGY     -5967.615999651885

DIPOLE MOMENT
-------------
                                X             Y             Z
Electronic contribution:     75.91909      15.44716      53.54239
Nuclear contribution   :    -74.82649     -15.33814     -54.97632
                        -----------------------------------------
Total Dipole Moment    :      1.09259       0.10902      -1.43393
                        -----------------------------------------
Magnitude (a.u.)       :      1.80605
Magnitude (Debye)      :      4.59061

Rotational constants in cm-1:     0.001245     0.000235     0.000201
Rotational constants in MHz :    37.324441     7.048574     6.029724

                             ****ORCA TERMINATED NORMALLY****
TOTAL RUN TIME: 0 days 0 hours 17 minutes 35 seconds 424 msec
