                         Program Version 4.2.0 -  RELEASE  -
|  1> # ORCA input file
|  2> # SCF done       -225.408278651232          0.000677110362
|  3> ! CAM-B3LYP def2-SVP def2/J RIJCOSX Grid4 TightSCF
|  4> %maxcore 5000
|  5> %tddft
|  6>     Mode sTDDFT
|  7>     Ethresh 5.0
|  8>     maxcore 5000
|  9> end
| 10>
| 11> %pal
| 12>   nprocs 6
| 13>   end
| 14> * xyz 0 1
| 15>    C       -0.07619         0.33947        -2.83732
| 16>    C        0.72648         0.18974        -3.93114
| 17>    C        1.12037        -1.06155        -4.45602
| 18>    N        1.47312        -2.04795        -4.92300
| 19>    C        1.24470         1.25512        -4.70100
| 20>    N        1.68305         2.07109        -5.37767
| 21>    C       -0.68657        -0.72671        -2.05766
| 22>    C       -1.55324        -0.15175        -1.08031
| 23>    C       -2.27488        -0.92293        -0.21147
| 24>    C       -2.15922        -2.32770        -0.27845
| 25>    C       -1.29177        -2.91078        -1.24911
| 26>    C       -0.55940        -2.08951        -2.13564
| 27>    C       -1.18396        -4.31530        -1.30593
| 28>    C       -1.89782        -5.10700        -0.44769
| 29>    C       -2.75092        -4.53226         0.50694
| 30>    C       -2.87921        -3.17235         0.59002
| 31>    C       -1.52654         1.30635        -1.19527
| 32>    O       -2.17057         2.11534        -0.56048
| 33>    C       -0.52764         1.60702        -2.27022
| 34>    C       -0.08921         2.84504        -2.55463
| 35>    C       -0.59643         4.03920        -1.89198
| 36>    C        0.26120         4.88126        -1.17883
| 37>    C        1.70195         4.60464        -1.01684
| 38>    O        2.29822         3.64378        -1.40456
| 39>    S        2.44657         5.94877        -0.10153
| 40>    C        0.88851         6.84236         0.07855
| 41>    O        0.81498         7.92815         0.55832
| 42>    C       -0.18877         6.02379        -0.51988
| 43>    C       -1.54313         6.34990        -0.47932
| 44>    C       -2.41113         5.50452        -1.18067
| 45>    C       -1.94823         4.40685        -1.89673
| 46>    C       -3.00414         3.66997        -2.63312
| 47>    O       -2.86971         2.78973        -3.42756
| 48>    S       -4.59524         4.35325        -2.18586
| 49>    C       -3.88469         5.63949        -1.15285
| 50>    O       -4.53980         6.42439        -0.54142
| 51>    C       -2.03875         7.47957         0.30452
| 52>    O       -2.69217         8.49213        -0.31774
| 53>    C       -3.04461         9.32954         0.68510
| 54>    C       -2.56830         8.76086         1.90127
| 55>    N       -1.93155         7.58579         1.58299
| 56>    C       -2.76939         9.36396         3.12957
| 57>    C       -3.46802        10.56008         3.07478
| 58>    C       -3.93445        11.11117         1.84283
| 59>    C       -3.73740        10.52166         0.60947
| 60>    O       -4.57922        12.25964         2.13571
| 61>    C       -4.48844        12.37520         3.49342
| 62>    N       -3.85114        11.40725         4.07563
| 63>    C       -5.08812        13.51085         4.12875
| 64>    C       -5.07800        13.65535         5.46194
| 65>    C       -5.68513        14.75611         6.17963
| 66>    C       -6.46527        14.51825         7.32813
| 67>    C       -6.71421        13.17638         7.89577
| 68>    O       -6.35752        12.11611         7.48546
| 69>    S       -7.70907        13.34969         9.39276
| 70>    C       -7.84894        15.12114         9.22393
| 71>    O       -8.46560        15.82083         9.97171
| 72>    C       -7.08960        15.54209         8.03067
| 73>    C       -6.97423        16.88129         7.65497
| 74>    C       -6.17471        17.12476         6.53705
| 75>    C       -5.53810        16.11133         5.82519
| 76>    C       -4.62521        16.62577         4.77782
| 77>    O       -3.88658        16.02784         4.05959
| 78>    S       -4.72688        18.42983         4.74001
| 79>    C       -5.89839        18.49988         6.08159
| 80>    O       -6.36115        19.50974         6.52381
| 81>    C       -7.65219        17.95725         8.37869
| 82>    C       -7.09082        18.55277         9.44067
| 83>    C       -7.59796        19.61336        10.30328
| 84>    C       -8.80462        20.23949        10.18500
| 85>    C       -9.25646        21.26176        11.04857
| 86>    N       -9.67418        22.09470        11.71759
| 87>    C       -9.75765        19.94443         9.18530
| 88>    N      -10.56850        19.74608         8.39851
| 89>    C       -6.57869        19.86657        11.31139
| 90>    C       -5.46696        18.99852        11.08754
| 91>    C       -5.73575        18.15391         9.92209
| 92>    O       -5.03456        17.30084         9.41920
| 93>    C       -4.36192        19.02106        11.89187
| 94>    C       -4.31519        19.92483        12.97538
| 95>    C       -5.42148        20.79432        13.20664
| 96>    C       -6.55085        20.75101        12.35886
| 97>    C       -5.36413        21.69154        14.29288
| 98>    C       -4.26850        21.72955        15.11179
| 99>    C       -3.18014        20.87379        14.88292
|100>    C       -3.20267        19.99074        13.83762
|101>    H       -2.92593        -0.46293         0.51705
|102>    H        0.08958        -2.56062        -2.85670
|103>    H       -0.52721        -4.75361        -2.04265
|104>    H       -1.80935        -6.18156        -0.49980
|105>    H       -3.30578        -5.17266         1.17581
|106>    H       -3.53433        -2.72418         1.32233
|107>    H        0.72117         3.00239        -3.25414
|108>    H       -2.41473         8.94018         4.05164
|109>    H       -4.09536        10.94226        -0.31381
|110>    H       -5.56501        14.21623         3.46465
|111>    H       -4.64933        12.85885         6.05500
|112>    H       -8.62941        18.23682         8.00869
|113>    H       -3.53336        18.35479        11.70225
|114>    H       -7.37155        21.42139        12.55955
|115>    H       -6.20396        22.34827        14.46518
|116>    H       -4.23413        22.41969        15.94121
|117>    H       -2.32407        20.91786        15.53919
|118>    H       -2.36798        19.32962        13.65665
|119> *
|120>
|121>                          ****END OF INPUT****

CARTESIAN COORDINATES (ANGSTROEM)
---------------------------------
  C     -0.076190    0.339470   -2.837320
  C      0.726480    0.189740   -3.931140
  C      1.120370   -1.061550   -4.456020
  N      1.473120   -2.047950   -4.923000
  C      1.244700    1.255120   -4.701000
  N      1.683050    2.071090   -5.377670
  C     -0.686570   -0.726710   -2.057660
  C     -1.553240   -0.151750   -1.080310
  C     -2.274880   -0.922930   -0.211470
  C     -2.159220   -2.327700   -0.278450
  C     -1.291770   -2.910780   -1.249110
  C     -0.559400   -2.089510   -2.135640
  C     -1.183960   -4.315300   -1.305930
  C     -1.897820   -5.107000   -0.447690
  C     -2.750920   -4.532260    0.506940
  C     -2.879210   -3.172350    0.590020
  C     -1.526540    1.306350   -1.195270
  O     -2.170570    2.115340   -0.560480
  C     -0.527640    1.607020   -2.270220
  C     -0.089210    2.845040   -2.554630
  C     -0.596430    4.039200   -1.891980
  C      0.261200    4.881260   -1.178830
  C      1.701950    4.604640   -1.016840
  O      2.298220    3.643780   -1.404560
  S      2.446570    5.948770   -0.101530
  C      0.888510    6.842360    0.078550
  O      0.814980    7.928150    0.558320
  C     -0.188770    6.023790   -0.519880
  C     -1.543130    6.349900   -0.479320
  C     -2.411130    5.504520   -1.180670
  C     -1.948230    4.406850   -1.896730
  C     -3.004140    3.669970   -2.633120
  O     -2.869710    2.789730   -3.427560
  S     -4.595240    4.353250   -2.185860
  C     -3.884690    5.639490   -1.152850
  O     -4.539800    6.424390   -0.541420
  C     -2.038750    7.479570    0.304520
  O     -2.692170    8.492130   -0.317740
  C     -3.044610    9.329540    0.685100
  C     -2.568300    8.760860    1.901270
  N     -1.931550    7.585790    1.582990
  C     -2.769390    9.363960    3.129570
  C     -3.468020   10.560080    3.074780
  C     -3.934450   11.111170    1.842830
  C     -3.737400   10.521660    0.609470
  O     -4.579220   12.259640    2.135710
  C     -4.488440   12.375200    3.493420
  N     -3.851140   11.407250    4.075630
  C     -5.088120   13.510850    4.128750
  C     -5.078000   13.655350    5.461940
  C     -5.685130   14.756110    6.179630
  C     -6.465270   14.518250    7.328130
  C     -6.714210   13.176380    7.895770
  O     -6.357520   12.116110    7.485460
  S     -7.709070   13.349690    9.392760
  C     -7.848940   15.121140    9.223930
  O     -8.465600   15.820830    9.971710
  C     -7.089600   15.542090    8.030670
  C     -6.974230   16.881290    7.654970
  C     -6.174710   17.124760    6.537050
  C     -5.538100   16.111330    5.825190
  C     -4.625210   16.625770    4.777820
  O     -3.886580   16.027840    4.059590
  S     -4.726880   18.429830    4.740010
  C     -5.898390   18.499880    6.081590
  O     -6.361150   19.509740    6.523810
  C     -7.652190   17.957250    8.378690
  C     -7.090820   18.552770    9.440670
  C     -7.597960   19.613360   10.303280
  C     -8.804620   20.239490   10.185000
  C     -9.256460   21.261760   11.048570
  N     -9.674180   22.094700   11.717590
  C     -9.757650   19.944430    9.185300
  N    -10.568500   19.746080    8.398510
  C     -6.578690   19.866570   11.311390
  C     -5.466960   18.998520   11.087540
  C     -5.735750   18.153910    9.922090
  O     -5.034560   17.300840    9.419200
  C     -4.361920   19.021060   11.891870
  C     -4.315190   19.924830   12.975380
  C     -5.421480   20.794320   13.206640
  C     -6.550850   20.751010   12.358860
  C     -5.364130   21.691540   14.292880
  C     -4.268500   21.729550   15.111790
  C     -3.180140   20.873790   14.882920
  C     -3.202670   19.990740   13.837620
  H     -2.925930   -0.462930    0.517050
  H      0.089580   -2.560620   -2.856700
  H     -0.527210   -4.753610   -2.042650
  H     -1.809350   -6.181560   -0.499800
  H     -3.305780   -5.172660    1.175810
  H     -3.534330   -2.724180    1.322330
  H      0.721170    3.002390   -3.254140
  H     -2.414730    8.940180    4.051640
  H     -4.095360   10.942260   -0.313810
  H     -5.565010   14.216230    3.464650
  H     -4.649330   12.858850    6.055000
  H     -8.629410   18.236820    8.008690
  H     -3.533360   18.354790   11.702250
  H     -7.371550   21.421390   12.559550
  H     -6.203960   22.348270   14.465180
  H     -4.234130   22.419690   15.941210
  H     -2.324070   20.917860   15.539190
  H     -2.367980   19.329620   13.656650

 Total Charge           Charge          ....    0
 Multiplicity           Mult            ....    1
 Number of Electrons    NEL             ....  604
 Basis Dimension        Dim             .... 1310

ORBITAL ENERGIES
----------------

  NO   OCC          E(Eh)            E(eV)
   0   2.0000     -88.961760     -2420.7726
   1   2.0000     -88.960353     -2420.7343
   2   2.0000     -88.959725     -2420.7172
   3   2.0000     -88.959099     -2420.7002
   4   2.0000     -19.303009      -525.2616
   5   2.0000     -19.300373      -525.1898
   6   2.0000     -19.256667      -524.0005
   7   2.0000     -19.253518      -523.9149
   8   2.0000     -19.253081      -523.9030
   9   2.0000     -19.252972      -523.9000
  10   2.0000     -19.252567      -523.8890
  11   2.0000     -19.252294      -523.8816
  12   2.0000     -19.251747      -523.8667
  13   2.0000     -19.251084      -523.8486
  14   2.0000     -19.234812      -523.4058
  15   2.0000     -19.229691      -523.2665
  16   2.0000     -14.425177      -392.5290
  17   2.0000     -14.425020      -392.5247
  18   2.0000     -14.422797      -392.4643
  19   2.0000     -14.422440      -392.4545
  20   2.0000     -14.414466      -392.2376
  21   2.0000     -14.409108      -392.0918
  22   2.0000     -10.417588      -283.4770
  23   2.0000     -10.416057      -283.4353
  24   2.0000     -10.415901      -283.4311
  25   2.0000     -10.415810      -283.4286
  26   2.0000     -10.415455      -283.4189
  27   2.0000     -10.414527      -283.3937
  28   2.0000     -10.413536      -283.3667
  29   2.0000     -10.413230      -283.3584
  30   2.0000     -10.384579      -282.5788
  31   2.0000     -10.382049      -282.5099
  32   2.0000     -10.378251      -282.4066
  33   2.0000     -10.371670      -282.2275
  34   2.0000     -10.355826      -281.7964
  35   2.0000     -10.352036      -281.6932
  36   2.0000     -10.351050      -281.6664
  37   2.0000     -10.350399      -281.6487
  38   2.0000     -10.350257      -281.6448
  39   2.0000     -10.347820      -281.5785
  40   2.0000     -10.345980      -281.5284
  41   2.0000     -10.344575      -281.4902
  42   2.0000     -10.343351      -281.4569
  43   2.0000     -10.343190      -281.4525
  44   2.0000     -10.342904      -281.4447
  45   2.0000     -10.341931      -281.4183
  46   2.0000     -10.340994      -281.3927
  47   2.0000     -10.340639      -281.3831
  48   2.0000     -10.337386      -281.2946
  49   2.0000     -10.335395      -281.2404
  50   2.0000     -10.335120      -281.2329
  51   2.0000     -10.334988      -281.2293
  52   2.0000     -10.333358      -281.1850
  53   2.0000     -10.333287      -281.1830
  54   2.0000     -10.326825      -281.0072
  55   2.0000     -10.326603      -281.0012
  56   2.0000     -10.324560      -280.9456
  57   2.0000     -10.324294      -280.9383
  58   2.0000     -10.317326      -280.7487
  59   2.0000     -10.314472      -280.6710
  60   2.0000     -10.311474      -280.5895
  61   2.0000     -10.309134      -280.5258
  62   2.0000     -10.308270      -280.5023
  63   2.0000     -10.308092      -280.4974
  64   2.0000     -10.307693      -280.4866
  65   2.0000     -10.306934      -280.4659
  66   2.0000     -10.306627      -280.4576
  67   2.0000     -10.306582      -280.4563
  68   2.0000     -10.306175      -280.4453
  69   2.0000     -10.305427      -280.4249
  70   2.0000     -10.305139      -280.4171
  71   2.0000     -10.304326      -280.3950
  72   2.0000     -10.302936      -280.3572
  73   2.0000     -10.300861      -280.3007
  74   2.0000     -10.299055      -280.2515
  75   2.0000     -10.297932      -280.2210
  76   2.0000     -10.295493      -280.1546
  77   2.0000     -10.295026      -280.1419
  78   2.0000     -10.294730      -280.1338
  79   2.0000     -10.294060      -280.1156
  80   2.0000     -10.293662      -280.1048
  81   2.0000     -10.293253      -280.0937
  82   2.0000     -10.292813      -280.0817
  83   2.0000     -10.292546      -280.0744
  84   2.0000     -10.291925      -280.0575
  85   2.0000     -10.282763      -279.8082
  86   2.0000      -8.060891      -219.3480
  87   2.0000      -8.059560      -219.3118
  88   2.0000      -8.058902      -219.2939
  89   2.0000      -8.058305      -219.2776
  90   2.0000      -6.029783      -164.0787
  91   2.0000      -6.028414      -164.0415
  92   2.0000      -6.027759      -164.0237
  93   2.0000      -6.027191      -164.0082
  94   2.0000      -6.026463      -163.9884
  95   2.0000      -6.025104      -163.9514
  96   2.0000      -6.024476      -163.9343
  97   2.0000      -6.023884      -163.9182
  98   2.0000      -6.021925      -163.8649
  99   2.0000      -6.020657      -163.8304
 100   2.0000      -6.019980      -163.8120
 101   2.0000      -6.019336      -163.7945
 102   2.0000      -1.234704       -33.5980
 103   2.0000      -1.229858       -33.4661
 104   2.0000      -1.180534       -32.1240
 105   2.0000      -1.178855       -32.0783
 106   2.0000      -1.178545       -32.0698
 107   2.0000      -1.177883       -32.0518
 108   2.0000      -1.175997       -32.0005
 109   2.0000      -1.174861       -31.9696
 110   2.0000      -1.174168       -31.9507
 111   2.0000      -1.173711       -31.9383
 112   2.0000      -1.149819       -31.2882
 113   2.0000      -1.144521       -31.1440
 114   2.0000      -1.037549       -28.2331
 115   2.0000      -1.030592       -28.0438
 116   2.0000      -1.028474       -27.9862
 117   2.0000      -1.026370       -27.9290
 118   2.0000      -1.024949       -27.8903
 119   2.0000      -1.020772       -27.7766
 120   2.0000      -1.008877       -27.4529
 121   2.0000      -1.005904       -27.3720
 122   2.0000      -1.003415       -27.3043
 123   2.0000      -1.001009       -27.2388
 124   2.0000      -0.982374       -26.7317
 125   2.0000      -0.979310       -26.6484
 126   2.0000      -0.978071       -26.6147
 127   2.0000      -0.974863       -26.5274
 128   2.0000      -0.962396       -26.1881
 129   2.0000      -0.949745       -25.8439
 130   2.0000      -0.945992       -25.7417
 131   2.0000      -0.934632       -25.4326
 132   2.0000      -0.930790       -25.3281
 133   2.0000      -0.927608       -25.2415
 134   2.0000      -0.926246       -25.2044
 135   2.0000      -0.904203       -24.6046
 136   2.0000      -0.902426       -24.5562
 137   2.0000      -0.891849       -24.2684
 138   2.0000      -0.890981       -24.2448
 139   2.0000      -0.888286       -24.1715
 140   2.0000      -0.871128       -23.7046
 141   2.0000      -0.863746       -23.5037
 142   2.0000      -0.863458       -23.4959
 143   2.0000      -0.860285       -23.4095
 144   2.0000      -0.851038       -23.1579
 145   2.0000      -0.838660       -22.8211
 146   2.0000      -0.837695       -22.7948
 147   2.0000      -0.836007       -22.7489
 148   2.0000      -0.813438       -22.1348
 149   2.0000      -0.809339       -22.0232
 150   2.0000      -0.806115       -21.9355
 151   2.0000      -0.803461       -21.8633
 152   2.0000      -0.786276       -21.3957
 153   2.0000      -0.773528       -21.0488
 154   2.0000      -0.770155       -20.9570
 155   2.0000      -0.765846       -20.8397
 156   2.0000      -0.755177       -20.5494
 157   2.0000      -0.736156       -20.0318
 158   2.0000      -0.733629       -19.9631
 159   2.0000      -0.731585       -19.9074
 160   2.0000      -0.725792       -19.7498
 161   2.0000      -0.717013       -19.5109
 162   2.0000      -0.714318       -19.4376
 163   2.0000      -0.711822       -19.3697
 164   2.0000      -0.708456       -19.2781
 165   2.0000      -0.705472       -19.1969
 166   2.0000      -0.704278       -19.1644
 167   2.0000      -0.697079       -18.9685
 168   2.0000      -0.689545       -18.7635
 169   2.0000      -0.683558       -18.6006
 170   2.0000      -0.678592       -18.4654
 171   2.0000      -0.671154       -18.2630
 172   2.0000      -0.668877       -18.2011
 173   2.0000      -0.660970       -17.9859
 174   2.0000      -0.652845       -17.7648
 175   2.0000      -0.651377       -17.7249
 176   2.0000      -0.648262       -17.6401
 177   2.0000      -0.643445       -17.5090
 178   2.0000      -0.642130       -17.4733
 179   2.0000      -0.638018       -17.3614
 180   2.0000      -0.637358       -17.3434
 181   2.0000      -0.632390       -17.2082
 182   2.0000      -0.627390       -17.0721
 183   2.0000      -0.621903       -16.9229
 184   2.0000      -0.619119       -16.8471
 185   2.0000      -0.616651       -16.7799
 186   2.0000      -0.616007       -16.7624
 187   2.0000      -0.614428       -16.7194
 188   2.0000      -0.611724       -16.6459
 189   2.0000      -0.598297       -16.2805
 190   2.0000      -0.597633       -16.2624
 191   2.0000      -0.584875       -15.9153
 192   2.0000      -0.584317       -15.9001
 193   2.0000      -0.581432       -15.8216
 194   2.0000      -0.576380       -15.6841
 195   2.0000      -0.574659       -15.6373
 196   2.0000      -0.572773       -15.5860
 197   2.0000      -0.570587       -15.5265
 198   2.0000      -0.564711       -15.3666
 199   2.0000      -0.563175       -15.3248
 200   2.0000      -0.561660       -15.2836
 201   2.0000      -0.560468       -15.2511
 202   2.0000      -0.560069       -15.2403
 203   2.0000      -0.557471       -15.1696
 204   2.0000      -0.556772       -15.1505
 205   2.0000      -0.554300       -15.0833
 206   2.0000      -0.554011       -15.0754
 207   2.0000      -0.553119       -15.0511
 208   2.0000      -0.550269       -14.9736
 209   2.0000      -0.549291       -14.9470
 210   2.0000      -0.547743       -14.9048
 211   2.0000      -0.546412       -14.8686
 212   2.0000      -0.546030       -14.8582
 213   2.0000      -0.544742       -14.8232
 214   2.0000      -0.543497       -14.7893
 215   2.0000      -0.542705       -14.7678
 216   2.0000      -0.542093       -14.7511
 217   2.0000      -0.541072       -14.7233
 218   2.0000      -0.537438       -14.6244
 219   2.0000      -0.534391       -14.5415
 220   2.0000      -0.533499       -14.5172
 221   2.0000      -0.530094       -14.4246
 222   2.0000      -0.529323       -14.4036
 223   2.0000      -0.525152       -14.2901
 224   2.0000      -0.522564       -14.2197
 225   2.0000      -0.520524       -14.1642
 226   2.0000      -0.519984       -14.1495
 227   2.0000      -0.518629       -14.1126
 228   2.0000      -0.517031       -14.0691
 229   2.0000      -0.516917       -14.0660
 230   2.0000      -0.513353       -13.9690
 231   2.0000      -0.512422       -13.9437
 232   2.0000      -0.509356       -13.8603
 233   2.0000      -0.506560       -13.7842
 234   2.0000      -0.504739       -13.7346
 235   2.0000      -0.503876       -13.7112
 236   2.0000      -0.503563       -13.7026
 237   2.0000      -0.494269       -13.4498
 238   2.0000      -0.493101       -13.4180
 239   2.0000      -0.486750       -13.2451
 240   2.0000      -0.485577       -13.2132
 241   2.0000      -0.482566       -13.1313
 242   2.0000      -0.481797       -13.1104
 243   2.0000      -0.480345       -13.0708
 244   2.0000      -0.478329       -13.0160
 245   2.0000      -0.476537       -12.9672
 246   2.0000      -0.474549       -12.9131
 247   2.0000      -0.472770       -12.8647
 248   2.0000      -0.461837       -12.5672
 249   2.0000      -0.457357       -12.4453
 250   2.0000      -0.455205       -12.3868
 251   2.0000      -0.453044       -12.3280
 252   2.0000      -0.450996       -12.2722
 253   2.0000      -0.449730       -12.2378
 254   2.0000      -0.447397       -12.1743
 255   2.0000      -0.447234       -12.1699
 256   2.0000      -0.445033       -12.1100
 257   2.0000      -0.443418       -12.0660
 258   2.0000      -0.442935       -12.0529
 259   2.0000      -0.440861       -11.9964
 260   2.0000      -0.440552       -11.9880
 261   2.0000      -0.436119       -11.8674
 262   2.0000      -0.434293       -11.8177
 263   2.0000      -0.433503       -11.7962
 264   2.0000      -0.429403       -11.6846
 265   2.0000      -0.426805       -11.6140
 266   2.0000      -0.419854       -11.4248
 267   2.0000      -0.418063       -11.3761
 268   2.0000      -0.415773       -11.3138
 269   2.0000      -0.414068       -11.2674
 270   2.0000      -0.413308       -11.2467
 271   2.0000      -0.397897       -10.8273
 272   2.0000      -0.391849       -10.6627
 273   2.0000      -0.388558       -10.5732
 274   2.0000      -0.387549       -10.5458
 275   2.0000      -0.385834       -10.4991
 276   2.0000      -0.383771       -10.4430
 277   2.0000      -0.383277       -10.4295
 278   2.0000      -0.382948       -10.4206
 279   2.0000      -0.375608       -10.2208
 280   2.0000      -0.373861       -10.1733
 281   2.0000      -0.372694       -10.1415
 282   2.0000      -0.369226       -10.0472
 283   2.0000      -0.366402        -9.9703
 284   2.0000      -0.363131        -9.8813
 285   2.0000      -0.361862        -9.8468
 286   2.0000      -0.360884        -9.8202
 287   2.0000      -0.360124        -9.7995
 288   2.0000      -0.359355        -9.7785
 289   2.0000      -0.353437        -9.6175
 290   2.0000      -0.351257        -9.5582
 291   2.0000      -0.349395        -9.5075
 292   2.0000      -0.344428        -9.3724
 293   2.0000      -0.333708        -9.0807
 294   2.0000      -0.332366        -9.0441
 295   2.0000      -0.329289        -8.9604
 296   2.0000      -0.324649        -8.8342
 297   2.0000      -0.321777        -8.7560
 298   2.0000      -0.302631        -8.2350
 299   2.0000      -0.300172        -8.1681
 300   2.0000      -0.299989        -8.1631
 301   2.0000      -0.281663        -7.6644
 302   0.0000      -0.106217        -2.8903
 303   0.0000      -0.105326        -2.8661
 304   0.0000      -0.103755        -2.8233
 305   0.0000      -0.092505        -2.5172
 306   0.0000      -0.076823        -2.0905

MULLIKEN ATOMIC CHARGES
-----------------------
   0 C :    0.309200
   1 C :   -0.324016
   2 C :   -0.184748
   3 N :    0.160742
   4 C :   -0.192294
   5 N :    0.168966
   6 C :    0.053598
   7 C :   -0.006369
   8 C :   -0.068784
   9 C :    0.094487
  10 C :    0.097576
  11 C :   -0.081816
  12 C :   -0.016294
  13 C :    0.038153
  14 C :    0.037318
  15 C :   -0.014124
  16 C :    0.164950
  17 O :   -0.160503
  18 C :   -0.032422
  19 C :   -0.056717
  20 C :    0.009711
  21 C :    0.032826
  22 C :    0.049007
  23 O :   -0.125697
  24 S :    0.030148
  25 C :    0.045683
  26 O :   -0.094601
  27 C :    0.064873
  28 C :    0.029859
  29 C :    0.057079
  30 C :    0.070759
  31 C :    0.046797
  32 O :   -0.124518
  33 S :    0.031391
  34 C :    0.050929
  35 O :   -0.107387
  36 C :    0.019998
  37 O :   -0.189099
  38 C :    0.233888
  39 C :    0.031820
  40 N :   -0.036258
  41 C :   -0.080082
  42 C :    0.025756
  43 C :    0.211183
  44 C :   -0.157979
  45 O :   -0.198457
  46 C :    0.089340
  47 N :   -0.044967
  48 C :    0.056752
  49 C :   -0.028394
  50 C :    0.029598
  51 C :    0.067327
  52 C :    0.027487
  53 O :   -0.109157
  54 S :    0.026140
  55 C :    0.048123
  56 O :   -0.120319
  57 C :    0.052484
  58 C :   -0.024853
  59 C :    0.050958
  60 C :    0.057814
  61 C :    0.021072
  62 O :   -0.105531
  63 S :    0.025956
  64 C :    0.047471
  65 O :   -0.120991
  66 C :   -0.094616
  67 C :    0.005581
  68 C :    0.344287
  69 C :   -0.330539
  70 C :   -0.186071
  71 N :    0.155693
  72 C :   -0.195776
  73 N :    0.164477
  74 C :    0.041729
  75 C :   -0.008177
  76 C :    0.150128
  77 O :   -0.156391
  78 C :   -0.069960
  79 C :    0.096276
  80 C :    0.095998
  81 C :   -0.079532
  82 C :   -0.018064
  83 C :    0.036723
  84 C :    0.037140
  85 C :   -0.014318
  86 H :   -0.008401
  87 H :   -0.005032
  88 H :   -0.005643
  89 H :    0.000812
  90 H :   -0.000782
  91 H :   -0.013727
  92 H :    0.054225
  93 H :   -0.021460
  94 H :   -0.012843
  95 H :    0.006495
  96 H :    0.052834
  97 H :    0.056750
  98 H :   -0.011254
  99 H :   -0.005189
 100 H :   -0.006066
 101 H :   -0.000642
 102 H :   -0.001225
 103 H :   -0.014281
Sum of atomic charges:   -0.0000000

LOEWDIN ATOMIC CHARGES
----------------------
   0 C :    0.076346
   1 C :   -0.117584
   2 C :   -0.015979
   3 N :   -0.041598
   4 C :   -0.017786
   5 N :   -0.037632
   6 C :   -0.022492
   7 C :   -0.057635
   8 C :    0.040927
   9 C :   -0.007677
  10 C :   -0.002496
  11 C :    0.022784
  12 C :   -0.003972
  13 C :   -0.008227
  14 C :   -0.008803
  15 C :   -0.006773
  16 C :    0.093855
  17 O :   -0.141933
  18 C :   -0.054302
  19 C :    0.071847
  20 C :    0.031401
  21 C :   -0.045952
  22 C :   -0.046533
  23 O :   -0.106363
  24 S :    0.314146
  25 C :   -0.039218
  26 O :   -0.087684
  27 C :   -0.038691
  28 C :    0.020090
  29 C :   -0.038507
  30 C :   -0.026516
  31 C :   -0.043931
  32 O :   -0.111724
  33 S :    0.322248
  34 C :   -0.041464
  35 O :   -0.097224
  36 C :    0.048908
  37 O :    0.003084
  38 C :    0.043556
  39 C :   -0.031554
  40 N :   -0.081129
  41 C :   -0.009278
  42 C :   -0.033826
  43 C :    0.038301
  44 C :   -0.058080
  45 O :   -0.005290
  46 C :    0.061024
  47 N :   -0.092245
  48 C :   -0.005363
  49 C :    0.007142
  50 C :    0.035075
  51 C :   -0.046385
  52 C :   -0.039001
  53 O :   -0.093962
  54 S :    0.311439
  55 C :   -0.047101
  56 O :   -0.109788
  57 C :   -0.042055
  58 C :    0.035250
  59 C :   -0.043045
  60 C :   -0.050487
  61 C :   -0.039703
  62 O :   -0.097565
  63 S :    0.312320
  64 C :   -0.048568
  65 O :   -0.108783
  66 C :    0.085101
  67 C :   -0.062501
  68 C :    0.078639
  69 C :   -0.120478
  70 C :   -0.016153
  71 N :   -0.044071
  72 C :   -0.014406
  73 N :   -0.042193
  74 C :   -0.022715
  75 C :   -0.058522
  76 C :    0.088805
  77 O :   -0.147463
  78 C :    0.037914
  79 C :   -0.007775
  80 C :   -0.003638
  81 C :    0.022923
  82 C :   -0.004226
  83 C :   -0.009494
  84 C :   -0.009675
  85 C :   -0.007761
  86 H :    0.041100
  87 H :    0.040250
  88 H :    0.036173
  89 H :    0.035267
  90 H :    0.034602
  91 H :    0.033396
  92 H :    0.052304
  93 H :    0.044328
  94 H :    0.044677
  95 H :    0.036933
  96 H :    0.047316
  97 H :    0.055056
  98 H :    0.040219
  99 H :    0.040255
 100 H :    0.035950
 101 H :    0.034761
 102 H :    0.034262
 103 H :    0.033003

  Mayer bond orders larger than 0.100000
B(  0-C ,  1-C ) :   1.6840 B(  0-C ,  6-C ) :   1.0043 B(  0-C , 18-C ) :   1.0261
B(  1-C ,  2-C ) :   1.1383 B(  1-C ,  4-C ) :   1.1419 B(  2-C ,  3-N ) :   2.9703
B(  4-C ,  5-N ) :   2.9787 B(  6-C ,  7-C ) :   1.2077 B(  6-C , 11-C ) :   1.4454
B(  7-C ,  8-C ) :   1.4573 B(  7-C , 16-C ) :   0.9630 B(  8-C ,  9-C ) :   1.1895
B(  8-C , 86-H ) :   1.0166 B(  9-C , 10-C ) :   1.2510 B(  9-C , 15-C ) :   1.2399
B( 10-C , 11-C ) :   1.2114 B( 10-C , 12-C ) :   1.2398 B( 11-C , 87-H ) :   0.9896
B( 12-C , 13-C ) :   1.4904 B( 12-C , 88-H ) :   0.9974 B( 13-C , 14-C ) :   1.2581
B( 13-C , 89-H ) :   0.9881 B( 14-C , 15-C ) :   1.4933 B( 14-C , 90-H ) :   0.9885
B( 15-C , 91-H ) :   0.9978 B( 16-C , 17-O ) :   2.1822 B( 16-C , 18-C ) :   0.9191
B( 18-C , 19-C ) :   1.7762 B( 19-C , 20-C ) :   1.0086 B( 19-C , 92-H ) :   0.9095
B( 20-C , 21-C ) :   1.4273 B( 20-C , 30-C ) :   1.3804 B( 21-C , 22-C ) :   0.8441
B( 21-C , 27-C ) :   1.2856 B( 22-C , 23-O ) :   2.1554 B( 22-C , 24-S ) :   1.0459
B( 23-O , 24-S ) :   0.1107 B( 24-S , 25-C ) :   1.0152 B( 24-S , 26-O ) :   0.1083
B( 25-C , 26-O ) :   2.2202 B( 25-C , 27-C ) :   0.8257 B( 27-C , 28-C ) :   1.4779
B( 28-C , 29-C ) :   1.4213 B( 28-C , 36-C ) :   0.9068 B( 29-C , 30-C ) :   1.3389
B( 29-C , 34-C ) :   0.8308 B( 30-C , 31-C ) :   0.8231 B( 31-C , 32-O ) :   2.1902
B( 31-C , 33-S ) :   1.0353 B( 32-O , 33-S ) :   0.1097 B( 33-S , 34-C ) :   1.0309
B( 33-S , 35-O ) :   0.1082 B( 34-C , 35-O ) :   2.1989 B( 36-C , 37-O ) :   1.1513
B( 36-C , 40-N ) :   1.7971 B( 37-O , 38-C ) :   1.0983 B( 38-C , 39-C ) :   1.2578
B( 38-C , 44-C ) :   1.3114 B( 39-C , 40-N ) :   1.2649 B( 39-C , 41-C ) :   1.2872
B( 41-C , 42-C ) :   1.2809 B( 41-C , 44-C ) :   0.1530 B( 41-C , 93-H ) :   1.0511
B( 42-C , 43-C ) :   1.2511 B( 42-C , 47-N ) :   1.2921 B( 43-C , 44-C ) :   1.3178
B( 43-C , 45-O ) :   1.1134 B( 44-C , 94-H ) :   1.0461 B( 45-O , 46-C ) :   1.1250
B( 46-C , 47-N ) :   1.7563 B( 46-C , 48-C ) :   1.1184 B( 48-C , 49-C ) :   1.7655
B( 48-C , 95-H ) :   0.9452 B( 49-C , 50-C ) :   1.0617 B( 49-C , 96-H ) :   0.9357
B( 50-C , 51-C ) :   1.3666 B( 50-C , 60-C ) :   1.3591 B( 51-C , 52-C ) :   0.8384
B( 51-C , 57-C ) :   1.3228 B( 52-C , 53-O ) :   2.1842 B( 52-C , 54-S ) :   1.0237
B( 53-O , 54-S ) :   0.1054 B( 54-S , 55-C ) :   1.0365 B( 54-S , 56-O ) :   0.1098
B( 55-C , 56-O ) :   2.1757 B( 55-C , 57-C ) :   0.8408 B( 57-C , 58-C ) :   1.4142
B( 58-C , 59-C ) :   1.4231 B( 58-C , 66-C ) :   0.9848 B( 59-C , 60-C ) :   1.3178
B( 59-C , 64-C ) :   0.8440 B( 60-C , 61-C ) :   0.8295 B( 61-C , 62-O ) :   2.2049
B( 61-C , 63-S ) :   1.0200 B( 62-O , 63-S ) :   0.1056 B( 63-S , 64-C ) :   1.0378
B( 63-S , 65-O ) :   0.1091 B( 64-C , 65-O ) :   2.1679 B( 66-C , 67-C ) :   1.7696
B( 66-C , 97-H ) :   0.9231 B( 67-C , 68-C ) :   1.0099 B( 67-C , 76-C ) :   0.9235
B( 68-C , 69-C ) :   1.6796 B( 68-C , 74-C ) :   1.0034 B( 69-C , 70-C ) :   1.1338
B( 69-C , 72-C ) :   1.1549 B( 70-C , 71-N ) :   2.9683 B( 72-C , 73-N ) :   2.9698
B( 74-C , 75-C ) :   1.2096 B( 74-C , 81-C ) :   1.4460 B( 75-C , 76-C ) :   0.9547
B( 75-C , 78-C ) :   1.4654 B( 76-C , 77-O ) :   2.2028 B( 78-C , 79-C ) :   1.1856
B( 78-C , 98-H ) :   1.0154 B( 79-C , 80-C ) :   1.2521 B( 79-C , 85-C ) :   1.2423
B( 80-C , 81-C ) :   1.2129 B( 80-C , 82-C ) :   1.2376 B( 81-C , 99-H ) :   0.9886
B( 82-C , 83-C ) :   1.4914 B( 82-C ,100-H ) :   0.9972 B( 83-C , 84-C ) :   1.2591
B( 83-C ,101-H ) :   0.9885 B( 84-C , 85-C ) :   1.4900 B( 84-C ,102-H ) :   0.9884
B( 85-C ,103-H ) :   0.9974

-----------------------------------------------------------------------------
         ABSORPTION SPECTRUM VIA TRANSITION ELECTRIC DIPOLE MOMENTS
-----------------------------------------------------------------------------
State   Energy  Wavelength   fosc         T2         TX        TY        TZ
        (cm-1)    (nm)                  (au**2)     (au)      (au)      (au)
-----------------------------------------------------------------------------
   0   21091.7    474.1   0.029498327   0.46043   0.15809   0.63308  -0.18612
   1   22843.8    437.8   0.007718703   0.11124   0.32657  -0.06338  -0.02392
   2   25079.7    398.7   0.028980415   0.38041  -0.10389   0.60187   0.08585
   3   25165.7    397.4   0.117027840   1.53093  -0.67489   0.82107   0.63349
   4   25611.4    390.5   0.036807950   0.47313  -0.30275   0.46875   0.40219
   5   25876.9    386.4   0.551408307   7.01514   0.69584  -2.05472  -1.51955
   6   26233.6    381.2   0.027597168   0.34632   0.13996  -0.56553   0.08317
   7   26928.2    371.4   0.090680470   1.10862  -0.41494   0.54724   0.79810
   8   27555.4    362.9   0.507616936   6.06464   0.75534  -1.83603  -1.45709
   9   28030.0    356.8   0.101771084   1.19530  -0.56902  -0.30573  -0.88207
  10   28169.9    355.0   0.023230680   0.27149   0.49654  -0.07653  -0.13812
  11   28548.0    350.3   0.003183548   0.03671   0.09353   0.16066  -0.04638
  12   28748.1    347.8   0.020331528   0.23283  -0.34358  -0.11499   0.31869
  13   28900.4    346.0   0.006495281   0.07399  -0.04511  -0.01942   0.26754
  14   29048.2    344.3   0.064092936   0.72638  -0.23418   0.37571   0.72828
  15   29170.5    342.8   0.056726250   0.64020   0.00762   0.70397   0.38022
  16   29373.6    340.4   0.038796807   0.43483  -0.10248   0.62732   0.17548
  17   29760.9    336.0   0.005331353   0.05897   0.00556  -0.10171  -0.22045
  18   30005.9    333.3   0.014833099   0.16274   0.35503  -0.04001   0.18733
  19   30291.5    330.1   0.000231481   0.00252   0.01461  -0.04755  -0.00645
  20   30399.8    328.9   0.108938792   1.17974  -0.31779  -1.02373   0.17531
  21   30858.8    324.1   0.192780082   2.05664  -0.04562   1.38071   0.38498
  22   31182.8    320.7   0.014678149   0.15496   0.15639  -0.33102  -0.14468
  23   31306.3    319.4   0.011178164   0.11755  -0.08368  -0.22142  -0.24803
  24   31812.3    314.3   0.025342278   0.26226  -0.12317   0.44963   0.21195
  25   31892.9    313.5   0.070560731   0.72836   0.14205   0.82680  -0.15678
  26   32362.6    309.0   0.065681411   0.66815  -0.17967   0.73531   0.30854
  27   32602.1    306.7   0.007363003   0.07435  -0.11770  -0.23322   0.07815
  28   32791.1    305.0   0.141385440   1.41947  -0.85077   0.46971   0.68922
  29   32841.0    304.5   0.434493649   4.35555   0.80397   1.53431  -1.16407
  30   33044.4    302.6   0.075684908   0.75403  -0.26465   0.37098   0.73916
  31   33456.7    298.9   0.022643377   0.22281  -0.42620   0.20282   0.00525
  32   33593.3    297.7   0.318854871   3.12476   0.65832   1.35268  -0.92823
  33   33654.2    297.1   0.113193469   1.10728   0.88641  -0.11403  -0.55548
  34   33807.9    295.8   0.022070820   0.21492  -0.22322   0.18341  -0.36256
  35   33989.1    294.2   0.133923328   1.29716   0.12369   0.97558  -0.57454
  36   34487.8    290.0   0.018379465   0.17545   0.25448   0.27818   0.18249
  37   34681.1    288.3   0.144780676   1.37434   0.64595   0.21966   0.95333
  38   34705.8    288.1   1.057867699  10.03470   2.29763   0.47360   2.12869
  39   35035.0    285.4   0.016688451   0.15682   0.12031  -0.24321  -0.28843
  40   35318.9    283.1   0.136530660   1.27262  -0.00077  -1.11576  -0.16643
  41   35722.0    279.9   0.072584392   0.66893  -0.47825  -0.66325  -0.01772
  42   35878.7    278.7   0.034567019   0.31718   0.08544  -0.16805  -0.53069
  43   35961.9    278.1   0.008704331   0.07968   0.23056   0.12907  -0.09932
  44   36032.2    277.5   0.033757487   0.30843  -0.27450  -0.43264   0.21425
  45   36268.7    275.7   0.031921160   0.28975   0.11566   0.51331   0.11350
  46   36317.3    275.4   0.035057676   0.31779  -0.37484  -0.36845   0.20380
  47   36522.4    273.8   0.028637527   0.25814  -0.21255   0.10893  -0.44844
  48   37068.3    269.8   0.013981546   0.12417  -0.08811   0.33799  -0.04663
  49   37146.9    269.2   0.005153659   0.04567   0.02654  -0.14410   0.15558
  50   37207.0    268.8   0.065836665   0.58253   0.58282  -0.33220   0.36400
  51   37286.6    268.2   0.001349490   0.01191  -0.10743   0.01755  -0.00817
  52   37337.8    267.8   0.001911541   0.01685   0.04675  -0.12031  -0.01392
  53   37486.0    266.8   0.065195125   0.57256  -0.37864   0.50543   0.41681
  54   37619.5    265.8   0.058640534   0.51317  -0.59963  -0.35150   0.17339
  55   37681.2    265.4   0.006396370   0.05588   0.16865   0.16561   0.00372
  56   37746.3    264.9   0.088634493   0.77304  -0.00548  -0.58232  -0.65872
  57   37941.4    263.6   0.010979587   0.09527   0.22310  -0.01413  -0.21283
  58   38044.9    262.8   0.008625208   0.07464   0.15958  -0.13239  -0.17789
  59   38071.6    262.7   0.101535098   0.87799  -0.10462  -0.59050  -0.71997
  60   38138.4    262.2   0.049833914   0.43017   0.03844   0.52954   0.38507
  61   38270.9    261.3   0.031627746   0.27207   0.47827  -0.17751  -0.10867
  62   38661.5    258.7   0.119656249   1.01890   0.55143  -0.35608  -0.76683
  63   38753.9    258.0   0.010066823   0.08552   0.10673   0.15950  -0.22065
  64   38948.4    256.8   0.444709104   3.75892   0.88383  -1.46208  -0.91656
  65   39305.1    254.4   0.013189228   0.11047  -0.23225   0.02513   0.23643
  66   39505.7    253.1   0.156227399   1.30189  -0.44309   0.88000   0.57547
  67   39598.9    252.5   0.022851193   0.18998  -0.06287   0.28364   0.32492
  68   39877.4    250.8   0.009588834   0.07916   0.08905   0.21933   0.15207
  69   40253.7    248.4   0.020603340   0.16850   0.24836   0.28986  -0.15100

FINAL SINGLE POINT ENERGY     -5268.616033536487

DIPOLE MOMENT
-------------
                                X             Y             Z
Electronic contribution:     -1.92199       8.31904     -30.40531
Nuclear contribution   :      2.52121      -9.72818      32.74733
                        -----------------------------------------
Total Dipole Moment    :      0.59922      -1.40913       2.34202
                        -----------------------------------------
Magnitude (a.u.)       :      2.79817
Magnitude (Debye)      :      7.11239

Rotational constants in cm-1:     0.001754     0.000146     0.000144
Rotational constants in MHz :    52.575967     4.362480     4.308976

                             ****ORCA TERMINATED NORMALLY****
TOTAL RUN TIME: 0 days 0 hours 11 minutes 9 seconds 9 msec
