                         Program Version 4.2.0 -  RELEASE  -
|  1> # ORCA input file
|  2> # SCF done       -204.916280691459          0.000527318704
|  3> ! CAM-B3LYP def2-SVP def2/J RIJCOSX Grid4 TightSCF
|  4> %maxcore 5000
|  5> %tddft
|  6>     Mode sTDDFT
|  7>     Ethresh 5.0
|  8>     maxcore 5000
|  9> end
| 10>
| 11> %pal
| 12>   nprocs 6
| 13>   end
| 14> * xyz 0 1
| 15>    C        5.22322         2.06850         2.32569
| 16>    C        4.59392         1.15014         1.52725
| 17>    C        4.97472        -0.20557         1.43280
| 18>    N        5.23519        -1.31692         1.31318
| 19>    C        3.47128         1.41417         0.71450
| 20>    N        2.55484         1.55686         0.03672
| 21>    C        6.35029         1.80086         3.20818
| 22>    C        6.62939         2.97809         3.95990
| 23>    C        7.64392         3.02859         4.87219
| 24>    C        8.44259         1.88187         5.07787
| 25>    C        8.17335         0.70115         4.32633
| 26>    C        7.11570         0.67856         3.38912
| 27>    C        8.98052        -0.43567         4.53584
| 28>    C       10.00387        -0.40951         5.44378
| 29>    C       10.26750         0.75319         6.18346
| 30>    C        9.50310         1.87430         6.00504
| 31>    C        5.68261         4.04208         3.58667
| 32>    O        5.62630         5.15789         4.05517
| 33>    C        4.85409         3.46700         2.49016
| 34>    C        4.05165         4.17248         1.65015
| 35>    C        3.63127         5.52840         1.78043
| 36>    C        3.30524         6.21031         2.91864
| 37>    C        2.74562         7.49101         2.54385
| 38>    C        2.32688         8.47346         3.45205
| 39>    N        1.96825         9.27857         4.18697
| 40>    C        2.68650         7.57546         1.17770
| 41>    C        3.25629         6.37592         0.62982
| 42>    C        3.54371         6.12954        -0.68830
| 43>    C        3.00212         6.84430        -1.87464
| 44>    C        3.72649         6.43174        -2.95943
| 45>    C        4.69931         5.46225        -2.52372
| 46>    C        4.56053         5.24930        -1.17377
| 47>    C        5.64008         4.85138        -3.36524
| 48>    N        6.41068         4.35953        -4.05890
| 49>    C        1.85958         7.68913        -1.86721
| 50>    C        1.55160         8.54001        -2.88063
| 51>    C        0.42697         9.39764        -2.92124
| 52>    S        0.30465        10.52346        -4.26562
| 53>    C       -1.16280        11.15694        -3.63241
| 54>    C       -1.53153        10.50859        -2.44172
| 55>    C       -0.63665         9.52315        -2.04044
| 56>    S       -3.01857        11.13132        -1.77363
| 57>    C       -3.13287        12.26758        -3.08801
| 58>    C       -4.04096        13.27128        -3.41843
| 59>    C       -3.69582        13.92013        -4.58780
| 60>    S       -2.19613        13.29373        -5.27397
| 61>    C       -2.06491        12.15485        -3.99441
| 62>    C       -4.31567        15.05984        -5.17091
| 63>    C       -5.02638        16.03070        -4.52442
| 64>    C       -5.20257        17.13853        -5.43078
| 65>    C       -5.92654        18.29809        -5.11902
| 66>    N       -6.52604        19.23872        -4.84987
| 67>    C       -4.55943        16.87272        -6.61877
| 68>    C       -4.06163        15.53911        -6.55229
| 69>    C       -3.65238        14.74906        -7.60054
| 70>    C       -3.02359        15.16632        -8.86927
| 71>    C       -2.91467        14.04418        -9.65464
| 72>    C       -3.47756        12.92557        -8.94584
| 73>    C       -3.87250        13.33616        -7.69528
| 74>    C       -3.59402        11.62639        -9.45956
| 75>    N       -3.68524        10.55999        -9.87362
| 76>    C       -2.45464        16.44472        -9.10026
| 77>    C       -1.77589        16.79328       -10.22899
| 78>    C       -1.16777        18.05858       -10.36595
| 79>    C       -0.38764        18.43608       -11.42447
| 80>    C        0.28825        19.70786       -11.59671
| 81>    C        0.18185        20.81380       -10.79139
| 82>    C        0.86156        22.02826       -11.02198
| 83>    N        1.38505        23.04218       -11.14865
| 84>    C       -0.61675        20.91324        -9.63357
| 85>    N       -1.24166        21.07254        -8.68286
| 86>    C        1.10329        19.61866       -12.80368
| 87>    C        0.90528        18.33771       -13.39381
| 88>    C       -0.03973        17.56069       -12.57546
| 89>    O       -0.43523        16.43511       -12.80016
| 90>    C        1.54647        17.96203       -14.53882
| 91>    C        2.43773        18.86649       -15.15779
| 92>    C        2.64447        20.14919       -14.57290
| 93>    C        1.96282        20.51115       -13.38821
| 94>    C        3.54004        21.04242       -15.19535
| 95>    C        4.20066        20.68723       -16.33989
| 96>    C        3.99606        19.42405       -16.91489
| 97>    C        3.13288        18.53314       -16.33670
| 98>    H        7.83446         3.93380         5.42949
| 99>    H        6.94186        -0.22748         2.83064
|100>    H        8.77312        -1.32861         3.96469
|101>    H       10.61646        -1.28518         5.59708
|102>    H       11.07956         0.75625         6.89496
|103>    H        9.70135         2.77245         6.57142
|104>    H        3.68531         3.67237         0.76193
|105>    H        3.39237         5.86636         3.93036
|106>    H        2.39381         8.44215         0.61660
|107>    H        3.58797         6.71744        -3.98457
|108>    H        5.19842         4.63202        -0.57148
|109>    H        1.20734         7.63126        -1.00874
|110>    H        2.22437         8.61728        -3.72355
|111>    H       -0.75687         8.92478        -1.15697
|112>    H       -4.92196        13.50593        -2.85088
|113>    H       -5.35507        16.02698        -3.50291
|114>    H       -4.58122        17.49444        -7.49283
|115>    H       -2.47170        13.97406       -10.62973
|116>    H       -4.39446        12.73844        -6.97231
|117>    H       -2.52857        17.17013        -8.30026
|118>    H       -1.66911        16.09315       -11.04253
|119>    H       -1.31595        18.75679        -9.55177
|120>    H        1.37786        16.98413       -14.96502
|121>    H        2.14454        21.48856       -12.97063
|122>    H        3.69423        22.01393       -14.74913
|123>    H        4.88521        21.37815       -16.80865
|124>    H        4.52595        19.16029       -17.81793
|125>    H        2.97135        17.55894       -16.77456
|126> *
|127>
|128>                          ****END OF INPUT****

CARTESIAN COORDINATES (ANGSTROEM)
---------------------------------
  C      5.223220    2.068500    2.325690
  C      4.593920    1.150140    1.527250
  C      4.974720   -0.205570    1.432800
  N      5.235190   -1.316920    1.313180
  C      3.471280    1.414170    0.714500
  N      2.554840    1.556860    0.036720
  C      6.350290    1.800860    3.208180
  C      6.629390    2.978090    3.959900
  C      7.643920    3.028590    4.872190
  C      8.442590    1.881870    5.077870
  C      8.173350    0.701150    4.326330
  C      7.115700    0.678560    3.389120
  C      8.980520   -0.435670    4.535840
  C     10.003870   -0.409510    5.443780
  C     10.267500    0.753190    6.183460
  C      9.503100    1.874300    6.005040
  C      5.682610    4.042080    3.586670
  O      5.626300    5.157890    4.055170
  C      4.854090    3.467000    2.490160
  C      4.051650    4.172480    1.650150
  C      3.631270    5.528400    1.780430
  C      3.305240    6.210310    2.918640
  C      2.745620    7.491010    2.543850
  C      2.326880    8.473460    3.452050
  N      1.968250    9.278570    4.186970
  C      2.686500    7.575460    1.177700
  C      3.256290    6.375920    0.629820
  C      3.543710    6.129540   -0.688300
  C      3.002120    6.844300   -1.874640
  C      3.726490    6.431740   -2.959430
  C      4.699310    5.462250   -2.523720
  C      4.560530    5.249300   -1.173770
  C      5.640080    4.851380   -3.365240
  N      6.410680    4.359530   -4.058900
  C      1.859580    7.689130   -1.867210
  C      1.551600    8.540010   -2.880630
  C      0.426970    9.397640   -2.921240
  S      0.304650   10.523460   -4.265620
  C     -1.162800   11.156940   -3.632410
  C     -1.531530   10.508590   -2.441720
  C     -0.636650    9.523150   -2.040440
  S     -3.018570   11.131320   -1.773630
  C     -3.132870   12.267580   -3.088010
  C     -4.040960   13.271280   -3.418430
  C     -3.695820   13.920130   -4.587800
  S     -2.196130   13.293730   -5.273970
  C     -2.064910   12.154850   -3.994410
  C     -4.315670   15.059840   -5.170910
  C     -5.026380   16.030700   -4.524420
  C     -5.202570   17.138530   -5.430780
  C     -5.926540   18.298090   -5.119020
  N     -6.526040   19.238720   -4.849870
  C     -4.559430   16.872720   -6.618770
  C     -4.061630   15.539110   -6.552290
  C     -3.652380   14.749060   -7.600540
  C     -3.023590   15.166320   -8.869270
  C     -2.914670   14.044180   -9.654640
  C     -3.477560   12.925570   -8.945840
  C     -3.872500   13.336160   -7.695280
  C     -3.594020   11.626390   -9.459560
  N     -3.685240   10.559990   -9.873620
  C     -2.454640   16.444720   -9.100260
  C     -1.775890   16.793280  -10.228990
  C     -1.167770   18.058580  -10.365950
  C     -0.387640   18.436080  -11.424470
  C      0.288250   19.707860  -11.596710
  C      0.181850   20.813800  -10.791390
  C      0.861560   22.028260  -11.021980
  N      1.385050   23.042180  -11.148650
  C     -0.616750   20.913240   -9.633570
  N     -1.241660   21.072540   -8.682860
  C      1.103290   19.618660  -12.803680
  C      0.905280   18.337710  -13.393810
  C     -0.039730   17.560690  -12.575460
  O     -0.435230   16.435110  -12.800160
  C      1.546470   17.962030  -14.538820
  C      2.437730   18.866490  -15.157790
  C      2.644470   20.149190  -14.572900
  C      1.962820   20.511150  -13.388210
  C      3.540040   21.042420  -15.195350
  C      4.200660   20.687230  -16.339890
  C      3.996060   19.424050  -16.914890
  C      3.132880   18.533140  -16.336700
  H      7.834460    3.933800    5.429490
  H      6.941860   -0.227480    2.830640
  H      8.773120   -1.328610    3.964690
  H     10.616460   -1.285180    5.597080
  H     11.079560    0.756250    6.894960
  H      9.701350    2.772450    6.571420
  H      3.685310    3.672370    0.761930
  H      3.392370    5.866360    3.930360
  H      2.393810    8.442150    0.616600
  H      3.587970    6.717440   -3.984570
  H      5.198420    4.632020   -0.571480
  H      1.207340    7.631260   -1.008740
  H      2.224370    8.617280   -3.723550
  H     -0.756870    8.924780   -1.156970
  H     -4.921960   13.505930   -2.850880
  H     -5.355070   16.026980   -3.502910
  H     -4.581220   17.494440   -7.492830
  H     -2.471700   13.974060  -10.629730
  H     -4.394460   12.738440   -6.972310
  H     -2.528570   17.170130   -8.300260
  H     -1.669110   16.093150  -11.042530
  H     -1.315950   18.756790   -9.551770
  H      1.377860   16.984130  -14.965020
  H      2.144540   21.488560  -12.970630
  H      3.694230   22.013930  -14.749130
  H      4.885210   21.378150  -16.808650
  H      4.525950   19.160290  -17.817930
  H      2.971350   17.558940  -16.774560

 Total Charge           Charge          ....    0
 Multiplicity           Mult            ....    1
 Number of Electrons    NEL             ....  568
 Basis Dimension        Dim             .... 1314

ORBITAL ENERGIES
----------------

  NO   OCC          E(Eh)            E(eV)
   0   2.0000     -88.988090     -2421.4890
   1   2.0000     -88.981789     -2421.3176
   2   2.0000     -88.978210     -2421.2202
   3   2.0000     -19.226191      -523.1712
   4   2.0000     -19.218284      -522.9561
   5   2.0000     -14.424117      -392.5002
   6   2.0000     -14.422698      -392.4616
   7   2.0000     -14.422469      -392.4553
   8   2.0000     -14.421710      -392.4347
   9   2.0000     -14.421537      -392.4300
  10   2.0000     -14.418359      -392.3435
  11   2.0000     -14.417734      -392.3265
  12   2.0000     -14.414565      -392.2402
  13   2.0000     -10.377653      -282.3903
  14   2.0000     -10.368758      -282.1482
  15   2.0000     -10.350990      -281.6648
  16   2.0000     -10.348850      -281.6065
  17   2.0000     -10.342859      -281.4435
  18   2.0000     -10.342257      -281.4271
  19   2.0000     -10.341148      -281.3969
  20   2.0000     -10.339622      -281.3554
  21   2.0000     -10.339295      -281.3465
  22   2.0000     -10.338758      -281.3319
  23   2.0000     -10.337036      -281.2851
  24   2.0000     -10.336819      -281.2792
  25   2.0000     -10.336290      -281.2648
  26   2.0000     -10.336065      -281.2586
  27   2.0000     -10.331580      -281.1366
  28   2.0000     -10.330110      -281.0966
  29   2.0000     -10.329502      -281.0800
  30   2.0000     -10.329177      -281.0712
  31   2.0000     -10.327849      -281.0351
  32   2.0000     -10.327047      -281.0132
  33   2.0000     -10.326609      -281.0013
  34   2.0000     -10.325261      -280.9646
  35   2.0000     -10.323953      -280.9290
  36   2.0000     -10.320739      -280.8416
  37   2.0000     -10.320726      -280.8412
  38   2.0000     -10.320608      -280.8380
  39   2.0000     -10.320028      -280.8222
  40   2.0000     -10.319715      -280.8137
  41   2.0000     -10.319255      -280.8012
  42   2.0000     -10.318998      -280.7942
  43   2.0000     -10.317573      -280.7554
  44   2.0000     -10.317399      -280.7507
  45   2.0000     -10.317109      -280.7428
  46   2.0000     -10.316520      -280.7268
  47   2.0000     -10.315686      -280.7041
  48   2.0000     -10.314915      -280.6831
  49   2.0000     -10.311923      -280.6017
  50   2.0000     -10.311285      -280.5843
  51   2.0000     -10.311153      -280.5807
  52   2.0000     -10.311042      -280.5777
  53   2.0000     -10.310045      -280.5506
  54   2.0000     -10.309973      -280.5486
  55   2.0000     -10.309588      -280.5382
  56   2.0000     -10.309150      -280.5262
  57   2.0000     -10.306695      -280.4594
  58   2.0000     -10.306220      -280.4465
  59   2.0000     -10.306052      -280.4419
  60   2.0000     -10.304368      -280.3961
  61   2.0000     -10.304263      -280.3933
  62   2.0000     -10.304073      -280.3881
  63   2.0000     -10.303744      -280.3791
  64   2.0000     -10.303659      -280.3768
  65   2.0000     -10.303349      -280.3684
  66   2.0000     -10.302738      -280.3518
  67   2.0000     -10.299882      -280.2740
  68   2.0000     -10.298445      -280.2349
  69   2.0000     -10.298179      -280.2277
  70   2.0000     -10.297383      -280.2060
  71   2.0000     -10.297174      -280.2003
  72   2.0000     -10.295992      -280.1682
  73   2.0000     -10.292397      -280.0704
  74   2.0000     -10.291803      -280.0542
  75   2.0000     -10.291641      -280.0498
  76   2.0000     -10.291452      -280.0446
  77   2.0000     -10.290970      -280.0315
  78   2.0000     -10.288956      -279.9767
  79   2.0000     -10.287444      -279.9356
  80   2.0000     -10.286880      -279.9202
  81   2.0000     -10.286595      -279.9125
  82   2.0000     -10.286096      -279.8989
  83   2.0000      -8.082417      -219.9337
  84   2.0000      -8.077111      -219.7894
  85   2.0000      -8.073339      -219.6867
  86   2.0000      -6.051921      -164.6811
  87   2.0000      -6.047797      -164.5689
  88   2.0000      -6.046562      -164.5353
  89   2.0000      -6.044208      -164.4713
  90   2.0000      -6.043096      -164.4410
  91   2.0000      -6.042539      -164.4258
  92   2.0000      -6.039232      -164.3358
  93   2.0000      -6.038807      -164.3243
  94   2.0000      -6.034263      -164.2006
  95   2.0000      -1.141636       -31.0655
  96   2.0000      -1.132492       -30.8167
  97   2.0000      -1.041632       -28.3442
  98   2.0000      -1.029966       -28.0268
  99   2.0000      -1.029289       -28.0084
 100   2.0000      -1.025324       -27.9005
 101   2.0000      -1.018751       -27.7216
 102   2.0000      -1.014045       -27.5936
 103   2.0000      -1.013583       -27.5810
 104   2.0000      -1.005925       -27.3726
 105   2.0000      -1.002957       -27.2919
 106   2.0000      -1.001040       -27.2397
 107   2.0000      -1.000060       -27.2130
 108   2.0000      -0.999389       -27.1947
 109   2.0000      -0.996529       -27.1169
 110   2.0000      -0.994316       -27.0567
 111   2.0000      -0.990791       -26.9608
 112   2.0000      -0.989083       -26.9143
 113   2.0000      -0.978187       -26.6178
 114   2.0000      -0.972265       -26.4567
 115   2.0000      -0.950181       -25.8557
 116   2.0000      -0.934796       -25.4371
 117   2.0000      -0.932852       -25.3842
 118   2.0000      -0.920539       -25.0492
 119   2.0000      -0.917634       -24.9701
 120   2.0000      -0.914086       -24.8735
 121   2.0000      -0.897272       -24.4160
 122   2.0000      -0.894837       -24.3498
 123   2.0000      -0.894626       -24.3440
 124   2.0000      -0.890072       -24.2201
 125   2.0000      -0.888130       -24.1672
 126   2.0000      -0.884266       -24.0621
 127   2.0000      -0.881767       -23.9941
 128   2.0000      -0.871341       -23.7104
 129   2.0000      -0.862336       -23.4653
 130   2.0000      -0.856324       -23.3018
 131   2.0000      -0.842589       -22.9280
 132   2.0000      -0.837069       -22.7778
 133   2.0000      -0.834767       -22.7152
 134   2.0000      -0.829149       -22.5623
 135   2.0000      -0.828198       -22.5364
 136   2.0000      -0.814531       -22.1645
 137   2.0000      -0.813111       -22.1259
 138   2.0000      -0.808423       -21.9983
 139   2.0000      -0.796494       -21.6737
 140   2.0000      -0.790133       -21.5006
 141   2.0000      -0.788420       -21.4540
 142   2.0000      -0.769521       -20.9397
 143   2.0000      -0.762443       -20.7471
 144   2.0000      -0.754814       -20.5395
 145   2.0000      -0.740955       -20.1624
 146   2.0000      -0.739694       -20.1281
 147   2.0000      -0.736052       -20.0290
 148   2.0000      -0.731846       -19.9145
 149   2.0000      -0.717274       -19.5180
 150   2.0000      -0.711508       -19.3611
 151   2.0000      -0.706460       -19.2238
 152   2.0000      -0.704935       -19.1823
 153   2.0000      -0.702662       -19.1204
 154   2.0000      -0.695479       -18.9250
 155   2.0000      -0.688499       -18.7350
 156   2.0000      -0.684587       -18.6286
 157   2.0000      -0.680515       -18.5178
 158   2.0000      -0.674453       -18.3528
 159   2.0000      -0.666981       -18.1495
 160   2.0000      -0.661489       -18.0000
 161   2.0000      -0.653914       -17.7939
 162   2.0000      -0.651118       -17.7178
 163   2.0000      -0.650876       -17.7112
 164   2.0000      -0.649730       -17.6800
 165   2.0000      -0.642068       -17.4716
 166   2.0000      -0.640985       -17.4421
 167   2.0000      -0.634991       -17.2790
 168   2.0000      -0.632580       -17.2134
 169   2.0000      -0.621671       -16.9165
 170   2.0000      -0.614522       -16.7220
 171   2.0000      -0.613000       -16.6806
 172   2.0000      -0.612324       -16.6622
 173   2.0000      -0.609088       -16.5741
 174   2.0000      -0.608554       -16.5596
 175   2.0000      -0.607044       -16.5185
 176   2.0000      -0.591132       -16.0855
 177   2.0000      -0.588425       -16.0118
 178   2.0000      -0.587637       -15.9904
 179   2.0000      -0.570146       -15.5145
 180   2.0000      -0.567571       -15.4444
 181   2.0000      -0.565164       -15.3789
 182   2.0000      -0.556288       -15.1374
 183   2.0000      -0.555897       -15.1267
 184   2.0000      -0.552719       -15.0403
 185   2.0000      -0.552061       -15.0223
 186   2.0000      -0.547210       -14.8903
 187   2.0000      -0.546439       -14.8694
 188   2.0000      -0.544200       -14.8084
 189   2.0000      -0.541704       -14.7405
 190   2.0000      -0.540184       -14.6991
 191   2.0000      -0.539990       -14.6939
 192   2.0000      -0.537825       -14.6350
 193   2.0000      -0.534747       -14.5512
 194   2.0000      -0.533254       -14.5106
 195   2.0000      -0.530285       -14.4298
 196   2.0000      -0.529735       -14.4148
 197   2.0000      -0.527477       -14.3534
 198   2.0000      -0.525939       -14.3115
 199   2.0000      -0.524357       -14.2685
 200   2.0000      -0.522144       -14.2083
 201   2.0000      -0.518995       -14.1226
 202   2.0000      -0.518387       -14.1060
 203   2.0000      -0.515936       -14.0393
 204   2.0000      -0.514966       -14.0129
 205   2.0000      -0.514730       -14.0065
 206   2.0000      -0.511550       -13.9200
 207   2.0000      -0.511252       -13.9119
 208   2.0000      -0.507571       -13.8117
 209   2.0000      -0.505819       -13.7640
 210   2.0000      -0.505072       -13.7437
 211   2.0000      -0.503920       -13.7123
 212   2.0000      -0.502114       -13.6632
 213   2.0000      -0.501841       -13.6558
 214   2.0000      -0.499855       -13.6017
 215   2.0000      -0.497599       -13.5404
 216   2.0000      -0.496704       -13.5160
 217   2.0000      -0.492185       -13.3930
 218   2.0000      -0.491846       -13.3838
 219   2.0000      -0.487452       -13.2643
 220   2.0000      -0.486966       -13.2510
 221   2.0000      -0.479014       -13.0346
 222   2.0000      -0.478361       -13.0169
 223   2.0000      -0.473492       -12.8844
 224   2.0000      -0.471864       -12.8401
 225   2.0000      -0.469426       -12.7737
 226   2.0000      -0.464207       -12.6317
 227   2.0000      -0.459705       -12.5092
 228   2.0000      -0.458910       -12.4876
 229   2.0000      -0.455891       -12.4054
 230   2.0000      -0.455662       -12.3992
 231   2.0000      -0.452792       -12.3211
 232   2.0000      -0.450905       -12.2698
 233   2.0000      -0.450034       -12.2460
 234   2.0000      -0.449541       -12.2326
 235   2.0000      -0.448836       -12.2135
 236   2.0000      -0.447845       -12.1865
 237   2.0000      -0.446677       -12.1547
 238   2.0000      -0.445825       -12.1315
 239   2.0000      -0.445455       -12.1214
 240   2.0000      -0.445136       -12.1128
 241   2.0000      -0.444294       -12.0899
 242   2.0000      -0.440576       -11.9887
 243   2.0000      -0.440188       -11.9781
 244   2.0000      -0.439941       -11.9714
 245   2.0000      -0.437356       -11.9011
 246   2.0000      -0.434398       -11.8206
 247   2.0000      -0.433693       -11.8014
 248   2.0000      -0.433371       -11.7926
 249   2.0000      -0.431756       -11.7487
 250   2.0000      -0.427987       -11.6461
 251   2.0000      -0.426820       -11.6144
 252   2.0000      -0.425218       -11.5708
 253   2.0000      -0.422888       -11.5074
 254   2.0000      -0.421558       -11.4712
 255   2.0000      -0.420445       -11.4409
 256   2.0000      -0.419504       -11.4153
 257   2.0000      -0.418165       -11.3789
 258   2.0000      -0.415422       -11.3042
 259   2.0000      -0.414517       -11.2796
 260   2.0000      -0.409402       -11.1404
 261   2.0000      -0.406893       -11.0721
 262   2.0000      -0.402804       -10.9609
 263   2.0000      -0.390742       -10.6326
 264   2.0000      -0.384645       -10.4667
 265   2.0000      -0.377829       -10.2812
 266   2.0000      -0.375806       -10.2262
 267   2.0000      -0.364668        -9.9231
 268   2.0000      -0.358155        -9.7459
 269   2.0000      -0.350817        -9.5462
 270   2.0000      -0.346078        -9.4173
 271   2.0000      -0.343649        -9.3512
 272   2.0000      -0.337886        -9.1943
 273   2.0000      -0.337166        -9.1748
 274   2.0000      -0.330640        -8.9972
 275   2.0000      -0.324421        -8.8280
 276   2.0000      -0.317896        -8.6504
 277   2.0000      -0.307536        -8.3685
 278   2.0000      -0.306036        -8.3277
 279   2.0000      -0.299418        -8.1476
 280   2.0000      -0.296286        -8.0624
 281   2.0000      -0.295535        -8.0419
 282   2.0000      -0.277737        -7.5576
 283   2.0000      -0.255368        -6.9489
 284   0.0000      -0.144320        -3.9271
 285   0.0000      -0.139618        -3.7992
 286   0.0000      -0.095682        -2.6036
 287   0.0000      -0.093606        -2.5472
 288   0.0000      -0.065656        -1.7866

MULLIKEN ATOMIC CHARGES
-----------------------
   0 C :    0.304967
   1 C :   -0.338784
   2 C :   -0.180596
   3 N :    0.153677
   4 C :   -0.195634
   5 N :    0.157606
   6 C :    0.049541
   7 C :   -0.012889
   8 C :   -0.073743
   9 C :    0.096211
  10 C :    0.093775
  11 C :   -0.077783
  12 C :   -0.015725
  13 C :    0.036760
  14 C :    0.035857
  15 C :   -0.015247
  16 C :    0.144484
  17 O :   -0.144634
  18 C :   -0.083458
  19 C :   -0.070379
  20 C :    0.068923
  21 C :    0.058492
  22 C :   -0.118468
  23 C :   -0.126852
  24 N :    0.148460
  25 C :   -0.018276
  26 C :    0.045537
  27 C :    0.067968
  28 C :    0.088221
  29 C :   -0.030864
  30 C :   -0.085358
  31 C :   -0.041880
  32 C :   -0.129469
  33 N :    0.150789
  34 C :   -0.031941
  35 C :    0.060872
  36 C :   -0.076160
  37 S :    0.165944
  38 C :   -0.071978
  39 C :   -0.029887
  40 C :   -0.031887
  41 S :    0.171559
  42 C :   -0.014973
  43 C :   -0.027770
  44 C :   -0.108589
  45 S :    0.167503
  46 C :   -0.081041
  47 C :    0.102041
  48 C :   -0.027335
  49 C :   -0.097021
  50 C :   -0.126160
  51 N :    0.155447
  52 C :   -0.021607
  53 C :    0.026890
  54 C :    0.026660
  55 C :    0.088748
  56 C :    0.001097
  57 C :   -0.116586
  58 C :    0.003061
  59 C :   -0.128039
  60 N :    0.147056
  61 C :    0.001338
  62 C :    0.003748
  63 C :   -0.041303
  64 C :   -0.070009
  65 C :    0.336759
  66 C :   -0.353964
  67 C :   -0.181240
  68 N :    0.147926
  69 C :   -0.188372
  70 N :    0.143207
  71 C :    0.047758
  72 C :   -0.004213
  73 C :    0.149416
  74 O :   -0.155600
  75 C :   -0.078232
  76 C :    0.096165
  77 C :    0.094592
  78 C :   -0.082209
  79 C :   -0.017140
  80 C :    0.034442
  81 C :    0.037422
  82 C :   -0.014445
  83 H :   -0.011451
  84 H :   -0.006111
  85 H :   -0.007096
  86 H :   -0.001908
  87 H :   -0.001309
  88 H :   -0.015728
  89 H :    0.041335
  90 H :    0.014067
  91 H :    0.013020
  92 H :   -0.003341
  93 H :    0.006337
  94 H :    0.000690
  95 H :   -0.007466
  96 H :   -0.007654
  97 H :   -0.005608
  98 H :   -0.005299
  99 H :    0.009020
 100 H :    0.014791
 101 H :    0.023213
 102 H :    0.005832
 103 H :    0.025233
 104 H :    0.007018
 105 H :   -0.014530
 106 H :   -0.009909
 107 H :   -0.009446
 108 H :   -0.003836
 109 H :   -0.005073
 110 H :   -0.017968
Sum of atomic charges:   -0.0000000

LOEWDIN ATOMIC CHARGES
----------------------
   0 C :    0.074272
   1 C :   -0.135142
   2 C :   -0.017473
   3 N :   -0.047181
   4 C :   -0.023571
   5 N :   -0.047678
   6 C :   -0.027578
   7 C :   -0.057449
   8 C :    0.034601
   9 C :   -0.007457
  10 C :   -0.005481
  11 C :    0.022224
  12 C :   -0.004192
  13 C :   -0.011099
  14 C :   -0.009796
  15 C :   -0.008722
  16 C :    0.083626
  17 O :   -0.136933
  18 C :   -0.084365
  19 C :    0.064094
  20 C :   -0.051426
  21 C :    0.077644
  22 C :   -0.057356
  23 C :   -0.031497
  24 N :   -0.034475
  25 C :    0.019299
  26 C :    0.031417
  27 C :    0.049642
  28 C :   -0.020842
  29 C :   -0.001194
  30 C :   -0.033338
  31 C :   -0.015634
  32 C :   -0.029236
  33 N :   -0.030979
  34 C :   -0.026497
  35 C :   -0.019285
  36 C :   -0.158737
  37 S :    0.441440
  38 C :   -0.217517
  39 C :   -0.182784
  40 C :   -0.057021
  41 S :    0.415171
  42 C :   -0.184526
  43 C :   -0.052997
  44 C :   -0.155216
  45 S :    0.470208
  46 C :   -0.217459
  47 C :   -0.037929
  48 C :   -0.004053
  49 C :   -0.031909
  50 C :   -0.029793
  51 N :   -0.026721
  52 C :   -0.016915
  53 C :    0.040910
  54 C :    0.025436
  55 C :   -0.049474
  56 C :    0.049525
  57 C :   -0.066741
  58 C :    0.004884
  59 C :   -0.032928
  60 N :   -0.038918
  61 C :    0.025504
  62 C :   -0.021241
  63 C :    0.065459
  64 C :   -0.091430
  65 C :    0.075538
  66 C :   -0.139955
  67 C :   -0.017381
  68 N :   -0.053871
  69 C :   -0.019612
  70 N :   -0.054955
  71 C :   -0.025687
  72 C :   -0.056057
  73 C :    0.085334
  74 O :   -0.149803
  75 C :    0.032279
  76 C :   -0.008387
  77 C :   -0.006251
  78 C :    0.019760
  79 C :   -0.004932
  80 C :   -0.013296
  81 C :   -0.011745
  82 C :   -0.009589
  83 H :    0.039766
  84 H :    0.039808
  85 H :    0.035622
  86 H :    0.034402
  87 H :    0.034068
  88 H :    0.032669
  89 H :    0.045780
  90 H :    0.040481
  91 H :    0.038478
  92 H :    0.032789
  93 H :    0.035215
  94 H :    0.029679
  95 H :    0.031499
  96 H :    0.035303
  97 H :    0.038077
  98 H :    0.034281
  99 H :    0.037544
 100 H :    0.041486
 101 H :    0.036519
 102 H :    0.035553
 103 H :    0.032446
 104 H :    0.041523
 105 H :    0.038586
 106 H :    0.038883
 107 H :    0.034815
 108 H :    0.033455
 109 H :    0.032901
 110 H :    0.031812

  Mayer bond orders larger than 0.100000
B(  0-C ,  1-C ) :   1.6523 B(  0-C ,  6-C ) :   0.9969 B(  0-C , 18-C ) :   1.0356
B(  1-C ,  2-C ) :   1.1414 B(  1-C ,  4-C ) :   1.1400 B(  2-C ,  3-N ) :   2.9679
B(  4-C ,  5-N ) :   2.9751 B(  6-C ,  7-C ) :   1.2083 B(  6-C , 11-C ) :   1.4472
B(  7-C ,  8-C ) :   1.4703 B(  7-C , 16-C ) :   0.9472 B(  8-C ,  9-C ) :   1.1829
B(  8-C , 83-H ) :   1.0157 B(  9-C , 10-C ) :   1.2539 B(  9-C , 15-C ) :   1.2427
B( 10-C , 11-C ) :   1.2084 B( 10-C , 12-C ) :   1.2402 B( 11-C , 84-H ) :   0.9895
B( 12-C , 13-C ) :   1.4894 B( 12-C , 85-H ) :   0.9970 B( 13-C , 14-C ) :   1.2595
B( 13-C , 86-H ) :   0.9884 B( 14-C , 15-C ) :   1.4896 B( 14-C , 87-H ) :   0.9891
B( 15-C , 88-H ) :   0.9977 B( 16-C , 17-O ) :   2.2230 B( 16-C , 18-C ) :   0.9287
B( 18-C , 19-C ) :   1.6581 B( 19-C , 20-C ) :   1.0861 B( 19-C , 89-H ) :   0.9287
B( 20-C , 21-C ) :   1.5783 B( 20-C , 26-C ) :   1.0568 B( 21-C , 22-C ) :   1.1012
B( 21-C , 90-H ) :   1.0100 B( 22-C , 23-C ) :   1.0581 B( 22-C , 25-C ) :   1.6173
B( 23-C , 24-N ) :   3.0418 B( 25-C , 26-C ) :   1.0861 B( 25-C , 91-H ) :   1.0126
B( 26-C , 27-C ) :   1.4834 B( 27-C , 28-C ) :   1.0265 B( 27-C , 31-C ) :   1.0980
B( 28-C , 29-C ) :   1.5936 B( 28-C , 34-C ) :   1.1062 B( 29-C , 30-C ) :   1.1078
B( 29-C , 92-H ) :   1.0131 B( 30-C , 31-C ) :   1.6110 B( 30-C , 32-C ) :   1.0585
B( 31-C , 93-H ) :   1.0123 B( 32-C , 33-N ) :   3.0386 B( 34-C , 35-C ) :   1.6852
B( 34-C , 94-H ) :   0.9601 B( 35-C , 36-C ) :   1.1303 B( 35-C , 95-H ) :   0.9617
B( 36-C , 37-S ) :   1.0936 B( 36-C , 40-C ) :   1.4883 B( 37-S , 38-C ) :   1.0834
B( 38-C , 39-C ) :   1.4388 B( 38-C , 46-C ) :   1.3101 B( 39-C , 40-C ) :   1.2968
B( 39-C , 41-S ) :   1.0494 B( 40-C , 96-H ) :   0.9961 B( 41-S , 42-C ) :   1.0520
B( 42-C , 43-C ) :   1.2777 B( 42-C , 46-C ) :   1.4270 B( 43-C , 44-C ) :   1.4978
B( 43-C , 97-H ) :   1.0038 B( 44-C , 45-S ) :   1.0831 B( 44-C , 47-C ) :   1.0899
B( 45-S , 46-C ) :   1.0888 B( 47-C , 48-C ) :   1.6138 B( 47-C , 53-C ) :   1.0264
B( 48-C , 49-C ) :   1.1107 B( 48-C , 98-H ) :   1.0173 B( 49-C , 50-C ) :   1.0644
B( 49-C , 52-C ) :   1.5952 B( 50-C , 51-N ) :   3.0363 B( 52-C , 53-C ) :   1.1252
B( 52-C , 99-H ) :   1.0133 B( 53-C , 54-C ) :   1.4551 B( 54-C , 55-C ) :   1.0544
B( 54-C , 58-C ) :   1.1000 B( 55-C , 56-C ) :   1.5516 B( 55-C , 61-C ) :   1.0829
B( 56-C , 57-C ) :   1.1256 B( 56-C ,100-H ) :   1.0107 B( 57-C , 58-C ) :   1.6023
B( 57-C , 59-C ) :   1.0568 B( 58-C ,101-H ) :   1.0073 B( 59-C , 60-N ) :   3.0426
B( 61-C , 62-C ) :   1.5764 B( 61-C ,102-H ) :   0.9796 B( 62-C , 63-C ) :   1.1637
B( 62-C ,103-H ) :   0.9783 B( 63-C , 64-C ) :   1.5313 B( 63-C ,104-H ) :   0.9637
B( 64-C , 65-C ) :   1.0627 B( 64-C , 73-C ) :   0.9433 B( 65-C , 66-C ) :   1.6258
B( 65-C , 71-C ) :   0.9877 B( 66-C , 67-C ) :   1.1461 B( 66-C , 69-C ) :   1.1465
B( 67-C , 68-N ) :   2.9616 B( 69-C , 70-N ) :   2.9589 B( 71-C , 72-C ) :   1.2135
B( 71-C , 78-C ) :   1.4495 B( 72-C , 73-C ) :   0.9475 B( 72-C , 75-C ) :   1.4696
B( 73-C , 74-O ) :   2.1928 B( 75-C , 76-C ) :   1.1797 B( 75-C ,105-H ) :   1.0163
B( 76-C , 77-C ) :   1.2554 B( 76-C , 82-C ) :   1.2430 B( 77-C , 78-C ) :   1.2052
B( 77-C , 79-C ) :   1.2411 B( 78-C ,106-H ) :   0.9893 B( 79-C , 80-C ) :   1.4879
B( 79-C ,107-H ) :   0.9974 B( 80-C , 81-C ) :   1.2589 B( 80-C ,108-H ) :   0.9891
B( 81-C , 82-C ) :   1.4883 B( 81-C ,109-H ) :   0.9894 B( 82-C ,110-H ) :   0.9978

-----------------------------------------------------------------------------
         ABSORPTION SPECTRUM VIA TRANSITION ELECTRIC DIPOLE MOMENTS
-----------------------------------------------------------------------------
State   Energy  Wavelength   fosc         T2         TX        TY        TZ
        (cm-1)    (nm)                  (au**2)     (au)      (au)      (au)
-----------------------------------------------------------------------------
   0    8240.6   1213.5   0.317714094  12.69260  -1.32234   2.32718  -2.35122
   1    9307.0   1074.5   0.027403351   0.96933  -0.90020   0.39718  -0.03495
   2   11866.6    842.7   0.050134968   1.39088   0.73886   0.58701  -0.70738
   3   15800.6    632.9   0.035246673   0.73438   0.22776  -0.71623   0.41174
   4   18433.4    542.5   0.006670062   0.11912  -0.04577   0.26366   0.21797
   5   19402.1    515.4   0.008311150   0.14102   0.21515  -0.24544  -0.18572
   6   19776.5    505.7   0.240282455   3.99990  -1.38925   1.38905  -0.37475
   7   21503.6    465.0   0.018602465   0.28480  -0.23908   0.23140  -0.41724
   8   21598.0    463.0   0.102164793   1.55727  -0.05032   1.03260  -0.69890
   9   21885.1    456.9   0.032835664   0.49394   0.06105   0.68941  -0.12216
  10   22678.6    440.9   0.734218482  10.65822  -1.93794  -1.73187   1.97566
  11   23119.1    432.5   0.095124684   1.35456   0.75946  -0.68657   0.55353
  12   23549.3    424.6   0.003158997   0.04416  -0.05723   0.10145  -0.17491
  13   23684.9    422.2   0.367201965   5.10399   0.18207  -1.56424   1.61988
  14   24264.0    412.1   0.040332617   0.54723   0.01105  -0.68423  -0.28095
  15   25017.8    399.7   0.288319008   3.79402   1.09586  -0.75141   1.42425
  16   25104.4    398.3   0.131668528   1.72666   0.60933  -0.79973   0.84606
  17   25334.2    394.7   0.076740492   0.99722   0.40894   0.89906  -0.14725
  18   25460.7    392.8   0.223412608   2.88877   0.69093  -1.25227   0.91826
  19   26677.8    374.8   0.122941617   1.51714  -0.55299  -1.07932  -0.21544
  20   27022.0    370.1   0.064165568   0.78173  -0.66855  -0.54773  -0.18648
  21   27315.7    366.1   0.276416454   3.33140   1.26604  -1.07615   0.75527
  22   27710.8    360.9   0.045095456   0.53575   0.43770   0.27401  -0.51873
  23   27778.3    360.0   0.040026659   0.47437   0.57017  -0.04269  -0.38400
  24   28363.5    352.6   0.312350191   3.62541  -1.51922   1.00732   0.55016
  25   28538.0    350.4   0.027576037   0.31812  -0.26177   0.08684   0.49198
  26   28627.4    349.3   0.226485338   2.60456  -0.78252   1.34635  -0.42376
  27   28867.8    346.4   0.143271084   1.63388   0.02461   0.93740   0.86865
  28   29682.8    336.9   0.207812093   2.30484   0.67911  -1.11890  -0.76923
  29   29847.1    335.0   0.130574445   1.44023   0.63164   0.43009  -0.92536
  30   29919.7    334.2   0.021007723   0.23115  -0.32935   0.33460   0.10355
  31   30405.6    328.9   0.087643322   0.94895  -0.34440   0.82579  -0.38524
  32   30615.8    326.6   0.550633955   5.92097   1.43905  -1.36659  -1.40802
  33   30871.3    323.9   0.202289401   2.15722   0.98166  -1.01596  -0.40173
  34   30951.6    323.1   0.003867353   0.04113  -0.13751   0.12316  -0.08399
  35   31147.4    321.1   0.443215014   4.68456  -0.25489   1.18248   1.79480
  36   31451.8    317.9   0.051078804   0.53465  -0.19742  -0.69074   0.13623
  37   32015.7    312.3   0.035020474   0.36011  -0.20108   0.13838   0.54820
  38   32444.1    308.2   0.027611117   0.28017  -0.04340   0.52751  -0.00410
  39   32578.1    307.0   0.006589052   0.06658  -0.16914   0.01580   0.19423
  40   32855.3    304.4   0.084347625   0.84517  -0.56070   0.30714   0.66064
  41   33297.2    300.3   0.005180087   0.05122   0.03676   0.05015  -0.21760
  42   33303.2    300.3   0.051355863   0.50767  -0.31786   0.40224  -0.49481
  43   33679.6    296.9   0.055058179   0.53818   0.51992  -0.45689   0.24313
  44   33780.4    296.0   0.028904738   0.28170   0.05224   0.13843  -0.50971
  45   33816.7    295.7   0.113102494   1.10107  -0.84687   0.60036   0.15311
  46   33985.1    294.2   0.049914278   0.48352  -0.43595   0.51053  -0.18118
  47   34217.2    292.3   0.256253491   2.46547   1.33506  -0.79105   0.23942
  48   34221.6    292.2   0.139447684   1.34149  -0.36197   0.78543   0.77044
  49   34387.2    290.8   0.194959053   1.86647   0.62223  -0.37961  -1.15550
  50   34601.6    289.0   0.443722421   4.22173  -0.89033   0.25400   1.83427
  51   34656.1    288.5   0.735993161   6.99149  -2.19943  -0.06244  -1.46633
  52   34922.5    286.3   0.006979025   0.06579  -0.01892  -0.19445   0.16620
  53   35860.7    278.9   0.004659486   0.04278   0.17377   0.00518  -0.11205
  54   35993.0    277.8   0.025565505   0.23384   0.22329  -0.42713   0.03919
  55   36149.8    276.6   0.003061883   0.02788  -0.12899   0.10208   0.02876
  56   36196.5    276.3   0.002282199   0.02076   0.08520  -0.10046   0.05835
  57   36444.1    274.4   0.074827863   0.67594  -0.34811  -0.32300   0.67115
  58   36763.8    272.0   0.035612844   0.31891   0.42360   0.24510  -0.28178
  59   37401.5    267.4   0.091105445   0.80192  -0.34395   0.48914   0.66661
  60   37491.0    266.7   0.030178028   0.26500   0.23418  -0.24598  -0.38685
  61   37592.8    266.0   0.105573410   0.92454  -0.49858   0.18329   0.80147
  62   37677.9    265.4   0.013846360   0.12098   0.06688  -0.10690  -0.32416
  63   37865.4    264.1   0.069659280   0.60564  -0.34109  -0.14244   0.68484
  64   38142.0    262.2   0.019943739   0.17214   0.02515   0.41295  -0.03127
  65   38270.9    261.3   0.092081503   0.79210  -0.45175  -0.16557   0.74874
  66   38823.9    257.6   0.035583282   0.30173  -0.19432   0.51378  -0.00281
  67   38890.6    257.1   0.002865621   0.02426   0.03016   0.09747  -0.11767
  68   38953.8    256.7   0.027692995   0.23404   0.19082  -0.43992  -0.06402
  69   39220.1    255.0   0.268621597   2.25480  -0.00848   1.36281   0.63045
  70   39397.8    253.8   0.036311994   0.30343   0.00164   0.49065   0.25037
  71   39709.6    251.8   0.096774146   0.80230   0.29067   0.82158  -0.20693
  72   40036.7    249.8   0.190953337   1.57016  -0.15573   1.12045   0.53898

FINAL SINGLE POINT ENERGY     -4462.502120266956

DIPOLE MOMENT
-------------
                                X             Y             Z
Electronic contribution:    -26.91412       1.72742       9.42599
Nuclear contribution   :     29.00898      -2.81444      -8.76046
                        -----------------------------------------
Total Dipole Moment    :      2.09486      -1.08702       0.66553
                        -----------------------------------------
Magnitude (a.u.)       :      2.45214
Magnitude (Debye)      :      6.23284

Rotational constants in cm-1:     0.001031     0.000165     0.000153
Rotational constants in MHz :    30.919243     4.958557     4.594487

                             ****ORCA TERMINATED NORMALLY****
TOTAL RUN TIME: 0 days 0 hours 14 minutes 27 seconds 459 msec
