                         Program Version 4.2.0 -  RELEASE  -
|  1> # ORCA input file
|  2> # SCF done       -183.559183910865          0.000504811826
|  3> ! CAM-B3LYP def2-SVP def2/J RIJCOSX Grid4 TightSCF
|  4> %maxcore 5000
|  5> %tddft
|  6>     Mode sTDDFT
|  7>     Ethresh 5.0
|  8>     maxcore 5000
|  9> end
| 10>
| 11> %pal
| 12>   nprocs 6
| 13>   end
| 14> * xyz 0 1
| 15>    C       -5.03191        -1.31341         2.92906
| 16>    C       -4.70839        -1.84847         4.16795
| 17>    C       -3.76683        -2.93855         4.30871
| 18>    N       -3.48242        -3.41528         5.52697
| 19>    C       -4.06586        -2.88791         6.57803
| 20>    C       -5.00256        -1.80851         6.43813
| 21>    N       -5.29896        -1.32035         5.26477
| 22>    C       -5.61038        -1.26209         7.59815
| 23>    N       -6.07255        -0.85432         8.56346
| 24>    C       -3.75108        -3.40319         7.85763
| 25>    N       -3.50620        -3.81157         8.90040
| 26>    C       -3.12740        -3.51266         3.18009
| 27>    C       -3.46121        -2.94380         1.92926
| 28>    C       -4.40949        -1.85700         1.81218
| 29>    N       -4.57898        -1.47993         0.53879
| 30>    S       -3.65539        -2.37952        -0.40502
| 31>    N       -2.98203        -3.30442         0.73227
| 32>    C       -2.19878        -4.58864         3.27547
| 33>    N       -1.55581        -5.07134         2.16772
| 34>    C       -0.70362        -6.06558         2.49019
| 35>    C       -0.81350        -6.26934         3.88881
| 36>    C       -1.74943        -5.33849         4.36000
| 37>    C       -0.19518        -7.31963         4.70503
| 38>    O        0.48121        -8.21675         4.24463
| 39>    C       -0.47903        -7.22957         6.18507
| 40>    C        0.11938        -6.68031         1.47496
| 41>    C        1.38431        -7.13925         1.75888
| 42>    C        2.18114        -7.67765         0.73207
| 43>    C        3.46978        -8.19978         0.76664
| 44>    C        4.32056        -8.29051         1.98788
| 45>    C        4.38121        -9.73068         2.54395
| 46>    N        4.89727       -10.67148         1.56105
| 47>    C        5.73068        -7.71687         1.77793
| 48>    N        5.63093        -6.33032         1.35506
| 49>    C        3.78926        -8.59850        -0.58705
| 50>    C        4.87928        -9.18292        -1.12279
| 51>    C        4.99745        -9.43243        -2.58794
| 52>    C        3.76779        -9.10828        -3.37896
| 53>    C        2.66778        -8.56806        -2.82295
| 54>    C        2.63353        -8.27415        -1.43971
| 55>    C        1.65963        -7.73181        -0.62432
| 56>    C        0.35279        -7.26019        -0.88413
| 57>    C       -0.38547        -6.74797         0.13309
| 58>    C        5.41053       -10.85591        -2.85020
| 59>    C        6.54403       -11.19149        -3.47180
| 60>    C        6.96484       -12.52677        -3.77885
| 61>    N        8.13424       -12.76283        -4.43023
| 62>    C        8.31212       -14.09661        -4.62266
| 63>    C        7.20946       -14.75686        -4.05045
| 64>    C        6.36927       -13.76323        -3.53876
| 65>    C        7.06328       -16.21370        -3.83692
| 66>    O        7.97130       -16.89074        -3.40819
| 67>    C        5.67988       -16.74981        -4.09009
| 68>    C        9.43242       -14.61571        -5.33139
| 69>    C        9.41746       -15.89799        -5.92551
| 70>    C       10.62337       -16.48835        -6.46027
| 71>    N       10.60085       -17.76694        -6.89783
| 72>    C        9.46855       -18.41213        -6.89777
| 73>    C        8.23958       -17.75591        -6.53547
| 74>    N        8.24781       -16.53751        -6.05462
| 75>    C        7.00290       -18.41273        -6.73583
| 76>    N        6.01459       -18.96866        -6.90341
| 77>    C        9.43455       -19.76843        -7.31346
| 78>    N        9.35950       -20.86130        -7.64704
| 79>    C       11.81491       -15.77799        -6.52712
| 80>    C       11.80672       -14.46390        -6.07384
| 81>    C       10.62285       -13.87737        -5.48188
| 82>    N       10.83165       -12.60906        -5.10806
| 83>    S       12.35294       -12.21060        -5.45912
| 84>    N       12.82647       -13.59569        -6.09601
| 85>    H       -5.73798        -0.50557         2.84855
| 86>    H       -1.70686        -4.66719         1.24970
| 87>    H       -2.08753        -5.21339         5.36684
| 88>    H       -1.54195        -7.36946         6.36787
| 89>    H       -0.19101        -6.25414         6.56885
| 90>    H        0.07592        -8.00638         6.70469
| 91>    H        1.77400        -7.07118         2.75989
| 92>    H        3.84621        -7.67923         2.76072
| 93>    H        3.37479        -9.99261         2.90310
| 94>    H        5.05901        -9.73211         3.40099
| 95>    H        4.17315       -10.89541         0.88639
| 96>    H        5.17091       -11.53527         2.01528
| 97>    H        6.29156        -8.35526         1.08161
| 98>    H        6.25663        -7.72891         2.73684
| 99>    H        5.14383        -6.26811         0.46684
|100>    H        6.55242        -5.92359         1.24253
|101>    H        5.70892        -9.51217        -0.51548
|102>    H        5.81198        -8.78334        -2.94972
|103>    H        3.81240        -9.33722        -4.43270
|104>    H        1.79881        -8.34702        -3.42575
|105>    H       -0.04671        -7.31451        -1.88624
|106>    H       -1.39348        -6.40810        -0.05596
|107>    H        4.71088       -11.60963        -2.52305
|108>    H        7.22795       -10.41298        -3.79046
|109>    H        8.82476       -12.08054        -4.71340
|110>    H        5.44799       -13.92216        -3.01599
|111>    H        4.99667       -16.33314        -3.35255
|112>    H        5.67499       -17.83330        -4.00913
|113>    H        5.33855       -16.45138        -5.07792
|114>    H       12.70775       -16.23990        -6.91135
|115> *
|116>
|117>                          ****END OF INPUT****

CARTESIAN COORDINATES (ANGSTROEM)
---------------------------------
  C     -5.031910   -1.313410    2.929060
  C     -4.708390   -1.848470    4.167950
  C     -3.766830   -2.938550    4.308710
  N     -3.482420   -3.415280    5.526970
  C     -4.065860   -2.887910    6.578030
  C     -5.002560   -1.808510    6.438130
  N     -5.298960   -1.320350    5.264770
  C     -5.610380   -1.262090    7.598150
  N     -6.072550   -0.854320    8.563460
  C     -3.751080   -3.403190    7.857630
  N     -3.506200   -3.811570    8.900400
  C     -3.127400   -3.512660    3.180090
  C     -3.461210   -2.943800    1.929260
  C     -4.409490   -1.857000    1.812180
  N     -4.578980   -1.479930    0.538790
  S     -3.655390   -2.379520   -0.405020
  N     -2.982030   -3.304420    0.732270
  C     -2.198780   -4.588640    3.275470
  N     -1.555810   -5.071340    2.167720
  C     -0.703620   -6.065580    2.490190
  C     -0.813500   -6.269340    3.888810
  C     -1.749430   -5.338490    4.360000
  C     -0.195180   -7.319630    4.705030
  O      0.481210   -8.216750    4.244630
  C     -0.479030   -7.229570    6.185070
  C      0.119380   -6.680310    1.474960
  C      1.384310   -7.139250    1.758880
  C      2.181140   -7.677650    0.732070
  C      3.469780   -8.199780    0.766640
  C      4.320560   -8.290510    1.987880
  C      4.381210   -9.730680    2.543950
  N      4.897270  -10.671480    1.561050
  C      5.730680   -7.716870    1.777930
  N      5.630930   -6.330320    1.355060
  C      3.789260   -8.598500   -0.587050
  C      4.879280   -9.182920   -1.122790
  C      4.997450   -9.432430   -2.587940
  C      3.767790   -9.108280   -3.378960
  C      2.667780   -8.568060   -2.822950
  C      2.633530   -8.274150   -1.439710
  C      1.659630   -7.731810   -0.624320
  C      0.352790   -7.260190   -0.884130
  C     -0.385470   -6.747970    0.133090
  C      5.410530  -10.855910   -2.850200
  C      6.544030  -11.191490   -3.471800
  C      6.964840  -12.526770   -3.778850
  N      8.134240  -12.762830   -4.430230
  C      8.312120  -14.096610   -4.622660
  C      7.209460  -14.756860   -4.050450
  C      6.369270  -13.763230   -3.538760
  C      7.063280  -16.213700   -3.836920
  O      7.971300  -16.890740   -3.408190
  C      5.679880  -16.749810   -4.090090
  C      9.432420  -14.615710   -5.331390
  C      9.417460  -15.897990   -5.925510
  C     10.623370  -16.488350   -6.460270
  N     10.600850  -17.766940   -6.897830
  C      9.468550  -18.412130   -6.897770
  C      8.239580  -17.755910   -6.535470
  N      8.247810  -16.537510   -6.054620
  C      7.002900  -18.412730   -6.735830
  N      6.014590  -18.968660   -6.903410
  C      9.434550  -19.768430   -7.313460
  N      9.359500  -20.861300   -7.647040
  C     11.814910  -15.777990   -6.527120
  C     11.806720  -14.463900   -6.073840
  C     10.622850  -13.877370   -5.481880
  N     10.831650  -12.609060   -5.108060
  S     12.352940  -12.210600   -5.459120
  N     12.826470  -13.595690   -6.096010
  H     -5.737980   -0.505570    2.848550
  H     -1.706860   -4.667190    1.249700
  H     -2.087530   -5.213390    5.366840
  H     -1.541950   -7.369460    6.367870
  H     -0.191010   -6.254140    6.568850
  H      0.075920   -8.006380    6.704690
  H      1.774000   -7.071180    2.759890
  H      3.846210   -7.679230    2.760720
  H      3.374790   -9.992610    2.903100
  H      5.059010   -9.732110    3.400990
  H      4.173150  -10.895410    0.886390
  H      5.170910  -11.535270    2.015280
  H      6.291560   -8.355260    1.081610
  H      6.256630   -7.728910    2.736840
  H      5.143830   -6.268110    0.466840
  H      6.552420   -5.923590    1.242530
  H      5.708920   -9.512170   -0.515480
  H      5.811980   -8.783340   -2.949720
  H      3.812400   -9.337220   -4.432700
  H      1.798810   -8.347020   -3.425750
  H     -0.046710   -7.314510   -1.886240
  H     -1.393480   -6.408100   -0.055960
  H      4.710880  -11.609630   -2.523050
  H      7.227950  -10.412980   -3.790460
  H      8.824760  -12.080540   -4.713400
  H      5.447990  -13.922160   -3.015990
  H      4.996670  -16.333140   -3.352550
  H      5.674990  -17.833300   -4.009130
  H      5.338550  -16.451380   -5.077920
  H     12.707750  -16.239900   -6.911350

 Total Charge           Charge          ....    0
 Multiplicity           Mult            ....    1
 Number of Electrons    NEL             ....  490
 Basis Dimension        Dim             .... 1138

ORBITAL ENERGIES
----------------

  NO   OCC          E(Eh)            E(eV)
   0   2.0000     -89.054556     -2423.2977
   1   2.0000     -89.053899     -2423.2798
   2   2.0000     -19.198253      -522.4110
   3   2.0000     -19.192590      -522.2569
   4   2.0000     -14.476908      -393.9367
   5   2.0000     -14.468597      -393.7105
   6   2.0000     -14.467396      -393.6779
   7   2.0000     -14.467390      -393.6777
   8   2.0000     -14.463127      -393.5617
   9   2.0000     -14.462467      -393.5437
  10   2.0000     -14.459564      -393.4648
  11   2.0000     -14.458071      -393.4241
  12   2.0000     -14.458020      -393.4227
  13   2.0000     -14.456949      -393.3936
  14   2.0000     -14.428968      -392.6322
  15   2.0000     -14.428197      -392.6112
  16   2.0000     -14.427659      -392.5966
  17   2.0000     -14.427233      -392.5850
  18   2.0000     -14.385598      -391.4520
  19   2.0000     -14.371590      -391.0709
  20   2.0000     -10.381406      -282.4924
  21   2.0000     -10.380211      -282.4599
  22   2.0000     -10.377372      -282.3826
  23   2.0000     -10.376293      -282.3533
  24   2.0000     -10.359615      -281.8994
  25   2.0000     -10.351432      -281.6768
  26   2.0000     -10.351111      -281.6680
  27   2.0000     -10.350827      -281.6603
  28   2.0000     -10.347242      -281.5628
  29   2.0000     -10.346778      -281.5502
  30   2.0000     -10.346671      -281.5472
  31   2.0000     -10.346417      -281.5403
  32   2.0000     -10.346027      -281.5297
  33   2.0000     -10.345947      -281.5275
  34   2.0000     -10.331799      -281.1426
  35   2.0000     -10.328829      -281.0617
  36   2.0000     -10.327132      -281.0156
  37   2.0000     -10.325577      -280.9732
  38   2.0000     -10.324236      -280.9367
  39   2.0000     -10.322173      -280.8806
  40   2.0000     -10.321825      -280.8711
  41   2.0000     -10.321674      -280.8670
  42   2.0000     -10.320093      -280.8240
  43   2.0000     -10.317184      -280.7448
  44   2.0000     -10.304315      -280.3947
  45   2.0000     -10.302999      -280.3589
  46   2.0000     -10.300775      -280.2983
  47   2.0000     -10.298601      -280.2392
  48   2.0000     -10.297805      -280.2175
  49   2.0000     -10.296227      -280.1746
  50   2.0000     -10.284114      -279.8450
  51   2.0000     -10.282704      -279.8066
  52   2.0000     -10.282365      -279.7974
  53   2.0000     -10.279886      -279.7299
  54   2.0000     -10.279259      -279.7129
  55   2.0000     -10.278867      -279.7022
  56   2.0000     -10.276742      -279.6444
  57   2.0000     -10.276376      -279.6344
  58   2.0000     -10.276059      -279.6258
  59   2.0000     -10.276030      -279.6250
  60   2.0000     -10.274730      -279.5896
  61   2.0000     -10.272850      -279.5385
  62   2.0000     -10.269835      -279.4564
  63   2.0000     -10.267978      -279.4059
  64   2.0000     -10.266498      -279.3656
  65   2.0000     -10.266228      -279.3583
  66   2.0000     -10.265581      -279.3407
  67   2.0000     -10.261940      -279.2416
  68   2.0000     -10.261826      -279.2385
  69   2.0000     -10.258665      -279.1525
  70   2.0000      -8.145796      -221.6584
  71   2.0000      -8.145093      -221.6392
  72   2.0000      -6.116803      -166.4467
  73   2.0000      -6.116164      -166.4293
  74   2.0000      -6.109057      -166.2359
  75   2.0000      -6.108726      -166.2269
  76   2.0000      -6.108358      -166.2169
  77   2.0000      -6.107939      -166.2055
  78   2.0000      -1.149601       -31.2822
  79   2.0000      -1.148983       -31.2654
  80   2.0000      -1.122725       -30.5509
  81   2.0000      -1.118096       -30.4249
  82   2.0000      -1.113734       -30.3062
  83   2.0000      -1.111077       -30.2339
  84   2.0000      -1.100241       -29.9391
  85   2.0000      -1.094989       -29.7962
  86   2.0000      -1.044644       -28.4262
  87   2.0000      -1.044427       -28.4203
  88   2.0000      -1.012376       -27.5482
  89   2.0000      -1.012088       -27.5403
  90   2.0000      -1.003500       -27.3066
  91   2.0000      -1.003347       -27.3024
  92   2.0000      -1.001068       -27.2405
  93   2.0000      -1.000862       -27.2348
  94   2.0000      -0.988810       -26.9069
  95   2.0000      -0.977230       -26.5918
  96   2.0000      -0.976461       -26.5709
  97   2.0000      -0.966049       -26.2875
  98   2.0000      -0.951675       -25.8964
  99   2.0000      -0.949343       -25.8329
 100   2.0000      -0.923617       -25.1329
 101   2.0000      -0.909323       -24.7439
 102   2.0000      -0.908611       -24.7246
 103   2.0000      -0.905322       -24.6351
 104   2.0000      -0.898779       -24.4570
 105   2.0000      -0.893791       -24.3213
 106   2.0000      -0.891925       -24.2705
 107   2.0000      -0.883045       -24.0289
 108   2.0000      -0.869674       -23.6650
 109   2.0000      -0.848180       -23.0801
 110   2.0000      -0.841695       -22.9037
 111   2.0000      -0.837283       -22.7836
 112   2.0000      -0.835647       -22.7391
 113   2.0000      -0.831321       -22.6214
 114   2.0000      -0.826875       -22.5004
 115   2.0000      -0.821375       -22.3508
 116   2.0000      -0.817725       -22.2514
 117   2.0000      -0.802259       -21.8306
 118   2.0000      -0.793331       -21.5876
 119   2.0000      -0.784461       -21.3463
 120   2.0000      -0.762880       -20.7590
 121   2.0000      -0.753372       -20.5003
 122   2.0000      -0.744545       -20.2601
 123   2.0000      -0.739538       -20.1239
 124   2.0000      -0.727190       -19.7878
 125   2.0000      -0.723413       -19.6851
 126   2.0000      -0.721596       -19.6356
 127   2.0000      -0.718027       -19.5385
 128   2.0000      -0.712700       -19.3935
 129   2.0000      -0.708159       -19.2700
 130   2.0000      -0.700795       -19.0696
 131   2.0000      -0.696701       -18.9582
 132   2.0000      -0.692576       -18.8459
 133   2.0000      -0.689018       -18.7491
 134   2.0000      -0.680447       -18.5159
 135   2.0000      -0.672184       -18.2911
 136   2.0000      -0.670557       -18.2468
 137   2.0000      -0.657389       -17.8885
 138   2.0000      -0.654103       -17.7991
 139   2.0000      -0.651837       -17.7374
 140   2.0000      -0.651394       -17.7253
 141   2.0000      -0.636959       -17.3325
 142   2.0000      -0.634103       -17.2548
 143   2.0000      -0.630112       -17.1462
 144   2.0000      -0.622659       -16.9434
 145   2.0000      -0.614442       -16.7198
 146   2.0000      -0.607495       -16.5308
 147   2.0000      -0.601889       -16.3782
 148   2.0000      -0.595724       -16.2105
 149   2.0000      -0.590857       -16.0780
 150   2.0000      -0.586933       -15.9713
 151   2.0000      -0.580858       -15.8060
 152   2.0000      -0.580323       -15.7914
 153   2.0000      -0.578003       -15.7283
 154   2.0000      -0.571727       -15.5575
 155   2.0000      -0.565832       -15.3971
 156   2.0000      -0.563374       -15.3302
 157   2.0000      -0.562781       -15.3140
 158   2.0000      -0.560425       -15.2499
 159   2.0000      -0.558411       -15.1951
 160   2.0000      -0.548585       -14.9278
 161   2.0000      -0.547921       -14.9097
 162   2.0000      -0.544544       -14.8178
 163   2.0000      -0.538728       -14.6595
 164   2.0000      -0.538070       -14.6416
 165   2.0000      -0.536953       -14.6112
 166   2.0000      -0.535163       -14.5625
 167   2.0000      -0.533813       -14.5258
 168   2.0000      -0.533048       -14.5050
 169   2.0000      -0.529982       -14.4215
 170   2.0000      -0.526845       -14.3362
 171   2.0000      -0.526084       -14.3155
 172   2.0000      -0.524730       -14.2786
 173   2.0000      -0.520794       -14.1715
 174   2.0000      -0.512789       -13.9537
 175   2.0000      -0.510798       -13.8995
 176   2.0000      -0.509254       -13.8575
 177   2.0000      -0.507989       -13.8231
 178   2.0000      -0.505874       -13.7655
 179   2.0000      -0.503660       -13.7053
 180   2.0000      -0.501196       -13.6382
 181   2.0000      -0.495099       -13.4723
 182   2.0000      -0.492746       -13.4083
 183   2.0000      -0.490830       -13.3562
 184   2.0000      -0.488626       -13.2962
 185   2.0000      -0.484816       -13.1925
 186   2.0000      -0.483375       -13.1533
 187   2.0000      -0.480127       -13.0649
 188   2.0000      -0.479216       -13.0401
 189   2.0000      -0.476930       -12.9779
 190   2.0000      -0.475095       -12.9280
 191   2.0000      -0.467173       -12.7124
 192   2.0000      -0.463803       -12.6207
 193   2.0000      -0.458851       -12.4860
 194   2.0000      -0.457961       -12.4618
 195   2.0000      -0.454530       -12.3684
 196   2.0000      -0.454324       -12.3628
 197   2.0000      -0.452608       -12.3161
 198   2.0000      -0.451790       -12.2938
 199   2.0000      -0.450664       -12.2632
 200   2.0000      -0.447967       -12.1898
 201   2.0000      -0.444758       -12.1025
 202   2.0000      -0.443929       -12.0799
 203   2.0000      -0.443210       -12.0604
 204   2.0000      -0.442885       -12.0515
 205   2.0000      -0.441617       -12.0170
 206   2.0000      -0.438268       -11.9259
 207   2.0000      -0.436151       -11.8683
 208   2.0000      -0.434759       -11.8304
 209   2.0000      -0.432559       -11.7705
 210   2.0000      -0.429477       -11.6867
 211   2.0000      -0.428109       -11.6494
 212   2.0000      -0.425570       -11.5803
 213   2.0000      -0.425480       -11.5779
 214   2.0000      -0.419359       -11.4113
 215   2.0000      -0.416614       -11.3366
 216   2.0000      -0.416408       -11.3310
 217   2.0000      -0.414848       -11.2886
 218   2.0000      -0.411624       -11.2008
 219   2.0000      -0.411420       -11.1953
 220   2.0000      -0.407393       -11.0857
 221   2.0000      -0.401371       -10.9219
 222   2.0000      -0.398251       -10.8370
 223   2.0000      -0.395607       -10.7650
 224   2.0000      -0.395090       -10.7509
 225   2.0000      -0.390643       -10.6299
 226   2.0000      -0.386965       -10.5299
 227   2.0000      -0.370250       -10.0750
 228   2.0000      -0.359073        -9.7709
 229   2.0000      -0.358899        -9.7661
 230   2.0000      -0.353686        -9.6243
 231   2.0000      -0.349783        -9.5181
 232   2.0000      -0.348323        -9.4783
 233   2.0000      -0.342196        -9.3116
 234   2.0000      -0.339557        -9.2398
 235   2.0000      -0.334077        -9.0907
 236   2.0000      -0.327804        -8.9200
 237   2.0000      -0.320586        -8.7236
 238   2.0000      -0.318090        -8.6557
 239   2.0000      -0.312901        -8.5145
 240   2.0000      -0.309111        -8.4113
 241   2.0000      -0.291139        -7.9223
 242   2.0000      -0.262130        -7.1329
 243   2.0000      -0.260272        -7.0824
 244   2.0000      -0.224808        -6.1173
 245   0.0000      -0.120617        -3.2821
 246   0.0000      -0.119248        -3.2449
 247   0.0000      -0.073345        -1.9958
 248   0.0000      -0.048626        -1.3232
 249   0.0000      -0.047719        -1.2985

MULLIKEN ATOMIC CHARGES
-----------------------
   0 C :   -0.103210
   1 C :    0.013036
   2 C :   -0.086706
   3 N :    0.057441
   4 C :   -0.133780
   5 C :   -0.143398
   6 N :    0.054505
   7 C :   -0.208029
   8 N :    0.239423
   9 C :   -0.222466
  10 N :    0.236796
  11 C :    0.257877
  12 C :   -0.013365
  13 C :    0.109948
  14 N :   -0.263048
  15 S :    0.547927
  16 N :   -0.349890
  17 C :   -0.086139
  18 N :   -0.022890
  19 C :    0.071712
  20 C :    0.019188
  21 C :   -0.072776
  22 C :   -0.029971
  23 O :   -0.191130
  24 C :    0.055507
  25 C :    0.046628
  26 C :   -0.016220
  27 C :    0.043335
  28 C :   -0.095159
  29 C :    0.023823
  30 C :    0.131606
  31 N :   -0.236190
  32 C :    0.125559
  33 N :   -0.221200
  34 C :    0.065765
  35 C :   -0.137756
  36 C :    0.141305
  37 C :   -0.047412
  38 C :    0.019326
  39 C :    0.014949
  40 C :    0.040351
  41 C :   -0.012094
  42 C :   -0.021377
  43 C :   -0.051101
  44 C :    0.026896
  45 C :    0.119888
  46 N :   -0.013964
  47 C :   -0.070240
  48 C :    0.037007
  49 C :   -0.103020
  50 C :   -0.004097
  51 O :   -0.200062
  52 C :    0.049659
  53 C :    0.184426
  54 C :   -0.053230
  55 C :    0.013633
  56 N :    0.051058
  57 C :   -0.140198
  58 C :   -0.111493
  59 N :    0.020864
  60 C :   -0.210731
  61 N :    0.228443
  62 C :   -0.192099
  63 N :    0.226577
  64 C :   -0.084573
  65 C :    0.103794
  66 C :   -0.006948
  67 N :   -0.338532
  68 S :    0.543347
  69 N :   -0.260179
  70 H :   -0.021708
  71 H :    0.136446
  72 H :   -0.013499
  73 H :    0.038820
  74 H :    0.037419
  75 H :    0.027407
  76 H :   -0.024687
  77 H :   -0.010693
  78 H :    0.007616
  79 H :   -0.005964
  80 H :    0.100738
  81 H :    0.097354
  82 H :   -0.014366
  83 H :   -0.013358
  84 H :    0.093648
  85 H :    0.087202
  86 H :    0.016882
  87 H :    0.034979
  88 H :   -0.013030
  89 H :   -0.035023
  90 H :   -0.040117
  91 H :   -0.034382
  92 H :    0.008589
  93 H :   -0.025901
  94 H :    0.127660
  95 H :   -0.026146
  96 H :    0.034505
  97 H :    0.037828
  98 H :    0.043385
  99 H :   -0.018530
Sum of atomic charges:   -0.0000000

LOEWDIN ATOMIC CHARGES
----------------------
   0 C :   -0.035021
   1 C :   -0.003667
   2 C :   -0.020768
   3 N :    0.011177
   4 C :   -0.040137
   5 C :   -0.024192
   6 N :   -0.003400
   7 C :   -0.034305
   8 N :   -0.003185
   9 C :   -0.040469
  10 N :   -0.012391
  11 C :   -0.004158
  12 C :   -0.042530
  13 C :   -0.041802
  14 N :   -0.280901
  15 S :    0.678056
  16 N :   -0.298517
  17 C :   -0.023141
  18 N :    0.113913
  19 C :    0.062786
  20 C :   -0.117135
  21 C :   -0.008203
  22 C :    0.080705
  23 O :   -0.159774
  24 C :   -0.075157
  25 C :   -0.050322
  26 C :    0.033855
  27 C :   -0.019179
  28 C :   -0.031718
  29 C :   -0.037894
  30 C :    0.030473
  31 N :   -0.115313
  32 C :    0.025951
  33 N :   -0.121788
  34 C :   -0.028998
  35 C :    0.071137
  36 C :   -0.030753
  37 C :   -0.039285
  38 C :   -0.015137
  39 C :   -0.038657
  40 C :   -0.031384
  41 C :   -0.012077
  42 C :   -0.034654
  43 C :    0.010980
  44 C :   -0.047065
  45 C :    0.007847
  46 N :    0.115552
  47 C :    0.000439
  48 C :   -0.063144
  49 C :   -0.055150
  50 C :    0.082502
  51 O :   -0.164047
  52 C :   -0.072800
  53 C :   -0.006531
  54 C :   -0.005651
  55 C :   -0.002970
  56 N :   -0.002104
  57 C :   -0.018873
  58 C :   -0.032203
  59 N :    0.016203
  60 C :   -0.034127
  61 N :   -0.013053
  62 C :   -0.033222
  63 N :   -0.003291
  64 C :   -0.021339
  65 C :   -0.043789
  66 C :   -0.042925
  67 N :   -0.306725
  68 S :    0.678563
  69 N :   -0.279290
  70 H :    0.046373
  71 H :    0.069401
  72 H :    0.026391
  73 H :    0.044275
  74 H :    0.041404
  75 H :    0.037053
  76 H :    0.029722
  77 H :    0.033282
  78 H :    0.010103
  79 H :    0.017223
  80 H :    0.052235
  81 H :    0.057588
  82 H :   -0.003630
  83 H :    0.016313
  84 H :    0.049275
  85 H :    0.052022
  86 H :    0.030809
  87 H :    0.059678
  88 H :    0.024275
  89 H :    0.030004
  90 H :    0.026084
  91 H :    0.021142
  92 H :    0.029327
  93 H :    0.027802
  94 H :    0.079035
  95 H :    0.025203
  96 H :    0.042815
  97 H :    0.038896
  98 H :    0.042569
  99 H :    0.047501

  Mayer bond orders larger than 0.100000
B(  0-C ,  1-C ) :   1.3140 B(  0-C , 11-C ) :   0.1257 B(  0-C , 13-C ) :   1.1682
B(  0-C , 70-H ) :   1.0627 B(  1-C ,  2-C ) :   1.1221 B(  1-C ,  6-N ) :   1.3316
B(  2-C ,  3-N ) :   1.4753 B(  2-C , 11-C ) :   1.2668 B(  3-N ,  4-C ) :   1.7265
B(  4-C ,  5-C ) :   1.1932 B(  4-C ,  9-C ) :   1.1520 B(  5-C ,  6-N ) :   1.7866
B(  5-C ,  7-C ) :   1.1581 B(  7-C ,  8-N ) :   3.0518 B(  9-C , 10-N ) :   3.0472
B( 11-C , 12-C ) :   1.1905 B( 11-C , 17-C ) :   1.0699 B( 12-C , 13-C ) :   1.1349
B( 12-C , 16-N ) :   1.4419 B( 13-C , 14-N ) :   1.4639 B( 14-N , 15-S ) :   1.3087
B( 14-N , 16-N ) :   0.1554 B( 15-S , 16-N ) :   1.2594 B( 17-C , 18-N ) :   1.2395
B( 17-C , 19-C ) :   0.1048 B( 17-C , 21-C ) :   1.3727 B( 18-N , 19-C ) :   1.3308
B( 18-N , 71-H ) :   0.8738 B( 19-C , 20-C ) :   1.3042 B( 19-C , 25-C ) :   1.0109
B( 20-C , 21-C ) :   1.2896 B( 20-C , 22-C ) :   0.9380 B( 21-C , 72-H ) :   0.9916
B( 22-C , 23-O ) :   2.1585 B( 22-C , 24-C ) :   1.0765 B( 24-C , 73-H ) :   0.9354
B( 24-C , 74-H ) :   0.9484 B( 24-C , 75-H ) :   0.9478 B( 25-C , 26-C ) :   1.5475
B( 25-C , 42-C ) :   1.1110 B( 26-C , 27-C ) :   1.1684 B( 26-C , 76-H ) :   0.9784
B( 27-C , 28-C ) :   1.4761 B( 27-C , 40-C ) :   1.1214 B( 28-C , 29-C ) :   1.0490
B( 28-C , 34-C ) :   1.0871 B( 29-C , 30-C ) :   1.0355 B( 29-C , 32-C ) :   1.0306
B( 29-C , 77-H ) :   0.8748 B( 30-C , 31-N ) :   1.0951 B( 30-C , 78-H ) :   0.9458
B( 30-C , 79-H ) :   0.9402 B( 31-N , 80-H ) :   0.9594 B( 31-N , 81-H ) :   0.9695
B( 32-C , 33-N ) :   1.0902 B( 32-C , 82-H ) :   0.9398 B( 32-C , 83-H ) :   0.9353
B( 33-N , 84-H ) :   0.9712 B( 33-N , 85-H ) :   0.9686 B( 34-C , 35-C ) :   1.6282
B( 34-C , 39-C ) :   1.0511 B( 35-C , 36-C ) :   0.9486 B( 35-C , 86-H ) :   0.9664
B( 36-C , 37-C ) :   0.9797 B( 36-C , 43-C ) :   0.9650 B( 36-C , 87-H ) :   0.8598
B( 37-C , 38-C ) :   1.7041 B( 37-C , 88-H ) :   0.9777 B( 38-C , 39-C ) :   1.1316
B( 38-C , 89-H ) :   0.9886 B( 39-C , 40-C ) :   1.4291 B( 40-C , 41-C ) :   1.1439
B( 41-C , 42-C ) :   1.6039 B( 41-C , 90-H ) :   0.9917 B( 42-C , 91-H ) :   0.9801
B( 43-C , 44-C ) :   1.8121 B( 43-C , 92-H ) :   0.9727 B( 44-C , 45-C ) :   1.0516
B( 44-C , 93-H ) :   0.9584 B( 45-C , 46-N ) :   1.2295 B( 45-C , 47-C ) :   0.1156
B( 45-C , 49-C ) :   1.3888 B( 46-N , 47-C ) :   1.2853 B( 46-N , 94-H ) :   0.8979
B( 47-C , 48-C ) :   1.3879 B( 47-C , 53-C ) :   1.0732 B( 48-C , 49-C ) :   1.3575
B( 48-C , 50-C ) :   0.8758 B( 49-C , 95-H ) :   1.0029 B( 50-C , 51-O ) :   2.1915
B( 50-C , 52-C ) :   1.0485 B( 52-C , 96-H ) :   0.9421 B( 52-C , 97-H ) :   0.9458
B( 52-C , 98-H ) :   0.9492 B( 53-C , 54-C ) :   1.3014 B( 53-C , 64-C ) :   0.1335
B( 53-C , 66-C ) :   1.2224 B( 54-C , 55-C ) :   1.1173 B( 54-C , 59-N ) :   1.4223
B( 55-C , 56-N ) :   1.3252 B( 55-C , 64-C ) :   1.3163 B( 56-N , 57-C ) :   1.7942
B( 57-C , 58-C ) :   1.1757 B( 57-C , 62-C ) :   1.1428 B( 58-C , 59-N ) :   1.6936
B( 58-C , 60-C ) :   1.1586 B( 60-C , 61-N ) :   3.0211 B( 62-C , 63-N ) :   3.0523
B( 64-C , 65-C ) :   1.1742 B( 64-C , 99-H ) :   1.0599 B( 65-C , 66-C ) :   1.1337
B( 65-C , 69-N ) :   1.4607 B( 66-C , 67-N ) :   1.4538 B( 67-N , 68-S ) :   1.2639
B( 67-N , 69-N ) :   0.1585 B( 68-S , 69-N ) :   1.3143

-----------------------------------------------------------------------------
         ABSORPTION SPECTRUM VIA TRANSITION ELECTRIC DIPOLE MOMENTS
-----------------------------------------------------------------------------
State   Energy  Wavelength   fosc         T2         TX        TY        TZ
        (cm-1)    (nm)                  (au**2)     (au)      (au)      (au)
-----------------------------------------------------------------------------
   0    9710.2   1029.8   0.302723101  10.26347  -2.32284   2.06571   0.77505
   1   13004.1    769.0   0.160000312   4.05057   1.43250  -1.05338  -0.94282
   2   14100.0    709.2   0.239612986   5.59455  -1.24919   1.44663   1.39332
   3   14930.9    669.8   0.042399286   0.93486  -0.61660   0.16159   0.72702
   4   15312.5    653.1   0.132604936   2.85095  -1.33458   1.00187  -0.25712
   5   22485.7    444.7   0.005087313   0.07448   0.00499   0.27219  -0.01920
   6   23628.2    423.2   0.011719094   0.16328  -0.21893   0.24283   0.23746
   7   23760.7    420.9   0.006985748   0.09679   0.23926  -0.12038  -0.15829
   8   24815.1    403.0   0.084074736   1.11538  -0.90762   0.44504   0.30586
   9   25227.7    396.4   0.129839436   1.69436   0.89749  -0.67477  -0.65845
  10   25598.3    390.7   0.033802619   0.43473  -0.22745   0.13535   0.60388
  11   25806.8    387.5   0.023061901   0.29420  -0.41312   0.19891   0.28976
  12   25975.0    385.0   0.023256394   0.29476   0.30621  -0.36927   0.25424
  13   26543.9    376.7   0.009700108   0.12031  -0.14032  -0.11411   0.29596
  14   26639.1    375.4   0.003728735   0.04608  -0.13196  -0.15950  -0.05678
  15   27062.9    369.5   0.019730030   0.24001   0.27319  -0.29296  -0.28204
  16   27405.5    364.9   0.004933111   0.05926  -0.14275   0.06610   0.18578
  17   27613.4    362.1   0.084755228   1.01047   0.61101  -0.45553  -0.65545
  18   27753.3    360.3   0.001638020   0.01943   0.07829  -0.08229  -0.08080
  19   27853.7    359.0   0.091589879   1.08253  -0.80237   0.40199   0.52644
  20   28050.8    356.5   0.005369577   0.06302  -0.18267   0.14840  -0.08734
  21   28221.9    354.3   0.003706164   0.04323   0.07022  -0.18506  -0.06367
  22   28923.2    345.7   0.074403835   0.84689  -0.28275   0.60303   0.63505
  23   29109.6    343.5   0.267373540   3.02383  -0.68630   1.05849   1.19684
  24   29289.8    341.4   0.250077982   2.81083   0.99395  -0.44264  -1.27552
  25   29590.7    337.9   0.072350722   0.80494   0.63320  -0.60597  -0.19184
  26   30073.2    332.5   0.047246879   0.51721  -0.01532  -0.42827  -0.57755
  27   30154.8    331.6   0.103108342   1.12568   0.59641   0.09130  -0.87272
  28   31326.1    319.2   0.015335935   0.16117  -0.38665   0.10635  -0.01893
  29   31524.3    317.2   0.048909092   0.51076  -0.49453   0.00055   0.51595
  30   31639.1    316.1   0.000048845   0.00051   0.00757   0.01338  -0.01649
  31   31963.7    312.9   0.014217768   0.14644   0.17185  -0.27199  -0.20719
  32   32158.0    311.0   0.006410496   0.06563   0.20506  -0.00904  -0.15328
  33   32711.1    305.7   0.005051436   0.05084  -0.02358  -0.10048  -0.20047
  34   33236.8    300.9   1.008991685   9.99410  -1.10952  -2.81861  -0.90470
  35   33415.5    299.3   0.105410523   1.03851   0.55628   0.12943   0.84399
  36   33755.0    296.3   0.093342659   0.91037   0.27625  -0.43687  -0.80199
  37   33843.9    295.5   0.664495119   6.46379  -0.70862   0.11560   2.43891
  38   34008.1    294.0   0.004241911   0.04106   0.05133  -0.08206  -0.17803
  39   34142.1    292.9   0.015054960   0.14517  -0.21074  -0.27680  -0.15535
  40   34765.1    287.6   0.381483551   3.61250   0.77323  -0.12134  -1.73202
  41   35158.7    284.4   0.005522412   0.05171  -0.17430   0.14334  -0.02796
  42   35524.2    281.5   0.073281564   0.67912   0.75706   0.11882  -0.30309
  43   36140.5    276.7   0.631558341   5.75300   2.08402  -1.17733  -0.15416
  44   36718.5    272.3   0.043719767   0.39198  -0.06644   0.55953  -0.27294
  45   37333.5    267.9   0.037793832   0.33327  -0.40552   0.35957   0.19884
  46   37457.2    267.0   0.001244938   0.01094   0.01113   0.10239   0.01831
  47   37832.7    264.3   0.021518448   0.18725  -0.03048  -0.42540  -0.07318
  48   38203.7    261.8   0.032259654   0.27799  -0.35236   0.23443   0.31444
  49   38281.0    261.2   0.357635458   3.07563   1.17261  -0.97644  -0.86439
  50   38648.4    258.7   0.058982423   0.50242   0.61632   0.35010   0.00066
  51   38885.2    257.2   0.058301690   0.49360   0.52856  -0.01645  -0.46254
  52   39079.4    255.9   0.012594436   0.10610  -0.08372  -0.20730   0.23689
  53   39106.4    255.7   0.034021610   0.28641   0.27104   0.00270  -0.46145
  54   39743.4    251.6   0.100217274   0.83014  -0.20011   0.88856   0.02360
  55   39910.0    250.6   0.021106395   0.17410  -0.20576   0.02753  -0.36195
  56   40206.5    248.7   0.008465583   0.06932  -0.13872  -0.00416   0.22373

FINAL SINGLE POINT ENERGY     -3742.143711607210

DIPOLE MOMENT
-------------
                                X             Y             Z
Electronic contribution:    -10.30187       5.61644     -22.73276
Nuclear contribution   :     11.90969      -2.68270      19.89111
                        -----------------------------------------
Total Dipole Moment    :      1.60782       2.93374      -2.84164
                        -----------------------------------------
Magnitude (a.u.)       :      4.38940
Magnitude (Debye)      :     11.15698

Rotational constants in cm-1:     0.002661     0.000222     0.000221
Rotational constants in MHz :    79.769665     6.654111     6.635265

                             ****ORCA TERMINATED NORMALLY****
TOTAL RUN TIME: 0 days 0 hours 9 minutes 29 seconds 970 msec
