                         Program Version 4.2.0 -  RELEASE  -
|  1> # ORCA input file
|  2> # SCF done       -242.471339956225          0.000467305384
|  3> ! CAM-B3LYP def2-SVP def2/J RIJCOSX Grid4 TightSCF
|  4> %maxcore 5000
|  5> %tddft
|  6>     Mode sTDDFT
|  7>     Ethresh 5.0
|  8>     maxcore 5000
|  9> end
| 10>
| 11> %pal
| 12>   nprocs 6
| 13>   end
| 14> * xyz 0 1
| 15>    C       -4.07411       -14.03683         6.33970
| 16>    S       -3.62048       -13.58969         4.76125
| 17>    C       -3.40152       -11.93825         5.23180
| 18>    C       -3.67451       -11.77148         6.57709
| 19>    C       -4.06196       -12.98143         7.20831
| 20>    C       -4.42560       -13.15380         8.65398
| 21>    F       -4.78418       -14.42327         8.90904
| 22>    F       -3.40780       -12.88174         9.48099
| 23>    F       -5.46097       -12.39174         9.02527
| 24>    C       -3.53786       -10.43052         7.23165
| 25>    F       -2.29863        -9.92299         7.05809
| 26>    F       -4.37763        -9.52288         6.70100
| 27>    F       -3.76003       -10.43536         8.54192
| 28>    C       -2.99229       -10.93439         4.29458
| 29>    C       -2.63236       -11.20917         3.03430
| 30>    C       -2.17012       -10.20545         2.09088
| 31>    C       -0.95520       -10.37471         1.41397
| 32>    C       -0.09228       -11.55394         1.58171
| 33>    O       -0.25779       -12.49300         2.30575
| 34>    S        1.32285       -11.39581         0.49063
| 35>    C        0.79026        -9.79915        -0.14801
| 36>    O        1.38386        -9.21328        -1.00574
| 37>    C       -0.45716        -9.41489         0.52793
| 38>    C       -1.13298        -8.21365         0.28344
| 39>    C       -2.36527        -8.05767         0.92814
| 40>    C       -2.88030        -9.03160         1.79330
| 41>    C       -4.24622        -8.75575         2.26937
| 42>    O       -4.97854        -9.45903         2.89874
| 43>    S       -4.74858        -7.13172         1.67385
| 44>    C       -3.22032        -6.86536         0.77942
| 45>    O       -2.99376        -5.85511         0.17614
| 46>    C       -0.57065        -7.18717        -0.60437
| 47>    C       -1.22883        -6.83869        -1.75655
| 48>    C       -0.67868        -5.86051        -2.60658
| 49>    C       -1.13951        -5.28974        -3.79440
| 50>    C       -2.42588        -5.46780        -4.51715
| 51>    C       -2.34113        -6.71205        -5.43477
| 52>    N       -1.50322        -6.41791        -6.57963
| 53>    C       -3.65950        -5.55811        -3.59633
| 54>    N       -3.68149        -4.44170        -2.67619
| 55>    C       -0.07946        -4.43552        -4.27637
| 56>    C        0.05826        -3.78493        -5.44842
| 57>    C        1.32923        -3.08234        -5.77735
| 58>    C        2.27716        -2.92815        -4.63579
| 59>    C        2.12592        -3.60404        -3.47627
| 60>    C        0.99349        -4.42377        -3.28423
| 61>    C        0.61378        -5.29468        -2.26391
| 62>    C        1.25697        -5.66766        -1.07189
| 63>    C        0.66848        -6.58872        -0.25509
| 64>    C        1.02059        -1.80951        -6.51730
| 65>    C        0.99077        -0.61547        -5.94073
| 66>    C        0.69853         0.60865        -6.67678
| 67>    C       -0.44094         0.77835        -7.47830
| 68>    C       -1.54089        -0.19233        -7.60950
| 69>    O       -1.68146        -1.25578        -7.07683
| 70>    S       -2.76743         0.46479        -8.75296
| 71>    C       -1.85966         1.97934        -9.03699
| 72>    O       -2.22709         2.84991        -9.77187
| 73>    C       -0.63849         1.94906        -8.22102
| 74>    C        0.27685         3.00165        -8.20685
| 75>    C        1.37975         2.85816        -7.36646
| 76>    C        1.58685         1.69117        -6.62594
| 77>    C        2.84044         1.68835        -5.85725
| 78>    O        3.29162         0.80856        -5.18138
| 79>    S        3.67042         3.26624        -6.09011
| 80>    C        2.41263         3.89194        -7.20216
| 81>    O        2.43791         4.98347        -7.69170
| 82>    C        0.12186         4.18026        -9.06024
| 83>    S       -0.81511         5.53191        -8.56402
| 84>    C       -0.47064         6.39161       -10.02497
| 85>    C        0.36672         5.66113       -10.83613
| 86>    C        0.68504         4.38531       -10.29189
| 87>    C        1.52562         3.34632       -10.97002
| 88>    F        1.29552         2.11004       -10.47313
| 89>    F        1.28531         3.25418       -12.27930
| 90>    F        2.84164         3.54783       -10.81237
| 91>    C        0.96083         6.19165       -12.10673
| 92>    F        1.16237         7.51846       -12.05794
| 93>    F        2.15304         5.65754       -12.38388
| 94>    F        0.18049         5.97092       -13.18075
| 95>    C       -1.09694         7.68319       -10.21784
| 96>    C       -1.53455         8.15409       -11.37943
| 97>    H       -4.33073       -15.05260         6.56775
| 98>    H       -2.96373        -9.91756         4.65847
| 99>    H       -2.59454       -12.23602         2.69456
|100>    H       -2.14688        -7.34091        -2.01802
|101>    H       -2.56844        -4.59083        -5.15512
|102>    H       -3.36664        -7.00546        -5.71097
|103>    H       -1.88832        -7.53835        -4.88130
|104>    H       -1.99406        -5.81927        -7.23477
|105>    H       -1.23353        -7.26472        -7.06444
|106>    H       -3.68563        -6.54320        -3.10300
|107>    H       -4.55164        -5.48877        -4.22629
|108>    H       -2.96755        -4.54482        -1.96277
|109>    H       -4.57638        -4.38032        -2.20567
|110>    H       -0.71430        -3.77556        -6.20094
|111>    H        1.83629        -3.74576        -6.50215
|112>    H        3.12697        -2.28509        -4.80487
|113>    H        2.85941        -3.51888        -2.68861
|114>    H        2.20873        -5.23029        -0.81247
|115>    H        1.14010        -6.88215         0.67064
|116>    H        0.78925        -1.91825        -7.56722
|117>    H        1.26600        -0.49612        -4.90221
|118>    H       -1.25467         8.24406        -9.30627
|119>    H       -1.44891         7.60427       -12.30015
|120>    H       -2.00885         9.11750       -11.43952
|121> *
|122>
|123>                          ****END OF INPUT****

CARTESIAN COORDINATES (ANGSTROEM)
---------------------------------
  C     -4.074110  -14.036830    6.339700
  S     -3.620480  -13.589690    4.761250
  C     -3.401520  -11.938250    5.231800
  C     -3.674510  -11.771480    6.577090
  C     -4.061960  -12.981430    7.208310
  C     -4.425600  -13.153800    8.653980
  F     -4.784180  -14.423270    8.909040
  F     -3.407800  -12.881740    9.480990
  F     -5.460970  -12.391740    9.025270
  C     -3.537860  -10.430520    7.231650
  F     -2.298630   -9.922990    7.058090
  F     -4.377630   -9.522880    6.701000
  F     -3.760030  -10.435360    8.541920
  C     -2.992290  -10.934390    4.294580
  C     -2.632360  -11.209170    3.034300
  C     -2.170120  -10.205450    2.090880
  C     -0.955200  -10.374710    1.413970
  C     -0.092280  -11.553940    1.581710
  O     -0.257790  -12.493000    2.305750
  S      1.322850  -11.395810    0.490630
  C      0.790260   -9.799150   -0.148010
  O      1.383860   -9.213280   -1.005740
  C     -0.457160   -9.414890    0.527930
  C     -1.132980   -8.213650    0.283440
  C     -2.365270   -8.057670    0.928140
  C     -2.880300   -9.031600    1.793300
  C     -4.246220   -8.755750    2.269370
  O     -4.978540   -9.459030    2.898740
  S     -4.748580   -7.131720    1.673850
  C     -3.220320   -6.865360    0.779420
  O     -2.993760   -5.855110    0.176140
  C     -0.570650   -7.187170   -0.604370
  C     -1.228830   -6.838690   -1.756550
  C     -0.678680   -5.860510   -2.606580
  C     -1.139510   -5.289740   -3.794400
  C     -2.425880   -5.467800   -4.517150
  C     -2.341130   -6.712050   -5.434770
  N     -1.503220   -6.417910   -6.579630
  C     -3.659500   -5.558110   -3.596330
  N     -3.681490   -4.441700   -2.676190
  C     -0.079460   -4.435520   -4.276370
  C      0.058260   -3.784930   -5.448420
  C      1.329230   -3.082340   -5.777350
  C      2.277160   -2.928150   -4.635790
  C      2.125920   -3.604040   -3.476270
  C      0.993490   -4.423770   -3.284230
  C      0.613780   -5.294680   -2.263910
  C      1.256970   -5.667660   -1.071890
  C      0.668480   -6.588720   -0.255090
  C      1.020590   -1.809510   -6.517300
  C      0.990770   -0.615470   -5.940730
  C      0.698530    0.608650   -6.676780
  C     -0.440940    0.778350   -7.478300
  C     -1.540890   -0.192330   -7.609500
  O     -1.681460   -1.255780   -7.076830
  S     -2.767430    0.464790   -8.752960
  C     -1.859660    1.979340   -9.036990
  O     -2.227090    2.849910   -9.771870
  C     -0.638490    1.949060   -8.221020
  C      0.276850    3.001650   -8.206850
  C      1.379750    2.858160   -7.366460
  C      1.586850    1.691170   -6.625940
  C      2.840440    1.688350   -5.857250
  O      3.291620    0.808560   -5.181380
  S      3.670420    3.266240   -6.090110
  C      2.412630    3.891940   -7.202160
  O      2.437910    4.983470   -7.691700
  C      0.121860    4.180260   -9.060240
  S     -0.815110    5.531910   -8.564020
  C     -0.470640    6.391610  -10.024970
  C      0.366720    5.661130  -10.836130
  C      0.685040    4.385310  -10.291890
  C      1.525620    3.346320  -10.970020
  F      1.295520    2.110040  -10.473130
  F      1.285310    3.254180  -12.279300
  F      2.841640    3.547830  -10.812370
  C      0.960830    6.191650  -12.106730
  F      1.162370    7.518460  -12.057940
  F      2.153040    5.657540  -12.383880
  F      0.180490    5.970920  -13.180750
  C     -1.096940    7.683190  -10.217840
  C     -1.534550    8.154090  -11.379430
  H     -4.330730  -15.052600    6.567750
  H     -2.963730   -9.917560    4.658470
  H     -2.594540  -12.236020    2.694560
  H     -2.146880   -7.340910   -2.018020
  H     -2.568440   -4.590830   -5.155120
  H     -3.366640   -7.005460   -5.710970
  H     -1.888320   -7.538350   -4.881300
  H     -1.994060   -5.819270   -7.234770
  H     -1.233530   -7.264720   -7.064440
  H     -3.685630   -6.543200   -3.103000
  H     -4.551640   -5.488770   -4.226290
  H     -2.967550   -4.544820   -1.962770
  H     -4.576380   -4.380320   -2.205670
  H     -0.714300   -3.775560   -6.200940
  H      1.836290   -3.745760   -6.502150
  H      3.126970   -2.285090   -4.804870
  H      2.859410   -3.518880   -2.688610
  H      2.208730   -5.230290   -0.812470
  H      1.140100   -6.882150    0.670640
  H      0.789250   -1.918250   -7.567220
  H      1.266000   -0.496120   -4.902210
  H     -1.254670    8.244060   -9.306270
  H     -1.448910    7.604270  -12.300150
  H     -2.008850    9.117500  -11.439520

 Total Charge           Charge          ....    0
 Multiplicity           Mult            ....    1
 Number of Electrons    NEL             ....  630
 Basis Dimension        Dim             .... 1292

ORBITAL ENERGIES
----------------

  NO   OCC          E(Eh)            E(eV)
   0   2.0000     -88.985481     -2421.4180
   1   2.0000     -88.983964     -2421.3768
   2   2.0000     -88.963757     -2420.8269
   3   2.0000     -88.962919     -2420.8041
   4   2.0000     -88.956783     -2420.6371
   5   2.0000     -88.956070     -2420.6177
   6   2.0000     -24.809590      -675.1033
   7   2.0000     -24.805720      -674.9980
   8   2.0000     -24.804415      -674.9625
   9   2.0000     -24.800909      -674.8670
  10   2.0000     -24.799753      -674.8356
  11   2.0000     -24.799144      -674.8190
  12   2.0000     -24.798876      -674.8117
  13   2.0000     -24.798495      -674.8014
  14   2.0000     -24.796620      -674.7503
  15   2.0000     -24.795225      -674.7124
  16   2.0000     -24.794869      -674.7027
  17   2.0000     -24.794298      -674.6871
  18   2.0000     -19.255701      -523.9743
  19   2.0000     -19.255606      -523.9717
  20   2.0000     -19.255517      -523.9692
  21   2.0000     -19.254983      -523.9547
  22   2.0000     -19.250870      -523.8428
  23   2.0000     -19.248551      -523.7797
  24   2.0000     -19.247498      -523.7510
  25   2.0000     -19.246399      -523.7211
  26   2.0000     -14.382131      -391.3577
  27   2.0000     -14.361537      -390.7973
  28   2.0000     -10.528918      -286.5064
  29   2.0000     -10.525374      -286.4100
  30   2.0000     -10.522091      -286.3207
  31   2.0000     -10.521165      -286.2955
  32   2.0000     -10.420346      -283.5520
  33   2.0000     -10.417666      -283.4791
  34   2.0000     -10.417415      -283.4723
  35   2.0000     -10.417142      -283.4648
  36   2.0000     -10.412781      -283.3462
  37   2.0000     -10.412435      -283.3368
  38   2.0000     -10.411616      -283.3145
  39   2.0000     -10.408687      -283.2348
  40   2.0000     -10.351985      -281.6918
  41   2.0000     -10.348098      -281.5861
  42   2.0000     -10.342879      -281.4440
  43   2.0000     -10.342596      -281.4363
  44   2.0000     -10.341726      -281.4127
  45   2.0000     -10.341240      -281.3995
  46   2.0000     -10.338796      -281.3330
  47   2.0000     -10.338691      -281.3301
  48   2.0000     -10.335658      -281.2475
  49   2.0000     -10.334982      -281.2292
  50   2.0000     -10.333483      -281.1884
  51   2.0000     -10.333353      -281.1848
  52   2.0000     -10.333022      -281.1758
  53   2.0000     -10.332396      -281.1588
  54   2.0000     -10.331648      -281.1384
  55   2.0000     -10.325082      -280.9598
  56   2.0000     -10.316704      -280.7318
  57   2.0000     -10.315742      -280.7056
  58   2.0000     -10.314884      -280.6823
  59   2.0000     -10.312250      -280.6106
  60   2.0000     -10.306565      -280.4559
  61   2.0000     -10.301146      -280.3084
  62   2.0000     -10.297241      -280.2022
  63   2.0000     -10.297110      -280.1986
  64   2.0000     -10.294579      -280.1297
  65   2.0000     -10.294217      -280.1199
  66   2.0000     -10.287967      -279.9498
  67   2.0000     -10.282593      -279.8036
  68   2.0000     -10.282016      -279.7879
  69   2.0000     -10.280092      -279.7355
  70   2.0000     -10.276475      -279.6371
  71   2.0000     -10.271112      -279.4912
  72   2.0000     -10.265471      -279.3377
  73   2.0000     -10.264859      -279.3210
  74   2.0000     -10.262770      -279.2642
  75   2.0000     -10.261961      -279.2422
  76   2.0000     -10.261005      -279.2161
  77   2.0000     -10.257541      -279.1219
  78   2.0000     -10.257509      -279.1210
  79   2.0000     -10.254578      -279.0413
  80   2.0000     -10.254339      -279.0348
  81   2.0000     -10.252237      -278.9776
  82   2.0000      -8.081415      -219.9065
  83   2.0000      -8.080137      -219.8717
  84   2.0000      -8.062951      -219.4040
  85   2.0000      -8.062043      -219.3794
  86   2.0000      -8.056093      -219.2174
  87   2.0000      -8.055283      -219.1954
  88   2.0000      -6.050513      -164.6428
  89   2.0000      -6.049353      -164.6113
  90   2.0000      -6.046232      -164.5263
  91   2.0000      -6.045083      -164.4951
  92   2.0000      -6.043934      -164.4638
  93   2.0000      -6.042289      -164.4190
  94   2.0000      -6.031829      -164.1344
  95   2.0000      -6.030950      -164.1105
  96   2.0000      -6.028519      -164.0443
  97   2.0000      -6.027621      -164.0199
  98   2.0000      -6.024915      -163.9463
  99   2.0000      -6.024133      -163.9250
 100   2.0000      -6.024014      -163.9217
 101   2.0000      -6.023073      -163.8962
 102   2.0000      -6.021680      -163.8583
 103   2.0000      -6.020866      -163.8361
 104   2.0000      -6.017174      -163.7356
 105   2.0000      -6.016357      -163.7134
 106   2.0000      -1.397464       -38.0269
 107   2.0000      -1.394198       -37.9380
 108   2.0000      -1.389214       -37.8024
 109   2.0000      -1.387534       -37.7567
 110   2.0000      -1.300028       -35.3755
 111   2.0000      -1.298557       -35.3355
 112   2.0000      -1.295681       -35.2573
 113   2.0000      -1.291310       -35.1383
 114   2.0000      -1.289620       -35.0924
 115   2.0000      -1.289130       -35.0790
 116   2.0000      -1.288668       -35.0664
 117   2.0000      -1.287624       -35.0380
 118   2.0000      -1.179529       -32.0966
 119   2.0000      -1.178511       -32.0689
 120   2.0000      -1.175231       -31.9797
 121   2.0000      -1.174477       -31.9591
 122   2.0000      -1.173702       -31.9381
 123   2.0000      -1.173033       -31.9199
 124   2.0000      -1.168202       -31.7884
 125   2.0000      -1.167026       -31.7564
 126   2.0000      -1.038766       -28.2663
 127   2.0000      -1.027042       -27.9472
 128   2.0000      -1.019384       -27.7388
 129   2.0000      -1.018284       -27.7089
 130   2.0000      -0.980688       -26.6859
 131   2.0000      -0.978407       -26.6238
 132   2.0000      -0.972661       -26.4674
 133   2.0000      -0.962384       -26.1878
 134   2.0000      -0.953279       -25.9400
 135   2.0000      -0.945860       -25.7382
 136   2.0000      -0.943449       -25.6725
 137   2.0000      -0.937420       -25.5085
 138   2.0000      -0.932923       -25.3861
 139   2.0000      -0.921016       -25.0621
 140   2.0000      -0.905749       -24.6467
 141   2.0000      -0.903985       -24.5987
 142   2.0000      -0.892387       -24.2831
 143   2.0000      -0.890611       -24.2348
 144   2.0000      -0.886178       -24.1141
 145   2.0000      -0.868263       -23.6266
 146   2.0000      -0.864598       -23.5269
 147   2.0000      -0.857370       -23.3302
 148   2.0000      -0.856330       -23.3019
 149   2.0000      -0.850149       -23.1337
 150   2.0000      -0.841681       -22.9033
 151   2.0000      -0.831007       -22.6128
 152   2.0000      -0.825946       -22.4751
 153   2.0000      -0.813630       -22.1400
 154   2.0000      -0.807877       -21.9834
 155   2.0000      -0.804696       -21.8969
 156   2.0000      -0.791742       -21.5444
 157   2.0000      -0.784732       -21.3536
 158   2.0000      -0.775412       -21.1000
 159   2.0000      -0.773462       -21.0470
 160   2.0000      -0.765794       -20.8383
 161   2.0000      -0.759805       -20.6753
 162   2.0000      -0.752925       -20.4881
 163   2.0000      -0.741554       -20.1787
 164   2.0000      -0.737912       -20.0796
 165   2.0000      -0.735838       -20.0232
 166   2.0000      -0.723493       -19.6872
 167   2.0000      -0.719915       -19.5899
 168   2.0000      -0.711441       -19.3593
 169   2.0000      -0.710923       -19.3452
 170   2.0000      -0.706241       -19.2178
 171   2.0000      -0.704695       -19.1757
 172   2.0000      -0.700606       -19.0645
 173   2.0000      -0.688376       -18.7317
 174   2.0000      -0.684298       -18.6207
 175   2.0000      -0.678610       -18.4659
 176   2.0000      -0.677688       -18.4408
 177   2.0000      -0.675178       -18.3725
 178   2.0000      -0.674899       -18.3649
 179   2.0000      -0.674115       -18.3436
 180   2.0000      -0.671393       -18.2695
 181   2.0000      -0.670477       -18.2446
 182   2.0000      -0.670320       -18.2403
 183   2.0000      -0.669963       -18.2306
 184   2.0000      -0.666865       -18.1463
 185   2.0000      -0.661570       -18.0022
 186   2.0000      -0.656627       -17.8677
 187   2.0000      -0.651489       -17.7279
 188   2.0000      -0.644676       -17.5425
 189   2.0000      -0.643459       -17.5094
 190   2.0000      -0.636917       -17.3314
 191   2.0000      -0.635603       -17.2956
 192   2.0000      -0.630391       -17.1538
 193   2.0000      -0.624346       -16.9893
 194   2.0000      -0.618678       -16.8351
 195   2.0000      -0.617338       -16.7986
 196   2.0000      -0.615061       -16.7367
 197   2.0000      -0.611113       -16.6292
 198   2.0000      -0.598729       -16.2923
 199   2.0000      -0.596968       -16.2443
 200   2.0000      -0.590826       -16.0772
 201   2.0000      -0.584577       -15.9071
 202   2.0000      -0.583666       -15.8824
 203   2.0000      -0.574493       -15.6328
 204   2.0000      -0.574089       -15.6217
 205   2.0000      -0.570724       -15.5302
 206   2.0000      -0.569376       -15.4935
 207   2.0000      -0.566915       -15.4265
 208   2.0000      -0.565565       -15.3898
 209   2.0000      -0.564503       -15.3609
 210   2.0000      -0.561156       -15.2698
 211   2.0000      -0.559405       -15.2222
 212   2.0000      -0.556798       -15.1512
 213   2.0000      -0.555429       -15.1140
 214   2.0000      -0.553815       -15.0701
 215   2.0000      -0.553442       -15.0599
 216   2.0000      -0.553300       -15.0561
 217   2.0000      -0.552530       -15.0351
 218   2.0000      -0.550677       -14.9847
 219   2.0000      -0.550212       -14.9720
 220   2.0000      -0.548963       -14.9381
 221   2.0000      -0.548765       -14.9326
 222   2.0000      -0.546495       -14.8709
 223   2.0000      -0.545503       -14.8439
 224   2.0000      -0.544522       -14.8172
 225   2.0000      -0.543900       -14.8003
 226   2.0000      -0.542468       -14.7613
 227   2.0000      -0.541931       -14.7467
 228   2.0000      -0.540353       -14.7038
 229   2.0000      -0.536924       -14.6104
 230   2.0000      -0.536653       -14.6031
 231   2.0000      -0.533166       -14.5082
 232   2.0000      -0.527965       -14.3667
 233   2.0000      -0.527125       -14.3438
 234   2.0000      -0.525403       -14.2969
 235   2.0000      -0.522790       -14.2258
 236   2.0000      -0.521361       -14.1870
 237   2.0000      -0.521036       -14.1781
 238   2.0000      -0.520171       -14.1546
 239   2.0000      -0.518701       -14.1146
 240   2.0000      -0.516763       -14.0618
 241   2.0000      -0.515403       -14.0248
 242   2.0000      -0.514390       -13.9973
 243   2.0000      -0.513316       -13.9680
 244   2.0000      -0.511900       -13.9295
 245   2.0000      -0.509001       -13.8506
 246   2.0000      -0.508271       -13.8308
 247   2.0000      -0.504634       -13.7318
 248   2.0000      -0.503771       -13.7083
 249   2.0000      -0.503172       -13.6920
 250   2.0000      -0.498612       -13.5679
 251   2.0000      -0.498042       -13.5524
 252   2.0000      -0.493815       -13.4374
 253   2.0000      -0.493125       -13.4186
 254   2.0000      -0.491653       -13.3785
 255   2.0000      -0.491014       -13.3612
 256   2.0000      -0.490537       -13.3482
 257   2.0000      -0.489068       -13.3082
 258   2.0000      -0.488049       -13.2805
 259   2.0000      -0.485507       -13.2113
 260   2.0000      -0.484849       -13.1934
 261   2.0000      -0.483173       -13.1478
 262   2.0000      -0.482303       -13.1241
 263   2.0000      -0.480833       -13.0841
 264   2.0000      -0.479209       -13.0399
 265   2.0000      -0.478584       -13.0229
 266   2.0000      -0.478311       -13.0155
 267   2.0000      -0.476756       -12.9732
 268   2.0000      -0.472754       -12.8643
 269   2.0000      -0.472301       -12.8520
 270   2.0000      -0.467761       -12.7284
 271   2.0000      -0.464417       -12.6374
 272   2.0000      -0.462630       -12.5888
 273   2.0000      -0.459653       -12.5078
 274   2.0000      -0.451427       -12.2839
 275   2.0000      -0.450211       -12.2509
 276   2.0000      -0.441454       -12.0126
 277   2.0000      -0.440262       -11.9801
 278   2.0000      -0.436224       -11.8703
 279   2.0000      -0.434655       -11.8276
 280   2.0000      -0.427117       -11.6225
 281   2.0000      -0.418413       -11.3856
 282   2.0000      -0.413753       -11.2588
 283   2.0000      -0.409587       -11.1454
 284   2.0000      -0.403905       -10.9908
 285   2.0000      -0.397297       -10.8110
 286   2.0000      -0.392633       -10.6841
 287   2.0000      -0.388355       -10.5677
 288   2.0000      -0.387967       -10.5571
 289   2.0000      -0.385988       -10.5033
 290   2.0000      -0.383560       -10.4372
 291   2.0000      -0.381732       -10.3875
 292   2.0000      -0.379403       -10.3241
 293   2.0000      -0.372523       -10.1369
 294   2.0000      -0.366750        -9.9798
 295   2.0000      -0.365293        -9.9401
 296   2.0000      -0.364640        -9.9223
 297   2.0000      -0.363460        -9.8903
 298   2.0000      -0.359234        -9.7753
 299   2.0000      -0.359011        -9.7692
 300   2.0000      -0.357601        -9.7308
 301   2.0000      -0.354481        -9.6459
 302   2.0000      -0.353854        -9.6289
 303   2.0000      -0.353041        -9.6067
 304   2.0000      -0.349005        -9.4969
 305   2.0000      -0.347542        -9.4571
 306   2.0000      -0.346152        -9.4193
 307   2.0000      -0.328329        -8.9343
 308   2.0000      -0.318792        -8.6748
 309   2.0000      -0.306122        -8.3300
 310   2.0000      -0.304895        -8.2966
 311   2.0000      -0.298108        -8.1119
 312   2.0000      -0.291004        -7.9186
 313   2.0000      -0.284972        -7.7545
 314   2.0000      -0.213697        -5.8150
 315   0.0000      -0.112590        -3.0637
 316   0.0000      -0.105773        -2.8782
 317   0.0000      -0.075461        -2.0534
 318   0.0000      -0.071714        -1.9514
 319   0.0000      -0.058321        -1.5870

MULLIKEN ATOMIC CHARGES
-----------------------
   0 C :   -0.083189
   1 S :    0.171622
   2 C :   -0.155354
   3 C :   -0.026315
   4 C :   -0.113160
   5 C :    0.532172
   6 F :   -0.162533
   7 F :   -0.157377
   8 F :   -0.156650
   9 C :    0.508586
  10 F :   -0.171586
  11 F :   -0.162644
  12 F :   -0.134909
  13 C :    0.096966
  14 C :   -0.047422
  15 C :    0.007583
  16 C :    0.048270
  17 C :    0.036042
  18 O :   -0.130209
  19 S :    0.020954
  20 C :    0.027262
  21 O :   -0.099929
  22 C :    0.048517
  23 C :   -0.002204
  24 C :    0.050260
  25 C :    0.027084
  26 C :    0.024040
  27 O :   -0.111443
  28 S :    0.020954
  29 C :    0.034124
  30 O :   -0.114054
  31 C :   -0.006548
  32 C :   -0.015635
  33 C :    0.014299
  34 C :   -0.013393
  35 C :   -0.046509
  36 C :    0.159974
  37 N :   -0.221483
  38 C :    0.119082
  39 N :   -0.212381
  40 C :    0.085558
  41 C :   -0.057528
  42 C :    0.135942
  43 C :   -0.071768
  44 C :    0.013106
  45 C :    0.011917
  46 C :    0.053265
  47 C :   -0.017182
  48 C :    0.040942
  49 C :   -0.029201
  50 C :   -0.005128
  51 C :    0.009105
  52 C :    0.048640
  53 C :    0.023281
  54 O :   -0.114902
  55 S :    0.025416
  56 C :    0.040777
  57 O :   -0.112775
  58 C :    0.074984
  59 C :   -0.048320
  60 C :    0.063512
  61 C :    0.062593
  62 C :    0.029466
  63 O :   -0.119894
  64 S :    0.030345
  65 C :    0.044635
  66 O :   -0.109965
  67 C :   -0.211447
  68 S :    0.205251
  69 C :   -0.119163
  70 C :   -0.074643
  71 C :   -0.005563
  72 C :    0.512749
  73 F :   -0.171924
  74 F :   -0.147740
  75 F :   -0.150121
  76 C :    0.505407
  77 F :   -0.157009
  78 F :   -0.149650
  79 F :   -0.159463
  80 C :    0.002340
  81 C :    0.008464
  82 H :    0.047616
  83 H :    0.017920
  84 H :    0.032506
  85 H :   -0.052154
  86 H :   -0.014118
  87 H :   -0.017662
  88 H :   -0.008999
  89 H :    0.090652
  90 H :    0.093148
  91 H :   -0.027303
  92 H :   -0.011391
  93 H :    0.109130
  94 H :    0.087188
  95 H :   -0.019361
  96 H :    0.058436
  97 H :   -0.003654
  98 H :   -0.035620
  99 H :   -0.039023
 100 H :   -0.037617
 101 H :    0.003933
 102 H :    0.040499
 103 H :    0.011467
 104 H :    0.041213
 105 H :    0.036026
Sum of atomic charges:   -0.0000000

LOEWDIN ATOMIC CHARGES
----------------------
   0 C :   -0.156038
   1 S :    0.500619
   2 C :   -0.143507
   3 C :   -0.104738
   4 C :   -0.111489
   5 C :    0.158780
   6 F :   -0.060409
   7 F :   -0.056491
   8 F :   -0.054882
   9 C :    0.165843
  10 F :   -0.068728
  11 F :   -0.061710
  12 F :   -0.034771
  13 C :   -0.004814
  14 C :   -0.021423
  15 C :    0.027314
  16 C :   -0.050352
  17 C :   -0.045116
  18 O :   -0.111639
  19 S :    0.304728
  20 C :   -0.044646
  21 O :   -0.090018
  22 C :   -0.050642
  23 C :    0.046383
  24 C :   -0.050440
  25 C :   -0.053432
  26 C :   -0.045185
  27 O :   -0.103410
  28 S :    0.306251
  29 C :   -0.043367
  30 O :   -0.104824
  31 C :   -0.043627
  32 C :    0.004165
  33 C :   -0.031658
  34 C :   -0.014018
  35 C :   -0.041268
  36 C :    0.027615
  37 N :   -0.112229
  38 C :    0.023415
  39 N :   -0.115250
  40 C :   -0.015901
  41 C :    0.100038
  42 C :   -0.032804
  43 C :   -0.042335
  44 C :   -0.013188
  45 C :   -0.040628
  46 C :   -0.026709
  47 C :   -0.003671
  48 C :   -0.027817
  49 C :    0.031627
  50 C :   -0.036288
  51 C :    0.048040
  52 C :   -0.054310
  53 C :   -0.038737
  54 O :   -0.108154
  55 S :    0.312991
  56 C :   -0.049221
  57 O :   -0.104581
  58 C :   -0.039493
  59 C :   -0.002311
  60 C :   -0.041685
  61 C :   -0.051790
  62 C :   -0.040638
  63 O :   -0.104634
  64 S :    0.315534
  65 C :   -0.048225
  66 O :   -0.101846
  67 C :   -0.157171
  68 S :    0.501479
  69 C :   -0.134677
  70 C :   -0.107769
  71 C :   -0.096981
  72 C :    0.161522
  73 F :   -0.067411
  74 F :   -0.045061
  75 F :   -0.055292
  76 C :    0.164158
  77 F :   -0.053566
  78 F :   -0.045263
  79 F :   -0.062057
  80 C :   -0.057004
  81 C :   -0.000800
  82 H :    0.035448
  83 H :    0.033579
  84 H :    0.029603
  85 H :    0.018301
  86 H :    0.026970
  87 H :   -0.003636
  88 H :    0.018407
  89 H :    0.050749
  90 H :    0.055379
  91 H :   -0.009859
  92 H :    0.016711
  93 H :    0.050695
  94 H :    0.052692
  95 H :    0.028256
  96 H :    0.073471
  97 H :    0.026925
  98 H :    0.029541
  99 H :    0.027368
 100 H :    0.020958
 101 H :    0.024187
 102 H :    0.041208
 103 H :    0.033210
 104 H :    0.025390
 105 H :    0.032088

  Mayer bond orders larger than 0.100000
B(  0-C ,  1-S ) :   1.1890 B(  0-C ,  4-C ) :   1.5859 B(  0-C , 82-H ) :   0.9687
B(  1-S ,  2-C ) :   1.1649 B(  2-C ,  3-C ) :   1.5215 B(  2-C , 13-C ) :   1.1590
B(  3-C ,  4-C ) :   1.2945 B(  3-C ,  9-C ) :   0.9400 B(  4-C ,  5-C ) :   0.9474
B(  5-C ,  6-F ) :   1.1588 B(  5-C ,  7-F ) :   1.1731 B(  5-C ,  8-F ) :   1.1711
B(  9-C , 10-F ) :   1.1437 B(  9-C , 11-F ) :   1.1552 B(  9-C , 12-F ) :   1.1735
B( 13-C , 14-C ) :   1.7575 B( 13-C , 83-H ) :   0.9481 B( 14-C , 15-C ) :   1.0635
B( 14-C , 84-H ) :   0.9329 B( 15-C , 16-C ) :   1.3858 B( 15-C , 25-C ) :   1.3765
B( 16-C , 17-C ) :   0.8472 B( 16-C , 22-C ) :   1.3036 B( 17-C , 18-O ) :   2.1570
B( 17-C , 19-S ) :   1.0410 B( 18-O , 19-S ) :   0.1087 B( 19-S , 20-C ) :   1.0146
B( 19-S , 21-O ) :   0.1080 B( 20-C , 21-O ) :   2.1997 B( 20-C , 22-C ) :   0.8410
B( 22-C , 23-C ) :   1.3989 B( 23-C , 24-C ) :   1.4182 B( 23-C , 31-C ) :   0.9855
B( 24-C , 25-C ) :   1.3027 B( 24-C , 29-C ) :   0.8373 B( 25-C , 26-C ) :   0.8408
B( 26-C , 27-O ) :   2.1984 B( 26-C , 28-S ) :   1.0232 B( 27-O , 28-S ) :   0.1079
B( 28-S , 29-C ) :   1.0308 B( 28-S , 30-O ) :   0.1086 B( 29-C , 30-O ) :   2.1587
B( 31-C , 32-C ) :   1.5502 B( 31-C , 48-C ) :   1.1500 B( 32-C , 33-C ) :   1.1384
B( 32-C , 85-H ) :   0.9885 B( 33-C , 34-C ) :   1.4702 B( 33-C , 46-C ) :   1.1368
B( 34-C , 35-C ) :   1.0234 B( 34-C , 40-C ) :   1.1313 B( 35-C , 36-C ) :   1.0269
B( 35-C , 38-C ) :   1.0290 B( 35-C , 86-H ) :   0.8890 B( 36-C , 37-N ) :   1.1051
B( 36-C , 87-H ) :   0.9445 B( 36-C , 88-H ) :   0.9298 B( 37-N , 89-H ) :   0.9695
B( 37-N , 90-H ) :   0.9686 B( 38-C , 39-N ) :   1.1312 B( 38-C , 91-H ) :   0.9292
B( 38-C , 92-H ) :   0.9302 B( 39-N , 93-H ) :   0.9678 B( 39-N , 94-H ) :   0.9676
B( 40-C , 41-C ) :   1.6538 B( 40-C , 45-C ) :   1.0629 B( 41-C , 42-C ) :   0.9790
B( 41-C , 95-H ) :   0.9571 B( 42-C , 43-C ) :   0.9947 B( 42-C , 49-C ) :   0.9998
B( 42-C , 96-H ) :   0.8337 B( 43-C , 44-C ) :   1.6975 B( 43-C , 97-H ) :   0.9770
B( 44-C , 45-C ) :   1.1314 B( 44-C , 98-H ) :   0.9918 B( 45-C , 46-C ) :   1.4035
B( 46-C , 47-C ) :   1.1638 B( 47-C , 48-C ) :   1.5817 B( 47-C , 99-H ) :   0.9920
B( 48-C ,100-H ) :   0.9826 B( 49-C , 50-C ) :   1.8904 B( 49-C ,101-H ) :   0.9657
B( 50-C , 51-C ) :   1.0580 B( 50-C ,102-H ) :   0.9215 B( 51-C , 52-C ) :   1.3695
B( 51-C , 61-C ) :   1.3807 B( 52-C , 53-C ) :   0.8326 B( 52-C , 58-C ) :   1.3143
B( 53-C , 54-O ) :   2.1782 B( 53-C , 55-S ) :   1.0303 B( 54-O , 55-S ) :   0.1068
B( 55-S , 56-C ) :   1.0304 B( 55-S , 57-O ) :   0.1104 B( 56-C , 57-O ) :   2.1906
B( 56-C , 58-C ) :   0.8339 B( 58-C , 59-C ) :   1.4293 B( 59-C , 60-C ) :   1.4375
B( 59-C , 67-C ) :   0.9718 B( 60-C , 61-C ) :   1.3080 B( 60-C , 65-C ) :   0.8363
B( 61-C , 62-C ) :   0.8411 B( 62-C , 63-O ) :   2.1699 B( 62-C , 64-S ) :   1.0345
B( 63-O , 64-S ) :   0.1073 B( 64-S , 65-C ) :   1.0280 B( 64-S , 66-O ) :   0.1115
B( 65-C , 66-O ) :   2.1933 B( 67-C , 68-S ) :   1.1633 B( 67-C , 69-C ) :   0.1010
B( 67-C , 71-C ) :   1.6425 B( 68-S , 69-C ) :   1.1558 B( 69-C , 70-C ) :   1.5977
B( 69-C , 80-C ) :   1.0503 B( 70-C , 71-C ) :   1.2635 B( 70-C , 76-C ) :   0.9356
B( 71-C , 72-C ) :   0.9415 B( 72-C , 73-F ) :   1.1157 B( 72-C , 74-F ) :   1.1665
B( 72-C , 75-F ) :   1.1946 B( 76-C , 77-F ) :   1.1615 B( 76-C , 78-F ) :   1.1536
B( 76-C , 79-F ) :   1.1518 B( 80-C , 81-C ) :   1.9665 B( 80-C ,103-H ) :   0.9513
B( 81-C ,104-H ) :   0.9558 B( 81-C ,105-H ) :   0.9494

-----------------------------------------------------------------------------
         ABSORPTION SPECTRUM VIA TRANSITION ELECTRIC DIPOLE MOMENTS
-----------------------------------------------------------------------------
State   Energy  Wavelength   fosc         T2         TX        TY        TZ
        (cm-1)    (nm)                  (au**2)     (au)      (au)      (au)
-----------------------------------------------------------------------------
   0    7024.7   1423.6   0.001244464   0.05832   0.13061  -0.20043   0.03302
   1    8939.7   1118.6   0.000065813   0.00242   0.01129  -0.03565   0.03202
   2   13389.6    746.8   0.030310495   0.74525  -0.72530  -0.07536  -0.46207
   3   16462.8    607.4   0.072196040   1.44372  -0.54233  -0.79660   0.71765
   4   17496.1    571.6   0.069827867   1.31390   0.69212   0.79035  -0.45850
   5   21106.4    473.8   0.002874677   0.04484   0.10948   0.14958  -0.10237
   6   21210.2    471.5   0.001730465   0.02686   0.13280   0.08289   0.04849
   7   21692.0    461.0   0.010361664   0.15726   0.30329   0.16647  -0.19380
   8   22086.0    452.8   0.036124007   0.53846   0.41642  -0.58452   0.15295
   9   22960.8    435.5   0.002167718   0.03108   0.10921   0.00298  -0.13836
  10   24307.9    411.4   0.017899601   0.24242   0.43409   0.11380   0.20257
  11   24526.9    407.7   0.001287809   0.01729  -0.08578  -0.09726   0.02165
  12   25359.2    394.3   0.000657623   0.00854   0.08504   0.01336   0.03358
  13   26621.9    375.6   0.000198291   0.00245  -0.02899  -0.03715   0.01523
  14   26867.3    372.2   0.018294289   0.22416   0.22893   0.08504  -0.40562
  15   27308.4    366.2   0.040375189   0.48674   0.03886   0.36896  -0.59084
  16   28210.9    354.5   0.003469183   0.04048   0.01125  -0.13915   0.14489
  17   28385.8    352.3   0.248836087   2.88594   0.26065   0.97801  -1.36437
  18   28956.2    345.3   0.135466662   1.54016  -0.10015   0.69702  -1.02190
  19   29790.9    335.7   0.022431869   0.24789   0.47597   0.12693  -0.07230
  20   29818.8    335.4   0.314363669   3.47071   0.48978   0.98142  -1.50587
  21   29846.7    335.0   0.081646474   0.90057   0.36155   0.40825  -0.77665
  22   30088.5    332.4   0.006070018   0.06641  -0.04568  -0.13955  -0.21178
  23   30459.4    328.3   0.000203896   0.00220   0.02674   0.02998   0.02429
  24   30868.5    324.0   0.027096886   0.28899   0.00525  -0.31693   0.43419
  25   30936.7    323.2   0.020360997   0.21667  -0.15472  -0.43704   0.04156
  26   31167.3    320.8   0.100894578   1.06572  -0.55150  -0.73804   0.46569
  27   31283.7    319.7   0.012288803   0.12932  -0.14671  -0.29588   0.14230
  28   31758.4    314.9   0.000117555   0.00122   0.02532  -0.02398  -0.00160
  29   31804.1    314.4   0.030592168   0.31667  -0.44543   0.01225   0.34367
  30   31907.7    313.4   0.018286381   0.18867  -0.08153   0.35096  -0.24259
  31   31984.2    312.7   0.021882288   0.22523  -0.40418  -0.10138  -0.22714
  32   32200.8    310.6   0.004609468   0.04713   0.17756   0.12333  -0.01972
  33   32812.6    304.8   0.025185085   0.25268  -0.12838  -0.37278   0.31183
  34   32845.1    304.5   0.006550385   0.06566  -0.23529  -0.09161  -0.04359
  35   33027.5    302.8   0.014817840   0.14770   0.18011   0.33950   0.00169
  36   33250.2    300.7   0.084549784   0.83713  -0.05129   0.84082  -0.35710
  37   33410.7    299.3   0.034686808   0.34179   0.35671   0.46270  -0.02121
  38   33599.2    297.6   0.002607291   0.02555  -0.09025   0.02547  -0.12944
  39   33860.0    295.3   0.003599400   0.03500  -0.00844   0.17093  -0.07556
  40   34116.3    293.1   0.013891471   0.13405   0.17775   0.13965  -0.28802
  41   34293.3    291.6   0.000131233   0.00126   0.02592   0.02401   0.00345
  42   34587.3    289.1   0.092505787   0.88050   0.11195  -0.81730   0.44721
  43   35084.2    285.0   0.034657966   0.32521  -0.14923  -0.49650   0.23755
  44   35221.1    283.9   0.001513111   0.01414  -0.09268  -0.03133   0.06761
  45   35799.7    279.3   0.041284906   0.37965  -0.49188   0.31231   0.20044
  46   36417.2    274.6   0.052249936   0.47234   0.32100   0.49530  -0.35210
  47   36797.5    271.8   0.080216834   0.71767   0.14270   0.54979  -0.62852
  48   37002.0    270.3   0.063601299   0.56587  -0.00497   0.50536  -0.55719
  49   37145.6    269.2   0.000013673   0.00012   0.00175   0.00511  -0.00959
  50   37672.6    265.4   0.003300241   0.02884  -0.05704  -0.05760   0.14923
  51   37976.0    263.3   0.018280425   0.15847  -0.05242  -0.28835   0.26940
  52   38229.1    261.6   0.019264254   0.16590   0.07941   0.32713  -0.22929
  53   38287.8    261.2   0.002928619   0.02518   0.11241   0.01810   0.11054
  54   38397.5    260.4   0.075706237   0.64909   0.15607   0.53895  -0.57816
  55   38440.4    260.1   0.002051001   0.01757   0.01868   0.07694  -0.10629
  56   38573.5    259.2   0.000245727   0.00210  -0.01951  -0.02607   0.03220
  57   38951.2    256.7   0.041140661   0.34772   0.06331   0.50181  -0.30314
  58   39145.1    255.5   0.044692948   0.37587   0.18451  -0.48591   0.32514
  59   39215.0    255.0   0.125492456   1.05351  -0.26243  -0.66632   0.73529
  60   39716.2    251.8   0.404402451   3.35214   0.50123   1.20026  -1.28852
  61   40022.7    249.9   0.865780951   7.12159   0.81029   1.72611  -1.86697
  62   40073.9    249.5   0.000699911   0.00575   0.05978   0.02753   0.03766
  63   40266.0    248.3   0.002343431   0.01916  -0.00962   0.06556  -0.12153

FINAL SINGLE POINT ENERGY     -6365.411893542034

DIPOLE MOMENT
-------------
                                X             Y             Z
Electronic contribution:      3.31121      12.11321      36.09932
Nuclear contribution   :     -4.18875     -12.42914     -37.45698
                        -----------------------------------------
Total Dipole Moment    :     -0.87755      -0.31593      -1.35766
                        -----------------------------------------
Magnitude (a.u.)       :      1.64716
Magnitude (Debye)      :      4.18674

Rotational constants in cm-1:     0.002105     0.000153     0.000151
Rotational constants in MHz :    63.091688     4.593744     4.536470

                             ****ORCA TERMINATED NORMALLY****
TOTAL RUN TIME: 0 days 0 hours 11 minutes 33 seconds 54 msec
