                         Program Version 4.2.0 -  RELEASE  -
|  1> # ORCA input file
|  2> # SCF done       -204.412109184195          0.000915778042
|  3> ! CAM-B3LYP def2-SVP def2/J RIJCOSX Grid4 TightSCF
|  4> %maxcore 5000
|  5> %tddft
|  6>     Mode sTDDFT
|  7>     Ethresh 5.0
|  8>     maxcore 5000
|  9> end
| 10>
| 11> %pal
| 12>   nprocs 6
| 13>   end
| 14> * xyz 0 1
| 15>    C       21.61759        -1.19346        -0.01584
| 16>    C       22.94576        -0.93586         0.12110
| 17>    S       23.50623        -1.36486         1.69712
| 18>    C       21.91725        -1.90243         2.18806
| 19>   Cl       21.63060        -2.51748         3.73956
| 20>    C       21.02763        -1.74648         1.16681
| 21>    C       19.60517        -1.98985         0.93387
| 22>    O       18.79290        -2.45032         1.71500
| 23>    C       19.35414        -1.55752        -0.45489
| 24>    C       20.59428        -1.06952        -1.03758
| 25>    C       20.81648        -0.57436        -2.29571
| 26>    C       22.09789        -0.13459        -2.69070
| 27>    N       23.13268         0.22930        -3.02602
| 28>    C       19.85765        -0.43931        -3.31903
| 29>    N       19.12657        -0.30435        -4.19435
| 30>    C       18.14222        -1.60285        -1.09397
| 31>    C       16.88404        -2.02777        -0.63691
| 32>    C       15.74907        -1.97117        -1.45875
| 33>    C       14.60945        -2.41042        -0.81661
| 34>    C       14.86867        -2.81522         0.51844
| 35>    S       16.50454        -2.65429         0.96632
| 36>    C       13.64879        -3.22261         1.10171
| 37>    C       12.61850        -3.07678         0.14454
| 38>    C       13.18982        -2.56918        -1.09161
| 39>    C       12.52905        -2.29623        -2.25263
| 40>    C       13.19029        -1.80200        -3.39741
| 41>    N       13.72172        -1.40041        -4.33015
| 42>    C       11.13696        -2.48837        -2.38500
| 43>    N       10.00621        -2.64152        -2.49660
| 44>    C       11.37185        -3.42772         0.63751
| 45>    C       11.43632        -3.84067         1.96529
| 46>    S       13.07288        -3.80510         2.60292
| 47>    C       10.34583        -4.22149         2.78685
| 48>    C       10.54543        -4.61161         4.13143
| 49>    C        9.45225        -4.93572         5.00949
| 50>    N        9.70407        -5.29250         6.27317
| 51>    C       10.94035        -5.34618         6.70660
| 52>    C       12.02814        -5.01804         5.83424
| 53>    N       11.79944        -4.66547         4.59230
| 54>    C       13.36391        -5.07026         6.30480
| 55>    N       14.43227        -5.11930         6.71375
| 56>    C       11.18650        -5.73250         8.04763
| 57>    N       11.41398        -6.03786         9.12744
| 58>    C        8.10242        -4.87763         4.59269
| 59>    C        7.90036        -4.52942         3.23601
| 60>    C        8.99909        -4.21175         2.35102
| 61>    N        8.56443        -3.90909         1.12712
| 62>    S        6.96691        -4.01230         1.08209
| 63>    N        6.72784        -4.43966         2.60711
| 64>    C        7.04589        -5.12682         5.50368
| 65>    C        5.68167        -5.05050         5.23768
| 66>    C        4.91983        -5.30360         6.36703
| 67>    C        5.70628        -5.58658         7.50715
| 68>    S        7.38377        -5.53535         7.17797
| 69>    C        4.83898        -5.81009         8.59959
| 70>    C        3.50519        -5.65764         8.15657
| 71>    C        3.51489        -5.35174         6.73718
| 72>    C        2.42982        -5.17671         5.92973
| 73>    C        2.55252        -4.88848         4.55400
| 74>    N        2.64948        -4.64370         3.43830
| 75>    C        1.11674        -5.27192         6.43788
| 76>    N        0.05749        -5.34760         6.87045
| 77>    C        2.57335        -5.86216         9.16206
| 78>    C        3.17165        -6.18281        10.37514
| 79>    S        4.92856        -6.19140        10.25528
| 80>    C        2.56914        -6.41881        11.62816
| 81>    C        1.27415        -6.72557        11.92404
| 82>    C        0.80730        -6.48776        13.32920
| 83>    O        1.50799        -6.24639        14.28210
| 84>    C       -0.65418        -6.56520        13.24648
| 85>    C       -1.71801        -6.36882        14.07567
| 86>    S       -3.21804        -6.64753        13.22239
| 87>    C       -2.38857        -7.03877        11.75965
| 88>    C       -1.04201        -6.95058        11.92097
| 89>    C        0.15189        -7.17928        11.12600
| 90>    C        0.16721        -7.90615         9.96322
| 91>    C       -1.02627        -8.36507         9.36624
| 92>    N       -1.98638        -8.74745         8.86908
| 93>    C        1.33001        -8.34040         9.30290
| 94>    N        2.25767        -8.72959         8.74904
| 95>   Cl       -1.70174        -5.91929        15.70838
| 96>    H       23.63762        -0.52594        -0.58761
| 97>    H       18.12139        -1.25217        -2.11930
| 98>    H       15.79390        -1.61386        -2.47257
| 99>    H       10.44372        -3.39324         0.09731
|100>    H        5.30495        -4.81314         4.25970
|101>    H        1.51240        -5.73596         9.04719
|102>    H        3.20414        -6.27046        12.49702
|103>    H       -2.95401        -7.29300        10.88520
|104> *
|105>
|106>                          ****END OF INPUT****

CARTESIAN COORDINATES (ANGSTROEM)
---------------------------------
  C     21.617590   -1.193460   -0.015840
  C     22.945760   -0.935860    0.121100
  S     23.506230   -1.364860    1.697120
  C     21.917250   -1.902430    2.188060
  Cl    21.630600   -2.517480    3.739560
  C     21.027630   -1.746480    1.166810
  C     19.605170   -1.989850    0.933870
  O     18.792900   -2.450320    1.715000
  C     19.354140   -1.557520   -0.454890
  C     20.594280   -1.069520   -1.037580
  C     20.816480   -0.574360   -2.295710
  C     22.097890   -0.134590   -2.690700
  N     23.132680    0.229300   -3.026020
  C     19.857650   -0.439310   -3.319030
  N     19.126570   -0.304350   -4.194350
  C     18.142220   -1.602850   -1.093970
  C     16.884040   -2.027770   -0.636910
  C     15.749070   -1.971170   -1.458750
  C     14.609450   -2.410420   -0.816610
  C     14.868670   -2.815220    0.518440
  S     16.504540   -2.654290    0.966320
  C     13.648790   -3.222610    1.101710
  C     12.618500   -3.076780    0.144540
  C     13.189820   -2.569180   -1.091610
  C     12.529050   -2.296230   -2.252630
  C     13.190290   -1.802000   -3.397410
  N     13.721720   -1.400410   -4.330150
  C     11.136960   -2.488370   -2.385000
  N     10.006210   -2.641520   -2.496600
  C     11.371850   -3.427720    0.637510
  C     11.436320   -3.840670    1.965290
  S     13.072880   -3.805100    2.602920
  C     10.345830   -4.221490    2.786850
  C     10.545430   -4.611610    4.131430
  C      9.452250   -4.935720    5.009490
  N      9.704070   -5.292500    6.273170
  C     10.940350   -5.346180    6.706600
  C     12.028140   -5.018040    5.834240
  N     11.799440   -4.665470    4.592300
  C     13.363910   -5.070260    6.304800
  N     14.432270   -5.119300    6.713750
  C     11.186500   -5.732500    8.047630
  N     11.413980   -6.037860    9.127440
  C      8.102420   -4.877630    4.592690
  C      7.900360   -4.529420    3.236010
  C      8.999090   -4.211750    2.351020
  N      8.564430   -3.909090    1.127120
  S      6.966910   -4.012300    1.082090
  N      6.727840   -4.439660    2.607110
  C      7.045890   -5.126820    5.503680
  C      5.681670   -5.050500    5.237680
  C      4.919830   -5.303600    6.367030
  C      5.706280   -5.586580    7.507150
  S      7.383770   -5.535350    7.177970
  C      4.838980   -5.810090    8.599590
  C      3.505190   -5.657640    8.156570
  C      3.514890   -5.351740    6.737180
  C      2.429820   -5.176710    5.929730
  C      2.552520   -4.888480    4.554000
  N      2.649480   -4.643700    3.438300
  C      1.116740   -5.271920    6.437880
  N      0.057490   -5.347600    6.870450
  C      2.573350   -5.862160    9.162060
  C      3.171650   -6.182810   10.375140
  S      4.928560   -6.191400   10.255280
  C      2.569140   -6.418810   11.628160
  C      1.274150   -6.725570   11.924040
  C      0.807300   -6.487760   13.329200
  O      1.507990   -6.246390   14.282100
  C     -0.654180   -6.565200   13.246480
  C     -1.718010   -6.368820   14.075670
  S     -3.218040   -6.647530   13.222390
  C     -2.388570   -7.038770   11.759650
  C     -1.042010   -6.950580   11.920970
  C      0.151890   -7.179280   11.126000
  C      0.167210   -7.906150    9.963220
  C     -1.026270   -8.365070    9.366240
  N     -1.986380   -8.747450    8.869080
  C      1.330010   -8.340400    9.302900
  N      2.257670   -8.729590    8.749040
  Cl    -1.701740   -5.919290   15.708380
  H     23.637620   -0.525940   -0.587610
  H     18.121390   -1.252170   -2.119300
  H     15.793900   -1.613860   -2.472570
  H     10.443720   -3.393240    0.097310
  H      5.304950   -4.813140    4.259700
  H      1.512400   -5.735960    9.047190
  H      3.204140   -6.270460   12.497020
  H     -2.954010   -7.293000   10.885200

 Total Charge           Charge          ....    0
 Multiplicity           Mult            ....    1
 Number of Electrons    NEL             ....  604
 Basis Dimension        Dim             .... 1210

ORBITAL ENERGIES
----------------

  NO   OCC          E(Eh)            E(eV)
   0   2.0000    -101.621485     -2765.2612
   1   2.0000    -101.618900     -2765.1908
   2   2.0000     -89.066001     -2423.6091
   3   2.0000     -89.004209     -2421.9277
   4   2.0000     -88.999532     -2421.8004
   5   2.0000     -88.997944     -2421.7572
   6   2.0000     -88.997504     -2421.7452
   7   2.0000     -88.996731     -2421.7242
   8   2.0000     -88.994230     -2421.6561
   9   2.0000     -19.232915      -523.3542
  10   2.0000     -19.222245      -523.0639
  11   2.0000     -14.490896      -394.3173
  12   2.0000     -14.490350      -394.3025
  13   2.0000     -14.473821      -393.8527
  14   2.0000     -14.473522      -393.8446
  15   2.0000     -14.450639      -393.2219
  16   2.0000     -14.450334      -393.2136
  17   2.0000     -14.439531      -392.9196
  18   2.0000     -14.438458      -392.8904
  19   2.0000     -14.436832      -392.8462
  20   2.0000     -14.435538      -392.8109
  21   2.0000     -14.426088      -392.5538
  22   2.0000     -14.424256      -392.5040
  23   2.0000     -14.420953      -392.4141
  24   2.0000     -14.420580      -392.4039
  25   2.0000     -10.408338      -283.2253
  26   2.0000     -10.408068      -283.2179
  27   2.0000     -10.386383      -282.6279
  28   2.0000     -10.380590      -282.4702
  29   2.0000     -10.378882      -282.4237
  30   2.0000     -10.377784      -282.3939
  31   2.0000     -10.374420      -282.3023
  32   2.0000     -10.371960      -282.2354
  33   2.0000     -10.371910      -282.2340
  34   2.0000     -10.371640      -282.2267
  35   2.0000     -10.366584      -282.0891
  36   2.0000     -10.366327      -282.0821
  37   2.0000     -10.361576      -281.9528
  38   2.0000     -10.360064      -281.9117
  39   2.0000     -10.353587      -281.7354
  40   2.0000     -10.352358      -281.7020
  41   2.0000     -10.351612      -281.6817
  42   2.0000     -10.350879      -281.6617
  43   2.0000     -10.349483      -281.6237
  44   2.0000     -10.344719      -281.4941
  45   2.0000     -10.343610      -281.4639
  46   2.0000     -10.343585      -281.4633
  47   2.0000     -10.343178      -281.4522
  48   2.0000     -10.341167      -281.3975
  49   2.0000     -10.341003      -281.3930
  50   2.0000     -10.340906      -281.3903
  51   2.0000     -10.340028      -281.3665
  52   2.0000     -10.339663      -281.3565
  53   2.0000     -10.338461      -281.3238
  54   2.0000     -10.338244      -281.3179
  55   2.0000     -10.337172      -281.2888
  56   2.0000     -10.337065      -281.2858
  57   2.0000     -10.336430      -281.2686
  58   2.0000     -10.335724      -281.2494
  59   2.0000     -10.335213      -281.2354
  60   2.0000     -10.333227      -281.1814
  61   2.0000     -10.332749      -281.1684
  62   2.0000     -10.330313      -281.1021
  63   2.0000     -10.327044      -281.0132
  64   2.0000     -10.326317      -280.9934
  65   2.0000     -10.323382      -280.9135
  66   2.0000     -10.322434      -280.8877
  67   2.0000     -10.321736      -280.8687
  68   2.0000     -10.320901      -280.8460
  69   2.0000     -10.317795      -280.7615
  70   2.0000     -10.315957      -280.7115
  71   2.0000     -10.315461      -280.6980
  72   2.0000     -10.314920      -280.6832
  73   2.0000     -10.314732      -280.6781
  74   2.0000     -10.314666      -280.6763
  75   2.0000     -10.312589      -280.6198
  76   2.0000     -10.311286      -280.5844
  77   2.0000     -10.311223      -280.5826
  78   2.0000     -10.310880      -280.5733
  79   2.0000     -10.304223      -280.3922
  80   2.0000     -10.302106      -280.3345
  81   2.0000      -9.576242      -260.5828
  82   2.0000      -9.573680      -260.5131
  83   2.0000      -8.156912      -221.9609
  84   2.0000      -8.098889      -220.3820
  85   2.0000      -8.092333      -220.2036
  86   2.0000      -8.092120      -220.1978
  87   2.0000      -8.090583      -220.1559
  88   2.0000      -8.089994      -220.1399
  89   2.0000      -8.089744      -220.1331
  90   2.0000      -7.346875      -199.9186
  91   2.0000      -7.344337      -199.8496
  92   2.0000      -7.336288      -199.6305
  93   2.0000      -7.335743      -199.6157
  94   2.0000      -7.333708      -199.5603
  95   2.0000      -7.333162      -199.5455
  96   2.0000      -6.127981      -166.7508
  97   2.0000      -6.119983      -166.5332
  98   2.0000      -6.119920      -166.5315
  99   2.0000      -6.068000      -165.1187
 100   2.0000      -6.063870      -165.0063
 101   2.0000      -6.061761      -164.9489
 102   2.0000      -6.061654      -164.9460
 103   2.0000      -6.061426      -164.9398
 104   2.0000      -6.060069      -164.9029
 105   2.0000      -6.059398      -164.8846
 106   2.0000      -6.059157      -164.8780
 107   2.0000      -6.057104      -164.8222
 108   2.0000      -6.056871      -164.8158
 109   2.0000      -6.055337      -164.7741
 110   2.0000      -6.054771      -164.7587
 111   2.0000      -6.054589      -164.7538
 112   2.0000      -6.054562      -164.7530
 113   2.0000      -6.054361      -164.7476
 114   2.0000      -6.053070      -164.7124
 115   2.0000      -6.052352      -164.6929
 116   2.0000      -6.052204      -164.6888
 117   2.0000      -1.163861       -31.6703
 118   2.0000      -1.150173       -31.2978
 119   2.0000      -1.149729       -31.2857
 120   2.0000      -1.139658       -31.0117
 121   2.0000      -1.078512       -29.3478
 122   2.0000      -1.057085       -28.7648
 123   2.0000      -1.053394       -28.6643
 124   2.0000      -1.042310       -28.3627
 125   2.0000      -1.040142       -28.3037
 126   2.0000      -1.036178       -28.1958
 127   2.0000      -1.030986       -28.0546
 128   2.0000      -1.028447       -27.9855
 129   2.0000      -1.025860       -27.9151
 130   2.0000      -1.021806       -27.8048
 131   2.0000      -1.020642       -27.7731
 132   2.0000      -1.019320       -27.7371
 133   2.0000      -1.016513       -27.6607
 134   2.0000      -1.014939       -27.6179
 135   2.0000      -1.013298       -27.5732
 136   2.0000      -1.005595       -27.3636
 137   2.0000      -1.001468       -27.2513
 138   2.0000      -1.001348       -27.2481
 139   2.0000      -0.996118       -27.1058
 140   2.0000      -0.991799       -26.9882
 141   2.0000      -0.989914       -26.9369
 142   2.0000      -0.970946       -26.4208
 143   2.0000      -0.966166       -26.2907
 144   2.0000      -0.957659       -26.0592
 145   2.0000      -0.956081       -26.0163
 146   2.0000      -0.935016       -25.4431
 147   2.0000      -0.933222       -25.3943
 148   2.0000      -0.926663       -25.2158
 149   2.0000      -0.915221       -24.9044
 150   2.0000      -0.910551       -24.7774
 151   2.0000      -0.905925       -24.6515
 152   2.0000      -0.891619       -24.2622
 153   2.0000      -0.888633       -24.1809
 154   2.0000      -0.877766       -23.8852
 155   2.0000      -0.872360       -23.7381
 156   2.0000      -0.868271       -23.6269
 157   2.0000      -0.865319       -23.5465
 158   2.0000      -0.858453       -23.3597
 159   2.0000      -0.836715       -22.7682
 160   2.0000      -0.835021       -22.7221
 161   2.0000      -0.832474       -22.6528
 162   2.0000      -0.830910       -22.6102
 163   2.0000      -0.813750       -22.1433
 164   2.0000      -0.804277       -21.8855
 165   2.0000      -0.788552       -21.4576
 166   2.0000      -0.785904       -21.3855
 167   2.0000      -0.772895       -21.0316
 168   2.0000      -0.763866       -20.7858
 169   2.0000      -0.760162       -20.6851
 170   2.0000      -0.756768       -20.5927
 171   2.0000      -0.744803       -20.2671
 172   2.0000      -0.730436       -19.8762
 173   2.0000      -0.723114       -19.6769
 174   2.0000      -0.720186       -19.5973
 175   2.0000      -0.712240       -19.3810
 176   2.0000      -0.709370       -19.3029
 177   2.0000      -0.703152       -19.1337
 178   2.0000      -0.695276       -18.9194
 179   2.0000      -0.690941       -18.8015
 180   2.0000      -0.690838       -18.7986
 181   2.0000      -0.682576       -18.5738
 182   2.0000      -0.681303       -18.5392
 183   2.0000      -0.678011       -18.4496
 184   2.0000      -0.677920       -18.4471
 185   2.0000      -0.669926       -18.2296
 186   2.0000      -0.651163       -17.7190
 187   2.0000      -0.649039       -17.6612
 188   2.0000      -0.646876       -17.6024
 189   2.0000      -0.644011       -17.5244
 190   2.0000      -0.637534       -17.3482
 191   2.0000      -0.631953       -17.1963
 192   2.0000      -0.626761       -17.0550
 193   2.0000      -0.625402       -17.0180
 194   2.0000      -0.621683       -16.9169
 195   2.0000      -0.618940       -16.8422
 196   2.0000      -0.614089       -16.7102
 197   2.0000      -0.612550       -16.6683
 198   2.0000      -0.606156       -16.4943
 199   2.0000      -0.605284       -16.4706
 200   2.0000      -0.590018       -16.0552
 201   2.0000      -0.580927       -15.8078
 202   2.0000      -0.579515       -15.7694
 203   2.0000      -0.575645       -15.6641
 204   2.0000      -0.567040       -15.4299
 205   2.0000      -0.561649       -15.2833
 206   2.0000      -0.559559       -15.2264
 207   2.0000      -0.558854       -15.2072
 208   2.0000      -0.553989       -15.0748
 209   2.0000      -0.552753       -15.0412
 210   2.0000      -0.551229       -14.9997
 211   2.0000      -0.549641       -14.9565
 212   2.0000      -0.548542       -14.9266
 213   2.0000      -0.537128       -14.6160
 214   2.0000      -0.534040       -14.5320
 215   2.0000      -0.533009       -14.5039
 216   2.0000      -0.526304       -14.3215
 217   2.0000      -0.524900       -14.2833
 218   2.0000      -0.522800       -14.2261
 219   2.0000      -0.522492       -14.2177
 220   2.0000      -0.517865       -14.0918
 221   2.0000      -0.516063       -14.0428
 222   2.0000      -0.515473       -14.0267
 223   2.0000      -0.512992       -13.9592
 224   2.0000      -0.510894       -13.9021
 225   2.0000      -0.508955       -13.8494
 226   2.0000      -0.505745       -13.7620
 227   2.0000      -0.504921       -13.7396
 228   2.0000      -0.503914       -13.7122
 229   2.0000      -0.503164       -13.6918
 230   2.0000      -0.501686       -13.6516
 231   2.0000      -0.500561       -13.6210
 232   2.0000      -0.498569       -13.5668
 233   2.0000      -0.495197       -13.4750
 234   2.0000      -0.491248       -13.3675
 235   2.0000      -0.490642       -13.3510
 236   2.0000      -0.488049       -13.2805
 237   2.0000      -0.486483       -13.2379
 238   2.0000      -0.482380       -13.1262
 239   2.0000      -0.481643       -13.1062
 240   2.0000      -0.477275       -12.9873
 241   2.0000      -0.472935       -12.8692
 242   2.0000      -0.470766       -12.8102
 243   2.0000      -0.469550       -12.7771
 244   2.0000      -0.467192       -12.7130
 245   2.0000      -0.467094       -12.7103
 246   2.0000      -0.465229       -12.6595
 247   2.0000      -0.463900       -12.6234
 248   2.0000      -0.461675       -12.5628
 249   2.0000      -0.458932       -12.4882
 250   2.0000      -0.458262       -12.4699
 251   2.0000      -0.458072       -12.4648
 252   2.0000      -0.457103       -12.4384
 253   2.0000      -0.455609       -12.3978
 254   2.0000      -0.449685       -12.2365
 255   2.0000      -0.449457       -12.2303
 256   2.0000      -0.449039       -12.2190
 257   2.0000      -0.448544       -12.2055
 258   2.0000      -0.447977       -12.1901
 259   2.0000      -0.447433       -12.1753
 260   2.0000      -0.447064       -12.1652
 261   2.0000      -0.446450       -12.1485
 262   2.0000      -0.446188       -12.1414
 263   2.0000      -0.445346       -12.1185
 264   2.0000      -0.444458       -12.0943
 265   2.0000      -0.439632       -11.9630
 266   2.0000      -0.436742       -11.8843
 267   2.0000      -0.436595       -11.8803
 268   2.0000      -0.434735       -11.8297
 269   2.0000      -0.434625       -11.8267
 270   2.0000      -0.434320       -11.8185
 271   2.0000      -0.429079       -11.6758
 272   2.0000      -0.428096       -11.6491
 273   2.0000      -0.427304       -11.6275
 274   2.0000      -0.426175       -11.5968
 275   2.0000      -0.419487       -11.4148
 276   2.0000      -0.417805       -11.3691
 277   2.0000      -0.414901       -11.2900
 278   2.0000      -0.412681       -11.2296
 279   2.0000      -0.408232       -11.1086
 280   2.0000      -0.406128       -11.0513
 281   2.0000      -0.404964       -11.0196
 282   2.0000      -0.398730       -10.8500
 283   2.0000      -0.395569       -10.7640
 284   2.0000      -0.390031       -10.6133
 285   2.0000      -0.373562       -10.1651
 286   2.0000      -0.371410       -10.1066
 287   2.0000      -0.370896       -10.0926
 288   2.0000      -0.358405        -9.7527
 289   2.0000      -0.357341        -9.7237
 290   2.0000      -0.354022        -9.6334
 291   2.0000      -0.349194        -9.5020
 292   2.0000      -0.347312        -9.4508
 293   2.0000      -0.341240        -9.2856
 294   2.0000      -0.336687        -9.1617
 295   2.0000      -0.332208        -9.0398
 296   2.0000      -0.329368        -8.9625
 297   2.0000      -0.324264        -8.8237
 298   2.0000      -0.316441        -8.6108
 299   2.0000      -0.309267        -8.4156
 300   2.0000      -0.286011        -7.7828
 301   2.0000      -0.254504        -6.9254
 302   0.0000      -0.153404        -4.1743
 303   0.0000      -0.117282        -3.1914
 304   0.0000      -0.111252        -3.0273
 305   0.0000      -0.095809        -2.6071
 306   0.0000      -0.094724        -2.5776

MULLIKEN ATOMIC CHARGES
-----------------------
   0 C :    0.025655
   1 C :   -0.129049
   2 S :    0.186866
   3 C :   -0.170019
   4 Cl:    0.001700
   5 C :    0.081995
   6 C :    0.170673
   7 O :   -0.177293
   8 C :   -0.110655
   9 C :    0.311629
  10 C :   -0.340958
  11 C :   -0.194819
  12 N :    0.157782
  13 C :   -0.184861
  14 N :    0.158041
  15 C :   -0.032189
  16 C :   -0.051725
  17 C :   -0.058431
  18 C :    0.048675
  19 C :   -0.076362
  20 S :    0.253268
  21 C :   -0.063786
  22 C :    0.044846
  23 C :    0.310146
  24 C :   -0.301272
  25 C :   -0.197004
  26 N :    0.188233
  27 C :   -0.185616
  28 N :    0.172419
  29 C :   -0.067441
  30 C :   -0.171142
  31 S :    0.215198
  32 C :    0.189606
  33 C :   -0.061223
  34 C :   -0.059444
  35 N :   -0.001409
  36 C :   -0.098675
  37 C :   -0.097785
  38 N :   -0.000773
  39 C :   -0.240399
  40 N :    0.257783
  41 C :   -0.241679
  42 N :    0.256164
  43 C :    0.195619
  44 C :   -0.014252
  45 C :   -0.008958
  46 N :   -0.283410
  47 S :    0.596319
  48 N :   -0.281768
  49 C :   -0.173718
  50 C :   -0.060508
  51 C :    0.042608
  52 C :   -0.064720
  53 S :    0.213516
  54 C :   -0.077411
  55 C :   -0.000542
  56 C :    0.309221
  57 C :   -0.286824
  58 C :   -0.185078
  59 N :    0.175606
  60 C :   -0.186904
  61 N :    0.171727
  62 C :   -0.007164
  63 C :   -0.101393
  64 S :    0.225337
  65 C :    0.076668
  66 C :   -0.149113
  67 C :    0.128552
  68 O :   -0.131463
  69 C :    0.095192
  70 C :   -0.171062
  71 S :    0.184941
  72 C :   -0.124672
  73 C :    0.010071
  74 C :    0.269514
  75 C :   -0.320527
  76 C :   -0.174886
  77 N :    0.162099
  78 C :   -0.202436
  79 N :    0.172704
  80 Cl:    0.000087
  81 H :    0.055078
  82 H :    0.017085
  83 H :    0.029326
  84 H :    0.024580
  85 H :    0.023548
  86 H :    0.027470
  87 H :    0.026993
  88 H :    0.056274
Sum of atomic charges:   -0.0000000

LOEWDIN ATOMIC CHARGES
----------------------
   0 C :   -0.058018
   1 C :   -0.147087
   2 S :    0.475490
   3 C :   -0.271441
   4 Cl:    0.193670
   5 C :   -0.117233
   6 C :    0.083621
   7 O :   -0.166160
   8 C :   -0.105309
   9 C :    0.074775
  10 C :   -0.139975
  11 C :   -0.015387
  12 N :   -0.052152
  13 C :   -0.024783
  14 N :   -0.044394
  15 C :    0.055033
  16 C :   -0.179986
  17 C :    0.011484
  18 C :   -0.071177
  19 C :   -0.168237
  20 S :    0.554578
  21 C :   -0.180670
  22 C :   -0.061775
  23 C :    0.076586
  24 C :   -0.099760
  25 C :   -0.020900
  26 N :   -0.022979
  27 C :   -0.015995
  28 N :   -0.031606
  29 C :   -0.008484
  30 C :   -0.159909
  31 S :    0.516551
  32 C :   -0.037655
  33 C :   -0.012879
  34 C :   -0.014084
  35 N :   -0.016038
  36 C :   -0.019279
  37 C :   -0.018033
  38 N :   -0.015975
  39 C :   -0.040203
  40 N :    0.008055
  41 C :   -0.040167
  42 N :    0.006371
  43 C :   -0.034463
  44 C :   -0.036541
  45 C :   -0.035451
  46 N :   -0.269891
  47 S :    0.714457
  48 N :   -0.269618
  49 C :   -0.162584
  50 C :   -0.004208
  51 C :   -0.063608
  52 C :   -0.177142
  53 S :    0.515934
  54 C :   -0.161121
  55 C :   -0.058620
  56 C :    0.080622
  57 C :   -0.096045
  58 C :   -0.016574
  59 N :   -0.028399
  60 C :   -0.013275
  61 N :   -0.030709
  62 C :    0.010224
  63 C :   -0.176239
  64 S :    0.506531
  65 C :    0.042346
  66 C :   -0.087469
  67 C :    0.080291
  68 O :   -0.135258
  69 C :   -0.118873
  70 C :   -0.271949
  71 S :    0.474840
  72 C :   -0.149194
  73 C :   -0.056886
  74 C :    0.064618
  75 C :   -0.135707
  76 C :   -0.016021
  77 N :   -0.044507
  78 C :   -0.016623
  79 N :   -0.043545
  80 Cl:    0.192285
  81 H :    0.038288
  82 H :    0.054482
  83 H :    0.048646
  84 H :    0.039120
  85 H :    0.039511
  86 H :    0.043351
  87 H :    0.047545
  88 H :    0.038942

  Mayer bond orders larger than 0.100000
B(  0-C ,  1-C ) :   1.5536 B(  0-C ,  5-C ) :   1.2263 B(  0-C ,  9-C ) :   0.9908
B(  1-C ,  2-S ) :   1.1585 B(  1-C , 81-H ) :   0.9527 B(  2-S ,  3-C ) :   1.1499
B(  3-C ,  4-Cl) :   1.1304 B(  3-C ,  5-C ) :   1.4694 B(  5-C ,  6-C ) :   0.9744
B(  6-C ,  7-O ) :   2.1210 B(  6-C ,  8-C ) :   0.9780 B(  8-C ,  9-C ) :   1.0840
B(  8-C , 15-C ) :   1.5104 B(  9-C , 10-C ) :   1.6407 B( 10-C , 11-C ) :   1.1521
B( 10-C , 13-C ) :   1.1404 B( 11-C , 12-N ) :   2.9896 B( 13-C , 14-N ) :   2.9623
B( 15-C , 16-C ) :   1.2630 B( 15-C , 82-H ) :   0.9404 B( 16-C , 17-C ) :   1.3228
B( 16-C , 20-S ) :   1.0765 B( 17-C , 18-C ) :   1.3372 B( 17-C , 83-H ) :   1.0079
B( 18-C , 19-C ) :   1.3430 B( 18-C , 23-C ) :   0.9843 B( 19-C , 20-S ) :   1.1223
B( 19-C , 21-C ) :   1.2172 B( 21-C , 22-C ) :   1.3899 B( 21-C , 31-S ) :   1.0861
B( 22-C , 23-C ) :   0.9938 B( 22-C , 29-C ) :   1.2826 B( 23-C , 24-C ) :   1.7143
B( 24-C , 25-C ) :   1.1358 B( 24-C , 27-C ) :   1.1387 B( 25-C , 26-N ) :   2.9966
B( 27-C , 28-N ) :   2.9839 B( 29-C , 30-C ) :   1.3991 B( 29-C , 84-H ) :   0.9833
B( 30-C , 31-S ) :   1.0937 B( 30-C , 32-C ) :   1.2132 B( 32-C , 33-C ) :   1.2484
B( 32-C , 43-C ) :   0.1217 B( 32-C , 45-C ) :   1.1987 B( 33-C , 34-C ) :   1.1097
B( 33-C , 38-N ) :   1.4049 B( 34-C , 35-N ) :   1.4053 B( 34-C , 43-C ) :   1.2510
B( 35-N , 36-C ) :   1.6928 B( 36-C , 37-C ) :   1.2208 B( 36-C , 41-C ) :   1.1665
B( 37-C , 38-N ) :   1.6965 B( 37-C , 39-C ) :   1.1651 B( 39-C , 40-N ) :   3.0395
B( 41-C , 42-N ) :   3.0398 B( 43-C , 44-C ) :   1.1963 B( 43-C , 49-C ) :   1.2142
B( 44-C , 45-C ) :   1.0978 B( 44-C , 48-N ) :   1.5159 B( 45-C , 46-N ) :   1.5149
B( 46-N , 47-S ) :   1.2878 B( 46-N , 48-N ) :   0.1457 B( 47-S , 48-N ) :   1.2888
B( 49-C , 50-C ) :   1.4003 B( 49-C , 53-S ) :   1.0913 B( 50-C , 51-C ) :   1.2890
B( 50-C , 85-H ) :   0.9818 B( 51-C , 52-C ) :   1.3941 B( 51-C , 56-C ) :   0.9898
B( 52-C , 53-S ) :   1.0858 B( 52-C , 54-C ) :   1.2128 B( 54-C , 55-C ) :   1.3950
B( 54-C , 64-S ) :   1.1503 B( 55-C , 56-C ) :   0.9958 B( 55-C , 62-C ) :   1.3682
B( 56-C , 57-C ) :   1.7180 B( 57-C , 58-C ) :   1.1365 B( 57-C , 60-C ) :   1.1334
B( 58-C , 59-N ) :   2.9859 B( 60-C , 61-N ) :   2.9826 B( 62-C , 63-C ) :   1.3810
B( 62-C , 86-H ) :   0.9784 B( 63-C , 64-S ) :   1.0943 B( 63-C , 65-C ) :   1.1408
B( 65-C , 66-C ) :   1.6736 B( 65-C , 87-H ) :   0.9259 B( 66-C , 67-C ) :   0.9396
B( 66-C , 74-C ) :   1.0424 B( 67-C , 68-O ) :   2.2710 B( 67-C , 69-C ) :   0.9292
B( 69-C , 70-C ) :   1.4822 B( 69-C , 73-C ) :   1.2211 B( 70-C , 71-S ) :   1.1505
B( 70-C , 80-Cl) :   1.1296 B( 71-S , 72-C ) :   1.1579 B( 72-C , 73-C ) :   1.5553
B( 72-C , 88-H ) :   0.9557 B( 73-C , 74-C ) :   1.0091 B( 74-C , 75-C ) :   1.6549
B( 75-C , 76-C ) :   1.1281 B( 75-C , 78-C ) :   1.1726 B( 76-C , 77-N ) :   3.0008
B( 78-C , 79-N ) :   2.9917

-----------------------------------------------------------------------------
         ABSORPTION SPECTRUM VIA TRANSITION ELECTRIC DIPOLE MOMENTS
-----------------------------------------------------------------------------
State   Energy  Wavelength   fosc         T2         TX        TY        TZ
        (cm-1)    (nm)                  (au**2)     (au)      (au)      (au)
-----------------------------------------------------------------------------
   0    7283.1   1373.0   0.781831214  35.34043   4.77323   1.38652  -3.26102
   1   13740.8    727.8   0.009467956   0.22684  -0.18537   0.02721   0.43788
   2   14685.4    680.9   0.098347078   2.20471   1.30779   0.45682  -0.53451
   3   15868.8    630.2   0.003428714   0.07113   0.01986  -0.13918  -0.22664
   4   19917.1    502.1   0.999662940  16.52351   3.34137   1.17725  -1.99320
   5   20709.4    482.9   0.563699433   8.96100   2.74296   0.81531  -0.87888
   6   21458.5    466.0   0.073723532   1.13105   0.89165   0.36442  -0.45079
   7   23063.2    433.6   0.006028636   0.08605  -0.20177   0.11517   0.17910
   8   23292.9    429.3   0.012030278   0.17003   0.32324  -0.10943   0.23145
   9   23506.6    425.4   0.125593163   1.75894  -1.23540   0.13243  -0.46390
  10   24373.2    410.3   0.015155365   0.20471  -0.17435  -0.14174  -0.39270
  11   24603.2    406.5   0.024120476   0.32275   0.53115  -0.02117   0.20047
  12   24886.0    401.8   0.021101638   0.27915  -0.05996   0.11366   0.51248
  13   25074.3    398.8   0.002145331   0.02817  -0.07503  -0.11501  -0.09650
  14   25306.8    395.2   0.004244396   0.05521   0.14493  -0.14497  -0.11486
  15   25889.4    386.3   0.014035812   0.17848   0.40366   0.05574  -0.11150
  16   27263.9    366.8   0.000921578   0.01113  -0.01042   0.10256   0.02238
  17   27766.7    360.1   0.005131813   0.06084   0.03631   0.14267   0.19792
  18   28239.9    354.1   0.039945483   0.46567   0.66414   0.15118   0.04158
  19   28675.9    348.7   0.052153406   0.59874  -0.45141   0.37747  -0.50248
  20   28728.6    348.1   0.003989704   0.04572  -0.21197   0.01643  -0.02276
  21   28943.3    345.5   0.018232866   0.20739  -0.10408  -0.19535  -0.39799
  22   28969.5    345.2   0.048205679   0.54781  -0.69658   0.16030   0.19206
  23   29377.4    340.4   0.076817288   0.86084  -0.85249   0.03802  -0.36421
  24   29850.8    335.0   0.048130565   0.53081   0.66224   0.21186   0.21762
  25   29940.1    334.0   0.118675001   1.30492  -0.03868   0.00019  -1.14167
  26   30178.2    331.4   0.246128304   2.68499  -0.58154  -0.37207   1.48606
  27   30517.2    327.7   0.005836814   0.06297  -0.11379   0.08319  -0.20760
  28   30574.8    327.1   0.019482375   0.20977   0.27510  -0.15847   0.33012
  29   30865.7    324.0   0.086953663   0.92744  -0.23035   0.25623  -0.89929
  30   31129.4    321.2   0.303354245   3.20815  -1.09284   0.37144  -1.36963
  31   31372.0    318.8   0.504269791   5.29171  -1.63621  -0.28583   1.59149
  32   31753.4    314.9   0.391710211   4.06117  -1.91679  -0.00920   0.62209
  33   32014.5    312.4   0.786967869   8.09256  -1.92529   0.46388  -2.04221
  34   32054.8    312.0   0.038828354   0.39878   0.45125   0.43284   0.08830
  35   32264.7    309.9   0.116822079   1.19199  -0.41114  -0.12846  -1.00322
  36   32673.5    306.1   0.150633544   1.51775  -1.05035   0.20241  -0.61119
  37   33031.2    302.7   0.013526566   0.13482   0.05398  -0.02352  -0.36242
  38   33153.8    301.6   0.000861482   0.00855   0.09103  -0.01073   0.01239
  39   33615.8    297.5   0.102699461   1.00577   0.69587   0.45415  -0.56150
  40   33739.2    296.4   0.010995001   0.10728   0.23611  -0.03121  -0.22486
  41   33813.1    295.7   0.043540950   0.42392  -0.55449   0.10282   0.32541
  42   33981.4    294.3   0.008026731   0.07776   0.19537   0.04291  -0.19430
  43   34050.7    293.7   0.021346580   0.20638  -0.22648  -0.06877   0.38777
  44   34162.1    292.7   0.074572637   0.71864   0.84350   0.05804   0.06148
  45   34576.9    289.2   0.264139385   2.51491  -0.57451   0.37631  -1.42942
  46   34785.5    287.5   0.056495382   0.53468   0.54917   0.10506  -0.47123
  47   35005.6    285.7   0.145224162   1.36577  -0.33173  -0.20762  -1.10119
  48   35053.4    285.3   0.337713635   3.17172   1.32849  -0.25677   1.15797
  49   35179.9    284.3   0.001131752   0.01059   0.08266  -0.04838   0.03766
  50   35494.8    281.7   0.112500957   1.04344  -0.20695   0.03590   0.99966
  51   35529.1    281.5   0.032179814   0.29818   0.03091  -0.28831   0.46271
  52   35876.3    278.7   0.006430979   0.05901   0.11252   0.03512  -0.21241
  53   36620.1    273.1   0.000939588   0.00845   0.06984  -0.03128   0.05089
  54   36872.7    271.2   0.025209754   0.22508   0.35251  -0.11847   0.29459
  55   37017.7    270.1   0.444807239   3.95583  -0.97766   0.36046  -1.69413
  56   37192.6    268.9   0.027196022   0.24073  -0.48690   0.01227   0.05920
  57   37264.6    268.4   0.012652192   0.11178  -0.08228   0.26860   0.18126
  58   37631.7    265.7   0.032234931   0.28200  -0.09977  -0.01413   0.52139
  59   37765.0    264.8   0.193703913   1.68859   0.62840  -0.23587  -1.11269
  60   37950.9    263.5   0.083676149   0.72586   0.50823  -0.25756   0.63343
  61   38063.8    262.7   0.080791482   0.69876   0.63602  -0.24698  -0.48295
  62   38284.5    261.2   0.091655961   0.78816   0.09742   0.08024  -0.87877
  63   38356.4    260.7   0.123544859   1.06038  -0.15047   0.38444   0.94337
  64   38512.7    259.7   0.066279514   0.56657  -0.74219  -0.12123   0.03194
  65   38547.1    259.4   0.068436054   0.58448  -0.15132   0.19681   0.72308
  66   38609.2    259.0   0.144410617   1.23136  -0.27940   0.36488   1.01003
  67   38803.1    257.7   0.060138054   0.51022   0.37602   0.27892  -0.53948
  68   39034.6    256.2   0.012794351   0.10791  -0.04003  -0.21189  -0.24780
  69   39339.8    254.2   0.171711062   1.43695   0.67555  -0.30749   0.94129
  70   39393.7    253.8   0.119551286   0.99909   0.96290  -0.01178   0.26789
  71   39502.5    253.1   0.013611997   0.11344  -0.06810  -0.20267  -0.26025
  72   39611.7    252.5   0.192229460   1.59761  -0.47679   0.42670  -1.09005
  73   39926.5    250.5   0.060790847   0.50125   0.65060  -0.11932  -0.25246
  74   40105.4    249.3   0.033497967   0.27497  -0.01136   0.06203  -0.52057
  75   40254.6    248.4   0.001197669   0.00979   0.01356  -0.09803  -0.00079

FINAL SINGLE POINT ENERGY     -6758.212466241353

DIPOLE MOMENT
-------------
                                X             Y             Z
Electronic contribution:      2.88134      -2.54381      21.97143
Nuclear contribution   :     -2.96425       2.92721     -19.61097
                        -----------------------------------------
Total Dipole Moment    :     -0.08290       0.38340       2.36046
                        -----------------------------------------
Magnitude (a.u.)       :      2.39283
Magnitude (Debye)      :      6.08209

Rotational constants in cm-1:     0.001701     0.000165     0.000152
Rotational constants in MHz :    50.997026     4.933847     4.554825

                             ****ORCA TERMINATED NORMALLY****
TOTAL RUN TIME: 0 days 0 hours 9 minutes 57 seconds 724 msec
