                         Program Version 4.2.0 -  RELEASE  -
|  1> # ORCA input file
|  2> # SCF done       -196.645529080282          0.000696824233
|  3> ! CAM-B3LYP def2-SVP def2/J RIJCOSX Grid4 TightSCF
|  4> %maxcore 5000
|  5> %tddft
|  6>     Mode sTDDFT
|  7>     Ethresh 5.0
|  8>     maxcore 5000
|  9> end
| 10>
| 11> %pal
| 12>   nprocs 6
| 13>   end
| 14> * xyz 0 1
| 15>    C       -0.50963         2.96589         5.57023
| 16>    C        0.31561         1.98100         5.09296
| 17>    C        1.59119         1.69282         5.62315
| 18>    N        2.63528         1.40810         6.00597
| 19>    C        0.03826         1.13050         4.00204
| 20>    N       -0.10570         0.40682         3.12192
| 21>    C       -0.19084         3.87666         6.66437
| 22>    C       -1.25237         4.80650         6.80753
| 23>    C       -1.24612         5.80169         7.75514
| 24>    C       -0.14095         5.88284         8.60733
| 25>    C        0.91282         4.94859         8.46115
| 26>    C        0.90734         3.94383         7.50015
| 27>    S        2.17032         5.23348         9.62166
| 28>    C        1.29476         6.57242        10.27835
| 29>    C        0.11411         6.80248         9.66309
| 30>    C       -2.29016         4.50703         5.81283
| 31>    O       -3.33395         5.11759         5.64737
| 32>    C       -1.82629         3.32707         5.07328
| 33>    C       -2.54411         2.65130         4.12191
| 34>    C       -3.81315         2.91740         3.58237
| 35>    C       -4.40406         2.06630         2.64046
| 36>    C       -5.64542         2.51145         2.22910
| 37>    C       -6.01001         3.72848         2.85319
| 38>    S       -4.84124         4.30166         3.95113
| 39>    C       -7.28529         4.10259         2.36361
| 40>    C       -7.72682         3.13562         1.44169
| 41>    C       -6.71208         2.10174         1.32755
| 42>    C       -6.75768         0.98599         0.54525
| 43>    C       -5.71181         0.03859         0.52319
| 44>    N       -4.87042        -0.73949         0.50398
| 45>    C       -7.85650         0.69811        -0.29252
| 46>    N       -8.74403         0.45607        -0.97685
| 47>    C       -8.97947         3.42703         0.90486
| 48>    C       -9.49454         4.60849         1.40495
| 49>    S       -8.41174         5.36952         2.56215
| 50>    C      -10.74353         5.21514         1.06758
| 51>    C      -11.15185         6.44365         1.58574
| 52>    N      -12.27888         7.06888         1.29530
| 53>    C      -13.15699         6.54530         0.45249
| 54>    C      -12.89175         5.28258        -0.14465
| 55>    C      -11.66044         4.61139         0.16639
| 56>    N      -11.55967         3.44891        -0.47716
| 57>    S      -12.87204         3.22732        -1.37453
| 58>    N      -13.63840         4.58662        -0.99909
| 59>    C      -14.33159         7.30246         0.17268
| 60>    C      -15.39090         6.98383        -0.65719
| 61>    C      -16.33871         8.00350        -0.68554
| 62>    C      -15.98694         9.09953         0.12983
| 63>    S      -14.49921         8.87048         0.93194
| 64>    C      -16.99578        10.08890         0.00902
| 65>    C      -17.98217         9.61556        -0.87909
| 66>    C      -17.60082         8.29254        -1.34420
| 67>    C      -18.27899         7.51348        -2.23507
| 68>    C      -17.82140         6.23760        -2.62680
| 69>    N      -17.46070         5.19757        -2.94680
| 70>    C      -19.49025         7.94654        -2.81495
| 71>    N      -20.47618         8.31016        -3.27412
| 72>    C      -18.99577        10.53755        -1.10452
| 73>    C      -18.79627        11.71730        -0.40291
| 74>    S      -17.34039        11.65295         0.58233
| 75>    C      -19.60756        12.87484        -0.37224
| 76>    C      -20.54347        13.27597        -1.27397
| 77>    C      -20.86041        12.86752        -2.62803
| 78>    C      -19.98564        12.38685        -3.56777
| 79>    C      -20.33218        12.14611        -4.91416
| 80>    N      -20.55660        11.93860        -6.02006
| 81>    C      -18.61382        12.17164        -3.33402
| 82>    N      -17.48452        12.00941        -3.20315
| 83>    C      -22.21616        13.32503        -2.90863
| 84>    C      -22.62778        14.19971        -1.86914
| 85>    C      -21.56755        14.27658        -0.85042
| 86>    O      -21.53380        14.95856         0.14786
| 87>    C      -23.85120        14.82602        -1.87756
| 88>    C      -24.70978        14.56811        -2.95057
| 89>    C      -24.29598        13.67808        -3.97197
| 90>    C      -23.05571        13.05050        -3.97006
| 91>    S      -25.52253        13.49897        -5.18487
| 92>    C      -26.55490        14.59807        -4.33807
| 93>    C      -26.01515        15.07923        -3.19684
| 94>    H       -2.06952         6.49430         7.83595
| 95>    H        1.73406         3.25686         7.43231
| 96>    H        1.72552         7.11339        11.09838
| 97>    H       -0.56355         7.59121         9.93560
| 98>    H       -2.09247         1.75708         3.70937
| 99>    H       -3.91854         1.17077         2.29458
|100>    H       -9.51207         2.83142         0.18622
|101>    H      -10.51335         6.96795         2.28535
|102>    H      -15.43832         6.05722        -1.19984
|103>    H      -19.86147        10.35953        -1.71612
|104>    H      -19.52303        13.50100         0.51074
|105>    H      -24.13665        15.49426        -1.08005
|106>    H      -22.78526        12.37211        -4.76237
|107>    H      -27.51881        14.81902        -4.75370
|108>    H      -26.51093        15.77202        -2.54130
|109> *
|110>
|111>                          ****END OF INPUT****

CARTESIAN COORDINATES (ANGSTROEM)
---------------------------------
  C     -0.509630    2.965890    5.570230
  C      0.315610    1.981000    5.092960
  C      1.591190    1.692820    5.623150
  N      2.635280    1.408100    6.005970
  C      0.038260    1.130500    4.002040
  N     -0.105700    0.406820    3.121920
  C     -0.190840    3.876660    6.664370
  C     -1.252370    4.806500    6.807530
  C     -1.246120    5.801690    7.755140
  C     -0.140950    5.882840    8.607330
  C      0.912820    4.948590    8.461150
  C      0.907340    3.943830    7.500150
  S      2.170320    5.233480    9.621660
  C      1.294760    6.572420   10.278350
  C      0.114110    6.802480    9.663090
  C     -2.290160    4.507030    5.812830
  O     -3.333950    5.117590    5.647370
  C     -1.826290    3.327070    5.073280
  C     -2.544110    2.651300    4.121910
  C     -3.813150    2.917400    3.582370
  C     -4.404060    2.066300    2.640460
  C     -5.645420    2.511450    2.229100
  C     -6.010010    3.728480    2.853190
  S     -4.841240    4.301660    3.951130
  C     -7.285290    4.102590    2.363610
  C     -7.726820    3.135620    1.441690
  C     -6.712080    2.101740    1.327550
  C     -6.757680    0.985990    0.545250
  C     -5.711810    0.038590    0.523190
  N     -4.870420   -0.739490    0.503980
  C     -7.856500    0.698110   -0.292520
  N     -8.744030    0.456070   -0.976850
  C     -8.979470    3.427030    0.904860
  C     -9.494540    4.608490    1.404950
  S     -8.411740    5.369520    2.562150
  C    -10.743530    5.215140    1.067580
  C    -11.151850    6.443650    1.585740
  N    -12.278880    7.068880    1.295300
  C    -13.156990    6.545300    0.452490
  C    -12.891750    5.282580   -0.144650
  C    -11.660440    4.611390    0.166390
  N    -11.559670    3.448910   -0.477160
  S    -12.872040    3.227320   -1.374530
  N    -13.638400    4.586620   -0.999090
  C    -14.331590    7.302460    0.172680
  C    -15.390900    6.983830   -0.657190
  C    -16.338710    8.003500   -0.685540
  C    -15.986940    9.099530    0.129830
  S    -14.499210    8.870480    0.931940
  C    -16.995780   10.088900    0.009020
  C    -17.982170    9.615560   -0.879090
  C    -17.600820    8.292540   -1.344200
  C    -18.278990    7.513480   -2.235070
  C    -17.821400    6.237600   -2.626800
  N    -17.460700    5.197570   -2.946800
  C    -19.490250    7.946540   -2.814950
  N    -20.476180    8.310160   -3.274120
  C    -18.995770   10.537550   -1.104520
  C    -18.796270   11.717300   -0.402910
  S    -17.340390   11.652950    0.582330
  C    -19.607560   12.874840   -0.372240
  C    -20.543470   13.275970   -1.273970
  C    -20.860410   12.867520   -2.628030
  C    -19.985640   12.386850   -3.567770
  C    -20.332180   12.146110   -4.914160
  N    -20.556600   11.938600   -6.020060
  C    -18.613820   12.171640   -3.334020
  N    -17.484520   12.009410   -3.203150
  C    -22.216160   13.325030   -2.908630
  C    -22.627780   14.199710   -1.869140
  C    -21.567550   14.276580   -0.850420
  O    -21.533800   14.958560    0.147860
  C    -23.851200   14.826020   -1.877560
  C    -24.709780   14.568110   -2.950570
  C    -24.295980   13.678080   -3.971970
  C    -23.055710   13.050500   -3.970060
  S    -25.522530   13.498970   -5.184870
  C    -26.554900   14.598070   -4.338070
  C    -26.015150   15.079230   -3.196840
  H     -2.069520    6.494300    7.835950
  H      1.734060    3.256860    7.432310
  H      1.725520    7.113390   11.098380
  H     -0.563550    7.591210    9.935600
  H     -2.092470    1.757080    3.709370
  H     -3.918540    1.170770    2.294580
  H     -9.512070    2.831420    0.186220
  H    -10.513350    6.967950    2.285350
  H    -15.438320    6.057220   -1.199840
  H    -19.861470   10.359530   -1.716120
  H    -19.523030   13.501000    0.510740
  H    -24.136650   15.494260   -1.080050
  H    -22.785260   12.372110   -4.762370
  H    -27.518810   14.819020   -4.753700
  H    -26.510930   15.772020   -2.541300

 Total Charge           Charge          ....    0
 Multiplicity           Mult            ....    1
 Number of Electrons    NEL             ....  574
 Basis Dimension        Dim             .... 1209

ORBITAL ENERGIES
----------------

  NO   OCC          E(Eh)            E(eV)
   0   2.0000     -89.048725     -2423.1390
   1   2.0000     -88.998539     -2421.7734
   2   2.0000     -88.995199     -2421.6825
   3   2.0000     -88.993655     -2421.6405
   4   2.0000     -88.991326     -2421.5771
   5   2.0000     -88.969524     -2420.9838
   6   2.0000     -88.967911     -2420.9399
   7   2.0000     -19.226775      -523.1871
   8   2.0000     -19.217418      -522.9325
   9   2.0000     -14.464756      -393.6060
  10   2.0000     -14.459185      -393.4544
  11   2.0000     -14.434103      -392.7719
  12   2.0000     -14.433596      -392.7581
  13   2.0000     -14.432090      -392.7171
  14   2.0000     -14.431089      -392.6899
  15   2.0000     -14.430689      -392.6790
  16   2.0000     -14.419383      -392.3714
  17   2.0000     -14.417628      -392.3236
  18   2.0000     -14.415246      -392.2588
  19   2.0000     -14.415218      -392.2580
  20   2.0000     -10.374412      -282.3021
  21   2.0000     -10.368664      -282.1457
  22   2.0000     -10.368214      -282.1334
  23   2.0000     -10.366934      -282.0986
  24   2.0000     -10.355596      -281.7901
  25   2.0000     -10.354536      -281.7613
  26   2.0000     -10.354008      -281.7469
  27   2.0000     -10.349426      -281.6222
  28   2.0000     -10.346083      -281.5312
  29   2.0000     -10.345882      -281.5258
  30   2.0000     -10.345152      -281.5059
  31   2.0000     -10.343919      -281.4723
  32   2.0000     -10.343714      -281.4668
  33   2.0000     -10.343079      -281.4495
  34   2.0000     -10.339037      -281.3395
  35   2.0000     -10.336695      -281.2758
  36   2.0000     -10.335515      -281.2437
  37   2.0000     -10.334420      -281.2139
  38   2.0000     -10.333590      -281.1913
  39   2.0000     -10.333416      -281.1865
  40   2.0000     -10.332053      -281.1494
  41   2.0000     -10.331134      -281.1244
  42   2.0000     -10.331108      -281.1238
  43   2.0000     -10.330370      -281.1037
  44   2.0000     -10.328575      -281.0548
  45   2.0000     -10.328136      -281.0429
  46   2.0000     -10.327008      -281.0122
  47   2.0000     -10.325622      -280.9744
  48   2.0000     -10.323366      -280.9131
  49   2.0000     -10.322266      -280.8831
  50   2.0000     -10.320870      -280.8451
  51   2.0000     -10.320632      -280.8387
  52   2.0000     -10.320154      -280.8257
  53   2.0000     -10.318251      -280.7739
  54   2.0000     -10.317554      -280.7549
  55   2.0000     -10.317002      -280.7399
  56   2.0000     -10.315119      -280.6887
  57   2.0000     -10.314220      -280.6642
  58   2.0000     -10.313939      -280.6566
  59   2.0000     -10.310585      -280.5653
  60   2.0000     -10.310282      -280.5570
  61   2.0000     -10.309180      -280.5270
  62   2.0000     -10.309158      -280.5265
  63   2.0000     -10.308729      -280.5148
  64   2.0000     -10.306900      -280.4650
  65   2.0000     -10.305776      -280.4344
  66   2.0000     -10.305568      -280.4288
  67   2.0000     -10.304764      -280.4069
  68   2.0000     -10.304685      -280.4047
  69   2.0000     -10.303548      -280.3738
  70   2.0000     -10.303090      -280.3613
  71   2.0000     -10.303062      -280.3606
  72   2.0000     -10.301135      -280.3081
  73   2.0000     -10.301040      -280.3056
  74   2.0000     -10.300430      -280.2889
  75   2.0000     -10.294063      -280.1157
  76   2.0000     -10.293148      -280.0908
  77   2.0000     -10.292061      -280.0612
  78   2.0000     -10.290138      -280.0089
  79   2.0000      -8.140092      -221.5032
  80   2.0000      -8.093169      -220.2263
  81   2.0000      -8.089618      -220.1297
  82   2.0000      -8.087596      -220.0747
  83   2.0000      -8.083619      -219.9664
  84   2.0000      -8.065805      -219.4817
  85   2.0000      -8.064081      -219.4348
  86   2.0000      -6.111270      -166.2961
  87   2.0000      -6.103330      -166.0800
  88   2.0000      -6.102734      -166.0638
  89   2.0000      -6.062331      -164.9644
  90   2.0000      -6.058870      -164.8702
  91   2.0000      -6.058149      -164.8506
  92   2.0000      -6.056832      -164.8148
  93   2.0000      -6.055708      -164.7842
  94   2.0000      -6.054662      -164.7557
  95   2.0000      -6.053054      -164.7120
  96   2.0000      -6.052511      -164.6972
  97   2.0000      -6.052053      -164.6847
  98   2.0000      -6.050159      -164.6332
  99   2.0000      -6.048272      -164.5819
 100   2.0000      -6.046171      -164.5247
 101   2.0000      -6.035296      -164.2287
 102   2.0000      -6.033597      -164.1825
 103   2.0000      -6.031001      -164.1119
 104   2.0000      -6.029272      -164.0648
 105   2.0000      -6.027491      -164.0164
 106   2.0000      -6.025801      -163.9704
 107   2.0000      -1.149273       -31.2733
 108   2.0000      -1.142059       -31.0770
 109   2.0000      -1.132779       -30.8245
 110   2.0000      -1.070300       -29.1243
 111   2.0000      -1.050486       -28.5852
 112   2.0000      -1.048260       -28.5246
 113   2.0000      -1.025417       -27.9030
 114   2.0000      -1.023205       -27.8428
 115   2.0000      -1.022675       -27.8284
 116   2.0000      -1.022463       -27.8226
 117   2.0000      -1.011242       -27.5173
 118   2.0000      -1.010765       -27.5043
 119   2.0000      -1.010041       -27.4846
 120   2.0000      -1.009385       -27.4668
 121   2.0000      -1.007859       -27.4252
 122   2.0000      -1.002004       -27.2659
 123   2.0000      -0.997277       -27.1373
 124   2.0000      -0.995075       -27.0774
 125   2.0000      -0.994902       -27.0727
 126   2.0000      -0.987941       -26.8832
 127   2.0000      -0.986958       -26.8565
 128   2.0000      -0.964895       -26.2561
 129   2.0000      -0.962908       -26.2021
 130   2.0000      -0.935372       -25.4528
 131   2.0000      -0.934676       -25.4338
 132   2.0000      -0.930113       -25.3097
 133   2.0000      -0.922381       -25.0993
 134   2.0000      -0.915240       -24.9049
 135   2.0000      -0.905266       -24.6335
 136   2.0000      -0.900282       -24.4979
 137   2.0000      -0.890366       -24.2281
 138   2.0000      -0.884264       -24.0620
 139   2.0000      -0.882983       -24.0272
 140   2.0000      -0.878822       -23.9140
 141   2.0000      -0.877793       -23.8860
 142   2.0000      -0.867634       -23.6095
 143   2.0000      -0.861207       -23.4346
 144   2.0000      -0.859320       -23.3833
 145   2.0000      -0.858716       -23.3669
 146   2.0000      -0.827740       -22.5239
 147   2.0000      -0.826128       -22.4801
 148   2.0000      -0.824635       -22.4395
 149   2.0000      -0.808405       -21.9978
 150   2.0000      -0.799238       -21.7484
 151   2.0000      -0.782000       -21.2793
 152   2.0000      -0.780604       -21.2413
 153   2.0000      -0.772880       -21.0311
 154   2.0000      -0.768657       -20.9162
 155   2.0000      -0.761816       -20.7301
 156   2.0000      -0.757771       -20.6200
 157   2.0000      -0.742770       -20.2118
 158   2.0000      -0.739088       -20.1116
 159   2.0000      -0.725586       -19.7442
 160   2.0000      -0.716011       -19.4836
 161   2.0000      -0.705924       -19.2092
 162   2.0000      -0.702327       -19.1113
 163   2.0000      -0.695668       -18.9301
 164   2.0000      -0.693188       -18.8626
 165   2.0000      -0.690667       -18.7940
 166   2.0000      -0.688410       -18.7326
 167   2.0000      -0.686389       -18.6776
 168   2.0000      -0.681002       -18.5310
 169   2.0000      -0.673386       -18.3238
 170   2.0000      -0.664667       -18.0865
 171   2.0000      -0.663386       -18.0517
 172   2.0000      -0.656486       -17.8639
 173   2.0000      -0.651159       -17.7189
 174   2.0000      -0.647084       -17.6080
 175   2.0000      -0.640242       -17.4219
 176   2.0000      -0.633805       -17.2467
 177   2.0000      -0.626698       -17.0533
 178   2.0000      -0.623323       -16.9615
 179   2.0000      -0.621800       -16.9200
 180   2.0000      -0.620740       -16.8912
 181   2.0000      -0.617793       -16.8110
 182   2.0000      -0.615015       -16.7354
 183   2.0000      -0.608810       -16.5666
 184   2.0000      -0.601325       -16.3629
 185   2.0000      -0.597913       -16.2700
 186   2.0000      -0.593809       -16.1584
 187   2.0000      -0.586442       -15.9579
 188   2.0000      -0.577047       -15.7022
 189   2.0000      -0.576119       -15.6770
 190   2.0000      -0.569191       -15.4885
 191   2.0000      -0.566181       -15.4066
 192   2.0000      -0.556915       -15.1544
 193   2.0000      -0.553283       -15.0556
 194   2.0000      -0.551653       -15.0113
 195   2.0000      -0.550186       -14.9713
 196   2.0000      -0.549121       -14.9424
 197   2.0000      -0.543862       -14.7992
 198   2.0000      -0.543111       -14.7788
 199   2.0000      -0.541001       -14.7214
 200   2.0000      -0.538910       -14.6645
 201   2.0000      -0.534843       -14.5538
 202   2.0000      -0.531759       -14.4699
 203   2.0000      -0.527938       -14.3659
 204   2.0000      -0.525498       -14.2995
 205   2.0000      -0.522313       -14.2129
 206   2.0000      -0.516743       -14.0613
 207   2.0000      -0.515383       -14.0243
 208   2.0000      -0.513675       -13.9778
 209   2.0000      -0.510339       -13.8870
 210   2.0000      -0.508091       -13.8259
 211   2.0000      -0.507528       -13.8105
 212   2.0000      -0.505912       -13.7666
 213   2.0000      -0.504324       -13.7234
 214   2.0000      -0.501024       -13.6336
 215   2.0000      -0.499081       -13.5807
 216   2.0000      -0.498510       -13.5651
 217   2.0000      -0.497193       -13.5293
 218   2.0000      -0.495428       -13.4813
 219   2.0000      -0.494315       -13.4510
 220   2.0000      -0.493045       -13.4164
 221   2.0000      -0.489850       -13.3295
 222   2.0000      -0.489645       -13.3239
 223   2.0000      -0.488243       -13.2858
 224   2.0000      -0.481401       -13.0996
 225   2.0000      -0.478794       -13.0286
 226   2.0000      -0.477950       -13.0057
 227   2.0000      -0.474677       -12.9166
 228   2.0000      -0.469595       -12.7783
 229   2.0000      -0.464339       -12.6353
 230   2.0000      -0.461518       -12.5585
 231   2.0000      -0.460879       -12.5411
 232   2.0000      -0.458537       -12.4774
 233   2.0000      -0.457908       -12.4603
 234   2.0000      -0.457487       -12.4489
 235   2.0000      -0.455689       -12.3999
 236   2.0000      -0.451745       -12.2926
 237   2.0000      -0.451565       -12.2877
 238   2.0000      -0.451237       -12.2788
 239   2.0000      -0.449365       -12.2278
 240   2.0000      -0.447779       -12.1847
 241   2.0000      -0.444121       -12.0851
 242   2.0000      -0.443561       -12.0699
 243   2.0000      -0.442958       -12.0535
 244   2.0000      -0.441486       -12.0134
 245   2.0000      -0.440817       -11.9952
 246   2.0000      -0.439857       -11.9691
 247   2.0000      -0.439765       -11.9666
 248   2.0000      -0.437442       -11.9034
 249   2.0000      -0.435785       -11.8583
 250   2.0000      -0.434358       -11.8195
 251   2.0000      -0.433066       -11.7843
 252   2.0000      -0.429863       -11.6972
 253   2.0000      -0.429037       -11.6747
 254   2.0000      -0.428093       -11.6490
 255   2.0000      -0.427800       -11.6410
 256   2.0000      -0.427387       -11.6298
 257   2.0000      -0.422668       -11.5014
 258   2.0000      -0.419851       -11.4247
 259   2.0000      -0.418061       -11.3760
 260   2.0000      -0.417379       -11.3575
 261   2.0000      -0.411242       -11.1905
 262   2.0000      -0.408171       -11.1069
 263   2.0000      -0.406417       -11.0592
 264   2.0000      -0.404990       -11.0203
 265   2.0000      -0.390302       -10.6207
 266   2.0000      -0.389790       -10.6067
 267   2.0000      -0.384403       -10.4601
 268   2.0000      -0.380504       -10.3540
 269   2.0000      -0.374154       -10.1812
 270   2.0000      -0.371150       -10.0995
 271   2.0000      -0.361820        -9.8456
 272   2.0000      -0.359904        -9.7935
 273   2.0000      -0.352300        -9.5866
 274   2.0000      -0.352025        -9.5791
 275   2.0000      -0.344630        -9.3779
 276   2.0000      -0.342894        -9.3306
 277   2.0000      -0.336801        -9.1648
 278   2.0000      -0.327300        -8.9063
 279   2.0000      -0.324675        -8.8349
 280   2.0000      -0.317259        -8.6331
 281   2.0000      -0.315526        -8.5859
 282   2.0000      -0.312502        -8.5036
 283   2.0000      -0.297730        -8.1016
 284   2.0000      -0.296331        -8.0636
 285   2.0000      -0.278652        -7.5825
 286   2.0000      -0.254301        -6.9199
 287   0.0000      -0.120940        -3.2910
 288   0.0000      -0.110067        -2.9951
 289   0.0000      -0.093060        -2.5323
 290   0.0000      -0.088511        -2.4085
 291   0.0000      -0.084547        -2.3006

MULLIKEN ATOMIC CHARGES
-----------------------
   0 C :    0.321648
   1 C :   -0.349597
   2 C :   -0.186495
   3 N :    0.155316
   4 C :   -0.197658
   5 N :    0.153570
   6 C :    0.011674
   7 C :   -0.014599
   8 C :   -0.066194
   9 C :    0.111978
  10 C :   -0.096908
  11 C :   -0.020851
  12 S :    0.144694
  13 C :   -0.047759
  14 C :    0.024070
  15 C :    0.166508
  16 O :   -0.192906
  17 C :   -0.091492
  18 C :   -0.030730
  19 C :   -0.054372
  20 C :   -0.057429
  21 C :    0.045185
  22 C :   -0.071171
  23 S :    0.242505
  24 C :   -0.095750
  25 C :    0.036292
  26 C :    0.308359
  27 C :   -0.299783
  28 C :   -0.195311
  29 N :    0.186545
  30 C :   -0.186333
  31 N :    0.174759
  32 C :   -0.066107
  33 C :   -0.092521
  34 S :    0.177872
  35 C :    0.079788
  36 C :   -0.058438
  37 N :   -0.057277
  38 C :    0.025946
  39 C :   -0.000672
  40 C :    0.052304
  41 N :   -0.286606
  42 S :    0.565969
  43 N :   -0.257881
  44 C :   -0.117439
  45 C :   -0.045650
  46 C :    0.017190
  47 C :   -0.090390
  48 S :    0.243778
  49 C :   -0.080232
  50 C :    0.001324
  51 C :    0.306890
  52 C :   -0.295000
  53 C :   -0.188354
  54 N :    0.182000
  55 C :   -0.187408
  56 N :    0.172687
  57 C :   -0.005468
  58 C :   -0.112487
  59 S :    0.218939
  60 C :    0.079313
  61 C :   -0.126789
  62 C :    0.262406
  63 C :   -0.336773
  64 C :   -0.170431
  65 N :    0.161619
  66 C :   -0.197940
  67 N :    0.165310
  68 C :    0.000442
  69 C :    0.007472
  70 C :    0.129112
  71 O :   -0.144446
  72 C :   -0.069636
  73 C :    0.110974
  74 C :   -0.093132
  75 C :   -0.021620
  76 S :    0.144927
  77 C :   -0.048089
  78 C :    0.023480
  79 H :   -0.012082
  80 H :   -0.004622
  81 H :    0.039524
  82 H :   -0.006862
  83 H :    0.017398
  84 H :    0.027848
  85 H :    0.024400
  86 H :    0.011681
  87 H :    0.020915
  88 H :    0.025986
  89 H :    0.022410
  90 H :   -0.010397
  91 H :    0.003464
  92 H :    0.039243
  93 H :   -0.005626
Sum of atomic charges:   -0.0000000

LOEWDIN ATOMIC CHARGES
----------------------
   0 C :    0.076675
   1 C :   -0.141067
   2 C :   -0.018249
   3 N :   -0.052610
   4 C :   -0.023656
   5 N :   -0.047894
   6 C :   -0.021140
   7 C :   -0.054344
   8 C :    0.023511
   9 C :   -0.035709
  10 C :   -0.145318
  11 C :   -0.007662
  12 S :    0.433123
  13 C :   -0.148804
  14 C :   -0.057902
  15 C :    0.086468
  16 O :   -0.177451
  17 C :   -0.110395
  18 C :    0.055576
  19 C :   -0.183973
  20 C :    0.011892
  21 C :   -0.077131
  22 C :   -0.167777
  23 S :    0.547113
  24 C :   -0.183272
  25 C :   -0.056804
  26 C :    0.077331
  27 C :   -0.098452
  28 C :   -0.020088
  29 N :   -0.024190
  30 C :   -0.016933
  31 N :   -0.029250
  32 C :   -0.022446
  33 C :   -0.151434
  34 S :    0.479798
  35 C :   -0.070065
  36 C :    0.012295
  37 N :   -0.082906
  38 C :    0.000775
  39 C :   -0.061155
  40 C :   -0.029672
  41 N :   -0.276728
  42 S :    0.689003
  43 N :   -0.263426
  44 C :   -0.175264
  45 C :   -0.007194
  46 C :   -0.065741
  47 C :   -0.173670
  48 S :    0.518789
  49 C :   -0.163395
  50 C :   -0.061092
  51 C :    0.081342
  52 C :   -0.097724
  53 C :   -0.017857
  54 N :   -0.027173
  55 C :   -0.013248
  56 N :   -0.033244
  57 C :    0.005136
  58 C :   -0.178628
  59 S :    0.502592
  60 C :    0.040238
  61 C :   -0.086054
  62 C :    0.066060
  63 C :   -0.136618
  64 C :   -0.019370
  65 N :   -0.045360
  66 C :   -0.015813
  67 N :   -0.047992
  68 C :   -0.019169
  69 C :   -0.056276
  70 C :    0.083475
  71 O :   -0.144025
  72 C :    0.024440
  73 C :   -0.035213
  74 C :   -0.143904
  75 C :   -0.008057
  76 S :    0.433389
  77 C :   -0.148863
  78 C :   -0.057803
  79 H :    0.040093
  80 H :    0.041363
  81 H :    0.029771
  82 H :    0.035272
  83 H :    0.053756
  84 H :    0.048016
  85 H :    0.040152
  86 H :    0.019535
  87 H :    0.041912
  88 H :    0.042650
  89 H :    0.046144
  90 H :    0.040947
  91 H :    0.042793
  92 H :    0.029680
  93 H :    0.035541

  Mayer bond orders larger than 0.100000
B(  0-C ,  1-C ) :   1.6278 B(  0-C ,  6-C ) :   1.0008 B(  0-C , 17-C ) :   1.0729
B(  1-C ,  2-C ) :   1.1445 B(  1-C ,  4-C ) :   1.1440 B(  2-C ,  3-N ) :   2.9698
B(  4-C ,  5-N ) :   2.9654 B(  6-C ,  7-C ) :   1.2680 B(  6-C , 11-C ) :   1.4183
B(  7-C ,  8-C ) :   1.4217 B(  7-C , 15-C ) :   0.9683 B(  8-C ,  9-C ) :   1.2463
B(  8-C , 79-H ) :   1.0165 B(  9-C , 10-C ) :   1.3022 B(  9-C , 14-C ) :   1.1724
B( 10-C , 11-C ) :   1.3193 B( 10-C , 12-S ) :   1.1016 B( 11-C , 80-H ) :   0.9813
B( 12-S , 13-C ) :   1.1277 B( 13-C , 14-C ) :   1.6261 B( 13-C , 81-H ) :   0.9690
B( 14-C , 82-H ) :   0.9998 B( 15-C , 16-O ) :   2.1070 B( 15-C , 17-C ) :   0.9829
B( 17-C , 18-C ) :   1.4970 B( 18-C , 19-C ) :   1.2633 B( 18-C , 83-H ) :   0.9413
B( 19-C , 20-C ) :   1.3291 B( 19-C , 23-S ) :   1.0714 B( 20-C , 21-C ) :   1.3297
B( 20-C , 84-H ) :   1.0091 B( 21-C , 22-C ) :   1.3588 B( 21-C , 26-C ) :   0.9824
B( 22-C , 23-S ) :   1.1236 B( 22-C , 24-C ) :   1.2011 B( 24-C , 25-C ) :   1.4294
B( 24-C , 34-S ) :   1.1179 B( 25-C , 26-C ) :   0.9991 B( 25-C , 32-C ) :   1.2478
B( 26-C , 27-C ) :   1.7162 B( 27-C , 28-C ) :   1.1344 B( 27-C , 30-C ) :   1.1378
B( 28-C , 29-N ) :   2.9964 B( 30-C , 31-N ) :   2.9861 B( 32-C , 33-C ) :   1.4787
B( 32-C , 85-H ) :   0.9847 B( 33-C , 34-S ) :   1.1014 B( 33-C , 35-C ) :   1.1175
B( 35-C , 36-C ) :   1.4080 B( 35-C , 38-C ) :   0.1084 B( 35-C , 40-C ) :   1.2089
B( 36-C , 37-N ) :   1.4598 B( 36-C , 86-H ) :   0.9755 B( 37-N , 38-C ) :   1.6624
B( 38-C , 39-C ) :   1.1693 B( 38-C , 44-C ) :   1.1342 B( 39-C , 40-C ) :   1.1860
B( 39-C , 43-N ) :   1.5441 B( 40-C , 41-N ) :   1.5102 B( 41-N , 42-S ) :   1.2691
B( 41-N , 43-N ) :   0.1447 B( 42-S , 43-N ) :   1.2847 B( 44-C , 45-C ) :   1.4781
B( 44-C , 48-S ) :   1.0955 B( 45-C , 46-C ) :   1.2688 B( 45-C , 87-H ) :   0.9811
B( 46-C , 47-C ) :   1.4237 B( 46-C , 51-C ) :   0.9977 B( 47-C , 48-S ) :   1.1264
B( 47-C , 49-C ) :   1.1953 B( 49-C , 50-C ) :   1.4179 B( 49-C , 59-S ) :   1.1506
B( 50-C , 51-C ) :   0.9953 B( 50-C , 57-C ) :   1.3538 B( 51-C , 52-C ) :   1.7165
B( 52-C , 53-C ) :   1.1376 B( 52-C , 55-C ) :   1.1366 B( 53-C , 54-N ) :   2.9918
B( 55-C , 56-N ) :   2.9825 B( 57-C , 58-C ) :   1.4054 B( 57-C , 88-H ) :   0.9808
B( 58-C , 59-S ) :   1.0960 B( 58-C , 60-C ) :   1.1178 B( 60-C , 61-C ) :   1.6900
B( 60-C , 89-H ) :   0.9298 B( 61-C , 62-C ) :   1.0299 B( 61-C , 70-C ) :   0.9378
B( 62-C , 63-C ) :   1.6536 B( 62-C , 68-C ) :   1.0135 B( 63-C , 64-C ) :   1.1255
B( 63-C , 66-C ) :   1.1723 B( 64-C , 65-N ) :   2.9950 B( 66-C , 67-N ) :   2.9971
B( 68-C , 69-C ) :   1.2671 B( 68-C , 75-C ) :   1.4164 B( 69-C , 70-C ) :   0.9257
B( 69-C , 72-C ) :   1.4241 B( 70-C , 71-O ) :   2.2656 B( 72-C , 73-C ) :   1.2527
B( 72-C , 90-H ) :   1.0166 B( 73-C , 74-C ) :   1.3003 B( 73-C , 78-C ) :   1.1724
B( 74-C , 75-C ) :   1.3211 B( 74-C , 76-S ) :   1.0998 B( 75-C , 91-H ) :   0.9863
B( 76-S , 77-C ) :   1.1275 B( 77-C , 78-C ) :   1.6290 B( 77-C , 92-H ) :   0.9682
B( 78-C , 93-H ) :   1.0000

-----------------------------------------------------------------------------
         ABSORPTION SPECTRUM VIA TRANSITION ELECTRIC DIPOLE MOMENTS
-----------------------------------------------------------------------------
State   Energy  Wavelength   fosc         T2         TX        TY        TZ
        (cm-1)    (nm)                  (au**2)     (au)      (au)      (au)
-----------------------------------------------------------------------------
   0   13255.5    754.4   1.057302074  26.25905   4.33839  -2.19397   1.61984
   1   14552.2    687.2   0.032156087   0.72746   0.51779   0.55810   0.38455
   2   18172.4    550.3   1.207041036  21.86683   3.92780  -2.04934   1.49648
   3   21224.2    471.2   0.134406842   2.08480   0.61637   1.30422   0.06250
   4   21861.8    457.4   0.019414647   0.29236   0.52437  -0.07124   0.11101
   5   22527.1    443.9   0.448491212   6.55427  -2.00866  -0.15639  -1.57959
   6   24066.8    415.5   0.036867889   0.50432   0.42130   0.04002   0.57028
   7   25470.0    392.6   0.044211249   0.57145  -0.72998   0.17360   0.09186
   8   26181.1    382.0   0.006158113   0.07743   0.20609  -0.16635  -0.08538
   9   26886.7    371.9   0.107180522   1.31236  -0.04686   0.87763   0.73480
  10   27551.8    363.0   0.118744999   1.41887   0.73840   0.29863   0.88569
  11   27940.4    357.9   0.070696724   0.83299   0.66299   0.08157   0.62193
  12   28782.1    347.4   0.059426273   0.67972   0.17271   0.66214   0.45984
  13   28855.3    346.6   0.037847207   0.43180  -0.12833  -0.46102  -0.45032
  14   29005.9    344.8   0.060806048   0.69014  -0.57601   0.59516  -0.06433
  15   29260.6    341.8   0.184163735   2.07204  -0.01386  -1.11852  -0.90596
  16   29356.2    340.6   0.017285929   0.19385   0.34775   0.18958  -0.19231
  17   29684.1    336.9   0.167641868   1.85924  -1.18854   0.07172  -0.66442
  18   30004.6    333.3   0.117478879   1.28898   0.29852   0.92696   0.58362
  19   30137.9    331.8   0.212563247   2.32194  -1.36676   0.63806   0.21631
  20   30684.6    325.9   0.307168333   3.29557   1.58912  -0.43393   0.76288
  21   30809.7    324.6   0.000475081   0.00508  -0.00653   0.04519   0.05470
  22   30937.5    323.2   0.086790799   0.92356   0.79845  -0.53419  -0.02608
  23   30994.4    322.6   0.145949799   1.55023   0.05094  -1.14791  -0.47950
  24   31990.1    312.6   0.263559558   2.71231   1.23648  -0.04609   1.08688
  25   32082.2    311.7   0.315992897   3.24256   1.21862  -1.29175  -0.29815
  26   32155.6    311.0   0.411906010   4.21713   0.12224   1.52809   1.36643
  27   32634.0    306.4   0.072807246   0.73448   0.72247   0.26512   0.37713
  28   32985.0    303.2   0.289667223   2.89107   0.77998   0.81597   1.27157
  29   33259.2    300.7   0.177446064   1.75643   1.21828  -0.19019   0.48585
  30   33327.8    300.1   0.090261909   0.89161  -0.76070   0.55841   0.03346
  31   33604.7    297.6   0.098824804   0.96815  -0.91095   0.33957  -0.15171
  32   33683.3    296.9   0.046370956   0.45322  -0.43367   0.31368   0.40835
  33   33865.9    295.3   0.092418382   0.89840   0.90521  -0.17989   0.21598
  34   34090.1    293.3   0.281729027   2.72069  -0.17134  -1.32641  -0.96539
  35   34541.0    289.5   0.148411517   1.41452  -1.03178   0.55941  -0.19238
  36   34772.3    287.6   0.202843767   1.92046   1.02669  -0.80825  -0.46163
  37   34850.3    286.9   0.064295979   0.60737  -0.61918  -0.41596  -0.22573
  38   35196.1    284.1   0.328949597   3.07688  -0.02550   1.33153   1.14161
  39   35492.4    281.8   0.014016618   0.13001  -0.34384   0.10114   0.03942
  40   35652.1    280.5   0.032066828   0.29611   0.43295   0.08107   0.31951
  41   35971.6    278.0   0.107711975   0.98578   0.06216  -0.77452  -0.61808
  42   36235.2    276.0   0.123229096   1.11959   0.52068  -0.81531  -0.42866
  43   36459.1    274.3   0.074828282   0.67567   0.55035   0.16866   0.58680
  44   36590.9    273.3   0.028542291   0.25680   0.49958  -0.05275   0.06659
  45   37135.9    269.3   0.049841701   0.44185   0.49667   0.07169   0.43592
  46   37395.9    267.4   0.251792517   2.21664   1.37949  -0.51999   0.20799
  47   37509.9    266.6   0.009060790   0.07952   0.05554  -0.22753  -0.15707
  48   37607.0    265.9   0.019721717   0.17264   0.17092  -0.26188  -0.27358
  49   37822.2    264.4   0.029661684   0.25818  -0.21235   0.39350   0.24134
  50   37940.4    263.6   0.013607783   0.11808   0.28404   0.12226   0.14983
  51   38191.4    261.8   0.007850642   0.06767  -0.17201   0.10061   0.16722
  52   38262.2    261.4   0.000289469   0.00249   0.03640  -0.00036   0.03414
  53   38369.7    260.6   0.015529205   0.13324  -0.14994  -0.19965  -0.26627
  54   38393.9    260.5   0.077968573   0.66855  -0.54716   0.59980  -0.09695
  55   38644.5    258.8   0.004541479   0.03869  -0.13117   0.13650   0.05339
  56   38807.6    257.7   0.041237506   0.34983  -0.00332  -0.36680  -0.46397
  57   39009.2    256.4   0.034205500   0.28867   0.42903  -0.12940   0.29641
  58   39151.4    255.4   0.074719905   0.62830   0.55057   0.29624   0.48725
  59   39365.7    254.0   0.071431835   0.59738  -0.68316   0.32336  -0.16160
  60   39435.3    253.6   0.004182713   0.03492   0.11214  -0.04762   0.14168
  61   39845.0    251.0   0.081731098   0.67529  -0.40111   0.00593  -0.71719
  62   40078.5    249.5   0.086052152   0.70685  -0.46052   0.53768   0.45350
  63   40287.9    248.2   0.002446665   0.01999  -0.07422   0.07494  -0.09417

FINAL SINGLE POINT ENERGY     -5792.517496823276

DIPOLE MOMENT
-------------
                                X             Y             Z
Electronic contribution:      3.90160     -14.91575      -8.74492
Nuclear contribution   :     -6.13935      18.49480      12.24288
                        -----------------------------------------
Total Dipole Moment    :     -2.23774       3.57905       3.49796
                        -----------------------------------------
Magnitude (a.u.)       :      5.48204
Magnitude (Debye)      :     13.93425

Rotational constants in cm-1:     0.001744     0.000150     0.000139
Rotational constants in MHz :    52.296354     4.489651     4.176076

                             ****ORCA TERMINATED NORMALLY****
TOTAL RUN TIME: 0 days 0 hours 10 minutes 17 seconds 850 msec
