                         Program Version 4.2.0 -  RELEASE  -
|  1> # ORCA input file
|  2> # SCF done       -195.102378623368          0.000336490684
|  3> ! CAM-B3LYP def2-SVP def2/J RIJCOSX Grid4 TightSCF
|  4> %maxcore 5000
|  5> %tddft
|  6>     Mode sTDDFT
|  7>     Ethresh 5.0
|  8>     maxcore 5000
|  9> end
| 10>
| 11> %pal
| 12>   nprocs 6
| 13>   end
| 14> * xyz 0 1
| 15>    C       -4.41172         3.18925         5.09357
| 16>    C       -4.80871         1.95329         5.53791
| 17>    C       -4.57752         1.47266         6.84390
| 18>    N       -4.42176         1.02093         7.88798
| 19>    C       -5.49294         0.97796         4.78226
| 20>    N       -6.04714         0.12345         4.25081
| 21>    C       -3.69593         4.17944         5.89463
| 22>    C       -3.44234         5.31762         5.09009
| 23>    C       -2.78554         6.42874         5.55906
| 24>    C       -2.35638         6.41840         6.89051
| 25>    C       -2.61245         5.27777         7.68762
| 26>    C       -3.27693         4.15359         7.21143
| 27>    S       -1.99889         5.47483         9.30101
| 28>    C       -1.41469         7.06503         8.88872
| 29>    C       -1.66506         7.43167         7.60931
| 30>   Br       -0.53107         8.09151        10.18579
| 31>    C       -3.98993         5.08598         3.74147
| 32>    O       -3.93476         5.85760         2.79991
| 33>    C       -4.60470         3.75561         3.77397
| 34>    C       -5.27259         3.16060         2.73194
| 35>    C       -5.52355         3.62703         1.43821
| 36>    C       -6.28281         2.88325         0.51511
| 37>    C       -6.41625         3.50502        -0.73236
| 38>    O       -7.16511         3.05841        -1.76748
| 39>    C       -7.40189         1.66614        -1.78685
| 40>    C       -8.10070         1.18731        -0.52514
| 41>    S       -6.99152         1.33793         0.91623
| 42>    C       -5.74825         4.72813        -0.77878
| 43>    S       -5.01664         5.14297         0.73699
| 44>    C       -5.61164         5.60959        -1.89638
| 45>    C       -5.53060         5.17571        -3.23522
| 46>    C       -5.47148         6.10040        -4.33616
| 47>    N       -5.37861         5.61926        -5.59113
| 48>    C       -5.33234         4.34187        -5.79059
| 49>    C       -5.34001         3.43709        -4.69802
| 50>    N       -5.42905         3.85109        -3.47991
| 51>    F       -5.22881         2.12350        -4.89787
| 52>    F       -5.24751         3.90794        -7.04534
| 53>    C       -5.43360         7.50055        -4.14971
| 54>    C       -5.36046         7.92098        -2.80186
| 55>    C       -5.46672         6.99744        -1.70084
| 56>    N       -5.41596         7.62522        -0.52512
| 57>    S       -5.22690         9.19366        -0.77102
| 58>    N       -5.21753         9.17588        -2.37624
| 59>    C       -5.42395         8.46272        -5.19994
| 60>    C       -5.85063         8.37050        -6.52599
| 61>    C       -5.70344         9.58239        -7.23531
| 62>    O       -5.96134         9.80754        -8.53720
| 63>    C       -6.45527         8.73239        -9.31676
| 64>    C       -7.49186         7.92308        -8.56431
| 65>    S       -6.63696         6.98626        -7.24419
| 66>    C       -5.17264        10.61591        -6.45623
| 67>    S       -4.84614        10.05851        -4.84016
| 68>    C       -4.82130        11.93504        -6.79641
| 69>    C       -5.17901        12.72877        -7.85001
| 70>    C       -6.22077        12.65605        -8.83881
| 71>    C       -7.43053        12.01959        -8.70282
| 72>    C       -8.40595        11.94591        -9.71468
| 73>    N       -9.21747        11.80451       -10.51518
| 74>    C       -7.85069        11.39691        -7.51405
| 75>    N       -8.23388        10.87775        -6.56371
| 76>    C       -5.86491        13.56601        -9.92402
| 77>    C       -4.74330        14.33404        -9.52237
| 78>    C       -4.31241        13.89522        -8.17946
| 79>    O       -3.42259        14.35249        -7.50016
| 80>    C       -4.19564        15.31118       -10.31679
| 81>    C       -4.77520        15.53392       -11.57093
| 82>    C       -5.88849        14.75523       -11.96625
| 83>    C       -6.44907        13.77258       -11.15817
| 84>    S       -6.44218        15.19194       -13.55386
| 85>    C       -5.18994        16.40089       -13.66296
| 86>    C       -4.39640        16.47406       -12.56835
| 87>   Br       -5.04946        17.44986       -15.21123
| 88>    H       -2.60895         7.27920         4.91952
| 89>    H       -3.44721         3.31171         7.86103
| 90>    H       -1.37530         8.37710         7.18847
| 91>    H       -5.68645         2.17526         2.91633
| 92>    H       -6.45595         1.12749        -1.92567
| 93>    H       -8.03860         1.49924        -2.65902
| 94>    H       -8.36237         0.13395        -0.59513
| 95>    H       -8.99417         1.78082        -0.33035
| 96>    H       -5.62353         8.08431        -9.62182
| 97>    H       -6.88529         9.20437       -10.20541
| 98>    H       -7.95641         7.18353        -9.21081
| 99>    H       -8.25144         8.56738        -8.12191
|100>    H       -4.08510        12.38669        -6.13635
|101>    H       -3.34708        15.88730        -9.98280
|102>    H       -7.29682        13.20333       -11.50231
|103>    H       -3.57693        17.16176       -12.46629
|104> *
|105>
|106>                          ****END OF INPUT****

CARTESIAN COORDINATES (ANGSTROEM)
---------------------------------
  C     -4.411720    3.189250    5.093570
  C     -4.808710    1.953290    5.537910
  C     -4.577520    1.472660    6.843900
  N     -4.421760    1.020930    7.887980
  C     -5.492940    0.977960    4.782260
  N     -6.047140    0.123450    4.250810
  C     -3.695930    4.179440    5.894630
  C     -3.442340    5.317620    5.090090
  C     -2.785540    6.428740    5.559060
  C     -2.356380    6.418400    6.890510
  C     -2.612450    5.277770    7.687620
  C     -3.276930    4.153590    7.211430
  S     -1.998890    5.474830    9.301010
  C     -1.414690    7.065030    8.888720
  C     -1.665060    7.431670    7.609310
  Br    -0.531070    8.091510   10.185790
  C     -3.989930    5.085980    3.741470
  O     -3.934760    5.857600    2.799910
  C     -4.604700    3.755610    3.773970
  C     -5.272590    3.160600    2.731940
  C     -5.523550    3.627030    1.438210
  C     -6.282810    2.883250    0.515110
  C     -6.416250    3.505020   -0.732360
  O     -7.165110    3.058410   -1.767480
  C     -7.401890    1.666140   -1.786850
  C     -8.100700    1.187310   -0.525140
  S     -6.991520    1.337930    0.916230
  C     -5.748250    4.728130   -0.778780
  S     -5.016640    5.142970    0.736990
  C     -5.611640    5.609590   -1.896380
  C     -5.530600    5.175710   -3.235220
  C     -5.471480    6.100400   -4.336160
  N     -5.378610    5.619260   -5.591130
  C     -5.332340    4.341870   -5.790590
  C     -5.340010    3.437090   -4.698020
  N     -5.429050    3.851090   -3.479910
  F     -5.228810    2.123500   -4.897870
  F     -5.247510    3.907940   -7.045340
  C     -5.433600    7.500550   -4.149710
  C     -5.360460    7.920980   -2.801860
  C     -5.466720    6.997440   -1.700840
  N     -5.415960    7.625220   -0.525120
  S     -5.226900    9.193660   -0.771020
  N     -5.217530    9.175880   -2.376240
  C     -5.423950    8.462720   -5.199940
  C     -5.850630    8.370500   -6.525990
  C     -5.703440    9.582390   -7.235310
  O     -5.961340    9.807540   -8.537200
  C     -6.455270    8.732390   -9.316760
  C     -7.491860    7.923080   -8.564310
  S     -6.636960    6.986260   -7.244190
  C     -5.172640   10.615910   -6.456230
  S     -4.846140   10.058510   -4.840160
  C     -4.821300   11.935040   -6.796410
  C     -5.179010   12.728770   -7.850010
  C     -6.220770   12.656050   -8.838810
  C     -7.430530   12.019590   -8.702820
  C     -8.405950   11.945910   -9.714680
  N     -9.217470   11.804510  -10.515180
  C     -7.850690   11.396910   -7.514050
  N     -8.233880   10.877750   -6.563710
  C     -5.864910   13.566010   -9.924020
  C     -4.743300   14.334040   -9.522370
  C     -4.312410   13.895220   -8.179460
  O     -3.422590   14.352490   -7.500160
  C     -4.195640   15.311180  -10.316790
  C     -4.775200   15.533920  -11.570930
  C     -5.888490   14.755230  -11.966250
  C     -6.449070   13.772580  -11.158170
  S     -6.442180   15.191940  -13.553860
  C     -5.189940   16.400890  -13.662960
  C     -4.396400   16.474060  -12.568350
  Br    -5.049460   17.449860  -15.211230
  H     -2.608950    7.279200    4.919520
  H     -3.447210    3.311710    7.861030
  H     -1.375300    8.377100    7.188470
  H     -5.686450    2.175260    2.916330
  H     -6.455950    1.127490   -1.925670
  H     -8.038600    1.499240   -2.659020
  H     -8.362370    0.133950   -0.595130
  H     -8.994170    1.780820   -0.330350
  H     -5.623530    8.084310   -9.621820
  H     -6.885290    9.204370  -10.205410
  H     -7.956410    7.183530   -9.210810
  H     -8.251440    8.567380   -8.121910
  H     -4.085100   12.386690   -6.136350
  H     -3.347080   15.887300   -9.982800
  H     -7.296820   13.203330  -11.502310
  H     -3.576930   17.161760  -12.466290

 Total Charge           Charge          ....    0
 Multiplicity           Mult            ....    1
 Number of Electrons    NEL             ....  604
 Basis Dimension        Dim             .... 1166

ORBITAL ENERGIES
----------------

  NO   OCC          E(Eh)            E(eV)
   0   2.0000    -482.884811    -13139.9637
   1   2.0000    -482.882831    -13139.9099
   2   2.0000     -89.045569     -2423.0531
   3   2.0000     -88.974276     -2421.1131
   4   2.0000     -88.972428     -2421.0628
   5   2.0000     -88.961938     -2420.7774
   6   2.0000     -88.961407     -2420.7630
   7   2.0000     -88.944178     -2420.2941
   8   2.0000     -88.938114     -2420.1291
   9   2.0000     -62.562510     -1702.4125
  10   2.0000     -62.560568     -1702.3596
  11   2.0000     -56.396457     -1534.6256
  12   2.0000     -56.394512     -1534.5727
  13   2.0000     -56.393748     -1534.5519
  14   2.0000     -56.393713     -1534.5509
  15   2.0000     -56.391809     -1534.4991
  16   2.0000     -56.391767     -1534.4980
  17   2.0000     -24.819071      -675.3613
  18   2.0000     -24.816846      -675.3007
  19   2.0000     -19.274866      -524.4958
  20   2.0000     -19.258060      -524.0384
  21   2.0000     -19.218806      -522.9703
  22   2.0000     -19.210142      -522.7345
  23   2.0000     -14.458882      -393.4462
  24   2.0000     -14.453870      -393.3098
  25   2.0000     -14.453273      -393.2936
  26   2.0000     -14.452802      -393.2807
  27   2.0000     -14.413819      -392.2200
  28   2.0000     -14.413037      -392.1987
  29   2.0000     -14.410977      -392.1426
  30   2.0000     -14.409813      -392.1110
  31   2.0000     -10.433512      -283.9103
  32   2.0000     -10.430550      -283.8297
  33   2.0000     -10.366576      -282.0889
  34   2.0000     -10.360063      -281.9116
  35   2.0000     -10.360029      -281.9107
  36   2.0000     -10.357688      -281.8470
  37   2.0000     -10.355006      -281.7740
  38   2.0000     -10.352030      -281.6931
  39   2.0000     -10.349058      -281.6122
  40   2.0000     -10.348136      -281.5871
  41   2.0000     -10.343561      -281.4626
  42   2.0000     -10.342726      -281.4399
  43   2.0000     -10.342613      -281.4368
  44   2.0000     -10.342536      -281.4347
  45   2.0000     -10.338367      -281.3213
  46   2.0000     -10.337576      -281.2997
  47   2.0000     -10.334488      -281.2157
  48   2.0000     -10.331347      -281.1302
  49   2.0000     -10.327732      -281.0319
  50   2.0000     -10.323874      -280.9269
  51   2.0000     -10.323757      -280.9237
  52   2.0000     -10.321910      -280.8734
  53   2.0000     -10.320096      -280.8241
  54   2.0000     -10.319814      -280.8164
  55   2.0000     -10.319507      -280.8081
  56   2.0000     -10.318802      -280.7889
  57   2.0000     -10.317028      -280.7406
  58   2.0000     -10.315516      -280.6995
  59   2.0000     -10.314916      -280.6831
  60   2.0000     -10.314369      -280.6683
  61   2.0000     -10.314280      -280.6658
  62   2.0000     -10.314174      -280.6629
  63   2.0000     -10.313633      -280.6482
  64   2.0000     -10.312337      -280.6129
  65   2.0000     -10.308448      -280.5071
  66   2.0000     -10.305962      -280.4395
  67   2.0000     -10.305875      -280.4371
  68   2.0000     -10.303350      -280.3684
  69   2.0000     -10.303335      -280.3680
  70   2.0000     -10.302636      -280.3490
  71   2.0000     -10.300615      -280.2940
  72   2.0000     -10.299906      -280.2747
  73   2.0000     -10.299759      -280.2707
  74   2.0000     -10.297251      -280.2024
  75   2.0000     -10.295646      -280.1588
  76   2.0000     -10.293960      -280.1129
  77   2.0000     -10.293444      -280.0989
  78   2.0000     -10.290462      -280.0177
  79   2.0000     -10.289964      -280.0042
  80   2.0000     -10.287176      -279.9283
  81   2.0000      -8.791932      -239.2406
  82   2.0000      -8.790010      -239.1883
  83   2.0000      -8.136749      -221.4122
  84   2.0000      -8.070240      -219.6024
  85   2.0000      -8.068325      -219.5503
  86   2.0000      -8.056653      -219.2327
  87   2.0000      -8.054118      -219.1637
  88   2.0000      -8.039493      -218.7657
  89   2.0000      -8.032141      -218.5657
  90   2.0000      -6.628219      -180.3630
  91   2.0000      -6.626293      -180.3106
  92   2.0000      -6.613673      -179.9672
  93   2.0000      -6.613476      -179.9618
  94   2.0000      -6.611727      -179.9142
  95   2.0000      -6.611583      -179.9103
  96   2.0000      -6.107785      -166.2013
  97   2.0000      -6.100039      -165.9905
  98   2.0000      -6.099583      -165.9781
  99   2.0000      -6.039922      -164.3546
 100   2.0000      -6.038014      -164.3027
 101   2.0000      -6.035651      -164.2384
 102   2.0000      -6.033748      -164.1866
 103   2.0000      -6.031488      -164.1251
 104   2.0000      -6.029600      -164.0737
 105   2.0000      -6.026145      -163.9798
 106   2.0000      -6.023637      -163.9115
 107   2.0000      -6.021967      -163.8660
 108   2.0000      -6.019228      -163.7915
 109   2.0000      -6.018243      -163.7647
 110   2.0000      -6.015885      -163.7005
 111   2.0000      -6.009778      -163.5344
 112   2.0000      -6.005813      -163.4265
 113   2.0000      -6.002545      -163.3376
 114   2.0000      -5.999228      -163.2473
 115   2.0000      -5.998547      -163.2288
 116   2.0000      -5.991685      -163.0420
 117   2.0000      -2.744106       -74.6709
 118   2.0000      -2.742167       -74.6181
 119   2.0000      -2.739985       -74.5588
 120   2.0000      -2.739879       -74.5559
 121   2.0000      -2.738098       -74.5074
 122   2.0000      -2.737932       -74.5029
 123   2.0000      -2.728297       -74.2407
 124   2.0000      -2.728283       -74.2404
 125   2.0000      -2.726386       -74.1887
 126   2.0000      -2.726373       -74.1884
 127   2.0000      -1.345542       -36.6141
 128   2.0000      -1.331319       -36.2270
 129   2.0000      -1.183276       -32.1986
 130   2.0000      -1.170062       -31.8390
 131   2.0000      -1.144318       -31.1385
 132   2.0000      -1.134045       -30.8589
 133   2.0000      -1.125361       -30.6226
 134   2.0000      -1.116500       -30.3815
 135   2.0000      -1.041901       -28.3516
 136   2.0000      -1.020946       -27.7813
 137   2.0000      -1.018413       -27.7124
 138   2.0000      -1.011064       -27.5125
 139   2.0000      -1.010243       -27.4901
 140   2.0000      -1.008236       -27.4355
 141   2.0000      -1.002731       -27.2857
 142   2.0000      -0.991972       -26.9929
 143   2.0000      -0.990785       -26.9606
 144   2.0000      -0.989311       -26.9205
 145   2.0000      -0.986509       -26.8443
 146   2.0000      -0.984279       -26.7836
 147   2.0000      -0.971860       -26.4457
 148   2.0000      -0.940907       -25.6034
 149   2.0000      -0.939267       -25.5588
 150   2.0000      -0.929210       -25.2851
 151   2.0000      -0.924950       -25.1692
 152   2.0000      -0.906658       -24.6714
 153   2.0000      -0.904564       -24.6144
 154   2.0000      -0.903767       -24.5928
 155   2.0000      -0.896889       -24.4056
 156   2.0000      -0.888618       -24.1805
 157   2.0000      -0.887136       -24.1402
 158   2.0000      -0.884082       -24.0571
 159   2.0000      -0.881594       -23.9894
 160   2.0000      -0.868581       -23.6353
 161   2.0000      -0.867008       -23.5925
 162   2.0000      -0.863900       -23.5079
 163   2.0000      -0.853568       -23.2268
 164   2.0000      -0.828467       -22.5437
 165   2.0000      -0.826562       -22.4919
 166   2.0000      -0.824131       -22.4257
 167   2.0000      -0.813048       -22.1242
 168   2.0000      -0.807130       -21.9631
 169   2.0000      -0.781762       -21.2728
 170   2.0000      -0.778183       -21.1754
 171   2.0000      -0.770717       -20.9723
 172   2.0000      -0.768179       -20.9032
 173   2.0000      -0.765747       -20.8370
 174   2.0000      -0.759378       -20.6637
 175   2.0000      -0.756139       -20.5756
 176   2.0000      -0.751657       -20.4536
 177   2.0000      -0.740418       -20.1478
 178   2.0000      -0.723258       -19.6808
 179   2.0000      -0.720136       -19.5959
 180   2.0000      -0.707062       -19.2401
 181   2.0000      -0.695935       -18.9374
 182   2.0000      -0.691417       -18.8144
 183   2.0000      -0.688918       -18.7464
 184   2.0000      -0.683597       -18.6016
 185   2.0000      -0.679537       -18.4911
 186   2.0000      -0.677325       -18.4310
 187   2.0000      -0.670146       -18.2356
 188   2.0000      -0.663570       -18.0566
 189   2.0000      -0.659340       -17.9416
 190   2.0000      -0.656012       -17.8510
 191   2.0000      -0.649368       -17.6702
 192   2.0000      -0.646409       -17.5897
 193   2.0000      -0.637390       -17.3443
 194   2.0000      -0.633747       -17.2451
 195   2.0000      -0.629190       -17.1211
 196   2.0000      -0.623025       -16.9534
 197   2.0000      -0.620622       -16.8880
 198   2.0000      -0.619840       -16.8667
 199   2.0000      -0.615551       -16.7500
 200   2.0000      -0.608242       -16.5511
 201   2.0000      -0.602373       -16.3914
 202   2.0000      -0.598030       -16.2732
 203   2.0000      -0.592060       -16.1108
 204   2.0000      -0.587222       -15.9791
 205   2.0000      -0.583612       -15.8809
 206   2.0000      -0.581836       -15.8326
 207   2.0000      -0.578126       -15.7316
 208   2.0000      -0.573790       -15.6136
 209   2.0000      -0.572963       -15.5911
 210   2.0000      -0.569697       -15.5023
 211   2.0000      -0.568533       -15.4706
 212   2.0000      -0.559212       -15.2169
 213   2.0000      -0.553633       -15.0651
 214   2.0000      -0.546729       -14.8773
 215   2.0000      -0.545754       -14.8507
 216   2.0000      -0.545013       -14.8305
 217   2.0000      -0.540257       -14.7011
 218   2.0000      -0.539278       -14.6745
 219   2.0000      -0.535586       -14.5740
 220   2.0000      -0.534122       -14.5342
 221   2.0000      -0.531405       -14.4603
 222   2.0000      -0.528225       -14.3737
 223   2.0000      -0.524165       -14.2633
 224   2.0000      -0.521686       -14.1958
 225   2.0000      -0.519077       -14.1248
 226   2.0000      -0.518316       -14.1041
 227   2.0000      -0.515692       -14.0327
 228   2.0000      -0.514898       -14.0111
 229   2.0000      -0.513345       -13.9688
 230   2.0000      -0.509090       -13.8530
 231   2.0000      -0.508463       -13.8360
 232   2.0000      -0.505491       -13.7551
 233   2.0000      -0.503317       -13.6959
 234   2.0000      -0.500956       -13.6317
 235   2.0000      -0.498077       -13.5534
 236   2.0000      -0.496193       -13.5021
 237   2.0000      -0.494964       -13.4686
 238   2.0000      -0.492876       -13.4118
 239   2.0000      -0.489885       -13.3305
 240   2.0000      -0.487884       -13.2760
 241   2.0000      -0.484971       -13.1967
 242   2.0000      -0.484295       -13.1783
 243   2.0000      -0.477330       -12.9888
 244   2.0000      -0.472490       -12.8571
 245   2.0000      -0.471290       -12.8245
 246   2.0000      -0.466412       -12.6917
 247   2.0000      -0.461226       -12.5506
 248   2.0000      -0.457626       -12.4526
 249   2.0000      -0.455868       -12.4048
 250   2.0000      -0.454833       -12.3766
 251   2.0000      -0.453113       -12.3298
 252   2.0000      -0.447356       -12.1732
 253   2.0000      -0.446928       -12.1615
 254   2.0000      -0.445612       -12.1257
 255   2.0000      -0.444756       -12.1024
 256   2.0000      -0.443343       -12.0640
 257   2.0000      -0.440688       -11.9917
 258   2.0000      -0.440402       -11.9840
 259   2.0000      -0.438059       -11.9202
 260   2.0000      -0.437472       -11.9042
 261   2.0000      -0.435507       -11.8508
 262   2.0000      -0.432866       -11.7789
 263   2.0000      -0.430845       -11.7239
 264   2.0000      -0.426131       -11.5956
 265   2.0000      -0.424155       -11.5419
 266   2.0000      -0.423007       -11.5106
 267   2.0000      -0.420615       -11.4455
 268   2.0000      -0.419273       -11.4090
 269   2.0000      -0.417155       -11.3514
 270   2.0000      -0.410876       -11.1805
 271   2.0000      -0.410045       -11.1579
 272   2.0000      -0.406646       -11.0654
 273   2.0000      -0.405501       -11.0342
 274   2.0000      -0.404701       -11.0125
 275   2.0000      -0.395922       -10.7736
 276   2.0000      -0.394658       -10.7392
 277   2.0000      -0.388736       -10.5781
 278   2.0000      -0.386509       -10.5175
 279   2.0000      -0.382588       -10.4107
 280   2.0000      -0.380056       -10.3418
 281   2.0000      -0.376804       -10.2534
 282   2.0000      -0.374173       -10.1818
 283   2.0000      -0.372400       -10.1335
 284   2.0000      -0.367314        -9.9951
 285   2.0000      -0.365027        -9.9329
 286   2.0000      -0.355383        -9.6705
 287   2.0000      -0.351423        -9.5627
 288   2.0000      -0.345258        -9.3949
 289   2.0000      -0.342815        -9.3285
 290   2.0000      -0.339351        -9.2342
 291   2.0000      -0.333610        -9.0780
 292   2.0000      -0.329246        -8.9592
 293   2.0000      -0.316980        -8.6255
 294   2.0000      -0.314099        -8.5471
 295   2.0000      -0.311189        -8.4679
 296   2.0000      -0.293069        -7.9748
 297   2.0000      -0.290460        -7.9038
 298   2.0000      -0.286268        -7.7897
 299   2.0000      -0.279123        -7.5953
 300   2.0000      -0.274080        -7.4581
 301   2.0000      -0.247364        -6.7311
 302   0.0000      -0.120796        -3.2870
 303   0.0000      -0.083608        -2.2751
 304   0.0000      -0.074317        -2.0223
 305   0.0000      -0.057570        -1.5666
 306   0.0000      -0.052419        -1.4264

MULLIKEN ATOMIC CHARGES
-----------------------
   0 C :    0.329891
   1 C :   -0.359674
   2 C :   -0.187168
   3 N :    0.146777
   4 C :   -0.192371
   5 N :    0.149890
   6 C :    0.010639
   7 C :   -0.008308
   8 C :   -0.077827
   9 C :    0.121903
  10 C :   -0.091084
  11 C :   -0.024708
  12 S :    0.186521
  13 C :   -0.123475
  14 C :    0.037390
  15 Br:    0.022387
  16 C :    0.156709
  17 O :   -0.177383
  18 C :   -0.095687
  19 C :   -0.047328
  20 C :   -0.087407
  21 C :   -0.064325
  22 C :    0.230203
  23 O :   -0.296735
  24 C :    0.217911
  25 C :   -0.079446
  26 S :    0.034504
  27 C :   -0.237729
  28 S :    0.244575
  29 C :    0.144863
  30 C :   -0.085639
  31 C :   -0.048209
  32 N :   -0.047574
  33 C :    0.171286
  34 C :    0.133414
  35 N :    0.036648
  36 F :   -0.149206
  37 F :   -0.140328
  38 C :    0.172251
  39 C :   -0.017920
  40 C :   -0.014820
  41 N :   -0.274183
  42 S :    0.558692
  43 N :   -0.312415
  44 C :   -0.225578
  45 C :   -0.009608
  46 C :    0.177855
  47 O :   -0.292783
  48 C :    0.228561
  49 C :   -0.107099
  50 S :    0.042799
  51 C :   -0.129239
  52 S :    0.192552
  53 C :    0.065451
  54 C :   -0.126856
  55 C :    0.299696
  56 C :   -0.338433
  57 C :   -0.192316
  58 N :    0.142376
  59 C :   -0.192038
  60 N :    0.149394
  61 C :    0.016142
  62 C :   -0.002861
  63 C :    0.130888
  64 O :   -0.147120
  65 C :   -0.071615
  66 C :    0.113821
  67 C :   -0.088011
  68 C :   -0.033583
  69 S :    0.179998
  70 C :   -0.124997
  71 C :    0.038250
  72 Br:    0.019331
  73 H :   -0.012850
  74 H :   -0.006960
  75 H :   -0.004924
  76 H :    0.021955
  77 H :    0.036072
  78 H :    0.032051
  79 H :    0.066832
  80 H :    0.074498
  81 H :    0.036578
  82 H :    0.041234
  83 H :    0.058057
  84 H :    0.079975
  85 H :    0.020910
  86 H :   -0.011491
  87 H :   -0.009181
  88 H :   -0.003235
Sum of atomic charges:   -0.0000000

LOEWDIN ATOMIC CHARGES
----------------------
   0 C :    0.075805
   1 C :   -0.144768
   2 C :   -0.017682
   3 N :   -0.057941
   4 C :   -0.024709
   5 N :   -0.051734
   6 C :   -0.019720
   7 C :   -0.049973
   8 C :    0.020067
   9 C :   -0.033817
  10 C :   -0.144385
  11 C :   -0.010183
  12 S :    0.432843
  13 C :   -0.272344
  14 C :   -0.070780
  15 Br:    0.135834
  16 C :    0.083217
  17 O :   -0.165152
  18 C :   -0.108896
  19 C :    0.050773
  20 C :   -0.208764
  21 C :   -0.188221
  22 C :   -0.002395
  23 O :   -0.090585
  24 C :    0.073045
  25 C :   -0.137939
  26 S :    0.331681
  27 C :   -0.178453
  28 S :    0.543225
  29 C :   -0.038524
  30 C :   -0.004339
  31 C :   -0.007545
  32 N :   -0.052520
  33 C :    0.062678
  34 C :    0.054444
  35 N :   -0.023896
  36 F :   -0.035741
  37 F :   -0.027262
  38 C :   -0.042073
  39 C :   -0.046969
  40 C :   -0.046398
  41 N :   -0.284333
  42 S :    0.685456
  43 N :   -0.298198
  44 C :   -0.164761
  45 C :   -0.201326
  46 C :    0.025642
  47 O :   -0.061060
  48 C :    0.073366
  49 C :   -0.155480
  50 S :    0.345020
  51 C :   -0.206410
  52 S :    0.496635
  53 C :    0.045302
  54 C :   -0.094264
  55 C :    0.066825
  56 C :   -0.143521
  57 C :   -0.022144
  58 N :   -0.065103
  59 C :   -0.017000
  60 N :   -0.063516
  61 C :   -0.014310
  62 C :   -0.054744
  63 C :    0.084146
  64 O :   -0.144973
  65 C :    0.022692
  66 C :   -0.037054
  67 C :   -0.143561
  68 C :   -0.018772
  69 S :    0.428201
  70 C :   -0.274787
  71 C :   -0.069869
  72 Br:    0.133214
  73 H :    0.039889
  74 H :    0.041003
  75 H :    0.038208
  76 H :    0.040868
  77 H :    0.021899
  78 H :    0.031276
  79 H :    0.039283
  80 H :    0.031926
  81 H :    0.021329
  82 H :    0.030722
  83 H :    0.036193
  84 H :    0.032827
  85 H :    0.045301
  86 H :    0.040555
  87 H :    0.038982
  88 H :    0.038526

  Mayer bond orders larger than 0.100000
B(  0-C ,  1-C ) :   1.6130 B(  0-C ,  6-C ) :   0.9937 B(  0-C , 18-C ) :   1.0872
B(  1-C ,  2-C ) :   1.1493 B(  1-C ,  4-C ) :   1.1466 B(  2-C ,  3-N ) :   2.9650
B(  4-C ,  5-N ) :   2.9632 B(  6-C ,  7-C ) :   1.2763 B(  6-C , 11-C ) :   1.4154
B(  7-C ,  8-C ) :   1.4242 B(  7-C , 16-C ) :   0.9552 B(  8-C ,  9-C ) :   1.2410
B(  8-C , 73-H ) :   1.0170 B(  9-C , 10-C ) :   1.3084 B(  9-C , 14-C ) :   1.1615
B( 10-C , 11-C ) :   1.3265 B( 10-C , 12-S ) :   1.0871 B( 11-C , 74-H ) :   0.9788
B( 12-S , 13-C ) :   1.0872 B( 13-C , 14-C ) :   1.6188 B( 13-C , 15-Br) :   1.0183
B( 14-C , 75-H ) :   1.0004 B( 16-C , 17-O ) :   2.1358 B( 16-C , 18-C ) :   0.9750
B( 18-C , 19-C ) :   1.5168 B( 19-C , 20-C ) :   1.2866 B( 19-C , 76-H ) :   0.9310
B( 20-C , 21-C ) :   1.3901 B( 20-C , 27-C ) :   0.1149 B( 20-C , 28-S ) :   1.0775
B( 21-C , 22-C ) :   1.2987 B( 21-C , 26-S ) :   1.0416 B( 22-C , 23-O ) :   1.1700
B( 22-C , 27-C ) :   1.4264 B( 23-O , 24-C ) :   0.9522 B( 24-C , 25-C ) :   1.0486
B( 24-C , 77-H ) :   0.9477 B( 24-C , 78-H ) :   0.9519 B( 25-C , 26-S ) :   1.0008
B( 25-C , 79-H ) :   0.9476 B( 25-C , 80-H ) :   0.9435 B( 27-C , 28-S ) :   1.1256
B( 27-C , 29-C ) :   1.0875 B( 29-C , 30-C ) :   1.3388 B( 29-C , 38-C ) :   0.1253
B( 29-C , 40-C ) :   1.2160 B( 30-C , 31-C ) :   1.0933 B( 30-C , 35-N ) :   1.4223
B( 31-C , 32-N ) :   1.3812 B( 31-C , 38-C ) :   1.3108 B( 32-N , 33-C ) :   1.6266
B( 33-C , 34-C ) :   1.1058 B( 33-C , 37-F ) :   1.1776 B( 34-C , 35-N ) :   1.6898
B( 34-C , 36-F ) :   1.1599 B( 38-C , 39-C ) :   1.2041 B( 38-C , 44-C ) :   1.1447
B( 39-C , 40-C ) :   1.1225 B( 39-C , 43-N ) :   1.4790 B( 40-C , 41-N ) :   1.5052
B( 41-N , 42-S ) :   1.2915 B( 41-N , 43-N ) :   0.1527 B( 42-S , 43-N ) :   1.2753
B( 44-C , 45-C ) :   1.4859 B( 44-C , 51-C ) :   0.1081 B( 44-C , 52-S ) :   1.1582
B( 45-C , 46-C ) :   1.2621 B( 45-C , 50-S ) :   1.0120 B( 46-C , 47-O ) :   1.1888
B( 46-C , 51-C ) :   1.4207 B( 47-O , 48-C ) :   0.9168 B( 48-C , 49-C ) :   1.0444
B( 48-C , 81-H ) :   0.9533 B( 48-C , 82-H ) :   0.9486 B( 49-C , 50-S ) :   0.9740
B( 49-C , 83-H ) :   0.9465 B( 49-C , 84-H ) :   0.9370 B( 51-C , 52-S ) :   1.0685
B( 51-C , 53-C ) :   1.1756 B( 53-C , 54-C ) :   1.6136 B( 53-C , 85-H ) :   0.9229
B( 54-C , 55-C ) :   1.0819 B( 54-C , 63-C ) :   0.9445 B( 55-C , 56-C ) :   1.6061
B( 55-C , 61-C ) :   1.0125 B( 56-C , 57-C ) :   1.1413 B( 56-C , 59-C ) :   1.1876
B( 57-C , 58-N ) :   2.9703 B( 59-C , 60-N ) :   2.9394 B( 61-C , 62-C ) :   1.2746
B( 61-C , 68-C ) :   1.4168 B( 62-C , 63-C ) :   0.9196 B( 62-C , 65-C ) :   1.4285
B( 63-C , 64-O ) :   2.2592 B( 65-C , 66-C ) :   1.2461 B( 65-C , 86-H ) :   1.0173
B( 66-C , 67-C ) :   1.3138 B( 66-C , 71-C ) :   1.1610 B( 67-C , 68-C ) :   1.3197
B( 67-C , 69-S ) :   1.0851 B( 68-C , 87-H ) :   0.9841 B( 69-S , 70-C ) :   1.0840
B( 70-C , 71-C ) :   1.6222 B( 70-C , 72-Br) :   1.0159 B( 71-C , 88-H ) :   1.0004

-----------------------------------------------------------------------------
         ABSORPTION SPECTRUM VIA TRANSITION ELECTRIC DIPOLE MOMENTS
-----------------------------------------------------------------------------
State   Energy  Wavelength   fosc         T2         TX        TY        TZ
        (cm-1)    (nm)                  (au**2)     (au)      (au)      (au)
-----------------------------------------------------------------------------
   0   11906.3    839.9   1.059539606  29.29652   0.53205  -2.87820   4.55296
   1   17169.7    582.4   0.022703007   0.43531   0.09668  -0.29162   0.58388
   2   17815.9    561.3   0.066484462   1.22854  -0.44155  -1.01664   0.00464
   3   19929.6    501.8   0.069613521   1.14993   0.06923   0.99617   0.39088
   4   21000.3    476.2   0.497466481   7.79855  -0.76301   0.45979  -2.64669
   5   22145.5    451.6   0.231856362   3.44675  -0.43930   1.44254  -1.08298
   6   24664.7    405.4   0.015474289   0.20654   0.26678   0.27827  -0.24071
   7   24762.6    403.8   0.042925759   0.57069   0.37960   0.39120  -0.52303
   8   25295.0    395.3   0.019881100   0.25875   0.14268  -0.48789  -0.01885
   9   25809.7    387.5   0.067773188   0.86447   0.35581  -0.74349   0.43023
  10   26273.8    380.6   0.152943532   1.91639   0.70945   0.98764   0.66155
  11   26454.5    378.0   0.005956693   0.07413   0.13705   0.11126   0.20729
  12   27811.3    359.6   0.227673325   2.69505   0.43171   1.41728  -0.70710
  13   28292.1    353.5   0.022755845   0.26479   0.00557   0.23332  -0.45861
  14   28653.0    349.0   0.016864362   0.19377   0.25883   0.17766   0.30856
  15   28955.8    345.4   0.003980178   0.04525  -0.09815  -0.11057  -0.15295
  16   29009.3    344.7   0.041798722   0.47435   0.00871  -0.64647   0.23740
  17   29176.9    342.7   0.049764782   0.56151  -0.06328  -0.28774   0.68899
  18   29536.6    338.6   0.080311574   0.89515   0.41052  -0.21816   0.82403
  19   29968.6    333.7   0.019502292   0.21424   0.09056   0.20132  -0.40683
  20   30361.9    329.4   0.192477484   2.08702   0.07839   1.19005   0.81527
  21   30907.0    323.6   0.052732274   0.56169   0.36793  -0.07081  -0.64908
  22   30963.2    323.0   0.083165195   0.88424   0.41123   0.24014   0.81085
  23   31173.3    320.8   0.358813800   3.78933   0.79994   1.40883   1.07917
  24   31326.1    319.2   0.398262401   4.18541  -0.95368  -1.75564   0.44003
  25   31385.1    318.6   0.249953034   2.62187  -0.50125  -0.49692   1.45729
  26   32141.4    311.1   0.103234365   1.05739   0.79728   0.57068   0.30993
  27   32172.6    310.8   0.005829743   0.05965   0.08044   0.01106   0.23035
  28   32435.3    308.3   0.054551898   0.55369  -0.28831  -0.67410  -0.12709
  29   32600.6    306.7   0.025107263   0.25354  -0.00271   0.27294  -0.42313
  30   32671.6    306.1   0.019100131   0.19246  -0.06089   0.25439  -0.35219
  31   33045.9    302.6   0.025682198   0.25585   0.36643   0.34599   0.04330
  32   33173.3    301.4   0.106391529   1.05583  -0.00715  -0.52493   0.88331
  33   33519.3    298.3   0.017034825   0.16731  -0.31029  -0.26603  -0.01590
  34   34298.0    291.6   0.011297479   0.10844   0.10246  -0.07133   0.30472
  35   34490.6    289.9   0.004099390   0.03913  -0.08637  -0.09800  -0.14854
  36   34728.7    287.9   0.013062727   0.12383   0.23606   0.05542   0.25502
  37   35388.4    282.6   0.361419467   3.36222  -0.83262  -1.63120   0.09027
  38   35614.2    280.8   0.015340195   0.14180   0.10101   0.15493  -0.32802
  39   35649.4    280.5   0.027912128   0.25776  -0.45820  -0.19521  -0.09850
  40   35887.3    278.6   0.189897108   1.74202  -0.41863  -1.11558   0.56766
  41   36179.3    276.4   0.127204030   1.15749   0.90507   0.55749  -0.16598
  42   36978.5    270.4   0.083363435   0.74217  -0.15299   0.41086   0.74159
  43   37075.7    269.7   0.010025836   0.08902  -0.10917  -0.13392  -0.24326
  44   37187.3    268.9   0.194042781   1.71782   0.34714  -0.45597  -1.17873
  45   37775.2    264.7   0.021867698   0.19058   0.29260  -0.32179   0.03767
  46   38021.8    263.0   0.004481517   0.03880  -0.03967  -0.08857  -0.17142
  47   38074.9    262.6   0.183844762   1.58960   0.32901   1.15826  -0.37388
  48   38167.7    262.0   0.127391188   1.09880   0.09987   0.62448   0.83597
  49   38575.8    259.2   0.022712469   0.19383   0.10486   0.37540   0.20472
  50   38941.3    256.8   0.048216708   0.40763   0.00407  -0.63802  -0.02327
  51   39140.6    255.5   0.039006363   0.32808  -0.32551   0.02948  -0.47038
  52   39404.1    253.8   0.071106216   0.59408   0.05465   0.71224   0.28948
  53   39478.0    253.3   0.017160442   0.14310   0.12433   0.08397   0.34727
  54   39649.0    252.2   0.152069532   1.26266  -0.32198   0.01019  -1.07652
  55   39930.6    250.4   0.079837745   0.65823  -0.32836   0.21914  -0.70880
  56   40292.8    248.2   0.028194924   0.23037  -0.40621  -0.19797  -0.16176

FINAL SINGLE POINT ENERGY    -10784.345392420657

DIPOLE MOMENT
-------------
                                X             Y             Z
Electronic contribution:     52.59495      89.26129      11.61280
Nuclear contribution   :    -51.78185     -88.44670     -13.18896
                        -----------------------------------------
Total Dipole Moment    :      0.81310       0.81458      -1.57616
                        -----------------------------------------
Magnitude (a.u.)       :      1.95165
Magnitude (Debye)      :      4.96071

Rotational constants in cm-1:     0.001182     0.000195     0.000170
Rotational constants in MHz :    35.443128     5.833893     5.103071

                             ****ORCA TERMINATED NORMALLY****
TOTAL RUN TIME: 0 days 0 hours 11 minutes 22 seconds 946 msec
