                         Program Version 4.2.0 -  RELEASE  -
|  1> # ORCA input file
|  2> # SCF done       -212.267515205755          0.000660589184
|  3> ! CAM-B3LYP def2-SVP def2/J RIJCOSX Grid4 TightSCF
|  4> %maxcore 5000
|  5> %tddft
|  6>     Mode sTDDFT
|  7>     Ethresh 5.0
|  8>     maxcore 5000
|  9> end
| 10>
| 11> %pal
| 12>   nprocs 6
| 13>   end
| 14> * xyz 0 1
| 15>    C       -1.21279         0.09431         0.67539
| 16>    C       -1.22478        -0.94240         1.57151
| 17>    C       -0.28883        -1.99901         1.56473
| 18>    N        0.43657        -2.88739         1.60927
| 19>    C       -2.12234        -1.09520         2.65039
| 20>    N       -2.79153        -1.28987         3.56317
| 21>    C       -0.21404         0.28928        -0.36779
| 22>    C       -0.42271         1.55807        -0.95926
| 23>    C        0.36484         2.04395        -1.97478
| 24>    C        1.40517         1.23209        -2.43716
| 25>    C        1.60218        -0.03965        -1.84624
| 26>    C        0.80963        -0.52650        -0.81424
| 27>    S        2.93507        -0.88238        -2.57485
| 28>    C        3.20704         0.46582        -3.64708
| 29>    C        2.34509         1.49555        -3.47043
| 30>   Br        4.60041         0.38538        -4.89893
| 31>    C       -1.58080         2.21685        -0.32675
| 32>    O       -1.97482         3.33612        -0.57389
| 33>    C       -2.12944         1.22572         0.63274
| 34>    C       -3.33385         1.24443         1.27953
| 35>    C       -4.34664         2.22489         1.33123
| 36>    C       -4.41679         3.53858         0.89996
| 37>    C       -5.64779         4.13029         1.15412
| 38>   Cl       -6.00046         5.74961         0.71687
| 39>    C       -6.57317         3.29381         1.79174
| 40>    S       -5.84945         1.74693         2.09046
| 41>    C       -7.91023         3.58564         2.13158
| 42>    C       -8.84243         2.74985         2.74911
| 43>   Cl       -8.47701         1.15908         3.26882
| 44>    C      -10.10149         3.31635         2.89918
| 45>    C      -10.17218         4.60762         2.40289
| 46>    S       -8.64424         5.12504         1.75836
| 47>    C      -11.30573         5.45757         2.34832
| 48>    C      -11.19736         6.75327         1.79523
| 49>    C      -12.32818         7.62919         1.65667
| 50>    N      -12.16040         8.84321         1.12423
| 51>    C      -10.97317         9.22894         0.72376
| 52>    C       -9.84774         8.35118         0.85113
| 53>    N       -9.99477         7.15962         1.37762
| 54>    C       -8.56158         8.75374         0.41283
| 55>    N       -7.53165         9.10068         0.05206
| 56>    C      -10.82387        10.52412         0.16835
| 57>    N      -10.67958        11.56626        -0.28381
| 58>    C      -13.63194         7.25160         2.04876
| 59>    C      -13.74175         5.97002         2.63712
| 60>    C      -12.59951         5.09142         2.78786
| 61>    N      -12.94340         3.93805         3.36075
| 62>    S      -14.51513         3.94887         3.67863
| 63>    N      -14.85505         5.40865         3.10846
| 64>    C      -14.72676         8.12028         1.81126
| 65>    C      -16.06679         7.88761         2.07328
| 66>    C      -16.88354         8.93237         1.66181
| 67>   Cl      -18.58722         8.90079         1.84151
| 68>    C      -16.19834         9.99828         1.07855
| 69>    S      -14.48516         9.66781         1.05908
| 70>    C      -16.73803        11.17461         0.52002
| 71>    C      -16.05803        12.23787        -0.07579
| 72>   Cl      -14.35135        12.30738        -0.19529
| 73>    C      -16.89153        13.24279        -0.56246
| 74>    C      -18.23387        12.96497        -0.39754
| 75>    S      -18.45073        11.46018         0.45278
| 76>    C      -19.31898        13.79534        -0.77486
| 77>    C      -20.61817        13.45368        -0.97599
| 78>    C      -21.27305        12.16999        -1.13872
| 79>    C      -20.74111        11.06357        -1.74549
| 80>    C      -21.45530         9.86780        -1.96151
| 81>    N      -21.99077         8.86826        -2.13915
| 82>    C      -19.44784        11.03461        -2.30908
| 83>    N      -18.42466        10.98662        -2.82667
| 84>    C      -22.68368        12.36499        -0.82801
| 85>    C      -22.94074        13.75744        -0.73898
| 86>    C      -21.67794        14.50116        -0.91871
| 87>    O      -21.51583        15.69766        -0.95822
| 88>    C      -24.19941        14.25895        -0.50978
| 89>    C      -25.24712        13.34591        -0.34988
| 90>    C      -24.97538        11.95784        -0.42403
| 91>    C      -23.70510        11.44931        -0.66477
| 92>    S      -26.41200        11.01157        -0.18712
| 93>    C      -27.34803        12.47124        -0.00072
| 94>    C      -26.62284        13.61012        -0.10695
| 95>   Br      -29.19149        12.35248         0.31850
| 96>    H        0.18077         3.01787        -2.40041
| 97>    H        0.99844        -1.50317        -0.40147
| 98>    H        2.36892         2.40355        -4.04479
| 99>    H       -3.59820         0.34343         1.82172
|100>    H       -3.60430         4.04253         0.40960
|101>    H      -10.94157         2.81684         3.34415
|102>    H      -16.42167         6.98632         2.53702
|103>    H      -16.52662        14.12320        -1.05846
|104>    H      -19.09878        14.85631        -0.84638
|105>    H      -24.37192        15.32241        -0.45735
|106>    H      -23.54030        10.38532        -0.70851
|107>    H      -27.03920        14.59684        -0.01814
|108> *
|109>
|110>                          ****END OF INPUT****

CARTESIAN COORDINATES (ANGSTROEM)
---------------------------------
  C     -1.212790    0.094310    0.675390
  C     -1.224780   -0.942400    1.571510
  C     -0.288830   -1.999010    1.564730
  N      0.436570   -2.887390    1.609270
  C     -2.122340   -1.095200    2.650390
  N     -2.791530   -1.289870    3.563170
  C     -0.214040    0.289280   -0.367790
  C     -0.422710    1.558070   -0.959260
  C      0.364840    2.043950   -1.974780
  C      1.405170    1.232090   -2.437160
  C      1.602180   -0.039650   -1.846240
  C      0.809630   -0.526500   -0.814240
  S      2.935070   -0.882380   -2.574850
  C      3.207040    0.465820   -3.647080
  C      2.345090    1.495550   -3.470430
  Br     4.600410    0.385380   -4.898930
  C     -1.580800    2.216850   -0.326750
  O     -1.974820    3.336120   -0.573890
  C     -2.129440    1.225720    0.632740
  C     -3.333850    1.244430    1.279530
  C     -4.346640    2.224890    1.331230
  C     -4.416790    3.538580    0.899960
  C     -5.647790    4.130290    1.154120
  Cl    -6.000460    5.749610    0.716870
  C     -6.573170    3.293810    1.791740
  S     -5.849450    1.746930    2.090460
  C     -7.910230    3.585640    2.131580
  C     -8.842430    2.749850    2.749110
  Cl    -8.477010    1.159080    3.268820
  C    -10.101490    3.316350    2.899180
  C    -10.172180    4.607620    2.402890
  S     -8.644240    5.125040    1.758360
  C    -11.305730    5.457570    2.348320
  C    -11.197360    6.753270    1.795230
  C    -12.328180    7.629190    1.656670
  N    -12.160400    8.843210    1.124230
  C    -10.973170    9.228940    0.723760
  C     -9.847740    8.351180    0.851130
  N     -9.994770    7.159620    1.377620
  C     -8.561580    8.753740    0.412830
  N     -7.531650    9.100680    0.052060
  C    -10.823870   10.524120    0.168350
  N    -10.679580   11.566260   -0.283810
  C    -13.631940    7.251600    2.048760
  C    -13.741750    5.970020    2.637120
  C    -12.599510    5.091420    2.787860
  N    -12.943400    3.938050    3.360750
  S    -14.515130    3.948870    3.678630
  N    -14.855050    5.408650    3.108460
  C    -14.726760    8.120280    1.811260
  C    -16.066790    7.887610    2.073280
  C    -16.883540    8.932370    1.661810
  Cl   -18.587220    8.900790    1.841510
  C    -16.198340    9.998280    1.078550
  S    -14.485160    9.667810    1.059080
  C    -16.738030   11.174610    0.520020
  C    -16.058030   12.237870   -0.075790
  Cl   -14.351350   12.307380   -0.195290
  C    -16.891530   13.242790   -0.562460
  C    -18.233870   12.964970   -0.397540
  S    -18.450730   11.460180    0.452780
  C    -19.318980   13.795340   -0.774860
  C    -20.618170   13.453680   -0.975990
  C    -21.273050   12.169990   -1.138720
  C    -20.741110   11.063570   -1.745490
  C    -21.455300    9.867800   -1.961510
  N    -21.990770    8.868260   -2.139150
  C    -19.447840   11.034610   -2.309080
  N    -18.424660   10.986620   -2.826670
  C    -22.683680   12.364990   -0.828010
  C    -22.940740   13.757440   -0.738980
  C    -21.677940   14.501160   -0.918710
  O    -21.515830   15.697660   -0.958220
  C    -24.199410   14.258950   -0.509780
  C    -25.247120   13.345910   -0.349880
  C    -24.975380   11.957840   -0.424030
  C    -23.705100   11.449310   -0.664770
  S    -26.412000   11.011570   -0.187120
  C    -27.348030   12.471240   -0.000720
  C    -26.622840   13.610120   -0.106950
  Br   -29.191490   12.352480    0.318500
  H      0.180770    3.017870   -2.400410
  H      0.998440   -1.503170   -0.401470
  H      2.368920    2.403550   -4.044790
  H     -3.598200    0.343430    1.821720
  H     -3.604300    4.042530    0.409600
  H    -10.941570    2.816840    3.344150
  H    -16.421670    6.986320    2.537020
  H    -16.526620   14.123200   -1.058460
  H    -19.098780   14.856310   -0.846380
  H    -24.371920   15.322410   -0.457350
  H    -23.540300   10.385320   -0.708510
  H    -27.039200   14.596840   -0.018140

 Total Charge           Charge          ....    0
 Multiplicity           Mult            ....    1
 Number of Electrons    NEL             ....  684
 Basis Dimension        Dim             .... 1274

ORBITAL ENERGIES
----------------

  NO   OCC          E(Eh)            E(eV)
   0   2.0000    -482.888334    -13140.0596
   1   2.0000    -482.886381    -13140.0065
   2   2.0000    -101.606675     -2764.8582
   3   2.0000    -101.605645     -2764.8302
   4   2.0000    -101.603823     -2764.7806
   5   2.0000    -101.601472     -2764.7166
   6   2.0000     -89.060952     -2423.4717
   7   2.0000     -88.978868     -2421.2381
   8   2.0000     -88.977094     -2421.1898
   9   2.0000     -88.976351     -2421.1696
  10   2.0000     -88.976333     -2421.1691
  11   2.0000     -88.972306     -2421.0595
  12   2.0000     -88.972097     -2421.0538
  13   2.0000     -62.566048     -1702.5087
  14   2.0000     -62.564083     -1702.4553
  15   2.0000     -56.400003     -1534.7221
  16   2.0000     -56.398032     -1534.6685
  17   2.0000     -56.397280     -1534.6480
  18   2.0000     -56.397249     -1534.6472
  19   2.0000     -56.395315     -1534.5945
  20   2.0000     -56.395287     -1534.5938
  21   2.0000     -19.221854      -523.0532
  22   2.0000     -19.218874      -522.9721
  23   2.0000     -14.480297      -394.0289
  24   2.0000     -14.480092      -394.0233
  25   2.0000     -14.470006      -393.7489
  26   2.0000     -14.469684      -393.7401
  27   2.0000     -14.442761      -393.0075
  28   2.0000     -14.442694      -393.0057
  29   2.0000     -14.419440      -392.3729
  30   2.0000     -14.417004      -392.3066
  31   2.0000     -14.415446      -392.2642
  32   2.0000     -14.415294      -392.2601
  33   2.0000     -10.399517      -282.9852
  34   2.0000     -10.399177      -282.9760
  35   2.0000     -10.372806      -282.2584
  36   2.0000     -10.370462      -282.1946
  37   2.0000     -10.362211      -281.9701
  38   2.0000     -10.361902      -281.9617
  39   2.0000     -10.361879      -281.9611
  40   2.0000     -10.360553      -281.9250
  41   2.0000     -10.360310      -281.9184
  42   2.0000     -10.359955      -281.9087
  43   2.0000     -10.347235      -281.5626
  44   2.0000     -10.345591      -281.5178
  45   2.0000     -10.344117      -281.4777
  46   2.0000     -10.343555      -281.4624
  47   2.0000     -10.342951      -281.4460
  48   2.0000     -10.342437      -281.4320
  49   2.0000     -10.342227      -281.4263
  50   2.0000     -10.341708      -281.4122
  51   2.0000     -10.338367      -281.3213
  52   2.0000     -10.336781      -281.2781
  53   2.0000     -10.335993      -281.2567
  54   2.0000     -10.335851      -281.2528
  55   2.0000     -10.335247      -281.2364
  56   2.0000     -10.334473      -281.2153
  57   2.0000     -10.329717      -281.0859
  58   2.0000     -10.326796      -281.0064
  59   2.0000     -10.326611      -281.0014
  60   2.0000     -10.326591      -281.0008
  61   2.0000     -10.326029      -280.9855
  62   2.0000     -10.325438      -280.9695
  63   2.0000     -10.324913      -280.9552
  64   2.0000     -10.324642      -280.9478
  65   2.0000     -10.322352      -280.8855
  66   2.0000     -10.321678      -280.8671
  67   2.0000     -10.320059      -280.8231
  68   2.0000     -10.319751      -280.8147
  69   2.0000     -10.318442      -280.7791
  70   2.0000     -10.317456      -280.7522
  71   2.0000     -10.312959      -280.6299
  72   2.0000     -10.311007      -280.5768
  73   2.0000     -10.309515      -280.5362
  74   2.0000     -10.309453      -280.5345
  75   2.0000     -10.308822      -280.5173
  76   2.0000     -10.306840      -280.4634
  77   2.0000     -10.305152      -280.4174
  78   2.0000     -10.303916      -280.3838
  79   2.0000     -10.303669      -280.3771
  80   2.0000     -10.302948      -280.3575
  81   2.0000     -10.302247      -280.3384
  82   2.0000     -10.299625      -280.2670
  83   2.0000     -10.297495      -280.2091
  84   2.0000     -10.297129      -280.1991
  85   2.0000     -10.296765      -280.1892
  86   2.0000     -10.296135      -280.1721
  87   2.0000     -10.293668      -280.1049
  88   2.0000     -10.293427      -280.0984
  89   2.0000      -9.561408      -260.1791
  90   2.0000      -9.560377      -260.1511
  91   2.0000      -9.558352      -260.0960
  92   2.0000      -9.556033      -260.0329
  93   2.0000      -8.795477      -239.3371
  94   2.0000      -8.793519      -239.2838
  95   2.0000      -8.152135      -221.8309
  96   2.0000      -8.074902      -219.7293
  97   2.0000      -8.072422      -219.6618
  98   2.0000      -8.071505      -219.6368
  99   2.0000      -8.071242      -219.6297
 100   2.0000      -8.065381      -219.4702
 101   2.0000      -8.065335      -219.4689
 102   2.0000      -7.331442      -199.4987
 103   2.0000      -7.330411      -199.4706
 104   2.0000      -7.328516      -199.4190
 105   2.0000      -7.326171      -199.3553
 106   2.0000      -7.321533      -199.2290
 107   2.0000      -7.321446      -199.2267
 108   2.0000      -7.320513      -199.2013
 109   2.0000      -7.320405      -199.1984
 110   2.0000      -7.318457      -199.1454
 111   2.0000      -7.318279      -199.1405
 112   2.0000      -7.316153      -199.0826
 113   2.0000      -7.315953      -199.0772
 114   2.0000      -6.631796      -180.4604
 115   2.0000      -6.629798      -180.4060
 116   2.0000      -6.617201      -180.0632
 117   2.0000      -6.616998      -180.0577
 118   2.0000      -6.615269      -180.0106
 119   2.0000      -6.615051      -180.0047
 120   2.0000      -6.123252      -166.6222
 121   2.0000      -6.115282      -166.4053
 122   2.0000      -6.115026      -166.3983
 123   2.0000      -6.044589      -164.4816
 124   2.0000      -6.042106      -164.4141
 125   2.0000      -6.041030      -164.3848
 126   2.0000      -6.040577      -164.3725
 127   2.0000      -6.040314      -164.3653
 128   2.0000      -6.037838      -164.2979
 129   2.0000      -6.036655      -164.2657
 130   2.0000      -6.036325      -164.2568
 131   2.0000      -6.036115      -164.2510
 132   2.0000      -6.035138      -164.2244
 133   2.0000      -6.035097      -164.2233
 134   2.0000      -6.033613      -164.1830
 135   2.0000      -6.033275      -164.1738
 136   2.0000      -6.033237      -164.1727
 137   2.0000      -6.030286      -164.0924
 138   2.0000      -6.030240      -164.0912
 139   2.0000      -6.027100      -164.0057
 140   2.0000      -6.026998      -164.0030
 141   2.0000      -2.747660       -74.7676
 142   2.0000      -2.745715       -74.7147
 143   2.0000      -2.743552       -74.6558
 144   2.0000      -2.743442       -74.6528
 145   2.0000      -2.741580       -74.6022
 146   2.0000      -2.741424       -74.5980
 147   2.0000      -2.731816       -74.3365
 148   2.0000      -2.731809       -74.3363
 149   2.0000      -2.729864       -74.2834
 150   2.0000      -2.729857       -74.2832
 151   2.0000      -1.158400       -31.5217
 152   2.0000      -1.140895       -31.0453
 153   2.0000      -1.137287       -30.9472
 154   2.0000      -1.134612       -30.8744
 155   2.0000      -1.069299       -29.0971
 156   2.0000      -1.034954       -28.1625
 157   2.0000      -1.033045       -28.1106
 158   2.0000      -1.027665       -27.9642
 159   2.0000      -1.026320       -27.9276
 160   2.0000      -1.024347       -27.8739
 161   2.0000      -1.018803       -27.7230
 162   2.0000      -1.016286       -27.6545
 163   2.0000      -1.014674       -27.6107
 164   2.0000      -1.013741       -27.5853
 165   2.0000      -1.010885       -27.5076
 166   2.0000      -1.005897       -27.3718
 167   2.0000      -0.996041       -27.1037
 168   2.0000      -0.995018       -27.0758
 169   2.0000      -0.993393       -27.0316
 170   2.0000      -0.992767       -27.0146
 171   2.0000      -0.991249       -26.9733
 172   2.0000      -0.968376       -26.3509
 173   2.0000      -0.965392       -26.2697
 174   2.0000      -0.959209       -26.1014
 175   2.0000      -0.953968       -25.9588
 176   2.0000      -0.944798       -25.7093
 177   2.0000      -0.943292       -25.6683
 178   2.0000      -0.924827       -25.1658
 179   2.0000      -0.916431       -24.9373
 180   2.0000      -0.911875       -24.8134
 181   2.0000      -0.909683       -24.7537
 182   2.0000      -0.908213       -24.7137
 183   2.0000      -0.902695       -24.5636
 184   2.0000      -0.889556       -24.2061
 185   2.0000      -0.887069       -24.1384
 186   2.0000      -0.884308       -24.0633
 187   2.0000      -0.877647       -23.8820
 188   2.0000      -0.860344       -23.4111
 189   2.0000      -0.856322       -23.3017
 190   2.0000      -0.850782       -23.1509
 191   2.0000      -0.836919       -22.7737
 192   2.0000      -0.833401       -22.6780
 193   2.0000      -0.832982       -22.6666
 194   2.0000      -0.832169       -22.6445
 195   2.0000      -0.830420       -22.5969
 196   2.0000      -0.822341       -22.3770
 197   2.0000      -0.818612       -22.2756
 198   2.0000      -0.810699       -22.0602
 199   2.0000      -0.794401       -21.6167
 200   2.0000      -0.776370       -21.1261
 201   2.0000      -0.767065       -20.8729
 202   2.0000      -0.761931       -20.7332
 203   2.0000      -0.757962       -20.6252
 204   2.0000      -0.754712       -20.5368
 205   2.0000      -0.738392       -20.0927
 206   2.0000      -0.721296       -19.6275
 207   2.0000      -0.720190       -19.5974
 208   2.0000      -0.718082       -19.5400
 209   2.0000      -0.710036       -19.3211
 210   2.0000      -0.700672       -19.0662
 211   2.0000      -0.697422       -18.9778
 212   2.0000      -0.692876       -18.8541
 213   2.0000      -0.689531       -18.7631
 214   2.0000      -0.688731       -18.7413
 215   2.0000      -0.676291       -18.4028
 216   2.0000      -0.667645       -18.1676
 217   2.0000      -0.666666       -18.1409
 218   2.0000      -0.661957       -18.0128
 219   2.0000      -0.659031       -17.9331
 220   2.0000      -0.652117       -17.7450
 221   2.0000      -0.646144       -17.5825
 222   2.0000      -0.638510       -17.3747
 223   2.0000      -0.636528       -17.3208
 224   2.0000      -0.631706       -17.1896
 225   2.0000      -0.628281       -17.0964
 226   2.0000      -0.626224       -17.0404
 227   2.0000      -0.622518       -16.9396
 228   2.0000      -0.616100       -16.7649
 229   2.0000      -0.612274       -16.6608
 230   2.0000      -0.602500       -16.3948
 231   2.0000      -0.600093       -16.3294
 232   2.0000      -0.598867       -16.2960
 233   2.0000      -0.597848       -16.2683
 234   2.0000      -0.587497       -15.9866
 235   2.0000      -0.585804       -15.9406
 236   2.0000      -0.579746       -15.7757
 237   2.0000      -0.574901       -15.6439
 238   2.0000      -0.573137       -15.5958
 239   2.0000      -0.562526       -15.3071
 240   2.0000      -0.559798       -15.2329
 241   2.0000      -0.553541       -15.0626
 242   2.0000      -0.549282       -14.9467
 243   2.0000      -0.545631       -14.8474
 244   2.0000      -0.544031       -14.8038
 245   2.0000      -0.543489       -14.7891
 246   2.0000      -0.542975       -14.7751
 247   2.0000      -0.537820       -14.6348
 248   2.0000      -0.535580       -14.5739
 249   2.0000      -0.534351       -14.5404
 250   2.0000      -0.533380       -14.5140
 251   2.0000      -0.531662       -14.4673
 252   2.0000      -0.530555       -14.4371
 253   2.0000      -0.527932       -14.3658
 254   2.0000      -0.521126       -14.1806
 255   2.0000      -0.519547       -14.1376
 256   2.0000      -0.516547       -14.0560
 257   2.0000      -0.513504       -13.9731
 258   2.0000      -0.511683       -13.9236
 259   2.0000      -0.510934       -13.9032
 260   2.0000      -0.509726       -13.8704
 261   2.0000      -0.508224       -13.8295
 262   2.0000      -0.507243       -13.8028
 263   2.0000      -0.504920       -13.7396
 264   2.0000      -0.503929       -13.7126
 265   2.0000      -0.502708       -13.6794
 266   2.0000      -0.497974       -13.5505
 267   2.0000      -0.497210       -13.5298
 268   2.0000      -0.496221       -13.5029
 269   2.0000      -0.495605       -13.4861
 270   2.0000      -0.491948       -13.3866
 271   2.0000      -0.489331       -13.3154
 272   2.0000      -0.486258       -13.2317
 273   2.0000      -0.483834       -13.1658
 274   2.0000      -0.478742       -13.0272
 275   2.0000      -0.474879       -12.9221
 276   2.0000      -0.473449       -12.8832
 277   2.0000      -0.469269       -12.7695
 278   2.0000      -0.466201       -12.6860
 279   2.0000      -0.465613       -12.6700
 280   2.0000      -0.463955       -12.6249
 281   2.0000      -0.462549       -12.5866
 282   2.0000      -0.461124       -12.5478
 283   2.0000      -0.458786       -12.4842
 284   2.0000      -0.456709       -12.4277
 285   2.0000      -0.453414       -12.3380
 286   2.0000      -0.452521       -12.3137
 287   2.0000      -0.450966       -12.2714
 288   2.0000      -0.449769       -12.2388
 289   2.0000      -0.449658       -12.2358
 290   2.0000      -0.449307       -12.2263
 291   2.0000      -0.445627       -12.1261
 292   2.0000      -0.445445       -12.1212
 293   2.0000      -0.444289       -12.0897
 294   2.0000      -0.441926       -12.0254
 295   2.0000      -0.440799       -11.9948
 296   2.0000      -0.440596       -11.9892
 297   2.0000      -0.439772       -11.9668
 298   2.0000      -0.438923       -11.9437
 299   2.0000      -0.431804       -11.7500
 300   2.0000      -0.429636       -11.6910
 301   2.0000      -0.428562       -11.6618
 302   2.0000      -0.427624       -11.6362
 303   2.0000      -0.424690       -11.5564
 304   2.0000      -0.424414       -11.5489
 305   2.0000      -0.421148       -11.4600
 306   2.0000      -0.418678       -11.3928
 307   2.0000      -0.414847       -11.2886
 308   2.0000      -0.413505       -11.2520
 309   2.0000      -0.412227       -11.2173
 310   2.0000      -0.408671       -11.1205
 311   2.0000      -0.407821       -11.0974
 312   2.0000      -0.398086       -10.8325
 313   2.0000      -0.395968       -10.7748
 314   2.0000      -0.393744       -10.7143
 315   2.0000      -0.392909       -10.6916
 316   2.0000      -0.389411       -10.5964
 317   2.0000      -0.387199       -10.5362
 318   2.0000      -0.385788       -10.4978
 319   2.0000      -0.385214       -10.4822
 320   2.0000      -0.377736       -10.2787
 321   2.0000      -0.375607       -10.2208
 322   2.0000      -0.370405       -10.0792
 323   2.0000      -0.364817        -9.9272
 324   2.0000      -0.364443        -9.9170
 325   2.0000      -0.361113        -9.8264
 326   2.0000      -0.350850        -9.5471
 327   2.0000      -0.345560        -9.4032
 328   2.0000      -0.343794        -9.3551
 329   2.0000      -0.340792        -9.2734
 330   2.0000      -0.333407        -9.0725
 331   2.0000      -0.332158        -9.0385
 332   2.0000      -0.329853        -8.9758
 333   2.0000      -0.323172        -8.7939
 334   2.0000      -0.322198        -8.7675
 335   2.0000      -0.318704        -8.6724
 336   2.0000      -0.316852        -8.6220
 337   2.0000      -0.306868        -8.3503
 338   2.0000      -0.296701        -8.0737
 339   2.0000      -0.294598        -8.0164
 340   2.0000      -0.275897        -7.5075
 341   2.0000      -0.246050        -6.6954
 342   0.0000      -0.143747        -3.9116
 343   0.0000      -0.097148        -2.6435
 344   0.0000      -0.094504        -2.5716
 345   0.0000      -0.069529        -1.8920
 346   0.0000      -0.063698        -1.7333

MULLIKEN ATOMIC CHARGES
-----------------------
   0 C :    0.297833
   1 C :   -0.348865
   2 C :   -0.185464
   3 N :    0.152357
   4 C :   -0.200382
   5 N :    0.160679
   6 C :    0.014308
   7 C :   -0.012512
   8 C :   -0.069194
   9 C :    0.116445
  10 C :   -0.090899
  11 C :   -0.016712
  12 S :    0.187923
  13 C :   -0.123852
  14 C :    0.039413
  15 Br:    0.026049
  16 C :    0.155402
  17 O :   -0.152726
  18 C :   -0.084707
  19 C :    0.055187
  20 C :   -0.098441
  21 C :    0.029016
  22 C :    0.054845
  23 Cl:   -0.038574
  24 C :   -0.088290
  25 S :    0.171593
  26 C :   -0.055068
  27 C :    0.077024
  28 Cl:   -0.053922
  29 C :    0.000404
  30 C :   -0.153769
  31 S :    0.171447
  32 C :    0.204984
  33 C :   -0.057676
  34 C :   -0.051724
  35 N :    0.005039
  36 C :   -0.102303
  37 C :   -0.100603
  38 N :    0.003641
  39 C :   -0.243666
  40 N :    0.260697
  41 C :   -0.241415
  42 N :    0.255561
  43 C :    0.204415
  44 C :   -0.019578
  45 C :   -0.013155
  46 N :   -0.286467
  47 S :    0.564539
  48 N :   -0.284831
  49 C :   -0.150164
  50 C :   -0.002205
  51 C :    0.076811
  52 Cl:   -0.059635
  53 C :   -0.049102
  54 S :    0.172256
  55 C :   -0.089502
  56 C :    0.074658
  57 Cl:   -0.040975
  58 C :    0.056060
  59 C :   -0.088768
  60 S :    0.166842
  61 C :    0.065641
  62 C :   -0.129665
  63 C :    0.242638
  64 C :   -0.316851
  65 C :   -0.175125
  66 N :    0.152817
  67 C :   -0.203439
  68 N :    0.175744
  69 C :    0.006978
  70 C :    0.001103
  71 C :    0.137361
  72 O :   -0.140793
  73 C :   -0.069936
  74 C :    0.110840
  75 C :   -0.084901
  76 C :   -0.021350
  77 S :    0.185756
  78 C :   -0.125420
  79 C :    0.041496
  80 Br:    0.025754
  81 H :   -0.008953
  82 H :   -0.005721
  83 H :   -0.001583
  84 H :    0.012557
  85 H :    0.015362
  86 H :   -0.004570
  87 H :   -0.003093
  88 H :   -0.002186
  89 H :    0.029531
  90 H :   -0.006422
  91 H :   -0.001768
  92 H :   -0.002087
Sum of atomic charges:   -0.0000000

LOEWDIN ATOMIC CHARGES
----------------------
   0 C :    0.076134
   1 C :   -0.141211
   2 C :   -0.018053
   3 N :   -0.052815
   4 C :   -0.026090
   5 N :   -0.049181
   6 C :   -0.021318
   7 C :   -0.050469
   8 C :    0.022910
   9 C :   -0.032029
  10 C :   -0.143463
  11 C :   -0.009130
  12 S :    0.433754
  13 C :   -0.270969
  14 C :   -0.070164
  15 Br:    0.138592
  16 C :    0.088356
  17 O :   -0.137926
  18 C :   -0.091808
  19 C :    0.045755
  20 C :   -0.182345
  21 C :   -0.024694
  22 C :   -0.169729
  23 Cl:    0.176709
  24 C :   -0.189664
  25 S :    0.470948
  26 C :   -0.209463
  27 C :   -0.167004
  28 Cl:    0.164909
  29 C :   -0.047033
  30 C :   -0.169585
  31 S :    0.490650
  32 C :   -0.036413
  33 C :   -0.011822
  34 C :   -0.012502
  35 N :   -0.010736
  36 C :   -0.018890
  37 C :   -0.017834
  38 N :   -0.011487
  39 C :   -0.038586
  40 N :    0.002995
  41 C :   -0.038148
  42 N :    0.001827
  43 C :   -0.033480
  44 C :   -0.036698
  45 C :   -0.035965
  46 N :   -0.274764
  47 S :    0.688901
  48 N :   -0.274106
  49 C :   -0.170455
  50 C :   -0.044540
  51 C :   -0.168661
  52 Cl:    0.162189
  53 C :   -0.204457
  54 S :    0.491667
  55 C :   -0.186515
  56 C :   -0.164864
  57 Cl:    0.178332
  58 C :   -0.027080
  59 C :   -0.182566
  60 S :    0.480967
  61 C :    0.050983
  62 C :   -0.091644
  63 C :    0.059467
  64 C :   -0.138527
  65 C :   -0.019208
  66 N :   -0.050105
  67 C :   -0.035911
  68 N :   -0.045011
  69 C :   -0.016981
  70 C :   -0.053026
  71 C :    0.083757
  72 O :   -0.139833
  73 C :    0.023667
  74 C :   -0.033166
  75 C :   -0.142403
  76 C :   -0.012739
  77 S :    0.432961
  78 C :   -0.271563
  79 C :   -0.069560
  80 Br:    0.138545
  81 H :    0.041398
  82 H :    0.041090
  83 H :    0.039421
  84 H :    0.043509
  85 H :    0.038491
  86 H :    0.034058
  87 H :    0.034570
  88 H :    0.041153
  89 H :    0.052955
  90 H :    0.042252
  91 H :    0.041164
  92 H :    0.039354

  Mayer bond orders larger than 0.100000
B(  0-C ,  1-C ) :   1.6311 B(  0-C ,  6-C ) :   1.0010 B(  0-C , 18-C ) :   1.0727
B(  1-C ,  2-C ) :   1.1434 B(  1-C ,  4-C ) :   1.1383 B(  2-C ,  3-N ) :   2.9739
B(  4-C ,  5-N ) :   2.9871 B(  6-C ,  7-C ) :   1.2724 B(  6-C , 11-C ) :   1.4115
B(  7-C ,  8-C ) :   1.4222 B(  7-C , 16-C ) :   0.9533 B(  8-C ,  9-C ) :   1.2484
B(  8-C , 81-H ) :   1.0162 B(  9-C , 10-C ) :   1.3024 B(  9-C , 14-C ) :   1.1634
B( 10-C , 11-C ) :   1.3322 B( 10-C , 12-S ) :   1.0867 B( 11-C , 82-H ) :   0.9795
B( 12-S , 13-C ) :   1.0861 B( 13-C , 14-C ) :   1.6190 B( 13-C , 15-Br) :   1.0210
B( 14-C , 83-H ) :   0.9996 B( 16-C , 17-O ) :   2.1739 B( 16-C , 18-C ) :   0.9378
B( 18-C , 19-C ) :   1.6028 B( 19-C , 20-C ) :   1.2097 B( 19-C , 84-H ) :   0.9148
B( 20-C , 21-C ) :   1.4107 B( 20-C , 25-S ) :   1.0844 B( 21-C , 22-C ) :   1.2981
B( 21-C , 85-H ) :   0.9859 B( 22-C , 23-Cl) :   1.0586 B( 22-C , 24-C ) :   1.3939
B( 24-C , 25-S ) :   1.1602 B( 24-C , 26-C ) :   1.2137 B( 26-C , 27-C ) :   1.4174
B( 26-C , 31-S ) :   1.0797 B( 27-C , 28-Cl) :   1.0388 B( 27-C , 29-C ) :   1.2844
B( 29-C , 30-C ) :   1.4125 B( 29-C , 86-H ) :   0.9960 B( 30-C , 31-S ) :   1.1019
B( 30-C , 32-C ) :   1.2074 B( 32-C , 33-C ) :   1.2498 B( 32-C , 43-C ) :   0.1210
B( 32-C , 45-C ) :   1.1926 B( 33-C , 34-C ) :   1.1149 B( 33-C , 38-N ) :   1.3996
B( 34-C , 35-N ) :   1.3998 B( 34-C , 43-C ) :   1.2485 B( 35-N , 36-C ) :   1.6952
B( 36-C , 37-C ) :   1.2170 B( 36-C , 41-C ) :   1.1733 B( 37-C , 38-N ) :   1.6950
B( 37-C , 39-C ) :   1.1747 B( 39-C , 40-N ) :   3.0355 B( 41-C , 42-N ) :   3.0335
B( 43-C , 44-C ) :   1.1914 B( 43-C , 49-C ) :   1.2120 B( 44-C , 45-C ) :   1.0984
B( 44-C , 48-N ) :   1.5195 B( 45-C , 46-N ) :   1.5173 B( 46-N , 47-S ) :   1.2827
B( 46-N , 48-N ) :   0.1484 B( 47-S , 48-N ) :   1.2829 B( 49-C , 50-C ) :   1.4088
B( 49-C , 54-S ) :   1.0995 B( 50-C , 51-C ) :   1.2854 B( 50-C , 87-H ) :   0.9957
B( 51-C , 52-Cl) :   1.0334 B( 51-C , 53-C ) :   1.4177 B( 53-C , 54-S ) :   1.0801
B( 53-C , 55-C ) :   1.2204 B( 55-C , 56-C ) :   1.4155 B( 55-C , 60-S ) :   1.1433
B( 56-C , 57-Cl) :   1.0485 B( 56-C , 58-C ) :   1.2985 B( 58-C , 59-C ) :   1.4171
B( 58-C , 88-H ) :   1.0082 B( 59-C , 60-S ) :   1.0989 B( 59-C , 61-C ) :   1.1157
B( 61-C , 62-C ) :   1.6683 B( 61-C , 89-H ) :   0.9479 B( 62-C , 63-C ) :   1.0264
B( 62-C , 71-C ) :   0.9362 B( 63-C , 64-C ) :   1.6632 B( 63-C , 69-C ) :   1.0177
B( 64-C , 65-C ) :   1.1327 B( 64-C , 67-C ) :   1.1523 B( 65-C , 66-N ) :   2.9899
B( 67-C , 68-N ) :   3.0243 B( 69-C , 70-C ) :   1.2753 B( 69-C , 76-C ) :   1.4130
B( 70-C , 71-C ) :   0.9211 B( 70-C , 73-C ) :   1.4246 B( 71-C , 72-O ) :   2.2721
B( 73-C , 74-C ) :   1.2539 B( 73-C , 90-H ) :   1.0167 B( 74-C , 75-C ) :   1.3053
B( 74-C , 79-C ) :   1.1628 B( 75-C , 76-C ) :   1.3282 B( 75-C , 77-S ) :   1.0843
B( 76-C , 91-H ) :   0.9848 B( 77-S , 78-C ) :   1.0863 B( 78-C , 79-C ) :   1.6186
B( 78-C , 80-Br) :   1.0202 B( 79-C , 92-H ) :   1.0013

-----------------------------------------------------------------------------
         ABSORPTION SPECTRUM VIA TRANSITION ELECTRIC DIPOLE MOMENTS
-----------------------------------------------------------------------------
State   Energy  Wavelength   fosc         T2         TX        TY        TZ
        (cm-1)    (nm)                  (au**2)     (au)      (au)      (au)
-----------------------------------------------------------------------------
   0    7247.2   1379.8   0.648566600  29.46167  -4.49290   3.02018  -0.39242
   1   15069.1    663.6   0.037964297   0.82940   0.30595   0.06129  -0.85559
   2   18521.4    539.9   0.673390465  11.96933  -3.10286   1.26174  -0.86578
   3   19605.7    510.1   0.891263376  14.96578  -3.25959   1.97611   0.66017
   4   21391.9    467.5   0.035144394   0.54086  -0.61468   0.36964  -0.16244
   5   22083.7    452.8   0.012930137   0.19276  -0.29972   0.31151   0.07673
   6   22100.6    452.5   0.007216108   0.10749  -0.13585   0.23685   0.18149
   7   22383.4    446.8   0.005420983   0.07973   0.24160  -0.13044  -0.06591
   8   23142.2    432.1   0.086214076   1.22645  -0.98709   0.22005   0.45132
   9   24008.0    416.5   0.080814581   1.10818   0.96571  -0.32105  -0.26930
  10   24388.4    410.0   0.015434756   0.20835   0.19197  -0.40801   0.07092
  11   24524.4    407.8   0.041069280   0.55131   0.42528   0.20756  -0.57216
  12   26345.9    379.6   0.061447240   0.76783   0.79019  -0.33809  -0.17065
  13   26454.0    378.0   0.125949054   1.56739  -0.77153   0.97305   0.15913
  14   26819.2    372.9   0.061825211   0.75892   0.52486  -0.69529   0.00266
  15   26968.3    370.8   0.097440424   1.18949   0.92891   0.43563  -0.36993
  16   27180.5    367.9   0.066215002   0.80200   0.58429  -0.38846   0.55651
  17   27777.4    360.0   0.015709861   0.18619  -0.22555   0.15181   0.33507
  18   27969.3    357.5   0.042762518   0.50334   0.66951  -0.23196   0.03594
  19   28217.0    354.4   0.008804935   0.10273  -0.28407   0.01931  -0.14718
  20   28427.3    351.8   0.096964114   1.12293  -0.87993   0.08197   0.58475
  21   28713.5    348.3   0.318137917   3.64758   1.73635  -0.74962  -0.26598
  22   28809.7    347.1   0.073520303   0.84012   0.74550  -0.51890   0.12284
  23   29139.5    343.2   0.094261206   1.06494  -0.52983  -0.17308   0.86849
  24   29354.1    340.7   0.298054454   3.34274  -1.31287  -0.30054   1.23644
  25   29790.1    335.7   0.029455209   0.32551   0.55218   0.00277  -0.14354
  26   30720.2    325.5   0.057459165   0.61576  -0.15437   0.58968  -0.49418
  27   31010.4    322.5   0.318400996   3.38020   1.25208   1.11548  -0.75379
  28   31123.1    321.3   0.216295476   2.28792   0.43663   1.26235  -0.70976
  29   31494.4    317.5   0.084964687   0.88814  -0.89113   0.04184   0.30376
  30   31564.1    316.8   0.021329182   0.22246   0.18058  -0.03107  -0.43461
  31   31627.3    316.2   0.003593517   0.03741   0.11507  -0.10424   0.11532
  32   32053.6    312.0   0.066334989   0.68130   0.76224  -0.25825   0.18330
  33   32120.5    311.3   0.073462215   0.75293   0.44069   0.66923  -0.33295
  34   33019.6    302.9   0.087117890   0.86858  -0.16386  -0.90699  -0.13819
  35   33470.8    298.8   0.024324624   0.23925  -0.39938   0.06459   0.27491
  36   33614.7    297.5   0.099544874   0.97491   0.80752  -0.02416  -0.56766
  37   33738.1    296.4   0.074602479   0.72796   0.07702   0.50440  -0.68382
  38   33851.9    295.4   0.201627357   1.96084   1.11938  -0.53737  -0.64734
  39   34175.9    292.6   0.477359820   4.59835  -0.87336  -1.23792   1.51761
  40   34364.9    291.0   0.169647267   1.62520   0.93821  -0.80223  -0.31843
  41   34413.2    290.6   0.108377777   1.03679   0.86027  -0.54370   0.03343
  42   34695.5    288.2   0.075206682   0.71361   0.75627   0.32303  -0.19319
  43   34844.6    287.0   0.052322396   0.49434   0.56491   0.31169  -0.27941
  44   34952.7    286.1   0.039779244   0.37467   0.52273  -0.29810  -0.11209
  45   35178.8    284.3   0.008227388   0.07699  -0.17798  -0.19131  -0.09337
  46   35519.6    281.5   0.023192030   0.21495  -0.33488   0.17538   0.26842
  47   35736.3    279.8   0.242423388   2.23327   1.18228   0.52516  -0.74813
  48   35855.8    278.9   0.091682487   0.84179  -0.74778   0.53105   0.02447
  49   36257.8    275.8   0.132532357   1.20336   0.58110   0.82004  -0.43958
  50   36550.2    273.6   0.042996192   0.38727   0.26706   0.50152  -0.25384
  51   37300.6    268.1   0.050617256   0.44674   0.51081   0.31992  -0.28891
  52   37345.4    267.8   0.015341687   0.13524   0.29999  -0.00914  -0.21252
  53   37824.5    264.4   0.044322869   0.38577  -0.08809  -0.61418   0.02815
  54   38015.2    263.1   0.067261798   0.58249   0.57025   0.45358  -0.22709
  55   38101.6    262.5   0.002474164   0.02138  -0.06203  -0.11210   0.07046
  56   38328.9    260.9   0.009330430   0.08014   0.08784   0.25252  -0.09304
  57   38584.4    259.2   0.015490750   0.13217   0.34148  -0.12210   0.02564
  58   38748.7    258.1   0.020184774   0.17149  -0.33629  -0.21087   0.11805
  59   38825.8    257.6   0.122035231   1.03476   0.69001   0.55645  -0.49901
  60   38966.5    256.6   0.218415259   1.84530  -0.97958  -0.85026   0.40347
  61   39273.2    254.6   0.213651103   1.79095  -0.10315   1.31750  -0.21095
  62   39294.1    254.5   0.008149478   0.06828   0.09575   0.24015   0.03792
  63   39479.6    253.3   0.021808512   0.18186  -0.25642   0.21610   0.26344
  64   39648.6    252.2   0.113095619   0.93906   0.01038   0.92723  -0.28143
  65   39894.8    250.7   0.058361461   0.48160   0.65282   0.18434   0.14644
  66   40085.9    249.5   0.014275969   0.11724   0.32596   0.10483  -0.00191
  67   40249.6    248.4   0.010723061   0.08771  -0.09497  -0.07958  -0.26899

FINAL SINGLE POINT ENERGY    -12610.097819905988

DIPOLE MOMENT
-------------
                                X             Y             Z
Electronic contribution:    -12.56513     -10.18454     -35.31009
Nuclear contribution   :     10.12584      10.76618      36.12070
                        -----------------------------------------
Total Dipole Moment    :     -2.43929       0.58164       0.81061
                        -----------------------------------------
Magnitude (a.u.)       :      2.63544
Magnitude (Debye)      :      6.69874

Rotational constants in cm-1:     0.001420     0.000105     0.000101
Rotational constants in MHz :    42.563688     3.138478     3.031406

                             ****ORCA TERMINATED NORMALLY****
TOTAL RUN TIME: 0 days 0 hours 10 minutes 24 seconds 749 msec
