                         Program Version 4.2.0 -  RELEASE  -
|  1> # ORCA input file
|  2> # SCF done       -165.084120834097          0.000749770680
|  3> ! CAM-B3LYP def2-SVP def2/J RIJCOSX Grid4 TightSCF
|  4> %maxcore 5000
|  5> %tddft
|  6>     Mode sTDDFT
|  7>     Ethresh 5.0
|  8>     maxcore 5000
|  9> end
| 10>
| 11> %pal
| 12>   nprocs 6
| 13>   end
| 14> * xyz 0 1
| 15>    C       -0.33685        -1.62890        -8.97353
| 16>    O       -1.57639        -2.11490        -9.06245
| 17>    C       -2.36869        -1.32375        -8.31435
| 18>    C       -1.65269        -0.32795        -7.73738
| 19>    C       -0.29891        -0.51247        -8.16431
| 20>    C        0.85991         0.26336        -7.85478
| 21>    C        0.87179         1.36103        -7.05653
| 22>    C        2.03371         2.11771        -6.79878
| 23>    C        2.04577         3.25021        -6.02728
| 24>    C        3.18222         4.03349        -5.81998
| 25>    C        3.20247         5.21462        -5.10494
| 26>    C        4.29386         6.08877        -4.93832
| 27>    C        3.99659         7.22752        -4.23843
| 28>    C        2.66152         7.29341        -3.80763
| 29>    S        1.78625         5.87317        -4.30216
| 30>    C        2.04309         8.33829        -3.11625
| 31>    C        2.57535         9.59599        -2.81446
| 32>    C        1.67991        10.43684        -2.19469
| 33>    C        0.42611         9.86276        -1.96464
| 34>    S        0.39091         8.22499        -2.56064
| 35>    C       -0.67698        10.48999        -1.37326
| 36>    C       -1.85455         9.87826        -1.03941
| 37>    C       -2.95956        10.55881        -0.50834
| 38>    C       -4.14168        10.01014        -0.00820
| 39>    C       -5.04749        10.95166         0.43611
| 40>    C       -4.60635        12.26533         0.26883
| 41>    S       -3.01376        12.30222        -0.42131
| 42>    C       -5.28089        13.46854         0.53998
| 43>    C       -6.47553        13.67110         1.23601
| 44>    C       -6.84254        14.99584         1.29045
| 45>    C       -5.94630        15.86121         0.64201
| 46>    S       -4.61904        14.97282        -0.02691
| 47>    C       -6.15348        17.23235         0.44517
| 48>    C       -5.31295        18.13865        -0.16170
| 49>    C       -3.94997        18.10161        -0.56188
| 50>    C       -3.66114        19.27561        -1.26784
| 51>    C       -4.84184        20.14318        -1.25283
| 52>    O       -5.03279        21.25791        -1.67546
| 53>    N       -5.77123        19.39158        -0.54956
| 54>    C       -2.30860        19.25446        -1.62048
| 55>    O       -1.74834        18.12677        -1.07584
| 56>    C       -2.69717        17.38903        -0.40799
| 57>    O       -2.40588        16.38139         0.19242
| 58>    C       -1.51438        20.17152        -2.29383
| 59>    C       -2.02950        21.13563        -3.14814
| 60>    C       -1.47634        22.39362        -3.54446
| 61>    C       -0.34848        23.04523        -3.07287
| 62>    N       -0.16917        24.45888        -3.25465
| 63>    O        0.95117        24.85302        -3.49806
| 64>    O       -1.15105        25.16984        -3.17199
| 65>    N        0.73039        22.42541        -2.38547
| 66>    O        1.31832        23.07642        -1.54538
| 67>    O        0.99959        21.27040        -2.67497
| 68>    C       -2.39720        22.97513        -4.51844
| 69>    C       -2.47607        24.07089        -5.32124
| 70>    S       -3.88146        24.01212        -6.31807
| 71>    C       -4.36595        22.48772        -5.67346
| 72>    C       -3.48621        22.06998        -4.73145
| 73>    C       -3.30662        20.88373        -3.89339
| 74>    O       -3.96320        19.86823        -3.89658
| 75>    H        0.43870        -2.13695        -9.51234
| 76>    H       -3.41061        -1.57230        -8.27384
| 77>    H       -2.02862         0.44019        -7.09492
| 78>    H        1.78369        -0.06878        -8.31095
| 79>    H       -0.04767         1.69614        -6.59683
| 80>    H        2.95808         1.78890        -7.25683
| 81>    H        1.12189         3.58006        -5.56804
| 82>    H        4.11366         3.72058        -6.27428
| 83>    H        5.26296         5.86486        -5.34763
| 84>    H        4.70587         8.00619        -4.02465
| 85>    H        3.58183         9.87334        -3.06962
| 86>    H        1.90253        11.44721        -1.90174
| 87>    H       -0.56567        11.54670        -1.16459
| 88>    H       -1.95379         8.80855        -1.17696
| 89>    H       -4.30960         8.94811         0.02745
| 90>    H       -6.01033        10.71458         0.85101
| 91>    H       -7.03064        12.86976         1.68914
| 92>    H       -7.72846        15.35759         1.78181
| 93>    H       -7.12635        17.60209         0.74706
| 94>    H       -6.72027        19.70313        -0.41182
| 95>    H       -0.44209        20.06942        -2.16435
| 96>    H       -1.83055        24.92104        -5.40726
| 97>    H       -5.25858        22.01008        -6.02357
| 98> *
| 99>
|100>                          ****END OF INPUT****

CARTESIAN COORDINATES (ANGSTROEM)
---------------------------------
  C     -0.336850   -1.628900   -8.973530
  O     -1.576390   -2.114900   -9.062450
  C     -2.368690   -1.323750   -8.314350
  C     -1.652690   -0.327950   -7.737380
  C     -0.298910   -0.512470   -8.164310
  C      0.859910    0.263360   -7.854780
  C      0.871790    1.361030   -7.056530
  C      2.033710    2.117710   -6.798780
  C      2.045770    3.250210   -6.027280
  C      3.182220    4.033490   -5.819980
  C      3.202470    5.214620   -5.104940
  C      4.293860    6.088770   -4.938320
  C      3.996590    7.227520   -4.238430
  C      2.661520    7.293410   -3.807630
  S      1.786250    5.873170   -4.302160
  C      2.043090    8.338290   -3.116250
  C      2.575350    9.595990   -2.814460
  C      1.679910   10.436840   -2.194690
  C      0.426110    9.862760   -1.964640
  S      0.390910    8.224990   -2.560640
  C     -0.676980   10.489990   -1.373260
  C     -1.854550    9.878260   -1.039410
  C     -2.959560   10.558810   -0.508340
  C     -4.141680   10.010140   -0.008200
  C     -5.047490   10.951660    0.436110
  C     -4.606350   12.265330    0.268830
  S     -3.013760   12.302220   -0.421310
  C     -5.280890   13.468540    0.539980
  C     -6.475530   13.671100    1.236010
  C     -6.842540   14.995840    1.290450
  C     -5.946300   15.861210    0.642010
  S     -4.619040   14.972820   -0.026910
  C     -6.153480   17.232350    0.445170
  C     -5.312950   18.138650   -0.161700
  C     -3.949970   18.101610   -0.561880
  C     -3.661140   19.275610   -1.267840
  C     -4.841840   20.143180   -1.252830
  O     -5.032790   21.257910   -1.675460
  N     -5.771230   19.391580   -0.549560
  C     -2.308600   19.254460   -1.620480
  O     -1.748340   18.126770   -1.075840
  C     -2.697170   17.389030   -0.407990
  O     -2.405880   16.381390    0.192420
  C     -1.514380   20.171520   -2.293830
  C     -2.029500   21.135630   -3.148140
  C     -1.476340   22.393620   -3.544460
  C     -0.348480   23.045230   -3.072870
  N     -0.169170   24.458880   -3.254650
  O      0.951170   24.853020   -3.498060
  O     -1.151050   25.169840   -3.171990
  N      0.730390   22.425410   -2.385470
  O      1.318320   23.076420   -1.545380
  O      0.999590   21.270400   -2.674970
  C     -2.397200   22.975130   -4.518440
  C     -2.476070   24.070890   -5.321240
  S     -3.881460   24.012120   -6.318070
  C     -4.365950   22.487720   -5.673460
  C     -3.486210   22.069980   -4.731450
  C     -3.306620   20.883730   -3.893390
  O     -3.963200   19.868230   -3.896580
  H      0.438700   -2.136950   -9.512340
  H     -3.410610   -1.572300   -8.273840
  H     -2.028620    0.440190   -7.094920
  H      1.783690   -0.068780   -8.310950
  H     -0.047670    1.696140   -6.596830
  H      2.958080    1.788900   -7.256830
  H      1.121890    3.580060   -5.568040
  H      4.113660    3.720580   -6.274280
  H      5.262960    5.864860   -5.347630
  H      4.705870    8.006190   -4.024650
  H      3.581830    9.873340   -3.069620
  H      1.902530   11.447210   -1.901740
  H     -0.565670   11.546700   -1.164590
  H     -1.953790    8.808550   -1.176960
  H     -4.309600    8.948110    0.027450
  H     -6.010330   10.714580    0.851010
  H     -7.030640   12.869760    1.689140
  H     -7.728460   15.357590    1.781810
  H     -7.126350   17.602090    0.747060
  H     -6.720270   19.703130   -0.411820
  H     -0.442090   20.069420   -2.164350
  H     -1.830550   24.921040   -5.407260
  H     -5.258580   22.010080   -6.023570

 Total Charge           Charge          ....    0
 Multiplicity           Mult            ....    1
 Number of Electrons    NEL             ....  454
 Basis Dimension        Dim             ....  975

ORBITAL ENERGIES
----------------

  NO   OCC          E(Eh)            E(eV)
   0   2.0000     -88.984480     -2421.3908
   1   2.0000     -88.978706     -2421.2337
   2   2.0000     -88.961785     -2420.7732
   3   2.0000     -88.946745     -2420.3640
   4   2.0000     -88.940603     -2420.1968
   5   2.0000     -19.315337      -525.5970
   6   2.0000     -19.239878      -523.5437
   7   2.0000     -19.201613      -522.5025
   8   2.0000     -19.201376      -522.4960
   9   2.0000     -19.200166      -522.4631
  10   2.0000     -19.197548      -522.3918
  11   2.0000     -19.177800      -521.8545
  12   2.0000     -19.169865      -521.6385
  13   2.0000     -19.163691      -521.4705
  14   2.0000     -14.610488      -397.5716
  15   2.0000     -14.608605      -397.5203
  16   2.0000     -14.433881      -392.7659
  17   2.0000     -10.369161      -282.1592
  18   2.0000     -10.364268      -282.0261
  19   2.0000     -10.355477      -281.7868
  20   2.0000     -10.350580      -281.6536
  21   2.0000     -10.343635      -281.4646
  22   2.0000     -10.339977      -281.3651
  23   2.0000     -10.338715      -281.3307
  24   2.0000     -10.336086      -281.2592
  25   2.0000     -10.328963      -281.0654
  26   2.0000     -10.327417      -281.0233
  27   2.0000     -10.327342      -281.0213
  28   2.0000     -10.326421      -280.9962
  29   2.0000     -10.323494      -280.9165
  30   2.0000     -10.319643      -280.8118
  31   2.0000     -10.317953      -280.7658
  32   2.0000     -10.316676      -280.7310
  33   2.0000     -10.316045      -280.7139
  34   2.0000     -10.314287      -280.6660
  35   2.0000     -10.313372      -280.6411
  36   2.0000     -10.309849      -280.5452
  37   2.0000     -10.309606      -280.5386
  38   2.0000     -10.309155      -280.5264
  39   2.0000     -10.308148      -280.4990
  40   2.0000     -10.303010      -280.3591
  41   2.0000     -10.302546      -280.3465
  42   2.0000     -10.301430      -280.3162
  43   2.0000     -10.301416      -280.3158
  44   2.0000     -10.301191      -280.3097
  45   2.0000     -10.300389      -280.2878
  46   2.0000     -10.297156      -280.1999
  47   2.0000     -10.291779      -280.0535
  48   2.0000     -10.289802      -279.9997
  49   2.0000     -10.283657      -279.8325
  50   2.0000     -10.279916      -279.7307
  51   2.0000     -10.278613      -279.6953
  52   2.0000     -10.272268      -279.5226
  53   2.0000     -10.271754      -279.5086
  54   2.0000     -10.267370      -279.3893
  55   2.0000     -10.267225      -279.3854
  56   2.0000     -10.260989      -279.2157
  57   2.0000     -10.253712      -279.0177
  58   2.0000     -10.252547      -278.9860
  59   2.0000     -10.247458      -278.8475
  60   2.0000      -8.080696      -219.8869
  61   2.0000      -8.074991      -219.7317
  62   2.0000      -8.057974      -219.2686
  63   2.0000      -8.042098      -218.8366
  64   2.0000      -8.036605      -218.6871
  65   2.0000      -6.050228      -164.6351
  66   2.0000      -6.046217      -164.5259
  67   2.0000      -6.044435      -164.4774
  68   2.0000      -6.041982      -164.4107
  69   2.0000      -6.040451      -164.3690
  70   2.0000      -6.036442      -164.2599
  71   2.0000      -6.027354      -164.0126
  72   2.0000      -6.023260      -163.9012
  73   2.0000      -6.019615      -163.8021
  74   2.0000      -6.011391      -163.5783
  75   2.0000      -6.007159      -163.4631
  76   2.0000      -6.005884      -163.4284
  77   2.0000      -6.003984      -163.3767
  78   2.0000      -6.001266      -163.3028
  79   2.0000      -5.999204      -163.2466
  80   2.0000      -1.290579       -35.1184
  81   2.0000      -1.272585       -34.6288
  82   2.0000      -1.235120       -33.6093
  83   2.0000      -1.172445       -31.9038
  84   2.0000      -1.115300       -30.3489
  85   2.0000      -1.103674       -30.0325
  86   2.0000      -1.094955       -29.7952
  87   2.0000      -1.087653       -29.5965
  88   2.0000      -1.074150       -29.2291
  89   2.0000      -1.038956       -28.2714
  90   2.0000      -1.029627       -28.0176
  91   2.0000      -1.007364       -27.4118
  92   2.0000      -1.003375       -27.3032
  93   2.0000      -0.977028       -26.5863
  94   2.0000      -0.975066       -26.5329
  95   2.0000      -0.956975       -26.0406
  96   2.0000      -0.938491       -25.5376
  97   2.0000      -0.932493       -25.3744
  98   2.0000      -0.924579       -25.1591
  99   2.0000      -0.904010       -24.5994
 100   2.0000      -0.894506       -24.3407
 101   2.0000      -0.887682       -24.1550
 102   2.0000      -0.885166       -24.0866
 103   2.0000      -0.880086       -23.9484
 104   2.0000      -0.870202       -23.6794
 105   2.0000      -0.863171       -23.4881
 106   2.0000      -0.854664       -23.2566
 107   2.0000      -0.853807       -23.2333
 108   2.0000      -0.850443       -23.1417
 109   2.0000      -0.842443       -22.9240
 110   2.0000      -0.823843       -22.4179
 111   2.0000      -0.821021       -22.3411
 112   2.0000      -0.805410       -21.9163
 113   2.0000      -0.799557       -21.7570
 114   2.0000      -0.782934       -21.3047
 115   2.0000      -0.776157       -21.1203
 116   2.0000      -0.760083       -20.6829
 117   2.0000      -0.752971       -20.4894
 118   2.0000      -0.737166       -20.0593
 119   2.0000      -0.731101       -19.8943
 120   2.0000      -0.729628       -19.8542
 121   2.0000      -0.720449       -19.6044
 122   2.0000      -0.710479       -19.3331
 123   2.0000      -0.700769       -19.0689
 124   2.0000      -0.695645       -18.9295
 125   2.0000      -0.684528       -18.6270
 126   2.0000      -0.679899       -18.5010
 127   2.0000      -0.674170       -18.3451
 128   2.0000      -0.669655       -18.2222
 129   2.0000      -0.662982       -18.0407
 130   2.0000      -0.654066       -17.7980
 131   2.0000      -0.643358       -17.5067
 132   2.0000      -0.638977       -17.3875
 133   2.0000      -0.636913       -17.3313
 134   2.0000      -0.636568       -17.3219
 135   2.0000      -0.635130       -17.2828
 136   2.0000      -0.621769       -16.9192
 137   2.0000      -0.619836       -16.8666
 138   2.0000      -0.616693       -16.7811
 139   2.0000      -0.610884       -16.6230
 140   2.0000      -0.603570       -16.4240
 141   2.0000      -0.600791       -16.3484
 142   2.0000      -0.590515       -16.0687
 143   2.0000      -0.588948       -16.0261
 144   2.0000      -0.582048       -15.8383
 145   2.0000      -0.579566       -15.7708
 146   2.0000      -0.576539       -15.6884
 147   2.0000      -0.574345       -15.6287
 148   2.0000      -0.572534       -15.5794
 149   2.0000      -0.571358       -15.5474
 150   2.0000      -0.566092       -15.4042
 151   2.0000      -0.560843       -15.2613
 152   2.0000      -0.556389       -15.1401
 153   2.0000      -0.551202       -14.9990
 154   2.0000      -0.548036       -14.9128
 155   2.0000      -0.542925       -14.7737
 156   2.0000      -0.542088       -14.7510
 157   2.0000      -0.536531       -14.5997
 158   2.0000      -0.534304       -14.5392
 159   2.0000      -0.533118       -14.5069
 160   2.0000      -0.530202       -14.4275
 161   2.0000      -0.526682       -14.3317
 162   2.0000      -0.523017       -14.2320
 163   2.0000      -0.518481       -14.1086
 164   2.0000      -0.513583       -13.9753
 165   2.0000      -0.509784       -13.8719
 166   2.0000      -0.504996       -13.7416
 167   2.0000      -0.502490       -13.6734
 168   2.0000      -0.500937       -13.6312
 169   2.0000      -0.498144       -13.5552
 170   2.0000      -0.496421       -13.5083
 171   2.0000      -0.494187       -13.4475
 172   2.0000      -0.492215       -13.3938
 173   2.0000      -0.491157       -13.3651
 174   2.0000      -0.488469       -13.2919
 175   2.0000      -0.487352       -13.2615
 176   2.0000      -0.482802       -13.1377
 177   2.0000      -0.481738       -13.1088
 178   2.0000      -0.479864       -13.0577
 179   2.0000      -0.473191       -12.8762
 180   2.0000      -0.470771       -12.8103
 181   2.0000      -0.467949       -12.7335
 182   2.0000      -0.467052       -12.7091
 183   2.0000      -0.465977       -12.6799
 184   2.0000      -0.462843       -12.5946
 185   2.0000      -0.461633       -12.5617
 186   2.0000      -0.456035       -12.4093
 187   2.0000      -0.454845       -12.3770
 188   2.0000      -0.449832       -12.2405
 189   2.0000      -0.443371       -12.0647
 190   2.0000      -0.437401       -11.9023
 191   2.0000      -0.436223       -11.8702
 192   2.0000      -0.434050       -11.8111
 193   2.0000      -0.432157       -11.7596
 194   2.0000      -0.428358       -11.6562
 195   2.0000      -0.424156       -11.5419
 196   2.0000      -0.420719       -11.4483
 197   2.0000      -0.412928       -11.2363
 198   2.0000      -0.404406       -11.0045
 199   2.0000      -0.403715       -10.9856
 200   2.0000      -0.390499       -10.6260
 201   2.0000      -0.385576       -10.4921
 202   2.0000      -0.384172       -10.4539
 203   2.0000      -0.367760       -10.0073
 204   2.0000      -0.364258        -9.9120
 205   2.0000      -0.361291        -9.8312
 206   2.0000      -0.352027        -9.5791
 207   2.0000      -0.349375        -9.5070
 208   2.0000      -0.344889        -9.3849
 209   2.0000      -0.343785        -9.3549
 210   2.0000      -0.340714        -9.2713
 211   2.0000      -0.339912        -9.2495
 212   2.0000      -0.334368        -9.0986
 213   2.0000      -0.332426        -9.0458
 214   2.0000      -0.329031        -8.9534
 215   2.0000      -0.325688        -8.8624
 216   2.0000      -0.321363        -8.7447
 217   2.0000      -0.320621        -8.7246
 218   2.0000      -0.307608        -8.3704
 219   2.0000      -0.301978        -8.2172
 220   2.0000      -0.293897        -7.9974
 221   2.0000      -0.293043        -7.9741
 222   2.0000      -0.289926        -7.8893
 223   2.0000      -0.274173        -7.4606
 224   2.0000      -0.263145        -7.1605
 225   2.0000      -0.231137        -6.2896
 226   2.0000      -0.198493        -5.4013
 227   0.0000      -0.136301        -3.7089
 228   0.0000      -0.083349        -2.2680
 229   0.0000      -0.062268        -1.6944
 230   0.0000      -0.036423        -0.9911
 231   0.0000      -0.019752        -0.5375

MULLIKEN ATOMIC CHARGES
-----------------------
   0 C :    0.095143
   1 O :   -0.170042
   2 C :    0.140555
   3 C :   -0.039930
   4 C :    0.029386
   5 C :    0.042886
   6 C :    0.006155
   7 C :    0.044396
   8 C :   -0.008491
   9 C :    0.029141
  10 C :   -0.043895
  11 C :    0.058383
  12 C :    0.013663
  13 C :   -0.023199
  14 S :    0.110470
  15 C :   -0.062930
  16 C :    0.037099
  17 C :    0.021783
  18 C :   -0.013535
  19 S :    0.111502
  20 C :   -0.024006
  21 C :    0.034350
  22 C :   -0.060349
  23 C :    0.042574
  24 C :    0.005456
  25 C :   -0.019438
  26 S :    0.138999
  27 C :   -0.073972
  28 C :    0.039006
  29 C :    0.003573
  30 C :   -0.028091
  31 S :    0.194385
  32 C :   -0.053764
  33 C :    0.142261
  34 C :   -0.159368
  35 C :   -0.001781
  36 C :    0.159732
  37 O :   -0.154792
  38 N :   -0.124127
  39 C :    0.120494
  40 O :   -0.231424
  41 C :    0.200782
  42 O :   -0.195205
  43 C :   -0.055554
  44 C :   -0.111535
  45 C :    0.225032
  46 C :    0.014784
  47 N :    0.225680
  48 O :   -0.239303
  49 O :   -0.249098
  50 N :    0.252806
  51 O :   -0.245299
  52 O :   -0.263070
  53 C :    0.065084
  54 C :   -0.135233
  55 S :    0.115772
  56 C :   -0.134822
  57 C :    0.022394
  58 C :    0.170319
  59 O :   -0.162818
  60 H :    0.015136
  61 H :    0.020840
  62 H :   -0.004462
  63 H :   -0.009853
  64 H :   -0.007166
  65 H :   -0.001688
  66 H :    0.004239
  67 H :    0.000660
  68 H :    0.002076
  69 H :    0.000411
  70 H :   -0.001163
  71 H :    0.006536
  72 H :    0.016883
  73 H :    0.000493
  74 H :   -0.008819
  75 H :   -0.012502
  76 H :   -0.017415
  77 H :   -0.018215
  78 H :   -0.033257
  79 H :    0.121309
  80 H :    0.037489
  81 H :    0.036494
  82 H :    0.022998
Sum of atomic charges:   -0.0000000

LOEWDIN ATOMIC CHARGES
----------------------
   0 C :    0.052372
   1 O :    0.033759
   2 C :    0.042999
   3 C :   -0.064380
   4 C :   -0.083956
   5 C :    0.022118
   6 C :   -0.041055
   7 C :    0.024979
   8 C :   -0.051480
   9 C :   -0.000920
  10 C :   -0.165841
  11 C :   -0.003803
  12 C :   -0.043397
  13 C :   -0.138967
  14 S :    0.406096
  15 C :   -0.200001
  16 C :   -0.008195
  17 C :   -0.045443
  18 C :   -0.116225
  19 S :    0.407976
  20 C :   -0.078342
  21 C :   -0.004810
  22 C :   -0.180070
  23 C :   -0.015395
  24 C :   -0.060066
  25 C :   -0.135692
  26 S :    0.440788
  27 C :   -0.214883
  28 C :   -0.027245
  29 C :   -0.064145
  30 C :   -0.126899
  31 S :    0.508499
  32 C :   -0.109955
  33 C :    0.070115
  34 C :   -0.146651
  35 C :   -0.027379
  36 C :    0.081448
  37 O :   -0.161327
  38 N :    0.023079
  39 C :    0.031738
  40 O :   -0.042747
  41 C :    0.072207
  42 O :   -0.202498
  43 C :    0.038810
  44 C :   -0.103929
  45 C :    0.051690
  46 C :   -0.102638
  47 N :    0.273338
  48 O :   -0.205753
  49 O :   -0.210195
  50 N :    0.277503
  51 O :   -0.210614
  52 O :   -0.221150
  53 C :   -0.055996
  54 C :   -0.157567
  55 S :    0.454436
  56 C :   -0.151068
  57 C :   -0.081566
  58 C :    0.088061
  59 O :   -0.152599
  60 H :    0.026222
  61 H :    0.027218
  62 H :    0.031256
  63 H :    0.033686
  64 H :    0.030118
  65 H :    0.033108
  66 H :    0.025367
  67 H :    0.040340
  68 H :    0.039944
  69 H :    0.037244
  70 H :    0.037163
  71 H :    0.041509
  72 H :    0.035859
  73 H :    0.032221
  74 H :    0.034701
  75 H :    0.032404
  76 H :    0.030005
  77 H :    0.029799
  78 H :    0.032647
  79 H :    0.087467
  80 H :    0.040455
  81 H :    0.024770
  82 H :    0.029329

  Mayer bond orders larger than 0.100000
B(  0-C ,  1-O ) :   1.1876 B(  0-C ,  4-C ) :   1.4720 B(  0-C , 60-H ) :   1.0068
B(  1-O ,  2-C ) :   1.1351 B(  2-C ,  3-C ) :   1.6016 B(  2-C , 61-H ) :   1.0000
B(  3-C ,  4-C ) :   1.2045 B(  3-C , 62-H ) :   1.0033 B(  4-C ,  5-C ) :   1.1006
B(  5-C ,  6-C ) :   1.6291 B(  5-C , 63-H ) :   0.9796 B(  6-C ,  7-C ) :   1.1705
B(  6-C , 64-H ) :   0.9812 B(  7-C ,  8-C ) :   1.5525 B(  7-C , 65-H ) :   0.9914
B(  8-C ,  9-C ) :   1.1998 B(  8-C , 66-H ) :   0.9767 B(  9-C , 10-C ) :   1.4979
B(  9-C , 67-H ) :   0.9812 B( 10-C , 11-C ) :   1.1907 B( 10-C , 14-S ) :   1.0305
B( 11-C , 12-C ) :   1.5218 B( 11-C , 68-H ) :   0.9999 B( 12-C , 13-C ) :   1.2529
B( 12-C , 69-H ) :   0.9960 B( 13-C , 14-S ) :   1.1069 B( 13-C , 15-C ) :   1.3647
B( 15-C , 16-C ) :   1.2953 B( 15-C , 19-S ) :   1.0587 B( 16-C , 17-C ) :   1.4551
B( 16-C , 70-H ) :   0.9951 B( 17-C , 18-C ) :   1.2729 B( 17-C , 71-H ) :   1.0020
B( 18-C , 19-S ) :   1.1006 B( 18-C , 20-C ) :   1.3507 B( 20-C , 21-C ) :   1.3868
B( 20-C , 72-H ) :   0.9714 B( 21-C , 22-C ) :   1.3538 B( 21-C , 73-H ) :   0.9739
B( 22-C , 23-C ) :   1.2969 B( 22-C , 26-S ) :   1.0637 B( 23-C , 24-C ) :   1.4143
B( 23-C , 74-H ) :   1.0008 B( 24-C , 25-C ) :   1.3384 B( 24-C , 75-H ) :   0.9970
B( 25-C , 26-S ) :   1.1362 B( 25-C , 27-C ) :   1.2651 B( 27-C , 28-C ) :   1.3326
B( 27-C , 31-S ) :   1.1075 B( 28-C , 29-C ) :   1.4217 B( 28-C , 76-H ) :   0.9950
B( 29-C , 30-C ) :   1.2958 B( 29-C , 77-H ) :   0.9994 B( 30-C , 31-S ) :   1.1647
B( 30-C , 32-C ) :   1.2744 B( 32-C , 33-C ) :   1.4431 B( 32-C , 78-H ) :   0.9473
B( 33-C , 34-C ) :   1.1075 B( 33-C , 38-N ) :   1.1476 B( 34-C , 35-C ) :   1.3952
B( 34-C , 41-C ) :   1.0101 B( 35-C , 36-C ) :   0.9015 B( 35-C , 39-C ) :   1.2684
B( 36-C , 37-O ) :   2.2094 B( 36-C , 38-N ) :   1.0935 B( 38-N , 79-H ) :   0.9252
B( 39-C , 40-O ) :   1.0901 B( 39-C , 43-C ) :   1.3654 B( 40-O , 41-C ) :   1.0733
B( 41-C , 42-O ) :   2.1287 B( 43-C , 44-C ) :   1.3465 B( 43-C , 80-H ) :   0.9338
B( 44-C , 45-C ) :   1.2372 B( 44-C , 58-C ) :   0.9558 B( 45-C , 46-C ) :   1.4388
B( 45-C , 53-C ) :   1.0016 B( 46-C , 47-N ) :   0.9305 B( 46-C , 50-N ) :   0.9694
B( 47-N , 48-O ) :   1.5202 B( 47-N , 49-O ) :   1.5024 B( 48-O , 49-O ) :   0.2644
B( 50-N , 51-O ) :   1.5132 B( 50-N , 52-O ) :   1.4589 B( 51-O , 52-O ) :   0.2483
B( 53-C , 54-C ) :   1.5586 B( 53-C , 57-C ) :   1.2417 B( 54-C , 55-S ) :   1.1692
B( 54-C , 81-H ) :   0.9541 B( 55-S , 56-C ) :   1.1661 B( 56-C , 57-C ) :   1.5614
B( 56-C , 82-H ) :   0.9700 B( 57-C , 58-C ) :   0.9524 B( 58-C , 59-O ) :   2.1965

-----------------------------------------------------------------------------
         ABSORPTION SPECTRUM VIA TRANSITION ELECTRIC DIPOLE MOMENTS
-----------------------------------------------------------------------------
State   Energy  Wavelength   fosc         T2         TX        TY        TZ
        (cm-1)    (nm)                  (au**2)     (au)      (au)      (au)
-----------------------------------------------------------------------------
   0    3746.1   2669.4   0.531795402  46.73479   1.83754  -6.44746  -1.33737
   1    9701.2   1030.8   0.418697601  14.20855  -1.80264   2.79910   1.76752
   2   12484.2    801.0   0.589397960  15.54259  -2.56535  -0.82379   2.87801
   3   15391.7    649.7   0.117408113   2.51124   0.52605  -0.17595  -1.48444
   4   18012.6    555.2   0.362775622   6.63037  -1.57260  -1.93824  -0.63286
   5   20119.8    497.0   0.107166816   1.75353  -0.64517   1.02729  -0.53100
   6   21159.2    472.6   0.181717256   2.82730  -1.15341  -1.20479  -0.21312
   7   21390.2    467.5   0.005354299   0.08241  -0.04771  -0.23508  -0.15769
   8   21849.9    457.7   0.073809532   1.11209   1.01255   0.28963   0.05423
   9   22683.5    440.8   0.018225647   0.26451   0.31151   0.31561  -0.26052
  10   23096.0    433.0   0.059554549   0.84889   0.68718   0.60770   0.08588
  11   24321.2    411.2   0.186076068   2.51873  -1.25618  -0.91131   0.33205
  12   25253.3    396.0   0.358137066   4.66882   1.42245   1.54995   0.49308
  13   25368.5    394.2   0.088619826   1.15004  -0.63197  -0.80482  -0.32080
  14   27028.9    370.0   0.018909678   0.23032   0.20669  -0.08551  -0.42460
  15   27257.5    366.9   0.035776622   0.43210   0.15408   0.63657   0.05604
  16   27432.6    364.5   0.090324329   1.08396  -0.44399  -0.71569   0.61206
  17   27634.1    361.9   0.165495521   1.97159   0.96961   1.00694  -0.13236
  18   27732.2    360.6   0.120555482   1.43113  -0.92132   0.21604  -0.73186
  19   28068.9    356.3   0.047807922   0.56073   0.15302   0.67771   0.27933
  20   28673.3    348.8   0.022719687   0.26086  -0.07617   0.11675  -0.49135
  21   29137.8    343.2   0.014904395   0.16840   0.10701  -0.33236   0.21560
  22   29818.8    335.4   0.025662047   0.28332   0.16585   0.40720   0.30001
  23   30042.7    332.9   0.155718901   1.70639   0.39101   1.24010   0.12508
  24   30475.7    328.1   0.002862722   0.03092   0.03560  -0.04307   0.16674
  25   30561.9    327.2   0.020751079   0.22353   0.32869   0.33894   0.02466
  26   30876.9    323.9   0.061690451   0.65775  -0.77981  -0.10372  -0.19719
  27   30991.2    322.7   0.010418996   0.11068  -0.04177  -0.30291   0.13107
  28   31395.0    318.5   0.009251892   0.09702   0.05615   0.02848   0.30505
  29   31578.2    316.7   0.038390108   0.40023   0.61866   0.10046   0.08596
  30   31959.8    312.9   0.018006340   0.18548  -0.13622  -0.40766  -0.02710
  31   32170.3    310.8   0.025527182   0.26123  -0.02433   0.41547   0.29669
  32   32363.7    309.0   0.008508666   0.08655   0.14754  -0.21193  -0.14096
  33   32512.5    307.6   0.001547555   0.01567  -0.10225   0.06681   0.02741
  34   32726.7    305.6   0.077711267   0.78173  -0.71692  -0.32064  -0.40614
  35   32981.6    303.2   0.023002197   0.22960  -0.09456  -0.01887  -0.46937
  36   33267.8    300.6   0.001761265   0.01743  -0.02173   0.12993   0.00860
  37   33452.3    298.9   0.026040656   0.25627  -0.46754  -0.00904  -0.19391
  38   33803.2    295.8   0.013862715   0.13501   0.14171   0.21874  -0.25900
  39   34102.1    293.2   0.085791851   0.82821  -0.67331   0.46136  -0.40250
  40   34332.0    291.3   0.082116822   0.78742  -0.64677  -0.46299  -0.39339
  41   34536.3    289.6   0.002640502   0.02517  -0.01872  -0.14807  -0.05381
  42   34809.3    287.3   0.025615010   0.24226   0.37903  -0.12605   0.28758
  43   35288.7    283.4   0.041492014   0.38708  -0.31211  -0.41799  -0.33905
  44   35330.8    283.0   0.033512358   0.31227  -0.22711  -0.13157  -0.49333
  45   35514.0    281.6   0.016407878   0.15210  -0.28473   0.20360  -0.17197
  46   35937.8    278.3   0.010794590   0.09889  -0.12222  -0.28899   0.02081
  47   36003.3    277.8   0.057135231   0.52244   0.49657  -0.52103   0.06617
  48   36432.2    274.5   0.002021539   0.01827   0.04946  -0.03171   0.12172
  49   36660.7    272.8   0.087535919   0.78607  -0.47252   0.54592  -0.51455
  50   36883.4    271.1   0.020363875   0.18176   0.41900   0.07869   0.00338
  51   37499.0    266.7   0.037872336   0.33249   0.44837  -0.34006   0.12575
  52   37727.9    265.1   0.073555175   0.64184   0.36138  -0.43564   0.56697
  53   37768.3    264.8   0.004576021   0.03989  -0.08264   0.16696   0.07198
  54   37918.2    263.7   0.038709511   0.33608  -0.36187  -0.43863  -0.11287
  55   38115.6    262.4   0.047245183   0.40807  -0.50065  -0.04495  -0.39420
  56   38315.3    261.0   0.042354741   0.36392   0.52979   0.25800   0.12915
  57   38759.6    258.0   0.043873039   0.37264  -0.01368   0.56462  -0.23165
  58   39052.1    256.1   0.027489109   0.23174   0.30702  -0.32401   0.18025
  59   39214.1    255.0   0.010230958   0.08589  -0.00084   0.09024   0.27883
  60   39868.0    250.8   0.003927382   0.03243  -0.10122  -0.14870  -0.00858
  61   39914.4    250.5   0.002205008   0.01819   0.09143   0.09787  -0.01575
  62   39984.3    250.1   0.002702012   0.02225   0.01600   0.14744   0.01592
  63   40128.0    249.2   0.016618341   0.13634  -0.15994   0.33280   0.00147

FINAL SINGLE POINT ENERGY     -4480.612966707724

DIPOLE MOMENT
-------------
                                X             Y             Z
Electronic contribution:     -8.12704      79.41739      12.59375
Nuclear contribution   :      8.08781     -94.35584     -14.82237
                        -----------------------------------------
Total Dipole Moment    :     -0.03923     -14.93845      -2.22862
                        -----------------------------------------
Magnitude (a.u.)       :     15.10382
Magnitude (Debye)      :     38.39086

Rotational constants in cm-1:     0.001528     0.000270     0.000254
Rotational constants in MHz :    45.807894     8.094967     7.599882

                             ****ORCA TERMINATED NORMALLY****
TOTAL RUN TIME: 0 days 0 hours 7 minutes 3 seconds 147 msec
