                         Program Version 4.2.0 -  RELEASE  -
|  1> # ORCA input file
|  2> # SCF done       -130.818166869029          0.001008764495
|  3> ! CAM-B3LYP def2-SVP def2/J RIJCOSX Grid4 TightSCF
|  4> %maxcore 5000
|  5> %tddft
|  6>     Mode sTDDFT
|  7>     Ethresh 5.0
|  8>     maxcore 5000
|  9> end
| 10>
| 11> %pal
| 12>   nprocs 6
| 13>   end
| 14> * xyz 0 1
| 15>    C       14.24961        -1.62176        -4.37026
| 16>    O       14.76121        -0.89443        -5.36158
| 17>    C       13.73198        -0.34310        -6.02786
| 18>    C       12.54806        -0.71294        -5.47837
| 19>    C       12.87168        -1.56455        -4.37454
| 20>    C       11.99566        -2.21429        -3.44802
| 21>    C       10.64657        -2.14281        -3.47858
| 22>    C        9.81272        -2.75277        -2.50628
| 23>    C        8.46461        -2.59421        -2.48170
| 24>    C        7.60634        -3.12227        -1.48712
| 25>    S        8.22957        -4.15416        -0.24054
| 26>    C        6.66063        -4.23848         0.48565
| 27>    N        6.52017        -4.95950         1.67320
| 28>    O        5.40602        -5.06515         2.15278
| 29>    O        7.54197        -5.42500         2.15906
| 30>    C        5.70855        -3.51632        -0.18811
| 31>    C        6.22865        -2.86378        -1.31906
| 32>    C        5.50905        -1.94688        -2.15471
| 33>    C        4.27209        -1.45903        -1.93679
| 34>    C        3.68929        -0.41242        -2.72600
| 35>    O        2.33891        -0.37078        -2.80312
| 36>    C        2.00318         0.62459        -3.63677
| 37>    C        3.10891         1.25205        -4.11198
| 38>    C        4.23022         0.60966        -3.51135
| 39>    C        5.59176         1.03963        -3.67024
| 40>    C        6.56243         0.86567        -2.74601
| 41>    C        7.93685         1.15970        -2.93569
| 42>    C        8.87748         0.73765        -2.05043
| 43>    C       10.27535         0.87125        -2.20616
| 44>    S       10.94395         1.82667        -3.49468
| 45>    C       12.54144         1.43587        -2.96361
| 46>    N       13.62975         1.92154        -3.69055
| 47>    O       14.74660         1.61120        -3.31023
| 48>    O       13.38743         2.61313        -4.66698
| 49>    C       12.56332         0.61586        -1.86563
| 50>    C       11.27601         0.26918        -1.41701
| 51>    C       11.00360        -0.66030        -0.36089
| 52>    C       11.93933        -1.23827         0.42514
| 53>    C       11.64988        -2.24074         1.39042
| 54>    O       10.39449        -2.75088         1.49017
| 55>    C       10.42005        -3.70191         2.43865
| 56>    C       11.66195        -3.82751         2.97358
| 57>    C       12.48959        -2.88115         2.30537
| 58>    C       13.88161        -2.61716         2.51400
| 59>    C       14.66804        -3.26728         3.39034
| 60>    C       16.06241        -2.96799         3.56807
| 61>    C       16.85291        -3.61010         4.42755
| 62>    H       14.93257        -2.13548        -3.72288
| 63>    H       13.96544         0.29658        -6.85537
| 64>    H       11.57318        -0.41859        -5.80628
| 65>    H       12.47766        -2.78698        -2.66619
| 66>    H       10.15652        -1.57171        -4.25529
| 67>    H       10.29406        -3.34089        -1.73512
| 68>    H        8.00758        -1.99397        -3.25588
| 69>    H        4.68720        -3.46629         0.14143
| 70>    H        6.04835        -1.56927        -3.00926
| 71>    H        3.63463        -1.85418        -1.15860
| 72>    H        0.95773         0.78513        -3.81171
| 73>    H        3.14176         2.08618        -4.78222
| 74>    H        5.81532         1.56495        -4.59034
| 75>    H        6.30239         0.41031        -1.80001
| 76>    H        8.23866         1.66295        -3.84516
| 77>    H        8.54114         0.21830        -1.16360
| 78>    H       13.48582         0.27740        -1.43210
| 79>    H        9.97396        -0.94683        -0.21052
| 80>    H       12.97922        -0.96260         0.34103
| 81>    H        9.50821        -4.23475         2.63083
| 82>    H       11.95228        -4.50702         3.74699
| 83>    H       14.31417        -1.82828         1.91216
| 84>    H       14.26154        -4.05856         4.00426
| 85>    H       16.46515        -2.17160         2.95474
| 86>    H       16.47905        -4.40662         5.04964
| 87>    H       17.89417        -3.36274         4.53896
| 88> *
| 89>
| 90>                          ****END OF INPUT****

CARTESIAN COORDINATES (ANGSTROEM)
---------------------------------
  C     14.249610   -1.621760   -4.370260
  O     14.761210   -0.894430   -5.361580
  C     13.731980   -0.343100   -6.027860
  C     12.548060   -0.712940   -5.478370
  C     12.871680   -1.564550   -4.374540
  C     11.995660   -2.214290   -3.448020
  C     10.646570   -2.142810   -3.478580
  C      9.812720   -2.752770   -2.506280
  C      8.464610   -2.594210   -2.481700
  C      7.606340   -3.122270   -1.487120
  S      8.229570   -4.154160   -0.240540
  C      6.660630   -4.238480    0.485650
  N      6.520170   -4.959500    1.673200
  O      5.406020   -5.065150    2.152780
  O      7.541970   -5.425000    2.159060
  C      5.708550   -3.516320   -0.188110
  C      6.228650   -2.863780   -1.319060
  C      5.509050   -1.946880   -2.154710
  C      4.272090   -1.459030   -1.936790
  C      3.689290   -0.412420   -2.726000
  O      2.338910   -0.370780   -2.803120
  C      2.003180    0.624590   -3.636770
  C      3.108910    1.252050   -4.111980
  C      4.230220    0.609660   -3.511350
  C      5.591760    1.039630   -3.670240
  C      6.562430    0.865670   -2.746010
  C      7.936850    1.159700   -2.935690
  C      8.877480    0.737650   -2.050430
  C     10.275350    0.871250   -2.206160
  S     10.943950    1.826670   -3.494680
  C     12.541440    1.435870   -2.963610
  N     13.629750    1.921540   -3.690550
  O     14.746600    1.611200   -3.310230
  O     13.387430    2.613130   -4.666980
  C     12.563320    0.615860   -1.865630
  C     11.276010    0.269180   -1.417010
  C     11.003600   -0.660300   -0.360890
  C     11.939330   -1.238270    0.425140
  C     11.649880   -2.240740    1.390420
  O     10.394490   -2.750880    1.490170
  C     10.420050   -3.701910    2.438650
  C     11.661950   -3.827510    2.973580
  C     12.489590   -2.881150    2.305370
  C     13.881610   -2.617160    2.514000
  C     14.668040   -3.267280    3.390340
  C     16.062410   -2.967990    3.568070
  C     16.852910   -3.610100    4.427550
  H     14.932570   -2.135480   -3.722880
  H     13.965440    0.296580   -6.855370
  H     11.573180   -0.418590   -5.806280
  H     12.477660   -2.786980   -2.666190
  H     10.156520   -1.571710   -4.255290
  H     10.294060   -3.340890   -1.735120
  H      8.007580   -1.993970   -3.255880
  H      4.687200   -3.466290    0.141430
  H      6.048350   -1.569270   -3.009260
  H      3.634630   -1.854180   -1.158600
  H      0.957730    0.785130   -3.811710
  H      3.141760    2.086180   -4.782220
  H      5.815320    1.564950   -4.590340
  H      6.302390    0.410310   -1.800010
  H      8.238660    1.662950   -3.845160
  H      8.541140    0.218300   -1.163600
  H     13.485820    0.277400   -1.432100
  H      9.973960   -0.946830   -0.210520
  H     12.979220   -0.962600    0.341030
  H      9.508210   -4.234750    2.630830
  H     11.952280   -4.507020    3.746990
  H     14.314170   -1.828280    1.912160
  H     14.261540   -4.058560    4.004260
  H     16.465150   -2.171600    2.954740
  H     16.479050   -4.406620    5.049640
  H     17.894170   -3.362740    4.538960

 Total Charge           Charge          ....    0
 Multiplicity           Mult            ....    1
 Number of Electrons    NEL             ....  344
 Basis Dimension        Dim             ....  796

ORBITAL ENERGIES
----------------

  NO   OCC          E(Eh)            E(eV)
   0   2.0000     -88.975358     -2421.1426
   1   2.0000     -88.973984     -2421.1052
   2   2.0000     -19.292954      -524.9880
   3   2.0000     -19.289300      -524.8886
   4   2.0000     -19.286282      -524.8064
   5   2.0000     -19.241563      -523.5895
   6   2.0000     -19.241463      -523.5868
   7   2.0000     -19.235386      -523.4215
   8   2.0000     -19.235038      -523.4120
   9   2.0000     -14.651820      -398.6963
  10   2.0000     -14.645383      -398.5211
  11   2.0000     -10.342690      -281.4389
  12   2.0000     -10.339398      -281.3493
  13   2.0000     -10.334342      -281.2117
  14   2.0000     -10.326121      -280.9880
  15   2.0000     -10.325901      -280.9821
  16   2.0000     -10.325681      -280.9761
  17   2.0000     -10.323914      -280.9280
  18   2.0000     -10.320095      -280.8241
  19   2.0000     -10.318600      -280.7834
  20   2.0000     -10.318454      -280.7794
  21   2.0000     -10.304903      -280.4107
  22   2.0000     -10.300617      -280.2940
  23   2.0000     -10.299631      -280.2672
  24   2.0000     -10.296756      -280.1890
  25   2.0000     -10.292951      -280.0854
  26   2.0000     -10.291539      -280.0470
  27   2.0000     -10.290891      -280.0294
  28   2.0000     -10.289808      -279.9999
  29   2.0000     -10.289291      -279.9858
  30   2.0000     -10.289207      -279.9835
  31   2.0000     -10.289190      -279.9831
  32   2.0000     -10.288723      -279.9704
  33   2.0000     -10.288265      -279.9579
  34   2.0000     -10.282938      -279.8130
  35   2.0000     -10.282522      -279.8016
  36   2.0000     -10.280311      -279.7415
  37   2.0000     -10.278007      -279.6788
  38   2.0000     -10.277769      -279.6723
  39   2.0000     -10.276379      -279.6345
  40   2.0000     -10.276364      -279.6341
  41   2.0000     -10.272517      -279.5294
  42   2.0000     -10.270831      -279.4835
  43   2.0000     -10.269454      -279.4460
  44   2.0000     -10.266940      -279.3776
  45   2.0000     -10.263854      -279.2937
  46   2.0000     -10.261175      -279.2208
  47   2.0000      -8.070470      -219.6087
  48   2.0000      -8.068978      -219.5681
  49   2.0000      -6.039880      -164.3535
  50   2.0000      -6.038373      -164.3125
  51   2.0000      -6.035569      -164.2362
  52   2.0000      -6.034157      -164.1977
  53   2.0000      -6.032361      -164.1489
  54   2.0000      -6.030938      -164.1102
  55   2.0000      -1.320555       -35.9341
  56   2.0000      -1.314024       -35.7564
  57   2.0000      -1.212102       -32.9830
  58   2.0000      -1.210792       -32.9473
  59   2.0000      -1.203787       -32.7567
  60   2.0000      -1.139356       -31.0034
  61   2.0000      -1.132566       -30.8187
  62   2.0000      -1.011259       -27.5178
  63   2.0000      -1.007871       -27.4256
  64   2.0000      -0.937511       -25.5110
  65   2.0000      -0.932431       -25.3727
  66   2.0000      -0.924931       -25.1687
  67   2.0000      -0.921709       -25.0810
  68   2.0000      -0.917061       -24.9545
  69   2.0000      -0.910520       -24.7765
  70   2.0000      -0.905161       -24.6307
  71   2.0000      -0.884564       -24.0702
  72   2.0000      -0.884347       -24.0643
  73   2.0000      -0.880512       -23.9600
  74   2.0000      -0.863988       -23.5103
  75   2.0000      -0.859455       -23.3870
  76   2.0000      -0.846260       -23.0279
  77   2.0000      -0.837686       -22.7946
  78   2.0000      -0.830471       -22.5983
  79   2.0000      -0.821142       -22.3444
  80   2.0000      -0.813716       -22.1423
  81   2.0000      -0.802852       -21.8467
  82   2.0000      -0.782354       -21.2889
  83   2.0000      -0.776462       -21.1286
  84   2.0000      -0.736803       -20.0494
  85   2.0000      -0.730935       -19.8897
  86   2.0000      -0.719304       -19.5733
  87   2.0000      -0.703711       -19.1489
  88   2.0000      -0.696050       -18.9405
  89   2.0000      -0.688558       -18.7366
  90   2.0000      -0.676535       -18.4095
  91   2.0000      -0.672535       -18.3006
  92   2.0000      -0.662845       -18.0369
  93   2.0000      -0.659256       -17.9393
  94   2.0000      -0.654710       -17.8156
  95   2.0000      -0.646789       -17.6000
  96   2.0000      -0.639109       -17.3910
  97   2.0000      -0.636243       -17.3131
  98   2.0000      -0.633827       -17.2473
  99   2.0000      -0.632136       -17.2013
 100   2.0000      -0.631935       -17.1958
 101   2.0000      -0.628606       -17.1052
 102   2.0000      -0.627653       -17.0793
 103   2.0000      -0.623331       -16.9617
 104   2.0000      -0.615440       -16.7470
 105   2.0000      -0.610863       -16.6224
 106   2.0000      -0.608480       -16.5576
 107   2.0000      -0.601880       -16.3780
 108   2.0000      -0.598992       -16.2994
 109   2.0000      -0.583421       -15.8757
 110   2.0000      -0.576919       -15.6988
 111   2.0000      -0.566098       -15.4043
 112   2.0000      -0.562608       -15.3093
 113   2.0000      -0.556885       -15.1536
 114   2.0000      -0.554176       -15.0799
 115   2.0000      -0.550162       -14.9707
 116   2.0000      -0.549173       -14.9438
 117   2.0000      -0.546529       -14.8718
 118   2.0000      -0.544840       -14.8258
 119   2.0000      -0.539972       -14.6934
 120   2.0000      -0.533393       -14.5144
 121   2.0000      -0.533335       -14.5128
 122   2.0000      -0.523676       -14.2500
 123   2.0000      -0.518761       -14.1162
 124   2.0000      -0.515756       -14.0344
 125   2.0000      -0.506249       -13.7757
 126   2.0000      -0.502707       -13.6794
 127   2.0000      -0.499339       -13.5877
 128   2.0000      -0.497345       -13.5335
 129   2.0000      -0.494028       -13.4432
 130   2.0000      -0.486457       -13.2372
 131   2.0000      -0.486266       -13.2320
 132   2.0000      -0.481310       -13.0971
 133   2.0000      -0.478232       -13.0133
 134   2.0000      -0.474738       -12.9183
 135   2.0000      -0.471465       -12.8292
 136   2.0000      -0.469888       -12.7863
 137   2.0000      -0.465566       -12.6687
 138   2.0000      -0.463469       -12.6116
 139   2.0000      -0.458922       -12.4879
 140   2.0000      -0.450907       -12.2698
 141   2.0000      -0.448835       -12.2134
 142   2.0000      -0.447020       -12.1640
 143   2.0000      -0.437419       -11.9028
 144   2.0000      -0.435201       -11.8424
 145   2.0000      -0.431037       -11.7291
 146   2.0000      -0.430412       -11.7121
 147   2.0000      -0.427205       -11.6248
 148   2.0000      -0.423794       -11.5320
 149   2.0000      -0.422195       -11.4885
 150   2.0000      -0.420672       -11.4471
 151   2.0000      -0.403933       -10.9916
 152   2.0000      -0.401492       -10.9252
 153   2.0000      -0.393833       -10.7167
 154   2.0000      -0.388520       -10.5722
 155   2.0000      -0.382749       -10.4151
 156   2.0000      -0.381267       -10.3748
 157   2.0000      -0.379628       -10.3302
 158   2.0000      -0.376185       -10.2365
 159   2.0000      -0.367945       -10.0123
 160   2.0000      -0.365874        -9.9559
 161   2.0000      -0.361990        -9.8503
 162   2.0000      -0.346823        -9.4375
 163   2.0000      -0.340514        -9.2658
 164   2.0000      -0.338481        -9.2105
 165   2.0000      -0.329290        -8.9604
 166   2.0000      -0.309135        -8.4120
 167   2.0000      -0.302255        -8.2248
 168   2.0000      -0.292029        -7.9465
 169   2.0000      -0.262692        -7.1482
 170   2.0000      -0.247794        -6.7428
 171   2.0000      -0.236840        -6.4448
 172   0.0000      -0.076937        -2.0936
 173   0.0000      -0.076338        -2.0773
 174   0.0000      -0.045563        -1.2398
 175   0.0000      -0.035581        -0.9682
 176   0.0000      -0.006416        -0.1746

MULLIKEN ATOMIC CHARGES
-----------------------
   0 C :    0.080151
   1 O :   -0.164384
   2 C :    0.140518
   3 C :   -0.052509
   4 C :    0.031772
   5 C :    0.033111
   6 C :    0.017929
   7 C :    0.018336
   8 C :   -0.027181
   9 C :   -0.081573
  10 S :    0.181418
  11 C :   -0.007158
  12 N :    0.283774
  13 O :   -0.242935
  14 O :   -0.266555
  15 C :    0.002456
  16 C :    0.112717
  17 C :   -0.041558
  18 C :   -0.002736
  19 C :    0.105132
  20 O :   -0.185648
  21 C :    0.142535
  22 C :   -0.033963
  23 C :    0.031352
  24 C :   -0.010009
  25 C :   -0.006670
  26 C :    0.006583
  27 C :   -0.023296
  28 C :   -0.085628
  29 S :    0.158273
  30 C :    0.004040
  31 N :    0.278541
  32 O :   -0.251073
  33 O :   -0.265496
  34 C :    0.014671
  35 C :    0.142307
  36 C :   -0.032038
  37 C :   -0.027816
  38 C :    0.112659
  39 O :   -0.204334
  40 C :    0.158906
  41 C :   -0.048811
  42 C :    0.067794
  43 C :   -0.015590
  44 C :    0.010246
  45 C :    0.003903
  46 C :   -0.018214
  47 H :    0.006582
  48 H :    0.020226
  49 H :   -0.011968
  50 H :   -0.015615
  51 H :   -0.015072
  52 H :    0.009375
  53 H :   -0.006871
  54 H :    0.007999
  55 H :    0.007703
  56 H :   -0.004018
  57 H :    0.012604
  58 H :   -0.013288
  59 H :   -0.012002
  60 H :    0.016968
  61 H :   -0.001419
  62 H :   -0.000562
  63 H :   -0.001931
  64 H :   -0.008894
  65 H :   -0.014722
  66 H :    0.008164
  67 H :   -0.011568
  68 H :   -0.026087
  69 H :   -0.016524
  70 H :   -0.009643
  71 H :    0.014023
  72 H :    0.022589
Sum of atomic charges:   -0.0000000

LOEWDIN ATOMIC CHARGES
----------------------
   0 C :    0.039941
   1 O :    0.038203
   2 C :    0.039742
   3 C :   -0.076257
   4 C :   -0.086537
   5 C :    0.008358
   6 C :   -0.036563
   7 C :    0.005684
   8 C :   -0.064535
   9 C :   -0.140330
  10 S :    0.492505
  11 C :   -0.202941
  12 N :    0.277330
  13 O :   -0.208764
  14 O :   -0.235734
  15 C :   -0.002924
  16 C :   -0.069307
  17 C :   -0.014197
  18 C :   -0.036139
  19 C :    0.027474
  20 O :    0.021623
  21 C :    0.039629
  22 C :   -0.065468
  23 C :   -0.071007
  24 C :   -0.014638
  25 C :   -0.028545
  26 C :   -0.017511
  27 C :   -0.048433
  28 C :   -0.145876
  29 S :    0.470745
  30 C :   -0.194241
  31 N :    0.277883
  32 O :   -0.217637
  33 O :   -0.228947
  34 C :   -0.001477
  35 C :   -0.054949
  36 C :   -0.026030
  37 C :   -0.032061
  38 C :    0.017092
  39 O :    0.007113
  40 C :    0.050933
  41 C :   -0.068537
  42 C :   -0.055415
  43 C :   -0.026013
  44 C :   -0.018242
  45 C :   -0.026673
  46 C :   -0.045025
  47 H :    0.023127
  48 H :    0.026885
  49 H :    0.024929
  50 H :    0.031051
  51 H :    0.026254
  52 H :    0.025715
  53 H :    0.033080
  54 H :    0.042490
  55 H :    0.032844
  56 H :    0.033321
  57 H :    0.024099
  58 H :    0.030816
  59 H :    0.029958
  60 H :    0.033893
  61 H :    0.022540
  62 H :    0.035479
  63 H :    0.037741
  64 H :    0.028469
  65 H :    0.031223
  66 H :    0.016958
  67 H :    0.030242
  68 H :    0.024967
  69 H :    0.026536
  70 H :    0.027800
  71 H :    0.021612
  72 H :    0.024671

  Mayer bond orders larger than 0.100000
B(  0-C ,  1-O ) :   1.1828 B(  0-C ,  4-C ) :   1.4784 B(  0-C , 47-H ) :   1.0096
B(  1-O ,  2-C ) :   1.1424 B(  2-C ,  3-C ) :   1.5833 B(  2-C , 48-H ) :   1.0021
B(  3-C ,  4-C ) :   1.2073 B(  3-C , 49-H ) :   1.0069 B(  4-C ,  5-C ) :   1.0823
B(  5-C ,  6-C ) :   1.6685 B(  5-C , 50-H ) :   0.9812 B(  6-C ,  7-C ) :   1.1540
B(  6-C , 51-H ) :   0.9795 B(  7-C ,  8-C ) :   1.6205 B(  7-C , 52-H ) :   0.9767
B(  8-C ,  9-C ) :   1.1724 B(  8-C , 53-H ) :   0.9736 B(  9-C , 10-S ) :   1.1385
B(  9-C , 16-C ) :   1.3654 B( 10-S , 11-C ) :   1.1171 B( 11-C , 12-N ) :   0.9733
B( 11-C , 15-C ) :   1.4750 B( 12-N , 13-O ) :   1.5389 B( 12-N , 14-O ) :   1.4700
B( 13-O , 14-O ) :   0.2521 B( 15-C , 16-C ) :   1.2317 B( 15-C , 54-H ) :   0.9980
B( 16-C , 17-C ) :   1.1148 B( 17-C , 18-C ) :   1.7204 B( 17-C , 55-H ) :   0.9655
B( 18-C , 19-C ) :   1.1065 B( 18-C , 56-H ) :   0.9535 B( 19-C , 20-O ) :   1.1515
B( 19-C , 23-C ) :   1.4423 B( 20-O , 21-C ) :   1.1417 B( 21-C , 22-C ) :   1.5512
B( 21-C , 57-H ) :   1.0047 B( 22-C , 23-C ) :   1.2099 B( 22-C , 58-H ) :   1.0084
B( 23-C , 24-C ) :   1.0684 B( 24-C , 25-C ) :   1.6813 B( 24-C , 59-H ) :   0.9723
B( 25-C , 26-C ) :   1.1488 B( 25-C , 60-H ) :   0.9782 B( 26-C , 27-C ) :   1.6185
B( 26-C , 61-H ) :   0.9858 B( 27-C , 28-C ) :   1.1814 B( 27-C , 62-H ) :   0.9694
B( 28-C , 29-S ) :   1.1103 B( 28-C , 35-C ) :   1.3812 B( 29-S , 30-C ) :   1.1065
B( 30-C , 31-N ) :   0.9653 B( 30-C , 34-C ) :   1.4823 B( 31-N , 32-O ) :   1.5232
B( 31-N , 33-O ) :   1.5014 B( 32-O , 33-O ) :   0.2575 B( 34-C , 35-C ) :   1.2216
B( 34-C , 63-H ) :   0.9983 B( 35-C , 36-C ) :   1.0881 B( 36-C , 37-C ) :   1.6803
B( 36-C , 64-H ) :   0.9717 B( 37-C , 38-C ) :   1.1616 B( 37-C , 65-H ) :   0.9547
B( 38-C , 39-O ) :   1.1398 B( 38-C , 42-C ) :   1.3968 B( 39-O , 40-C ) :   1.1207
B( 40-C , 41-C ) :   1.5714 B( 40-C , 66-H ) :   0.9828 B( 41-C , 42-C ) :   1.2030
B( 41-C , 67-H ) :   1.0023 B( 42-C , 43-C ) :   1.0873 B( 43-C , 44-C ) :   1.7338
B( 43-C , 68-H ) :   0.9696 B( 44-C , 45-C ) :   1.1004 B( 44-C , 69-H ) :   0.9784
B( 45-C , 46-C ) :   1.9041 B( 45-C , 70-H ) :   0.9765 B( 46-C , 71-H ) :   0.9583
B( 46-C , 72-H ) :   0.9520

-----------------------------------------------------------------------------
         ABSORPTION SPECTRUM VIA TRANSITION ELECTRIC DIPOLE MOMENTS
-----------------------------------------------------------------------------
State   Energy  Wavelength   fosc         T2         TX        TY        TZ
        (cm-1)    (nm)                  (au**2)     (au)      (au)      (au)
-----------------------------------------------------------------------------
   0   17976.0    556.3   0.035088425   0.64261   0.55147   0.13592   0.56570
   1   18909.2    528.8   0.177100638   3.08335   1.52053   0.45643   0.75034
   2   20211.5    494.8   0.132966878   2.16581   0.89485  -0.73674   0.90679
   3   21665.1    461.6   0.666176807  10.12288  -3.12697   0.10430   0.57799
   4   23836.8    419.5   0.079804415   1.10218   0.59270   0.76458  -0.40781
   5   24351.8    410.6   0.247633239   3.34776  -1.43498  -0.63878   0.93837
   6   25862.1    386.7   0.521039302   6.63259   1.00024   1.22193  -2.03445
   7   27476.9    363.9   0.804301604   9.63665  -2.09653   1.56890  -1.66727
   8   27992.3    357.2   0.442207413   5.20071  -0.33594   1.48454  -1.69823
   9   29737.1    336.3   0.336396139   3.72415   1.91097  -0.25039  -0.09830
  10   30912.7    323.5   0.240519508   2.56147   1.50139  -0.48964   0.25988
  11   31452.2    317.9   0.266203817   2.78637   0.57676  -1.11307   1.10218
  12   31648.5    316.0   0.018923480   0.19684  -0.36293   0.02528  -0.25395
  13   32396.7    308.7   0.121786880   1.23759  -1.07525  -0.26564   0.10420
  14   32930.4    303.7   0.068844834   0.68826   0.43938  -0.54009   0.45111
  15   33455.2    298.9   0.013002940   0.12795  -0.30999   0.04981  -0.17141
  16   34204.9    292.4   0.038156591   0.36725  -0.41131  -0.31582   0.31358
  17   34634.6    288.7   0.073488294   0.69853  -0.48008  -0.44392   0.52056
  18   35465.1    282.0   0.142118689   1.31925   0.03852   0.69262  -0.91544
  19   36578.7    273.4   0.155930666   1.40339  -1.15086  -0.27951  -0.02811
  20   36898.9    271.0   0.030153722   0.26903   0.47846  -0.00561  -0.20019
  21   37369.0    267.6   0.006003501   0.05289  -0.11911  -0.02745   0.19480
  22   37987.5    263.2   0.085789565   0.74348  -0.70783  -0.31984   0.37439
  23   38694.9    258.4   0.044535259   0.37890   0.12442  -0.13652   0.58718
  24   39096.5    255.8   0.071389893   0.60114  -0.42898  -0.54943   0.33947
  25   39436.5    253.6   0.021354547   0.17827   0.20971   0.28366  -0.23199
  26   40259.5    248.4   0.023241420   0.19005  -0.15434   0.20613  -0.35177

FINAL SINGLE POINT ENERGY     -2816.823964838104

DIPOLE MOMENT
-------------
                                X             Y             Z
Electronic contribution:    -12.74278       2.78627      -8.34486
Nuclear contribution   :     11.84079      -2.50257       7.52531
                        -----------------------------------------
Total Dipole Moment    :     -0.90198       0.28370      -0.81955
                        -----------------------------------------
Magnitude (a.u.)       :      1.25129
Magnitude (Debye)      :      3.18053

Rotational constants in cm-1:     0.002107     0.001569     0.001011
Rotational constants in MHz :    63.152112    47.038979    30.314392

                             ****ORCA TERMINATED NORMALLY****
TOTAL RUN TIME: 0 days 0 hours 5 minutes 49 seconds 782 msec
