                         Program Version 4.2.0 -  RELEASE  -
|  1> # ORCA input file
|  2> # SCF done       -148.594693983001          0.000330249671
|  3> ! CAM-B3LYP def2-SVP def2/J RIJCOSX Grid4 TightSCF
|  4> %maxcore 5000
|  5> %tddft
|  6>     Mode sTDDFT
|  7>     Ethresh 5.0
|  8>     maxcore 5000
|  9> end
| 10>
| 11> %pal
| 12>   nprocs 6
| 13>   end
| 14> * xyz 0 1
| 15>    C       -1.48776         5.52801         7.25681
| 16>    O       -2.59378         4.89416         7.66362
| 17>    C       -3.21371         4.42725         6.56475
| 18>    C       -2.51835         4.75284         5.44714
| 19>    C       -1.37071         5.48326         5.88652
| 20>    C       -0.34725         6.02725         5.04006
| 21>    C        0.72801         6.72048         5.46582
| 22>    C        1.72362         7.23867         4.58954
| 23>    C        2.79929         7.93377         5.02516
| 24>    C        3.82830         8.47076         4.20344
| 25>    S        5.13495         9.35090         4.98276
| 26>    C        5.88716         9.63909         3.45977
| 27>    C        5.14693         9.07323         2.41490
| 28>    C        3.98925         8.41679         2.83380
| 29>    S        5.87614         9.34175         0.85439
| 30>    C        7.17857        10.21813         1.61390
| 31>    C        8.31708        10.85711         1.12871
| 32>    C        9.06384        11.42640         2.14341
| 33>    S        8.33560        11.15900         3.72404
| 34>    C        7.03747        10.28802         3.00752
| 35>    C       10.27129        12.16098         2.09195
| 36>    C       10.98506        12.46328         0.97835
| 37>    C       12.18657        13.20815         1.02141
| 38>    S       12.86004        13.77809         2.51600
| 39>    C       14.21762        14.53067         1.71617
| 40>    C       14.12774        14.32215         0.33822
| 41>    C       12.99860        13.58398        -0.04349
| 42>    S       12.51005        13.16212        -1.67960
| 43>    C       13.76043        13.66888        -2.81404
| 44>    O       13.54763        13.48007        -3.98021
| 45>    C       15.06361        14.30465        -2.38661
| 46>    O       15.92988        14.48519        -3.19538
| 47>    S       15.38663        14.89467        -0.74578
| 48>    C       15.15221        15.29983         2.44888
| 49>    S       16.19394        16.43888         1.64281
| 50>    C       16.75358        17.01671         3.17560
| 51>    N       17.71365        18.04064         3.18706
| 52>    O       18.10587        18.43408         4.26939
| 53>    O       18.08230        18.46158         2.10572
| 54>    C       16.18986        16.37317         4.24227
| 55>    C       15.28271        15.36851         3.85242
| 56>    C       14.63813        14.48649         4.77442
| 57>    C       14.36716        14.77763         6.07379
| 58>    C       13.74385        13.86206         6.94188
| 59>    C       13.36282        14.13599         8.22839
| 60>    C       12.71815        13.24216         9.12501
| 61>    C       12.42830        13.77718        10.33841
| 62>    C       12.82388        15.13152        10.48052
| 63>    S       13.59107        15.69361         9.00652
| 64>    C       12.65429        15.94532        11.57468
| 65>    C       12.04474        15.60129        12.81599
| 66>    C       12.00736        16.60799        13.71490
| 67>    C       12.58795        17.83718        13.25307
| 68>    S       13.18317        17.61346        11.59977
| 69>    C       12.69008        18.99562        13.91751
| 70>    H       -0.86862         5.96473         8.01463
| 71>    H       -4.12798         3.88697         6.70996
| 72>    H       -2.77176         4.51453         4.43470
| 73>    H       -0.47681         5.84967         3.98019
| 74>    H        0.86306         6.90363         6.52284
| 75>    H        1.59234         7.05371         3.53244
| 76>    H        2.91203         8.11103         6.08709
| 77>    H        3.30350         7.92592         2.16966
| 78>    H        8.58630        10.90600         0.09046
| 79>    H       10.64685        12.50842         3.04708
| 80>    H       10.65598        12.14214         0.00099
| 81>    H       16.45097        16.59660         5.26040
| 82>    H       14.36201        13.50847         4.40590
| 83>    H       14.59137        15.75925         6.46931
| 84>    H       13.53192        12.87029         6.56402
| 85>    H       12.49056        12.23190         8.83363
| 86>    H       11.94068        13.24304        11.13394
| 87>    H       11.65542        14.61465        12.99387
| 88>    H       11.58739        16.53730        14.70251
| 89>    H       12.31425        19.08776        14.92125
| 90>    H       13.14554        19.86290        13.47594
| 91> *
| 92>
| 93>                          ****END OF INPUT****

CARTESIAN COORDINATES (ANGSTROEM)
---------------------------------
  C     -1.487760    5.528010    7.256810
  O     -2.593780    4.894160    7.663620
  C     -3.213710    4.427250    6.564750
  C     -2.518350    4.752840    5.447140
  C     -1.370710    5.483260    5.886520
  C     -0.347250    6.027250    5.040060
  C      0.728010    6.720480    5.465820
  C      1.723620    7.238670    4.589540
  C      2.799290    7.933770    5.025160
  C      3.828300    8.470760    4.203440
  S      5.134950    9.350900    4.982760
  C      5.887160    9.639090    3.459770
  C      5.146930    9.073230    2.414900
  C      3.989250    8.416790    2.833800
  S      5.876140    9.341750    0.854390
  C      7.178570   10.218130    1.613900
  C      8.317080   10.857110    1.128710
  C      9.063840   11.426400    2.143410
  S      8.335600   11.159000    3.724040
  C      7.037470   10.288020    3.007520
  C     10.271290   12.160980    2.091950
  C     10.985060   12.463280    0.978350
  C     12.186570   13.208150    1.021410
  S     12.860040   13.778090    2.516000
  C     14.217620   14.530670    1.716170
  C     14.127740   14.322150    0.338220
  C     12.998600   13.583980   -0.043490
  S     12.510050   13.162120   -1.679600
  C     13.760430   13.668880   -2.814040
  O     13.547630   13.480070   -3.980210
  C     15.063610   14.304650   -2.386610
  O     15.929880   14.485190   -3.195380
  S     15.386630   14.894670   -0.745780
  C     15.152210   15.299830    2.448880
  S     16.193940   16.438880    1.642810
  C     16.753580   17.016710    3.175600
  N     17.713650   18.040640    3.187060
  O     18.105870   18.434080    4.269390
  O     18.082300   18.461580    2.105720
  C     16.189860   16.373170    4.242270
  C     15.282710   15.368510    3.852420
  C     14.638130   14.486490    4.774420
  C     14.367160   14.777630    6.073790
  C     13.743850   13.862060    6.941880
  C     13.362820   14.135990    8.228390
  C     12.718150   13.242160    9.125010
  C     12.428300   13.777180   10.338410
  C     12.823880   15.131520   10.480520
  S     13.591070   15.693610    9.006520
  C     12.654290   15.945320   11.574680
  C     12.044740   15.601290   12.815990
  C     12.007360   16.607990   13.714900
  C     12.587950   17.837180   13.253070
  S     13.183170   17.613460   11.599770
  C     12.690080   18.995620   13.917510
  H     -0.868620    5.964730    8.014630
  H     -4.127980    3.886970    6.709960
  H     -2.771760    4.514530    4.434700
  H     -0.476810    5.849670    3.980190
  H      0.863060    6.903630    6.522840
  H      1.592340    7.053710    3.532440
  H      2.912030    8.111030    6.087090
  H      3.303500    7.925920    2.169660
  H      8.586300   10.906000    0.090460
  H     10.646850   12.508420    3.047080
  H     10.655980   12.142140    0.000990
  H     16.450970   16.596600    5.260400
  H     14.362010   13.508470    4.405900
  H     14.591370   15.759250    6.469310
  H     13.531920   12.870290    6.564020
  H     12.490560   12.231900    8.833630
  H     11.940680   13.243040   11.133940
  H     11.655420   14.614650   12.993870
  H     11.587390   16.537300   14.702510
  H     12.314250   19.087760   14.921250
  H     13.145540   19.862900   13.475940

 Total Charge           Charge          ....    0
 Multiplicity           Mult            ....    1
 Number of Electrons    NEL             ....  452
 Basis Dimension        Dim             ....  911

ORBITAL ENERGIES
----------------

  NO   OCC          E(Eh)            E(eV)
   0   2.0000     -88.979642     -2421.2592
   1   2.0000     -88.979035     -2421.2426
   2   2.0000     -88.972799     -2421.0729
   3   2.0000     -88.972340     -2421.0605
   4   2.0000     -88.967846     -2420.9382
   5   2.0000     -88.963360     -2420.8161
   6   2.0000     -88.961521     -2420.7661
   7   2.0000     -88.946667     -2420.3619
   8   2.0000     -88.942724     -2420.2546
   9   2.0000     -19.289352      -524.8900
  10   2.0000     -19.244290      -523.6637
  11   2.0000     -19.241670      -523.5925
  12   2.0000     -19.235112      -523.4140
  13   2.0000     -19.234438      -523.3957
  14   2.0000     -14.646003      -398.5380
  15   2.0000     -10.408115      -283.2192
  16   2.0000     -10.407306      -283.1972
  17   2.0000     -10.341195      -281.3982
  18   2.0000     -10.336841      -281.2798
  19   2.0000     -10.335298      -281.2378
  20   2.0000     -10.332413      -281.1593
  21   2.0000     -10.332074      -281.1500
  22   2.0000     -10.328146      -281.0431
  23   2.0000     -10.319405      -280.8053
  24   2.0000     -10.317935      -280.7653
  25   2.0000     -10.315727      -280.7052
  26   2.0000     -10.314317      -280.6668
  27   2.0000     -10.313775      -280.6521
  28   2.0000     -10.312478      -280.6168
  29   2.0000     -10.312272      -280.6112
  30   2.0000     -10.310857      -280.5727
  31   2.0000     -10.310476      -280.5623
  32   2.0000     -10.308626      -280.5120
  33   2.0000     -10.308478      -280.5080
  34   2.0000     -10.307656      -280.4856
  35   2.0000     -10.303397      -280.3697
  36   2.0000     -10.302177      -280.3365
  37   2.0000     -10.301851      -280.3276
  38   2.0000     -10.298087      -280.2252
  39   2.0000     -10.293781      -280.1080
  40   2.0000     -10.293498      -280.1003
  41   2.0000     -10.293362      -280.0966
  42   2.0000     -10.289656      -279.9958
  43   2.0000     -10.287706      -279.9427
  44   2.0000     -10.286611      -279.9129
  45   2.0000     -10.284819      -279.8641
  46   2.0000     -10.283968      -279.8410
  47   2.0000     -10.283697      -279.8336
  48   2.0000     -10.280883      -279.7571
  49   2.0000     -10.280439      -279.7450
  50   2.0000     -10.280201      -279.7385
  51   2.0000     -10.274985      -279.5966
  52   2.0000     -10.274738      -279.5898
  53   2.0000     -10.273315      -279.5511
  54   2.0000     -10.266279      -279.3597
  55   2.0000      -8.074311      -219.7132
  56   2.0000      -8.073891      -219.7017
  57   2.0000      -8.069292      -219.5766
  58   2.0000      -8.068878      -219.5653
  59   2.0000      -8.063223      -219.4114
  60   2.0000      -8.058740      -219.2895
  61   2.0000      -8.056776      -219.2360
  62   2.0000      -8.042984      -218.8607
  63   2.0000      -8.039492      -218.7657
  64   2.0000      -6.043733      -164.4583
  65   2.0000      -6.043441      -164.4504
  66   2.0000      -6.039656      -164.3474
  67   2.0000      -6.039213      -164.3353
  68   2.0000      -6.038988      -164.3292
  69   2.0000      -6.038716      -164.3218
  70   2.0000      -6.036085      -164.2502
  71   2.0000      -6.035671      -164.2390
  72   2.0000      -6.034495      -164.2069
  73   2.0000      -6.034152      -164.1976
  74   2.0000      -6.032696      -164.1580
  75   2.0000      -6.030080      -164.0868
  76   2.0000      -6.029794      -164.0790
  77   2.0000      -6.028720      -164.0498
  78   2.0000      -6.028247      -164.0370
  79   2.0000      -6.026501      -163.9894
  80   2.0000      -6.024837      -163.9441
  81   2.0000      -6.024243      -163.9280
  82   2.0000      -6.022712      -163.8863
  83   2.0000      -6.020322      -163.8213
  84   2.0000      -6.017686      -163.7496
  85   2.0000      -6.012738      -163.6149
  86   2.0000      -6.009323      -163.5220
  87   2.0000      -6.008823      -163.5084
  88   2.0000      -6.005385      -163.4148
  89   2.0000      -6.003739      -163.3700
  90   2.0000      -6.000000      -163.2683
  91   2.0000      -1.316154       -35.8144
  92   2.0000      -1.207872       -32.8679
  93   2.0000      -1.181010       -32.1369
  94   2.0000      -1.148805       -31.2606
  95   2.0000      -1.135032       -30.8858
  96   2.0000      -1.029184       -28.0055
  97   2.0000      -1.022371       -27.8201
  98   2.0000      -1.005665       -27.3655
  99   2.0000      -0.996612       -27.1192
 100   2.0000      -0.983853       -26.7720
 101   2.0000      -0.973811       -26.4987
 102   2.0000      -0.943171       -25.6650
 103   2.0000      -0.936970       -25.4963
 104   2.0000      -0.929432       -25.2911
 105   2.0000      -0.920280       -25.0421
 106   2.0000      -0.919637       -25.0246
 107   2.0000      -0.895923       -24.3793
 108   2.0000      -0.894962       -24.3532
 109   2.0000      -0.892763       -24.2933
 110   2.0000      -0.880348       -23.9555
 111   2.0000      -0.864979       -23.5373
 112   2.0000      -0.862095       -23.4588
 113   2.0000      -0.848947       -23.1010
 114   2.0000      -0.847955       -23.0740
 115   2.0000      -0.841004       -22.8849
 116   2.0000      -0.839285       -22.8381
 117   2.0000      -0.832312       -22.6484
 118   2.0000      -0.829619       -22.5751
 119   2.0000      -0.821036       -22.3415
 120   2.0000      -0.818603       -22.2753
 121   2.0000      -0.797097       -21.6901
 122   2.0000      -0.788810       -21.4646
 123   2.0000      -0.780856       -21.2482
 124   2.0000      -0.763847       -20.7853
 125   2.0000      -0.753625       -20.5072
 126   2.0000      -0.745644       -20.2900
 127   2.0000      -0.728940       -19.8355
 128   2.0000      -0.714017       -19.4294
 129   2.0000      -0.696410       -18.9503
 130   2.0000      -0.684857       -18.6359
 131   2.0000      -0.676799       -18.4166
 132   2.0000      -0.674679       -18.3590
 133   2.0000      -0.668880       -18.2012
 134   2.0000      -0.660395       -17.9703
 135   2.0000      -0.658065       -17.9069
 136   2.0000      -0.646141       -17.5824
 137   2.0000      -0.644615       -17.5409
 138   2.0000      -0.640324       -17.4241
 139   2.0000      -0.635441       -17.2912
 140   2.0000      -0.634352       -17.2616
 141   2.0000      -0.632796       -17.2193
 142   2.0000      -0.630232       -17.1495
 143   2.0000      -0.627311       -17.0700
 144   2.0000      -0.621282       -16.9059
 145   2.0000      -0.617203       -16.7949
 146   2.0000      -0.607166       -16.5218
 147   2.0000      -0.605319       -16.4716
 148   2.0000      -0.601847       -16.3771
 149   2.0000      -0.591216       -16.0878
 150   2.0000      -0.588984       -16.0271
 151   2.0000      -0.580313       -15.7911
 152   2.0000      -0.570210       -15.5162
 153   2.0000      -0.566511       -15.4155
 154   2.0000      -0.561610       -15.2822
 155   2.0000      -0.556573       -15.1451
 156   2.0000      -0.554647       -15.0927
 157   2.0000      -0.550911       -14.9910
 158   2.0000      -0.546713       -14.8768
 159   2.0000      -0.546376       -14.8676
 160   2.0000      -0.539229       -14.6732
 161   2.0000      -0.535131       -14.5617
 162   2.0000      -0.530680       -14.4405
 163   2.0000      -0.524723       -14.2784
 164   2.0000      -0.523936       -14.2570
 165   2.0000      -0.520955       -14.1759
 166   2.0000      -0.519816       -14.1449
 167   2.0000      -0.518079       -14.0977
 168   2.0000      -0.512690       -13.9510
 169   2.0000      -0.505465       -13.7544
 170   2.0000      -0.502578       -13.6758
 171   2.0000      -0.499165       -13.5830
 172   2.0000      -0.496516       -13.5109
 173   2.0000      -0.492579       -13.4038
 174   2.0000      -0.489879       -13.3303
 175   2.0000      -0.488835       -13.3019
 176   2.0000      -0.484514       -13.1843
 177   2.0000      -0.483738       -13.1632
 178   2.0000      -0.481330       -13.0977
 179   2.0000      -0.477812       -13.0019
 180   2.0000      -0.476283       -12.9603
 181   2.0000      -0.475724       -12.9451
 182   2.0000      -0.472805       -12.8657
 183   2.0000      -0.467808       -12.7297
 184   2.0000      -0.466825       -12.7030
 185   2.0000      -0.460705       -12.5364
 186   2.0000      -0.454942       -12.3796
 187   2.0000      -0.451934       -12.2978
 188   2.0000      -0.449073       -12.2199
 189   2.0000      -0.445799       -12.1308
 190   2.0000      -0.441848       -12.0233
 191   2.0000      -0.439527       -11.9601
 192   2.0000      -0.432202       -11.7608
 193   2.0000      -0.430738       -11.7210
 194   2.0000      -0.429156       -11.6779
 195   2.0000      -0.426346       -11.6015
 196   2.0000      -0.425616       -11.5816
 197   2.0000      -0.423512       -11.5244
 198   2.0000      -0.422072       -11.4852
 199   2.0000      -0.414066       -11.2673
 200   2.0000      -0.411881       -11.2079
 201   2.0000      -0.406682       -11.0664
 202   2.0000      -0.403581       -10.9820
 203   2.0000      -0.400196       -10.8899
 204   2.0000      -0.392173       -10.6716
 205   2.0000      -0.385044       -10.4776
 206   2.0000      -0.381709       -10.3868
 207   2.0000      -0.379645       -10.3307
 208   2.0000      -0.374808       -10.1990
 209   2.0000      -0.373480       -10.1629
 210   2.0000      -0.362299        -9.8587
 211   2.0000      -0.354185        -9.6379
 212   2.0000      -0.345717        -9.4074
 213   2.0000      -0.341758        -9.2997
 214   2.0000      -0.341061        -9.2807
 215   2.0000      -0.339662        -9.2427
 216   2.0000      -0.337464        -9.1829
 217   2.0000      -0.326880        -8.8949
 218   2.0000      -0.317058        -8.6276
 219   2.0000      -0.306749        -8.3471
 220   2.0000      -0.301226        -8.1968
 221   2.0000      -0.289406        -7.8752
 222   2.0000      -0.287711        -7.8290
 223   2.0000      -0.262976        -7.1559
 224   2.0000      -0.233745        -6.3605
 225   2.0000      -0.218861        -5.9555
 226   0.0000      -0.089280        -2.4294
 227   0.0000      -0.068387        -1.8609
 228   0.0000      -0.056919        -1.5488
 229   0.0000      -0.052373        -1.4251
 230   0.0000      -0.030308        -0.8247

MULLIKEN ATOMIC CHARGES
-----------------------
   0 C :    0.069957
   1 O :   -0.176277
   2 C :    0.133410
   3 C :   -0.043291
   4 C :    0.041620
   5 C :    0.025384
   6 C :    0.019752
   7 C :    0.019276
   8 C :    0.040761
   9 C :   -0.067111
  10 S :    0.142750
  11 C :   -0.081549
  12 C :   -0.030673
  13 C :   -0.035286
  14 S :    0.151224
  15 C :   -0.032275
  16 C :   -0.032687
  17 C :   -0.078771
  18 S :    0.145648
  19 C :   -0.074383
  20 C :    0.051720
  21 C :   -0.014731
  22 C :   -0.082324
  23 S :    0.120813
  24 C :   -0.103686
  25 C :   -0.029588
  26 C :   -0.034517
  27 S :    0.078085
  28 C :    0.082390
  29 O :   -0.131029
  30 C :    0.087547
  31 O :   -0.121445
  32 S :    0.076424
  33 C :   -0.106005
  34 S :    0.177793
  35 C :    0.019382
  36 N :    0.270618
  37 O :   -0.245575
  38 O :   -0.254275
  39 C :    0.001539
  40 C :    0.106049
  41 C :   -0.076146
  42 C :    0.025549
  43 C :   -0.035303
  44 C :   -0.006853
  45 C :    0.034772
  46 C :    0.031203
  47 C :   -0.052807
  48 S :    0.074567
  49 C :   -0.064224
  50 C :    0.029504
  51 C :    0.057392
  52 C :   -0.068416
  53 S :    0.087206
  54 C :   -0.022606
  55 H :    0.003687
  56 H :    0.009740
  57 H :   -0.014416
  58 H :   -0.021789
  59 H :   -0.019327
  60 H :   -0.012449
  61 H :   -0.019803
  62 H :   -0.018164
  63 H :   -0.011586
  64 H :   -0.005610
  65 H :    0.004942
  66 H :    0.009503
  67 H :    0.008206
  68 H :    0.004728
  69 H :   -0.018670
  70 H :   -0.013311
  71 H :   -0.011917
  72 H :   -0.011714
  73 H :   -0.009814
  74 H :    0.021972
  75 H :    0.025292
Sum of atomic charges:    0.0000000

LOEWDIN ATOMIC CHARGES
----------------------
   0 C :    0.034198
   1 O :    0.027947
   2 C :    0.030205
   3 C :   -0.069488
   4 C :   -0.081488
   5 C :   -0.013019
   6 C :   -0.027345
   7 C :   -0.009859
   8 C :   -0.055055
   9 C :   -0.152754
  10 S :    0.423584
  11 C :   -0.225695
  12 C :   -0.184230
  13 C :   -0.070755
  14 S :    0.401781
  15 C :   -0.192017
  16 C :   -0.054213
  17 C :   -0.169059
  18 S :    0.426854
  19 C :   -0.212791
  20 C :   -0.030558
  21 C :   -0.056192
  22 C :   -0.177984
  23 S :    0.483842
  24 C :   -0.201481
  25 C :   -0.216641
  26 C :   -0.224017
  27 S :    0.387368
  28 C :   -0.113538
  29 O :   -0.103989
  30 C :   -0.108221
  31 O :   -0.094533
  32 S :    0.383064
  33 C :   -0.176523
  34 S :    0.477881
  35 C :   -0.197883
  36 N :    0.272644
  37 O :   -0.212256
  38 O :   -0.221324
  39 C :   -0.005950
  40 C :   -0.060660
  41 C :   -0.054747
  42 C :   -0.013374
  43 C :   -0.069424
  44 C :   -0.135744
  45 C :   -0.037748
  46 C :   -0.024697
  47 C :   -0.183645
  48 S :    0.365235
  49 C :   -0.171925
  50 C :   -0.027383
  51 C :   -0.026551
  52 C :   -0.140110
  53 S :    0.357045
  54 C :   -0.068915
  55 H :    0.019319
  56 H :    0.022111
  57 H :    0.029106
  58 H :    0.028506
  59 H :    0.025520
  60 H :    0.027214
  61 H :    0.026523
  62 H :    0.031664
  63 H :    0.034517
  64 H :    0.022152
  65 H :    0.028755
  66 H :    0.044444
  67 H :    0.015901
  68 H :    0.024370
  69 H :    0.031775
  70 H :    0.033258
  71 H :    0.032219
  72 H :    0.032391
  73 H :    0.034453
  74 H :    0.029926
  75 H :    0.028010

  Mayer bond orders larger than 0.100000
B(  0-C ,  1-O ) :   1.1758 B(  0-C ,  4-C ) :   1.5058 B(  0-C , 55-H ) :   1.0026
B(  1-O ,  2-C ) :   1.1465 B(  2-C ,  3-C ) :   1.5749 B(  2-C , 56-H ) :   1.0018
B(  3-C ,  4-C ) :   1.2095 B(  3-C , 57-H ) :   1.0096 B(  4-C ,  5-C ) :   1.0711
B(  5-C ,  6-C ) :   1.6904 B(  5-C , 58-H ) :   0.9808 B(  6-C ,  7-C ) :   1.1377
B(  6-C , 59-H ) :   0.9836 B(  7-C ,  8-C ) :   1.6809 B(  7-C , 60-H ) :   0.9827
B(  8-C ,  9-C ) :   1.1000 B(  8-C , 61-H ) :   0.9653 B(  9-C , 10-S ) :   1.0938
B(  9-C , 13-C ) :   1.5204 B( 10-S , 11-C ) :   1.0687 B( 11-C , 12-C ) :   1.4603
B( 11-C , 19-C ) :   1.3074 B( 12-C , 13-C ) :   1.2737 B( 12-C , 14-S ) :   1.0498
B( 13-C , 62-H ) :   0.9966 B( 14-S , 15-C ) :   1.0460 B( 15-C , 16-C ) :   1.2891
B( 15-C , 19-C ) :   1.4488 B( 16-C , 17-C ) :   1.4955 B( 16-C , 63-H ) :   0.9977
B( 17-C , 18-S ) :   1.0820 B( 17-C , 20-C ) :   1.1468 B( 18-S , 19-C ) :   1.0819
B( 20-C , 21-C ) :   1.6646 B( 20-C , 64-H ) :   0.9542 B( 21-C , 22-C ) :   1.1826
B( 21-C , 65-H ) :   0.9619 B( 22-C , 23-S ) :   1.1085 B( 22-C , 24-C ) :   0.1052
B( 22-C , 26-C ) :   1.5261 B( 23-S , 24-C ) :   1.1170 B( 24-C , 25-C ) :   1.5251
B( 24-C , 33-C ) :   1.1940 B( 25-C , 26-C ) :   1.3076 B( 25-C , 32-S ) :   0.9680
B( 26-C , 27-S ) :   0.9641 B( 27-S , 28-C ) :   1.0563 B( 27-S , 29-O ) :   0.1412
B( 28-C , 29-O ) :   2.1548 B( 28-C , 30-C ) :   0.7692 B( 30-C , 31-O ) :   2.1716
B( 30-C , 32-S ) :   1.0494 B( 31-O , 32-S ) :   0.1337 B( 33-C , 34-S ) :   1.1224
B( 33-C , 40-C ) :   1.3931 B( 34-S , 35-C ) :   1.1135 B( 35-C , 36-N ) :   0.9573
B( 35-C , 39-C ) :   1.4822 B( 36-N , 37-O ) :   1.5369 B( 36-N , 38-O ) :   1.5214
B( 37-O , 38-O ) :   0.2655 B( 39-C , 40-C ) :   1.2391 B( 39-C , 66-H ) :   1.0001
B( 40-C , 41-C ) :   1.0664 B( 41-C , 42-C ) :   1.6728 B( 41-C , 67-H ) :   0.9512
B( 42-C , 43-C ) :   1.1495 B( 42-C , 68-H ) :   0.9744 B( 43-C , 44-C ) :   1.5715
B( 43-C , 69-H ) :   0.9838 B( 44-C , 45-C ) :   1.1296 B( 44-C , 48-S ) :   1.0367
B( 45-C , 46-C ) :   1.6094 B( 45-C , 70-H ) :   0.9994 B( 46-C , 47-C ) :   1.1732
B( 46-C , 71-H ) :   0.9919 B( 47-C , 48-S ) :   1.0323 B( 47-C , 49-C ) :   1.5576
B( 49-C , 50-C ) :   1.1502 B( 49-C , 53-S ) :   1.0509 B( 50-C , 51-C ) :   1.6657
B( 50-C , 72-H ) :   0.9912 B( 51-C , 52-C ) :   1.0782 B( 51-C , 73-H ) :   0.9924
B( 52-C , 53-S ) :   1.0062 B( 52-C , 54-C ) :   1.8686 B( 54-C , 74-H ) :   0.9500
B( 54-C , 75-H ) :   0.9414

-----------------------------------------------------------------------------
         ABSORPTION SPECTRUM VIA TRANSITION ELECTRIC DIPOLE MOMENTS
-----------------------------------------------------------------------------
State   Energy  Wavelength   fosc         T2         TX        TY        TZ
        (cm-1)    (nm)                  (au**2)     (au)      (au)      (au)
-----------------------------------------------------------------------------
   0   14671.9    681.6   0.979648811  21.98164  -1.99928  -2.50463  -3.42219
   1   18885.6    529.5   0.840346486  14.64887  -3.19394  -2.02051   0.60428
   2   19950.1    501.3   1.465222142  24.17873  -3.02749  -0.08698   3.87369
   3   22847.6    437.7   0.094025942   1.35483  -0.97234  -0.44715   0.45763
   4   23662.3    422.6   0.521807378   7.25987   1.98861   0.88907  -1.58582
   5   25022.3    399.6   0.229074180   3.01387  -1.01498  -1.40409   0.11044
   6   25736.5    388.6   0.129835150   1.66080  -0.56842  -0.67793  -0.93708
   7   27036.3    369.9   0.215865582   2.62853   1.35125   0.74723  -0.49428
   8   27328.9    365.9   0.079443636   0.95700   0.54947   0.20453  -0.78311
   9   28646.5    349.1   0.114777709   1.31905  -0.63439   0.22121   0.93149
  10   29740.9    336.2   0.180061777   1.99317   0.49668   0.46172  -1.23826
  11   30020.8    333.1   0.148629198   1.62989   0.58925   0.92800   0.64922
  12   30285.3    330.2   0.035952164   0.39081  -0.16096  -0.31847   0.51331
  13   30473.2    328.2   0.015633629   0.16890  -0.17533  -0.36813   0.05134
  14   31289.3    319.6   0.076661713   0.80660  -0.22098  -0.35700   0.79393
  15   31720.9    315.2   0.016858702   0.17497   0.32864  -0.25786   0.02160
  16   32708.8    305.7   0.015464233   0.15565  -0.09008  -0.38409   0.00215
  17   32836.8    304.5   0.228892680   2.29481   0.92566   1.13611  -0.38369
  18   33380.2    299.6   0.104502407   1.03065  -0.56314  -0.80776   0.24707
  19   34112.3    293.1   0.031322453   0.30229   0.37336   0.38231   0.12935
  20   34521.9    289.7   0.060750230   0.57933  -0.46460  -0.31389   0.51474
  21   35111.0    284.8   0.068036210   0.63793  -0.07104   0.22742   0.76234
  22   35185.2    284.2   0.004996974   0.04675  -0.04233  -0.09152   0.19128
  23   35757.4    279.7   0.082454771   0.75915  -0.34032  -0.52854   0.60330
  24   36260.5    275.8   0.082999706   0.75356  -0.59530  -0.59205  -0.22058
  25   36555.0    273.6   0.098745047   0.88929  -0.09850  -0.24866   0.90430
  26   37320.5    267.9   0.016032433   0.14143   0.05773   0.19507   0.31629
  27   37701.6    265.2   0.002387867   0.02085   0.11134  -0.07950  -0.04620
  28   38109.1    262.4   0.117530556   1.01531   0.75650   0.66356   0.05195
  29   38543.9    259.4   0.032130127   0.27443  -0.17297  -0.07279   0.48909
  30   38901.2    257.1   0.017056235   0.14434  -0.36616  -0.09807  -0.02546
  31   39058.7    256.0   0.020396957   0.17192   0.29431   0.16509  -0.24093
  32   39471.4    253.3   0.071509717   0.59643  -0.20278  -0.65579  -0.35390
  33   39798.0    251.3   0.016669729   0.13789  -0.05268   0.28386   0.23354
  34   39860.9    250.9   0.012541331   0.10358  -0.25932  -0.06832   0.17795
  35   40059.9    249.6   0.047053218   0.38668  -0.20117  -0.48358  -0.33522
  36   40110.7    249.3   0.083982881   0.68930   0.50392   0.50491  -0.42477

FINAL SINGLE POINT ENERGY     -5547.708057603624

DIPOLE MOMENT
-------------
                                X             Y             Z
Electronic contribution:     48.20150      24.19506     -47.74786
Nuclear contribution   :    -52.00575     -26.80119      50.95177
                        -----------------------------------------
Total Dipole Moment    :     -3.80426      -2.60613       3.20391
                        -----------------------------------------
Magnitude (a.u.)       :      5.61510
Magnitude (Debye)      :     14.27244

Rotational constants in cm-1:     0.000961     0.000413     0.000292
Rotational constants in MHz :    28.799115    12.378127     8.749842

                             ****ORCA TERMINATED NORMALLY****
TOTAL RUN TIME: 0 days 0 hours 5 minutes 16 seconds 445 msec
