                         Program Version 4.2.0 -  RELEASE  -
|  1> # ORCA input file
|  2> # SCF done       -158.570950338162          0.000234168405
|  3> ! CAM-B3LYP def2-SVP def2/J RIJCOSX Grid4 TightSCF
|  4> %maxcore 5000
|  5> %tddft
|  6>     Mode sTDDFT
|  7>     Ethresh 5.0
|  8>     maxcore 5000
|  9> end
| 10>
| 11> %pal
| 12>   nprocs 6
| 13>   end
| 14> * xyz 0 1
| 15>    C      -15.96841        15.08301        -0.64198
| 16>    O      -16.49793        14.24443        -1.54067
| 17>    C      -15.58478        13.28397        -1.77725
| 18>    C      -14.46699        13.49177        -1.03963
| 19>    C      -14.70153        14.68096        -0.27913
| 20>    C      -13.78259        15.27286         0.64518
| 21>    C      -14.02027        16.40092         1.35882
| 22>    C      -13.13534        17.00221         2.28997
| 23>    C      -11.88700        16.55703         2.63002
| 24>    C      -11.07601        17.18443         3.58101
| 25>    C       -9.82841        16.73694         3.95777
| 26>    C       -8.98039        17.29353         4.93808
| 27>    C       -7.81134        16.61021         5.12368
| 28>    C       -7.67296        15.48368         4.29219
| 29>    S       -9.07021        15.31441         3.25890
| 30>    C       -6.61792        14.57999         4.25464
| 31>    C       -5.47631        14.54433         5.07056
| 32>    C       -4.63732        13.49510         4.80426
| 33>    C       -5.06631        12.65632         3.75897
| 34>    S       -6.58584        13.24937         3.11993
| 35>    C       -4.39876        11.52326         3.32005
| 36>    C       -4.72734        10.66452         2.28402
| 37>    C       -4.03600         9.49715         1.91498
| 38>    C       -4.67186         8.90328         0.80926
| 39>    C       -5.84222         9.70722         0.48972
| 40>    O       -6.73299         9.56590        -0.32390
| 41>    N       -5.78541        10.75831         1.39898
| 42>    C       -3.98508         7.71508         0.52138
| 43>    O       -2.97431         7.56927         1.44921
| 44>    C       -2.94393         8.64601         2.31922
| 45>    O       -2.12573         8.73812         3.19851
| 46>    C       -4.11459         6.70747        -0.41672
| 47>    C       -4.85623         6.70378        -1.59163
| 48>    C       -4.99783         5.57798        -2.43074
| 49>    C       -5.68837         5.82399        -3.58336
| 50>    C       -6.09835         7.16500        -3.70789
| 51>    S       -5.62534         8.09114        -2.30339
| 52>    C       -6.77433         7.74102        -4.77621
| 53>    C       -7.20819         7.11139        -5.96135
| 54>    C       -7.81560         7.95494        -6.84144
| 55>    C       -7.89552         9.30455        -6.40776
| 56>    S       -7.17240         9.43732        -4.80848
| 57>    C       -8.43119        10.31468        -7.16262
| 58>    C       -8.57008        11.70024        -6.89230
| 59>    C       -8.24907        12.33186        -5.69142
| 60>    C       -8.41207        13.69612        -5.51184
| 61>    C       -8.89550        14.52729        -6.51288
| 62>    C       -9.23235        13.92271        -7.75843
| 63>    C       -9.08598        12.52682        -7.94402
| 64>    N       -9.43263        11.96401        -9.11416
| 65>    C       -9.88493        12.71807       -10.08496
| 66>    C      -10.28572        12.03661       -11.36127
| 67>    C      -10.03917        10.53438       -11.32418
| 68>    C      -10.00124        14.12610        -9.91092
| 69>    C      -10.44372        15.05055       -11.00619
| 70>    C       -9.24686        15.48210       -11.85685
| 71>    N       -9.69019        14.68660        -8.77012
| 72>    C       -9.07263        15.95752        -6.37073
| 73>    C       -8.85749        16.67693        -5.27157
| 74>    H      -16.57139        15.91503        -0.33783
| 75>    H      -15.84865        12.52036        -2.48170
| 76>    H      -13.58089        12.89136        -1.02291
| 77>    H      -12.84376        14.74959         0.75580
| 78>    H      -14.97136        16.89804         1.22191
| 79>    H      -13.49534        17.89800         2.78102
| 80>    H      -11.48590        15.66877         2.16117
| 81>    H      -11.44876        18.07373         4.07316
| 82>    H       -9.25912        18.17768         5.48395
| 83>    H       -7.05343        16.89186         5.83234
| 84>    H       -5.29971        15.27655         5.83755
| 85>    H       -3.72088        13.30300         5.33315
| 86>    H       -3.49655        11.26002         3.85581
| 87>    H       -6.48585        11.48305         1.41833
| 88>    H       -3.51828         5.82505        -0.22269
| 89>    H       -4.59287         4.61951        -2.15774
| 90>    H       -5.89833         5.08246        -4.33277
| 91>    H       -7.06128         6.06069        -6.13459
| 92>    H       -8.20927         7.65514        -7.79662
| 93>    H       -8.79556        10.02606        -8.14116
| 94>    H       -7.86998        11.74710        -4.86853
| 95>    H       -8.14593        14.12041        -4.55613
| 96>    H       -9.73239        12.48201       -12.19202
| 97>    H      -11.34816        12.23118       -11.53857
| 98>    H       -8.98544        10.33120       -11.15366
| 99>    H      -10.33836        10.08162       -12.26655
|100>    H      -10.60847        10.08032       -10.51788
|101>    H      -10.88582        15.93460       -10.54478
|102>    H      -11.19245        14.56787       -11.63546
|103>    H       -8.51541        15.99286       -11.23542
|104>    H       -9.57059        16.15969       -12.64313
|105>    H       -8.76399        14.62330       -12.31815
|106>    H       -9.42059        16.44287        -7.27231
|107>    H       -8.51860        16.24552        -4.34499
|108>    H       -9.01933        17.74108        -5.26330
|109> *
|110>
|111>                          ****END OF INPUT****

CARTESIAN COORDINATES (ANGSTROEM)
---------------------------------
  C    -15.968410   15.083010   -0.641980
  O    -16.497930   14.244430   -1.540670
  C    -15.584780   13.283970   -1.777250
  C    -14.466990   13.491770   -1.039630
  C    -14.701530   14.680960   -0.279130
  C    -13.782590   15.272860    0.645180
  C    -14.020270   16.400920    1.358820
  C    -13.135340   17.002210    2.289970
  C    -11.887000   16.557030    2.630020
  C    -11.076010   17.184430    3.581010
  C     -9.828410   16.736940    3.957770
  C     -8.980390   17.293530    4.938080
  C     -7.811340   16.610210    5.123680
  C     -7.672960   15.483680    4.292190
  S     -9.070210   15.314410    3.258900
  C     -6.617920   14.579990    4.254640
  C     -5.476310   14.544330    5.070560
  C     -4.637320   13.495100    4.804260
  C     -5.066310   12.656320    3.758970
  S     -6.585840   13.249370    3.119930
  C     -4.398760   11.523260    3.320050
  C     -4.727340   10.664520    2.284020
  C     -4.036000    9.497150    1.914980
  C     -4.671860    8.903280    0.809260
  C     -5.842220    9.707220    0.489720
  O     -6.732990    9.565900   -0.323900
  N     -5.785410   10.758310    1.398980
  C     -3.985080    7.715080    0.521380
  O     -2.974310    7.569270    1.449210
  C     -2.943930    8.646010    2.319220
  O     -2.125730    8.738120    3.198510
  C     -4.114590    6.707470   -0.416720
  C     -4.856230    6.703780   -1.591630
  C     -4.997830    5.577980   -2.430740
  C     -5.688370    5.823990   -3.583360
  C     -6.098350    7.165000   -3.707890
  S     -5.625340    8.091140   -2.303390
  C     -6.774330    7.741020   -4.776210
  C     -7.208190    7.111390   -5.961350
  C     -7.815600    7.954940   -6.841440
  C     -7.895520    9.304550   -6.407760
  S     -7.172400    9.437320   -4.808480
  C     -8.431190   10.314680   -7.162620
  C     -8.570080   11.700240   -6.892300
  C     -8.249070   12.331860   -5.691420
  C     -8.412070   13.696120   -5.511840
  C     -8.895500   14.527290   -6.512880
  C     -9.232350   13.922710   -7.758430
  C     -9.085980   12.526820   -7.944020
  N     -9.432630   11.964010   -9.114160
  C     -9.884930   12.718070  -10.084960
  C    -10.285720   12.036610  -11.361270
  C    -10.039170   10.534380  -11.324180
  C    -10.001240   14.126100   -9.910920
  C    -10.443720   15.050550  -11.006190
  C     -9.246860   15.482100  -11.856850
  N     -9.690190   14.686600   -8.770120
  C     -9.072630   15.957520   -6.370730
  C     -8.857490   16.676930   -5.271570
  H    -16.571390   15.915030   -0.337830
  H    -15.848650   12.520360   -2.481700
  H    -13.580890   12.891360   -1.022910
  H    -12.843760   14.749590    0.755800
  H    -14.971360   16.898040    1.221910
  H    -13.495340   17.898000    2.781020
  H    -11.485900   15.668770    2.161170
  H    -11.448760   18.073730    4.073160
  H     -9.259120   18.177680    5.483950
  H     -7.053430   16.891860    5.832340
  H     -5.299710   15.276550    5.837550
  H     -3.720880   13.303000    5.333150
  H     -3.496550   11.260020    3.855810
  H     -6.485850   11.483050    1.418330
  H     -3.518280    5.825050   -0.222690
  H     -4.592870    4.619510   -2.157740
  H     -5.898330    5.082460   -4.332770
  H     -7.061280    6.060690   -6.134590
  H     -8.209270    7.655140   -7.796620
  H     -8.795560   10.026060   -8.141160
  H     -7.869980   11.747100   -4.868530
  H     -8.145930   14.120410   -4.556130
  H     -9.732390   12.482010  -12.192020
  H    -11.348160   12.231180  -11.538570
  H     -8.985440   10.331200  -11.153660
  H    -10.338360   10.081620  -12.266550
  H    -10.608470   10.080320  -10.517880
  H    -10.885820   15.934600  -10.544780
  H    -11.192450   14.567870  -11.635460
  H     -8.515410   15.992860  -11.235420
  H     -9.570590   16.159690  -12.643130
  H     -8.763990   14.623300  -12.318150
  H     -9.420590   16.442870   -7.272310
  H     -8.518600   16.245520   -4.344990
  H     -9.019330   17.741080   -5.263300

 Total Charge           Charge          ....    0
 Multiplicity           Mult            ....    1
 Number of Electrons    NEL             ....  440
 Basis Dimension        Dim             .... 1017

ORBITAL ENERGIES
----------------

  NO   OCC          E(Eh)            E(eV)
   0   2.0000     -88.950996     -2420.4796
   1   2.0000     -88.947285     -2420.3787
   2   2.0000     -88.947069     -2420.3728
   3   2.0000     -88.939625     -2420.1702
   4   2.0000     -19.287055      -524.8275
   5   2.0000     -19.249179      -523.7968
   6   2.0000     -19.175741      -521.7984
   7   2.0000     -19.167793      -521.5822
   8   2.0000     -14.436019      -392.8241
   9   2.0000     -14.413337      -392.2068
  10   2.0000     -14.412073      -392.1724
  11   2.0000     -10.376058      -282.3469
  12   2.0000     -10.360326      -281.9188
  13   2.0000     -10.337090      -281.2865
  14   2.0000     -10.319254      -280.8012
  15   2.0000     -10.317842      -280.7628
  16   2.0000     -10.316443      -280.7247
  17   2.0000     -10.315000      -280.6854
  18   2.0000     -10.314974      -280.6847
  19   2.0000     -10.314683      -280.6768
  20   2.0000     -10.313986      -280.6578
  21   2.0000     -10.310586      -280.5653
  22   2.0000     -10.310161      -280.5538
  23   2.0000     -10.307869      -280.4914
  24   2.0000     -10.307496      -280.4812
  25   2.0000     -10.305791      -280.4348
  26   2.0000     -10.305601      -280.4297
  27   2.0000     -10.305188      -280.4184
  28   2.0000     -10.302717      -280.3512
  29   2.0000     -10.287153      -279.9277
  30   2.0000     -10.286759      -279.9170
  31   2.0000     -10.286685      -279.9149
  32   2.0000     -10.286613      -279.9130
  33   2.0000     -10.284761      -279.8626
  34   2.0000     -10.283389      -279.8252
  35   2.0000     -10.283034      -279.8156
  36   2.0000     -10.281575      -279.7759
  37   2.0000     -10.280361      -279.7428
  38   2.0000     -10.278937      -279.7041
  39   2.0000     -10.278667      -279.6968
  40   2.0000     -10.278239      -279.6851
  41   2.0000     -10.277901      -279.6759
  42   2.0000     -10.276426      -279.6358
  43   2.0000     -10.276008      -279.6244
  44   2.0000     -10.275634      -279.6142
  45   2.0000     -10.274353      -279.5794
  46   2.0000     -10.273603      -279.5589
  47   2.0000     -10.273276      -279.5501
  48   2.0000     -10.271045      -279.4894
  49   2.0000     -10.270987      -279.4878
  50   2.0000     -10.270954      -279.4869
  51   2.0000     -10.269266      -279.4409
  52   2.0000     -10.262940      -279.2688
  53   2.0000     -10.262055      -279.2447
  54   2.0000     -10.261350      -279.2255
  55   2.0000     -10.258478      -279.1474
  56   2.0000     -10.255289      -279.0606
  57   2.0000     -10.253610      -279.0149
  58   2.0000     -10.252407      -278.9822
  59   2.0000      -8.047127      -218.9735
  60   2.0000      -8.043337      -218.8703
  61   2.0000      -8.043106      -218.8640
  62   2.0000      -8.035236      -218.6499
  63   2.0000      -6.016784      -163.7250
  64   2.0000      -6.012995      -163.6219
  65   2.0000      -6.012842      -163.6177
  66   2.0000      -6.012772      -163.6158
  67   2.0000      -6.009056      -163.5147
  68   2.0000      -6.008705      -163.5052
  69   2.0000      -6.008219      -163.4919
  70   2.0000      -6.004792      -163.3987
  71   2.0000      -6.004327      -163.3860
  72   2.0000      -6.004206      -163.3828
  73   2.0000      -6.000576      -163.2840
  74   2.0000      -5.996517      -163.1735
  75   2.0000      -1.205132       -32.7933
  76   2.0000      -1.178754       -32.0755
  77   2.0000      -1.109050       -30.1788
  78   2.0000      -1.082935       -29.4682
  79   2.0000      -1.073502       -29.2115
  80   2.0000      -1.036450       -28.2032
  81   2.0000      -0.997670       -27.1480
  82   2.0000      -0.996446       -27.1147
  83   2.0000      -0.993158       -27.0252
  84   2.0000      -0.974189       -26.5090
  85   2.0000      -0.971186       -26.4273
  86   2.0000      -0.952212       -25.9110
  87   2.0000      -0.922067       -25.0907
  88   2.0000      -0.903594       -24.5880
  89   2.0000      -0.899601       -24.4794
  90   2.0000      -0.891766       -24.2662
  91   2.0000      -0.890498       -24.2317
  92   2.0000      -0.885233       -24.0884
  93   2.0000      -0.879706       -23.9380
  94   2.0000      -0.865047       -23.5391
  95   2.0000      -0.858710       -23.3667
  96   2.0000      -0.853003       -23.2114
  97   2.0000      -0.848431       -23.0870
  98   2.0000      -0.842603       -22.9284
  99   2.0000      -0.837861       -22.7994
 100   2.0000      -0.826102       -22.4794
 101   2.0000      -0.823610       -22.4116
 102   2.0000      -0.821651       -22.3583
 103   2.0000      -0.819302       -22.2943
 104   2.0000      -0.818025       -22.2596
 105   2.0000      -0.799040       -21.7430
 106   2.0000      -0.792504       -21.5651
 107   2.0000      -0.764718       -20.8090
 108   2.0000      -0.760221       -20.6867
 109   2.0000      -0.753333       -20.4992
 110   2.0000      -0.739257       -20.1162
 111   2.0000      -0.734835       -19.9959
 112   2.0000      -0.729744       -19.8574
 113   2.0000      -0.719642       -19.5824
 114   2.0000      -0.700696       -19.0669
 115   2.0000      -0.695922       -18.9370
 116   2.0000      -0.685877       -18.6636
 117   2.0000      -0.681749       -18.5513
 118   2.0000      -0.680919       -18.5288
 119   2.0000      -0.674454       -18.3528
 120   2.0000      -0.673242       -18.3198
 121   2.0000      -0.664502       -18.0820
 122   2.0000      -0.654661       -17.8142
 123   2.0000      -0.648291       -17.6409
 124   2.0000      -0.642316       -17.4783
 125   2.0000      -0.638117       -17.3640
 126   2.0000      -0.635483       -17.2924
 127   2.0000      -0.622561       -16.9407
 128   2.0000      -0.621677       -16.9167
 129   2.0000      -0.618130       -16.8202
 130   2.0000      -0.614141       -16.7116
 131   2.0000      -0.608933       -16.5699
 132   2.0000      -0.600200       -16.3323
 133   2.0000      -0.591816       -16.1041
 134   2.0000      -0.591441       -16.0939
 135   2.0000      -0.590188       -16.0598
 136   2.0000      -0.579898       -15.7798
 137   2.0000      -0.571785       -15.5591
 138   2.0000      -0.569700       -15.5023
 139   2.0000      -0.560182       -15.2433
 140   2.0000      -0.557419       -15.1682
 141   2.0000      -0.555137       -15.1060
 142   2.0000      -0.550194       -14.9715
 143   2.0000      -0.546989       -14.8843
 144   2.0000      -0.545872       -14.8539
 145   2.0000      -0.543637       -14.7931
 146   2.0000      -0.539883       -14.6910
 147   2.0000      -0.537685       -14.6312
 148   2.0000      -0.525752       -14.3065
 149   2.0000      -0.521923       -14.2022
 150   2.0000      -0.519631       -14.1399
 151   2.0000      -0.515196       -14.0192
 152   2.0000      -0.513810       -13.9815
 153   2.0000      -0.511786       -13.9264
 154   2.0000      -0.509535       -13.8652
 155   2.0000      -0.507463       -13.8088
 156   2.0000      -0.504737       -13.7346
 157   2.0000      -0.503465       -13.7000
 158   2.0000      -0.497431       -13.5358
 159   2.0000      -0.495697       -13.4886
 160   2.0000      -0.494693       -13.4613
 161   2.0000      -0.493457       -13.4276
 162   2.0000      -0.492641       -13.4054
 163   2.0000      -0.487775       -13.2730
 164   2.0000      -0.486782       -13.2460
 165   2.0000      -0.484268       -13.1776
 166   2.0000      -0.480937       -13.0870
 167   2.0000      -0.479386       -13.0447
 168   2.0000      -0.476784       -12.9740
 169   2.0000      -0.472061       -12.8454
 170   2.0000      -0.467646       -12.7253
 171   2.0000      -0.464206       -12.6317
 172   2.0000      -0.460941       -12.5428
 173   2.0000      -0.459994       -12.5171
 174   2.0000      -0.458317       -12.4714
 175   2.0000      -0.452725       -12.3193
 176   2.0000      -0.449218       -12.2238
 177   2.0000      -0.447724       -12.1832
 178   2.0000      -0.445402       -12.1200
 179   2.0000      -0.443750       -12.0750
 180   2.0000      -0.439194       -11.9511
 181   2.0000      -0.437573       -11.9070
 182   2.0000      -0.436754       -11.8847
 183   2.0000      -0.434929       -11.8350
 184   2.0000      -0.432746       -11.7756
 185   2.0000      -0.430702       -11.7200
 186   2.0000      -0.427598       -11.6355
 187   2.0000      -0.427052       -11.6207
 188   2.0000      -0.425955       -11.5908
 189   2.0000      -0.423228       -11.5166
 190   2.0000      -0.421007       -11.4562
 191   2.0000      -0.419112       -11.4046
 192   2.0000      -0.416073       -11.3219
 193   2.0000      -0.415530       -11.3072
 194   2.0000      -0.410561       -11.1719
 195   2.0000      -0.407542       -11.0898
 196   2.0000      -0.401184       -10.9168
 197   2.0000      -0.395848       -10.7716
 198   2.0000      -0.388439       -10.5700
 199   2.0000      -0.381262       -10.3747
 200   2.0000      -0.368979       -10.0404
 201   2.0000      -0.363899        -9.9022
 202   2.0000      -0.360036        -9.7971
 203   2.0000      -0.342577        -9.3220
 204   2.0000      -0.338597        -9.2137
 205   2.0000      -0.337591        -9.1863
 206   2.0000      -0.332748        -9.0545
 207   2.0000      -0.331672        -9.0252
 208   2.0000      -0.326336        -8.8801
 209   2.0000      -0.323617        -8.8061
 210   2.0000      -0.319668        -8.6986
 211   2.0000      -0.313474        -8.5301
 212   2.0000      -0.311822        -8.4851
 213   2.0000      -0.307595        -8.3701
 214   2.0000      -0.301912        -8.2155
 215   2.0000      -0.282505        -7.6873
 216   2.0000      -0.275239        -7.4896
 217   2.0000      -0.248647        -6.7660
 218   2.0000      -0.223637        -6.0855
 219   2.0000      -0.185273        -5.0415
 220   0.0000      -0.102690        -2.7943
 221   0.0000      -0.074547        -2.0285
 222   0.0000      -0.040840        -1.1113
 223   0.0000      -0.025421        -0.6917
 224   0.0000      -0.001289        -0.0351

MULLIKEN ATOMIC CHARGES
-----------------------
   0 C :    0.068234
   1 O :   -0.177504
   2 C :    0.132867
   3 C :   -0.040846
   4 C :    0.035746
   5 C :    0.050838
   6 C :    0.010331
   7 C :    0.018619
   8 C :    0.007227
   9 C :    0.004168
  10 C :   -0.031435
  11 C :    0.041392
  12 C :    0.016480
  13 C :   -0.033304
  14 S :    0.074038
  15 C :   -0.044905
  16 C :    0.028649
  17 C :    0.022503
  18 C :   -0.006015
  19 S :    0.052247
  20 C :   -0.048696
  21 C :    0.070616
  22 C :   -0.100662
  23 C :   -0.060969
  24 C :    0.119788
  25 O :   -0.194953
  26 N :   -0.119649
  27 C :    0.144737
  28 O :   -0.256842
  29 C :    0.199761
  30 O :   -0.163810
  31 C :   -0.064453
  32 C :   -0.024342
  33 C :    0.025356
  34 C :    0.030939
  35 C :   -0.061582
  36 S :    0.181122
  37 C :   -0.024790
  38 C :    0.024796
  39 C :    0.038243
  40 C :   -0.004311
  41 S :    0.082658
  42 C :   -0.043981
  43 C :    0.081916
  44 C :   -0.049233
  45 C :   -0.043967
  46 C :    0.073768
  47 C :   -0.029079
  48 C :   -0.027777
  49 N :   -0.007260
  50 C :   -0.129027
  51 C :    0.028456
  52 C :    0.065257
  53 C :   -0.156088
  54 C :    0.117255
  55 C :    0.000730
  56 N :    0.004896
  57 C :   -0.008470
  58 C :   -0.007102
  59 H :    0.005142
  60 H :    0.011145
  61 H :   -0.007814
  62 H :   -0.019718
  63 H :   -0.023028
  64 H :   -0.017233
  65 H :    0.002326
  66 H :   -0.015754
  67 H :   -0.012367
  68 H :   -0.012758
  69 H :   -0.011891
  70 H :   -0.005567
  71 H :    0.000870
  72 H :    0.125612
  73 H :   -0.002122
  74 H :   -0.012335
  75 H :   -0.013948
  76 H :   -0.012887
  77 H :   -0.008754
  78 H :   -0.002885
  79 H :   -0.006581
  80 H :   -0.027543
  81 H :    0.016239
  82 H :    0.027295
  83 H :    0.014608
  84 H :    0.002035
  85 H :    0.016293
  86 H :    0.014004
  87 H :   -0.001794
  88 H :    0.024703
  89 H :    0.023110
  90 H :    0.008729
  91 H :   -0.004040
  92 H :    0.011305
  93 H :    0.023016
Sum of atomic charges:   -0.0000000

LOEWDIN ATOMIC CHARGES
----------------------
   0 C :    0.036976
   1 O :    0.027698
   2 C :    0.031253
   3 C :   -0.067226
   4 C :   -0.080502
   5 C :    0.004905
   6 C :   -0.041139
   7 C :   -0.014979
   8 C :   -0.033337
   9 C :   -0.038465
  10 C :   -0.155086
  11 C :   -0.028024
  12 C :   -0.039500
  13 C :   -0.168559
  14 S :    0.375944
  15 C :   -0.186947
  16 C :   -0.030832
  17 C :   -0.037793
  18 C :   -0.139008
  19 S :    0.377296
  20 C :   -0.071707
  21 C :    0.045310
  22 C :   -0.118674
  23 C :   -0.127729
  24 C :    0.059424
  25 O :   -0.213251
  26 N :    0.022551
  27 C :    0.083728
  28 O :   -0.059703
  29 C :    0.088133
  30 O :   -0.170298
  31 C :   -0.090964
  32 C :   -0.129186
  33 C :   -0.041381
  34 C :   -0.027691
  35 C :   -0.191700
  36 S :    0.467607
  37 C :   -0.157844
  38 C :   -0.043531
  39 C :   -0.016171
  40 C :   -0.149727
  41 S :    0.401748
  42 C :   -0.025837
  43 C :   -0.038169
  44 C :   -0.013144
  45 C :   -0.006037
  46 C :   -0.020449
  47 C :   -0.008992
  48 C :   -0.001530
  49 N :   -0.043324
  50 C :    0.002361
  51 C :   -0.044206
  52 C :   -0.049516
  53 C :    0.002877
  54 C :   -0.035855
  55 C :   -0.046864
  56 N :   -0.041606
  57 C :   -0.020290
  58 C :   -0.034995
  59 H :    0.019674
  60 H :    0.022671
  61 H :    0.031207
  62 H :    0.028742
  63 H :    0.026085
  64 H :    0.028222
  65 H :    0.020212
  66 H :    0.033564
  67 H :    0.033903
  68 H :    0.032122
  69 H :    0.032979
  70 H :    0.036458
  71 H :    0.049940
  72 H :    0.064997
  73 H :    0.044479
  74 H :    0.033086
  75 H :    0.030882
  76 H :    0.032234
  77 H :    0.035136
  78 H :    0.037676
  79 H :    0.017370
  80 H :    0.030708
  81 H :    0.033230
  82 H :    0.036283
  83 H :    0.025559
  84 H :    0.021985
  85 H :    0.025412
  86 H :    0.035680
  87 H :    0.024843
  88 H :    0.028591
  89 H :    0.027224
  90 H :    0.019982
  91 H :    0.029184
  92 H :    0.017800
  93 H :    0.025836

  Mayer bond orders larger than 0.100000
B(  0-C ,  1-O ) :   1.1790 B(  0-C ,  4-C ) :   1.4883 B(  0-C , 59-H ) :   1.0039
B(  1-O ,  2-C ) :   1.1415 B(  2-C ,  3-C ) :   1.5806 B(  2-C , 60-H ) :   1.0014
B(  3-C ,  4-C ) :   1.2029 B(  3-C , 61-H ) :   1.0080 B(  4-C ,  5-C ) :   1.1093
B(  5-C ,  6-C ) :   1.6864 B(  5-C , 62-H ) :   0.9664 B(  6-C ,  7-C ) :   1.1535
B(  6-C , 63-H ) :   0.9726 B(  7-C ,  8-C ) :   1.6197 B(  7-C , 64-H ) :   0.9787
B(  8-C ,  9-C ) :   1.1934 B(  8-C , 65-H ) :   0.9618 B(  9-C , 10-C ) :   1.5189
B(  9-C , 66-H ) :   0.9841 B( 10-C , 11-C ) :   1.1695 B( 10-C , 14-S ) :   1.0302
B( 11-C , 12-C ) :   1.5506 B( 11-C , 67-H ) :   0.9998 B( 12-C , 13-C ) :   1.2228
B( 12-C , 68-H ) :   0.9951 B( 13-C , 14-S ) :   1.0631 B( 13-C , 15-C ) :   1.4426
B( 15-C , 16-C ) :   1.2361 B( 15-C , 19-S ) :   1.0512 B( 16-C , 17-C ) :   1.5263
B( 16-C , 69-H ) :   0.9939 B( 17-C , 18-C ) :   1.1990 B( 17-C , 70-H ) :   1.0026
B( 18-C , 19-S ) :   1.0405 B( 18-C , 20-C ) :   1.4414 B( 20-C , 21-C ) :   1.2854
B( 20-C , 71-H ) :   0.9521 B( 21-C , 22-C ) :   1.2799 B( 21-C , 26-N ) :   1.1748
B( 22-C , 23-C ) :   1.2575 B( 22-C , 29-C ) :   0.9988 B( 23-C , 24-C ) :   0.9584
B( 23-C , 27-C ) :   1.2779 B( 24-C , 25-O ) :   2.1430 B( 24-C , 26-N ) :   1.0893
B( 26-N , 72-H ) :   0.9096 B( 27-C , 28-O ) :   1.0968 B( 27-C , 31-C ) :   1.3280
B( 28-O , 29-C ) :   1.0304 B( 29-C , 30-O ) :   2.2152 B( 31-C , 32-C ) :   1.4068
B( 31-C , 73-H ) :   0.9502 B( 32-C , 33-C ) :   1.1919 B( 32-C , 36-S ) :   1.1143
B( 33-C , 34-C ) :   1.5403 B( 33-C , 74-H ) :   1.0003 B( 34-C , 35-C ) :   1.2147
B( 34-C , 75-H ) :   0.9932 B( 35-C , 36-S ) :   1.0719 B( 35-C , 37-C ) :   1.4474
B( 37-C , 38-C ) :   1.2023 B( 37-C , 41-S ) :   1.0695 B( 38-C , 39-C ) :   1.5678
B( 38-C , 76-H ) :   0.9938 B( 39-C , 40-C ) :   1.1524 B( 39-C , 77-H ) :   1.0006
B( 40-C , 41-S ) :   1.0253 B( 40-C , 42-C ) :   1.5328 B( 42-C , 43-C ) :   1.1710
B( 42-C , 78-H ) :   0.9626 B( 43-C , 44-C ) :   1.3464 B( 43-C , 46-C ) :   0.1108
B( 43-C , 48-C ) :   1.1775 B( 44-C , 45-C ) :   1.3237 B( 44-C , 79-H ) :   0.9823
B( 45-C , 46-C ) :   1.3958 B( 45-C , 80-H ) :   0.9934 B( 46-C , 47-C ) :   1.2040
B( 46-C , 57-C ) :   1.1120 B( 47-C , 48-C ) :   1.2616 B( 47-C , 56-N ) :   1.4464
B( 48-C , 49-N ) :   1.4570 B( 49-N , 50-C ) :   1.6872 B( 50-C , 51-C ) :   1.0328
B( 50-C , 53-C ) :   1.1935 B( 51-C , 52-C ) :   1.1380 B( 51-C , 81-H ) :   0.9124
B( 51-C , 82-H ) :   0.9187 B( 52-C , 83-H ) :   0.9636 B( 52-C , 84-H ) :   0.9568
B( 52-C , 85-H ) :   0.9622 B( 53-C , 54-C ) :   1.0731 B( 53-C , 56-N ) :   1.6872
B( 54-C , 55-C ) :   1.1033 B( 54-C , 86-H ) :   0.9151 B( 54-C , 87-H ) :   0.9148
B( 55-C , 88-H ) :   0.9662 B( 55-C , 89-H ) :   0.9695 B( 55-C , 90-H ) :   0.9704
B( 57-C , 58-C ) :   1.9136 B( 57-C , 91-H ) :   0.9572 B( 58-C , 92-H ) :   0.9478
B( 58-C , 93-H ) :   0.9506

-----------------------------------------------------------------------------
         ABSORPTION SPECTRUM VIA TRANSITION ELECTRIC DIPOLE MOMENTS
-----------------------------------------------------------------------------
State   Energy  Wavelength   fosc         T2         TX        TY        TZ
        (cm-1)    (nm)                  (au**2)     (au)      (au)      (au)
-----------------------------------------------------------------------------
   0    6003.7   1665.6   0.421562577  23.11617   1.61953  -2.36575  -3.85960
   1   11686.5    855.7   0.088140385   2.48295  -1.16570   0.95904  -0.45203
   2   14996.4    666.8   1.967697179  43.19627   4.70169  -3.40990   3.07619
   3   17602.9    568.1   0.022907099   0.42841   0.17894  -0.49303   0.39156
   4   19954.5    501.1   0.355029016   5.85732  -0.30760  -2.36374  -0.41888
   5   21023.9    475.6   0.247814172   3.88050  -0.79938  -1.53529  -0.94042
   6   22097.8    452.5   0.222179684   3.31003  -0.31969  -1.72418  -0.48480
   7   24081.3    415.3   0.096046603   1.31304   0.17881   1.04733   0.42914
   8   24908.9    401.5   0.195317446   2.58144   0.50273   1.22176   0.91433
   9   25306.8    395.2   0.040284607   0.52406   0.32290  -0.63955   0.10375
  10   26827.1    372.8   0.048206766   0.59157  -0.10166  -0.63553  -0.42112
  11   27343.8    365.7   0.064723888   0.77926  -0.28676  -0.44948  -0.70356
  12   27611.6    362.2   0.199064002   2.37343   0.99938  -0.18452   1.15785
  13   29636.8    337.4   0.003623473   0.04025  -0.10916  -0.01248   0.16787
  14   29862.9    334.9   0.003392410   0.03740   0.14300  -0.10072   0.08250
  15   30138.3    331.8   0.013094264   0.14303  -0.09390  -0.26589  -0.25203
  16   30269.0    330.4   0.016716994   0.18182   0.06246   0.40718   0.11008
  17   30664.0    326.1   0.086255809   0.92605   0.41359   0.46384   0.73474
  18   31084.4    321.7   0.002192369   0.02322   0.01289   0.08514   0.12572
  19   31194.7    320.6   0.000776818   0.00820  -0.08278   0.00896  -0.03556
  20   31599.0    316.5   0.001967843   0.02050   0.11522  -0.05451   0.06523
  21   32176.5    310.8   0.123661642   1.26524  -0.46902  -0.68438  -0.75952
  22   32271.2    309.9   0.114108855   1.16407  -0.37938  -0.75110  -0.67528
  23   32683.0    306.0   0.007676103   0.07732   0.00245   0.27001   0.06641
  24   32817.5    304.7   0.046107092   0.46253   0.09915  -0.66022   0.12965
  25   33175.9    301.4   0.168864981   1.67569  -0.41007  -0.63544  -1.05059
  26   33228.2    300.9   0.010817773   0.10718  -0.23547   0.22600   0.02558
  27   33940.9    294.6   0.014170748   0.13745   0.03482  -0.36601   0.04770
  28   34021.9    293.9   0.055139601   0.53356   0.38845   0.27703   0.55310
  29   34499.3    289.9   0.022731646   0.21692   0.04613  -0.38010  -0.26517
  30   34746.9    287.8   0.013018346   0.12334  -0.28583   0.19098  -0.07191
  31   35066.1    285.2   0.033937416   0.31862   0.05865   0.55706   0.06975
  32   35125.5    284.7   0.092314086   0.86521  -0.33401  -0.35368  -0.79282
  33   35780.0    279.5   0.004613445   0.04245   0.18186   0.09339  -0.02553
  34   35894.9    278.6   0.097189289   0.89138   0.17197   0.61620   0.69433
  35   36876.0    271.2   0.009589834   0.08561   0.22994  -0.16486   0.07456
  36   37244.0    268.5   0.014970601   0.13233  -0.18390   0.16572  -0.26655
  37   37700.3    265.3   0.012916338   0.11279  -0.25213   0.21935  -0.03323
  38   37848.1    264.2   0.017179201   0.14943  -0.10833  -0.24174  -0.28152
  39   38287.8    261.2   0.029500601   0.25366  -0.15291   0.44978   0.16725
  40   38561.9    259.3   0.022365215   0.19094  -0.37681   0.05632  -0.21396
  41   38988.5    256.5   0.012000597   0.10133   0.10103  -0.11194   0.28035
  42   39222.6    255.0   0.009211095   0.07731   0.05038  -0.22814  -0.15076
  43   39471.1    253.3   0.006782062   0.05657  -0.00455  -0.21418   0.10331
  44   39788.3    251.3   0.032973021   0.27282  -0.09246   0.48675   0.16538

FINAL SINGLE POINT ENERGY     -3904.580349149881

DIPOLE MOMENT
-------------
                                X             Y             Z
Electronic contribution:     35.66592     -31.98164      63.13458
Nuclear contribution   :    -38.09951      33.77947     -65.13667
                        -----------------------------------------
Total Dipole Moment    :     -2.43359       1.79783      -2.00209
                        -----------------------------------------
Magnitude (a.u.)       :      3.62808
Magnitude (Debye)      :      9.22184

Rotational constants in cm-1:     0.000937     0.000683     0.000453
Rotational constants in MHz :    28.083998    20.489226    13.569672

                             ****ORCA TERMINATED NORMALLY****
TOTAL RUN TIME: 0 days 0 hours 7 minutes 36 seconds 794 msec
