                         Program Version 4.2.0 -  RELEASE  -
|  1> # ORCA input file
|  2> # SCF done       -153.752955424857          0.000591038851
|  3> ! CAM-B3LYP def2-SVP def2/J RIJCOSX Grid4 TightSCF
|  4> %maxcore 5000
|  5> %tddft
|  6>     Mode sTDDFT
|  7>     Ethresh 5.0
|  8>     maxcore 5000
|  9> end
| 10>
| 11> %pal
| 12>   nprocs 6
| 13>   end
| 14> * xyz 0 1
| 15>    C       -1.15672        -0.68713         3.59186
| 16>    S       -0.32276        -1.94473         2.79958
| 17>    C       -1.65853        -3.05669         2.97620
| 18>    C       -2.72208        -2.41749         3.65269
| 19>    C       -2.42506        -1.06297         3.98919
| 20>    C       -3.39438        -0.28761         4.65316
| 21>    C       -4.60727        -0.82298         5.00665
| 22>    O       -5.43461         0.02495         5.67866
| 23>    C       -6.82941        -0.18647         5.72322
| 24>    C       -4.88742        -2.19756         4.70307
| 25>    O       -6.08783        -2.68996         5.13310
| 26>    C       -6.40210        -4.03588         4.87889
| 27>    C       -3.96010        -2.95666         4.02743
| 28>    C       -1.63673        -4.35511         2.46721
| 29>    C       -0.59735        -4.97500         1.80245
| 30>    C       -0.62449        -6.24636         1.18974
| 31>    C        0.53175        -6.58647         0.53989
| 32>    C        1.53452        -5.60806         0.62825
| 33>    S        0.97305        -4.24062         1.56422
| 34>    C        2.80660        -5.56930         0.06699
| 35>    C        3.42355        -6.41871        -0.86255
| 36>    C        4.65488        -5.97945        -1.28138
| 37>    C        5.07909        -4.77618        -0.68775
| 38>    S        3.85977        -4.22917         0.44833
| 39>    C        6.20016        -4.02453        -1.01042
| 40>    C        6.57826        -2.83880        -0.39209
| 41>    C        7.39597        -1.80324        -0.87839
| 42>    C        7.32469        -0.70878         0.00857
| 43>    C        6.58364        -1.13798         1.18154
| 44>    O        6.41661        -0.63400         2.27548
| 45>    N        6.10652        -2.39135         0.82896
| 46>    C        8.01735         0.35836        -0.57848
| 47>    O        8.59726        -0.10092        -1.74344
| 48>    C        8.21928        -1.41087        -1.99774
| 49>    O        8.57869        -1.99745        -2.98637
| 50>    C        8.14923         1.70383        -0.27856
| 51>    C        7.39127         2.43376         0.63157
| 52>    C        7.56513         3.80156         0.93740
| 53>    C        6.62674         4.30897         1.79432
| 54>    C        5.67433         3.35517         2.19807
| 55>    S        5.99883         1.80931         1.45841
| 56>    C        4.62298         3.47780         3.09928
| 57>    C        4.14867         4.62603         3.76451
| 58>    C        3.11162         4.37672         4.61474
| 59>    C        2.72825         3.01279         4.68240
| 60>    S        3.70773         2.06905         3.57290
| 61>    C        1.78010         2.49374         5.52949
| 62>    C        1.45000         1.14112         5.73505
| 63>    S        2.17198        -0.15243         4.80410
| 64>    C        1.34393        -1.31969         5.73934
| 65>    C        0.56101        -0.77889         6.72346
| 66>    C        0.59184         0.63146         6.71067
| 67>    C       -0.15808         1.49009         7.68070
| 68>    C        0.71430         1.84860         8.88714
| 69>    C       -0.20726        -1.62546         7.69403
| 70>    C       -1.60260        -1.97440         7.17674
| 71>    H       -0.68655         0.26719         3.71786
| 72>    H       -3.18960         0.74185         4.89883
| 73>    H       -7.24849         0.76000         6.06553
| 74>    H       -7.09811        -0.97787         6.42609
| 75>    H       -7.23395        -0.42540         4.73731
| 76>    H       -5.68239        -4.71284         5.34992
| 77>    H       -6.45109        -4.24312         3.80506
| 78>    H       -7.38547        -4.19287         5.31988
| 79>    H       -4.16995        -3.98689         3.79216
| 80>    H       -2.54379        -4.93475         2.57871
| 81>    H       -1.50101        -6.86957         1.22845
| 82>    H        0.67995        -7.51080         0.01057
| 83>    H        2.94514        -7.31033        -1.22702
| 84>    H        5.26105        -6.48819        -2.00994
| 85>    H        6.78471        -4.33158        -1.86566
| 86>    H        5.59264        -2.95776         1.48551
| 87>    H        8.86565         2.25228        -0.87537
| 88>    H        8.37997         4.37057         0.52538
| 89>    H        6.61475         5.32413         2.14897
| 90>    H        4.57990         5.59748         3.60141
| 91>    H        2.62408         5.12613         5.21374
| 92>    H        1.26108         3.21126         6.15174
| 93>    H        1.49130        -2.36016         5.52460
| 94>    H       -1.04715         0.95888         8.02199
| 95>    H       -0.49077         2.40611         7.18853
| 96>    H        1.04183         0.94749         9.40045
| 97>    H        0.15591         2.46411         9.58862
| 98>    H        1.59849         2.39582         8.56861
| 99>    H       -0.29327        -1.10452         8.64851
|100>    H        0.34804        -2.55003         7.86606
|101>    H       -2.18215        -1.07538         6.98201
|102>    H       -2.13413        -2.57808         7.90887
|103>    H       -1.53289        -2.53759         6.24949
|104> *
|105>
|106>                          ****END OF INPUT****

CARTESIAN COORDINATES (ANGSTROEM)
---------------------------------
  C     -1.156720   -0.687130    3.591860
  S     -0.322760   -1.944730    2.799580
  C     -1.658530   -3.056690    2.976200
  C     -2.722080   -2.417490    3.652690
  C     -2.425060   -1.062970    3.989190
  C     -3.394380   -0.287610    4.653160
  C     -4.607270   -0.822980    5.006650
  O     -5.434610    0.024950    5.678660
  C     -6.829410   -0.186470    5.723220
  C     -4.887420   -2.197560    4.703070
  O     -6.087830   -2.689960    5.133100
  C     -6.402100   -4.035880    4.878890
  C     -3.960100   -2.956660    4.027430
  C     -1.636730   -4.355110    2.467210
  C     -0.597350   -4.975000    1.802450
  C     -0.624490   -6.246360    1.189740
  C      0.531750   -6.586470    0.539890
  C      1.534520   -5.608060    0.628250
  S      0.973050   -4.240620    1.564220
  C      2.806600   -5.569300    0.066990
  C      3.423550   -6.418710   -0.862550
  C      4.654880   -5.979450   -1.281380
  C      5.079090   -4.776180   -0.687750
  S      3.859770   -4.229170    0.448330
  C      6.200160   -4.024530   -1.010420
  C      6.578260   -2.838800   -0.392090
  C      7.395970   -1.803240   -0.878390
  C      7.324690   -0.708780    0.008570
  C      6.583640   -1.137980    1.181540
  O      6.416610   -0.634000    2.275480
  N      6.106520   -2.391350    0.828960
  C      8.017350    0.358360   -0.578480
  O      8.597260   -0.100920   -1.743440
  C      8.219280   -1.410870   -1.997740
  O      8.578690   -1.997450   -2.986370
  C      8.149230    1.703830   -0.278560
  C      7.391270    2.433760    0.631570
  C      7.565130    3.801560    0.937400
  C      6.626740    4.308970    1.794320
  C      5.674330    3.355170    2.198070
  S      5.998830    1.809310    1.458410
  C      4.622980    3.477800    3.099280
  C      4.148670    4.626030    3.764510
  C      3.111620    4.376720    4.614740
  C      2.728250    3.012790    4.682400
  S      3.707730    2.069050    3.572900
  C      1.780100    2.493740    5.529490
  C      1.450000    1.141120    5.735050
  S      2.171980   -0.152430    4.804100
  C      1.343930   -1.319690    5.739340
  C      0.561010   -0.778890    6.723460
  C      0.591840    0.631460    6.710670
  C     -0.158080    1.490090    7.680700
  C      0.714300    1.848600    8.887140
  C     -0.207260   -1.625460    7.694030
  C     -1.602600   -1.974400    7.176740
  H     -0.686550    0.267190    3.717860
  H     -3.189600    0.741850    4.898830
  H     -7.248490    0.760000    6.065530
  H     -7.098110   -0.977870    6.426090
  H     -7.233950   -0.425400    4.737310
  H     -5.682390   -4.712840    5.349920
  H     -6.451090   -4.243120    3.805060
  H     -7.385470   -4.192870    5.319880
  H     -4.169950   -3.986890    3.792160
  H     -2.543790   -4.934750    2.578710
  H     -1.501010   -6.869570    1.228450
  H      0.679950   -7.510800    0.010570
  H      2.945140   -7.310330   -1.227020
  H      5.261050   -6.488190   -2.009940
  H      6.784710   -4.331580   -1.865660
  H      5.592640   -2.957760    1.485510
  H      8.865650    2.252280   -0.875370
  H      8.379970    4.370570    0.525380
  H      6.614750    5.324130    2.148970
  H      4.579900    5.597480    3.601410
  H      2.624080    5.126130    5.213740
  H      1.261080    3.211260    6.151740
  H      1.491300   -2.360160    5.524600
  H     -1.047150    0.958880    8.021990
  H     -0.490770    2.406110    7.188530
  H      1.041830    0.947490    9.400450
  H      0.155910    2.464110    9.588620
  H      1.598490    2.395820    8.568610
  H     -0.293270   -1.104520    8.648510
  H      0.348040   -2.550030    7.866060
  H     -2.182150   -1.075380    6.982010
  H     -2.134130   -2.578080    7.908870
  H     -1.532890   -2.537590    6.249490

 Total Charge           Charge          ....    0
 Multiplicity           Mult            ....    1
 Number of Electrons    NEL             ....  440
 Basis Dimension        Dim             ....  973

ORBITAL ENERGIES
----------------

  NO   OCC          E(Eh)            E(eV)
   0   2.0000     -88.959230     -2420.7037
   1   2.0000     -88.948035     -2420.3991
   2   2.0000     -88.944676     -2420.3077
   3   2.0000     -88.944186     -2420.2943
   4   2.0000     -88.943461     -2420.2746
   5   2.0000     -88.934824     -2420.0396
   6   2.0000     -19.257252      -524.0165
   7   2.0000     -19.244531      -523.6703
   8   2.0000     -19.236147      -523.4422
   9   2.0000     -19.171758      -521.6901
  10   2.0000     -19.162992      -521.4515
  11   2.0000     -14.431092      -392.6900
  12   2.0000     -10.372902      -282.2610
  13   2.0000     -10.353503      -281.7331
  14   2.0000     -10.343641      -281.4648
  15   2.0000     -10.333467      -281.1879
  16   2.0000     -10.333433      -281.1870
  17   2.0000     -10.331885      -281.1449
  18   2.0000     -10.315928      -280.7107
  19   2.0000     -10.312596      -280.6200
  20   2.0000     -10.311052      -280.5780
  21   2.0000     -10.308936      -280.5204
  22   2.0000     -10.306492      -280.4539
  23   2.0000     -10.304535      -280.4007
  24   2.0000     -10.304446      -280.3982
  25   2.0000     -10.302339      -280.3409
  26   2.0000     -10.302330      -280.3407
  27   2.0000     -10.298011      -280.2231
  28   2.0000     -10.297852      -280.2188
  29   2.0000     -10.294258      -280.1210
  30   2.0000     -10.291844      -280.0553
  31   2.0000     -10.289669      -279.9961
  32   2.0000     -10.288763      -279.9715
  33   2.0000     -10.287786      -279.9449
  34   2.0000     -10.284561      -279.8571
  35   2.0000     -10.284216      -279.8477
  36   2.0000     -10.283991      -279.8416
  37   2.0000     -10.283325      -279.8235
  38   2.0000     -10.281465      -279.7729
  39   2.0000     -10.279644      -279.7233
  40   2.0000     -10.278951      -279.7045
  41   2.0000     -10.278070      -279.6805
  42   2.0000     -10.275157      -279.6012
  43   2.0000     -10.274415      -279.5811
  44   2.0000     -10.274249      -279.5765
  45   2.0000     -10.273870      -279.5662
  46   2.0000     -10.272676      -279.5337
  47   2.0000     -10.272113      -279.5184
  48   2.0000     -10.267942      -279.4049
  49   2.0000     -10.267005      -279.3794
  50   2.0000     -10.265188      -279.3300
  51   2.0000     -10.265159      -279.3292
  52   2.0000     -10.259359      -279.1714
  53   2.0000     -10.251233      -278.9502
  54   2.0000     -10.250688      -278.9354
  55   2.0000     -10.248577      -278.8779
  56   2.0000      -8.053606      -219.1498
  57   2.0000      -8.043288      -218.8690
  58   2.0000      -8.040883      -218.8035
  59   2.0000      -8.040225      -218.7857
  60   2.0000      -8.039913      -218.7771
  61   2.0000      -8.030540      -218.5221
  62   2.0000      -6.022660      -163.8849
  63   2.0000      -6.018377      -163.7684
  64   2.0000      -6.016525      -163.7180
  65   2.0000      -6.012524      -163.6091
  66   2.0000      -6.010603      -163.5568
  67   2.0000      -6.009948      -163.5390
  68   2.0000      -6.009623      -163.5302
  69   2.0000      -6.008328      -163.4949
  70   2.0000      -6.006383      -163.4420
  71   2.0000      -6.005749      -163.4247
  72   2.0000      -6.005586      -163.4203
  73   2.0000      -6.005455      -163.4168
  74   2.0000      -6.001944      -163.3212
  75   2.0000      -6.001238      -163.3020
  76   2.0000      -6.000951      -163.2942
  77   2.0000      -5.999999      -163.2683
  78   2.0000      -5.995794      -163.1539
  79   2.0000      -5.991963      -163.0496
  80   2.0000      -1.173653       -31.9367
  81   2.0000      -1.163691       -31.6656
  82   2.0000      -1.134532       -30.8722
  83   2.0000      -1.105239       -30.0751
  84   2.0000      -1.078781       -29.3551
  85   2.0000      -1.033632       -28.1266
  86   2.0000      -0.995566       -27.0907
  87   2.0000      -0.993082       -27.0231
  88   2.0000      -0.987271       -26.8650
  89   2.0000      -0.979191       -26.6451
  90   2.0000      -0.969137       -26.3716
  91   2.0000      -0.965959       -26.2851
  92   2.0000      -0.925144       -25.1745
  93   2.0000      -0.896427       -24.3930
  94   2.0000      -0.892776       -24.2937
  95   2.0000      -0.885879       -24.1060
  96   2.0000      -0.880131       -23.9496
  97   2.0000      -0.874585       -23.7987
  98   2.0000      -0.873156       -23.7598
  99   2.0000      -0.855994       -23.2928
 100   2.0000      -0.853020       -23.2119
 101   2.0000      -0.846433       -23.0326
 102   2.0000      -0.843254       -22.9461
 103   2.0000      -0.839362       -22.8402
 104   2.0000      -0.821004       -22.3406
 105   2.0000      -0.818738       -22.2790
 106   2.0000      -0.817066       -22.2335
 107   2.0000      -0.814537       -22.1647
 108   2.0000      -0.801781       -21.8176
 109   2.0000      -0.794027       -21.6066
 110   2.0000      -0.786792       -21.4097
 111   2.0000      -0.781316       -21.2607
 112   2.0000      -0.762419       -20.7465
 113   2.0000      -0.751968       -20.4621
 114   2.0000      -0.743087       -20.2204
 115   2.0000      -0.730288       -19.8722
 116   2.0000      -0.718809       -19.5598
 117   2.0000      -0.709815       -19.3150
 118   2.0000      -0.700953       -19.0739
 119   2.0000      -0.698381       -19.0039
 120   2.0000      -0.696395       -18.9499
 121   2.0000      -0.682582       -18.5740
 122   2.0000      -0.674738       -18.3606
 123   2.0000      -0.664890       -18.0926
 124   2.0000      -0.662040       -18.0150
 125   2.0000      -0.657731       -17.8978
 126   2.0000      -0.654858       -17.8196
 127   2.0000      -0.636576       -17.3221
 128   2.0000      -0.625442       -17.0191
 129   2.0000      -0.623583       -16.9686
 130   2.0000      -0.621092       -16.9008
 131   2.0000      -0.612155       -16.6576
 132   2.0000      -0.609339       -16.5809
 133   2.0000      -0.601558       -16.3692
 134   2.0000      -0.598902       -16.2969
 135   2.0000      -0.592057       -16.1107
 136   2.0000      -0.589470       -16.0403
 137   2.0000      -0.586929       -15.9711
 138   2.0000      -0.581614       -15.8265
 139   2.0000      -0.570935       -15.5359
 140   2.0000      -0.568096       -15.4587
 141   2.0000      -0.566976       -15.4282
 142   2.0000      -0.562746       -15.3131
 143   2.0000      -0.556638       -15.1469
 144   2.0000      -0.553159       -15.0522
 145   2.0000      -0.548412       -14.9230
 146   2.0000      -0.542509       -14.7624
 147   2.0000      -0.541536       -14.7359
 148   2.0000      -0.539472       -14.6798
 149   2.0000      -0.532225       -14.4826
 150   2.0000      -0.526714       -14.3326
 151   2.0000      -0.522845       -14.2273
 152   2.0000      -0.519018       -14.1232
 153   2.0000      -0.514768       -14.0075
 154   2.0000      -0.508760       -13.8441
 155   2.0000      -0.507358       -13.8059
 156   2.0000      -0.505624       -13.7587
 157   2.0000      -0.502233       -13.6664
 158   2.0000      -0.499620       -13.5953
 159   2.0000      -0.497791       -13.5456
 160   2.0000      -0.496180       -13.5018
 161   2.0000      -0.493658       -13.4331
 162   2.0000      -0.491131       -13.3644
 163   2.0000      -0.490768       -13.3545
 164   2.0000      -0.488546       -13.2940
 165   2.0000      -0.487283       -13.2596
 166   2.0000      -0.484938       -13.1958
 167   2.0000      -0.481933       -13.1141
 168   2.0000      -0.479470       -13.0470
 169   2.0000      -0.477416       -12.9911
 170   2.0000      -0.473199       -12.8764
 171   2.0000      -0.471099       -12.8192
 172   2.0000      -0.466469       -12.6933
 173   2.0000      -0.464438       -12.6380
 174   2.0000      -0.461582       -12.5603
 175   2.0000      -0.460502       -12.5309
 176   2.0000      -0.457492       -12.4490
 177   2.0000      -0.451983       -12.2991
 178   2.0000      -0.446932       -12.1616
 179   2.0000      -0.445446       -12.1212
 180   2.0000      -0.441515       -12.0142
 181   2.0000      -0.438298       -11.9267
 182   2.0000      -0.435603       -11.8534
 183   2.0000      -0.435316       -11.8455
 184   2.0000      -0.431891       -11.7524
 185   2.0000      -0.430343       -11.7102
 186   2.0000      -0.429378       -11.6840
 187   2.0000      -0.425829       -11.5874
 188   2.0000      -0.424273       -11.5451
 189   2.0000      -0.423316       -11.5190
 190   2.0000      -0.416676       -11.3383
 191   2.0000      -0.414684       -11.2841
 192   2.0000      -0.411402       -11.1948
 193   2.0000      -0.408533       -11.1167
 194   2.0000      -0.405892       -11.0449
 195   2.0000      -0.404738       -11.0135
 196   2.0000      -0.395151       -10.7526
 197   2.0000      -0.388900       -10.5825
 198   2.0000      -0.385509       -10.4902
 199   2.0000      -0.382774       -10.4158
 200   2.0000      -0.380881       -10.3643
 201   2.0000      -0.374488       -10.1903
 202   2.0000      -0.366499        -9.9729
 203   2.0000      -0.351552        -9.5662
 204   2.0000      -0.345149        -9.3920
 205   2.0000      -0.338287        -9.2053
 206   2.0000      -0.333482        -9.0745
 207   2.0000      -0.329924        -8.9777
 208   2.0000      -0.326276        -8.8784
 209   2.0000      -0.322020        -8.7626
 210   2.0000      -0.320138        -8.7114
 211   2.0000      -0.315210        -8.5773
 212   2.0000      -0.304091        -8.2747
 213   2.0000      -0.297329        -8.0907
 214   2.0000      -0.284064        -7.7298
 215   2.0000      -0.278508        -7.5786
 216   2.0000      -0.268783        -7.3140
 217   2.0000      -0.244604        -6.6560
 218   2.0000      -0.217349        -5.9144
 219   2.0000      -0.183497        -4.9932
 220   0.0000      -0.097365        -2.6494
 221   0.0000      -0.070572        -1.9204
 222   0.0000      -0.028196        -0.7673
 223   0.0000      -0.006059        -0.1649
 224   0.0000       0.010739         0.2922

MULLIKEN ATOMIC CHARGES
-----------------------
   0 C :   -0.092083
   1 S :    0.133722
   2 C :   -0.134624
   3 C :    0.169846
   4 C :    0.097431
   5 C :   -0.087554
   6 C :    0.167018
   7 O :   -0.319864
   8 C :    0.207001
   9 C :    0.200372
  10 O :   -0.326005
  11 C :    0.184289
  12 C :   -0.175048
  13 C :   -0.007030
  14 C :   -0.049280
  15 C :    0.030299
  16 C :    0.022893
  17 C :   -0.025351
  18 S :    0.057447
  19 C :   -0.051975
  20 C :    0.037892
  21 C :    0.020211
  22 C :   -0.024668
  23 S :    0.048435
  24 C :   -0.023373
  25 C :    0.060058
  26 C :   -0.087978
  27 C :   -0.077338
  28 C :    0.123121
  29 O :   -0.199943
  30 N :   -0.124509
  31 C :    0.147303
  32 O :   -0.260884
  33 C :    0.197595
  34 O :   -0.164026
  35 C :   -0.049039
  36 C :   -0.026295
  37 C :    0.023209
  38 C :    0.033837
  39 C :   -0.062481
  40 S :    0.161695
  41 C :   -0.020334
  42 C :    0.024062
  43 C :    0.037034
  44 C :   -0.048262
  45 S :    0.098185
  46 C :   -0.000869
  47 C :   -0.145856
  48 S :    0.105662
  49 C :   -0.101398
  50 C :   -0.043944
  51 C :   -0.041883
  52 C :    0.066101
  53 C :    0.026713
  54 C :    0.076441
  55 C :    0.029005
  56 H :    0.021089
  57 H :   -0.033219
  58 H :    0.023521
  59 H :    0.022783
  60 H :    0.010413
  61 H :    0.025443
  62 H :    0.025491
  63 H :    0.036580
  64 H :   -0.049807
  65 H :   -0.022012
  66 H :   -0.015855
  67 H :   -0.016978
  68 H :   -0.013700
  69 H :   -0.006754
  70 H :    0.003975
  71 H :    0.132142
  72 H :   -0.006487
  73 H :   -0.014083
  74 H :   -0.017682
  75 H :   -0.013729
  76 H :   -0.011746
  77 H :   -0.013695
  78 H :    0.019603
  79 H :    0.006898
  80 H :    0.004955
  81 H :    0.013995
  82 H :    0.015961
  83 H :    0.012714
  84 H :   -0.001608
  85 H :    0.001104
  86 H :    0.019897
  87 H :    0.008046
  88 H :    0.017758
Sum of atomic charges:    0.0000000

LOEWDIN ATOMIC CHARGES
----------------------
   0 C :   -0.180982
   1 S :    0.480449
   2 C :   -0.197373
   3 C :   -0.041677
   4 C :   -0.058019
   5 C :   -0.040319
   6 C :    0.038118
   7 O :   -0.111098
   8 C :    0.076205
   9 C :    0.038475
  10 O :   -0.097623
  11 C :    0.076952
  12 C :   -0.076499
  13 C :   -0.058192
  14 C :   -0.171396
  15 C :   -0.029826
  16 C :   -0.049753
  17 C :   -0.171171
  18 S :    0.373534
  19 C :   -0.189423
  20 C :   -0.030743
  21 C :   -0.041081
  22 C :   -0.139477
  23 S :    0.384271
  24 C :   -0.070169
  25 C :    0.042942
  26 C :   -0.117424
  27 C :   -0.129081
  28 C :    0.047668
  29 O :   -0.216396
  30 N :    0.023276
  31 C :    0.080734
  32 O :   -0.063135
  33 C :    0.089600
  34 O :   -0.169856
  35 C :   -0.090486
  36 C :   -0.133266
  37 C :   -0.043303
  38 C :   -0.031890
  39 C :   -0.194870
  40 S :    0.482732
  41 C :   -0.155123
  42 C :   -0.046175
  43 C :   -0.019768
  44 C :   -0.167292
  45 S :    0.394851
  46 C :   -0.049621
  47 C :   -0.192662
  48 S :    0.435532
  49 C :   -0.179865
  50 C :   -0.060627
  51 C :   -0.042329
  52 C :   -0.031201
  53 C :   -0.048037
  54 C :   -0.027607
  55 C :   -0.049990
  56 H :    0.023472
  57 H :    0.033245
  58 H :    0.020642
  59 H :    0.012225
  60 H :    0.012150
  61 H :    0.016787
  62 H :    0.016203
  63 H :    0.029294
  64 H :    0.025292
  65 H :    0.035774
  66 H :    0.031378
  67 H :    0.031178
  68 H :    0.032364
  69 H :    0.035146
  70 H :    0.048318
  71 H :    0.063876
  72 H :    0.042742
  73 H :    0.032208
  74 H :    0.029960
  75 H :    0.032277
  76 H :    0.033077
  77 H :    0.037445
  78 H :    0.020497
  79 H :    0.029955
  80 H :    0.026456
  81 H :    0.024764
  82 H :    0.023902
  83 H :    0.023616
  84 H :    0.023950
  85 H :    0.029987
  86 H :    0.023429
  87 H :    0.021506
  88 H :    0.026372

  Mayer bond orders larger than 0.100000
B(  0-C ,  1-S ) :   1.1875 B(  0-C ,  4-C ) :   1.3981 B(  0-C , 56-H ) :   0.9675
B(  1-S ,  2-C ) :   1.1190 B(  2-C ,  3-C ) :   1.2768 B(  2-C , 13-C ) :   1.2525
B(  3-C ,  4-C ) :   1.2299 B(  3-C , 12-C ) :   1.1800 B(  4-C ,  5-C ) :   1.1291
B(  5-C ,  6-C ) :   1.5325 B(  5-C , 57-H ) :   1.0153 B(  6-C ,  7-O ) :   1.1558
B(  6-C ,  9-C ) :   1.1688 B(  7-O ,  8-C ) :   0.9437 B(  8-C , 58-H ) :   0.9782
B(  8-C , 59-H ) :   0.9740 B(  8-C , 60-H ) :   0.9740 B(  9-C , 10-O ) :   1.1270
B(  9-C , 12-C ) :   1.4310 B( 10-O , 11-C ) :   0.9650 B( 11-C , 61-H ) :   0.9673
B( 11-C , 62-H ) :   0.9677 B( 11-C , 63-H ) :   0.9768 B( 12-C , 64-H ) :   0.9899
B( 13-C , 14-C ) :   1.5139 B( 13-C , 65-H ) :   0.9606 B( 14-C , 15-C ) :   1.1824
B( 14-C , 18-S ) :   1.0351 B( 15-C , 16-C ) :   1.5410 B( 15-C , 66-H ) :   0.9982
B( 16-C , 17-C ) :   1.2289 B( 16-C , 67-H ) :   0.9945 B( 17-C , 18-S ) :   1.0581
B( 17-C , 19-C ) :   1.4351 B( 19-C , 20-C ) :   1.2404 B( 19-C , 23-S ) :   1.0488
B( 20-C , 21-C ) :   1.5229 B( 20-C , 68-H ) :   0.9952 B( 21-C , 22-C ) :   1.2057
B( 21-C , 69-H ) :   0.9998 B( 22-C , 23-S ) :   1.0403 B( 22-C , 24-C ) :   1.4429
B( 24-C , 25-C ) :   1.2863 B( 24-C , 70-H ) :   0.9606 B( 25-C , 26-C ) :   1.2756
B( 25-C , 30-N ) :   1.1678 B( 26-C , 27-C ) :   1.2594 B( 26-C , 33-C ) :   0.9935
B( 27-C , 28-C ) :   0.9634 B( 27-C , 31-C ) :   1.2646 B( 28-C , 29-O ) :   2.1303
B( 28-C , 30-N ) :   1.0860 B( 30-N , 71-H ) :   0.9034 B( 31-C , 32-O ) :   1.0894
B( 31-C , 35-C ) :   1.3495 B( 32-O , 33-C ) :   1.0286 B( 33-C , 34-O ) :   2.2245
B( 35-C , 36-C ) :   1.3906 B( 35-C , 72-H ) :   0.9544 B( 36-C , 37-C ) :   1.1971
B( 36-C , 40-S ) :   1.1226 B( 37-C , 38-C ) :   1.5383 B( 37-C , 73-H ) :   0.9987
B( 38-C , 39-C ) :   1.2224 B( 38-C , 74-H ) :   0.9923 B( 39-C , 40-S ) :   1.0829
B( 39-C , 41-C ) :   1.4360 B( 41-C , 42-C ) :   1.2088 B( 41-C , 45-S ) :   1.0752
B( 42-C , 43-C ) :   1.5647 B( 42-C , 75-H ) :   0.9951 B( 43-C , 44-C ) :   1.1551
B( 43-C , 76-H ) :   0.9991 B( 44-C , 45-S ) :   1.0310 B( 44-C , 46-C ) :   1.5620
B( 46-C , 47-C ) :   1.1950 B( 46-C , 77-H ) :   0.9576 B( 47-C , 48-S ) :   1.0994
B( 47-C , 51-C ) :   1.4302 B( 48-S , 49-C ) :   1.1567 B( 49-C , 50-C ) :   1.5331
B( 49-C , 78-H ) :   0.9669 B( 50-C , 51-C ) :   1.3348 B( 50-C , 54-C ) :   1.0519
B( 51-C , 52-C ) :   1.0860 B( 52-C , 53-C ) :   1.1045 B( 52-C , 79-H ) :   0.9164
B( 52-C , 80-H ) :   0.9138 B( 53-C , 81-H ) :   0.9670 B( 53-C , 82-H ) :   0.9668
B( 53-C , 83-H ) :   0.9677 B( 54-C , 55-C ) :   1.1150 B( 54-C , 84-H ) :   0.9215
B( 54-C , 85-H ) :   0.9254 B( 55-C , 86-H ) :   0.9657 B( 55-C , 87-H ) :   0.9613
B( 55-C , 88-H ) :   0.9637

-----------------------------------------------------------------------------
         ABSORPTION SPECTRUM VIA TRANSITION ELECTRIC DIPOLE MOMENTS
-----------------------------------------------------------------------------
State   Energy  Wavelength   fosc         T2         TX        TY        TZ
        (cm-1)    (nm)                  (au**2)     (au)      (au)      (au)
-----------------------------------------------------------------------------
   0    5361.8   1865.0   0.154733647   9.50055  -1.98331  -2.27076  -0.64084
   1   10378.5    963.5   0.012442514   0.39468  -0.58740   0.01763   0.22211
   2   14751.2    677.9   1.820839839  40.63694   5.07684  -1.33160  -3.61793
   3   17451.4    573.0   0.147493602   2.78239  -1.19172  -0.88781   0.75761
   4   18362.6    544.6   0.033974844   0.60912  -0.37284   0.27311   0.62890
   5   21250.5    470.6   0.821448020  12.72583  -1.11281  -3.37487   0.31261
   6   22374.0    446.9   0.105951086   1.55897   0.89839   0.75732  -0.42228
   7   22884.5    437.0   0.209948210   3.02028  -0.65794  -1.60626  -0.08560
   8   23596.2    423.8   0.048124066   0.67142   0.55044   0.51255  -0.32516
   9   25056.0    399.1   0.022235911   0.29216   0.05603  -0.18473   0.50487
  10   26275.2    380.6   0.014313284   0.17934   0.12702  -0.01069  -0.40384
  11   26758.1    373.7   0.076313581   0.93891  -0.39702   0.83333   0.29468
  12   27358.8    365.5   0.012677647   0.15255   0.08002  -0.07212   0.37543
  13   27811.8    359.6   0.025903357   0.30662  -0.00102   0.53101   0.15701
  14   28960.5    345.3   0.072018009   0.81867  -0.14800  -0.89252  -0.01314
  15   29399.3    340.1   0.034086001   0.38169  -0.45710   0.27669   0.31016
  16   29621.3    337.6   0.009953242   0.11062   0.24791  -0.07016   0.21033
  17   29967.4    333.7   0.063497544   0.69756  -0.48010  -0.64015   0.23933
  18   30633.6    326.4   0.007680695   0.08254  -0.17623  -0.19047   0.12331
  19   31152.2    321.0   0.020009298   0.21146  -0.22243  -0.10872   0.38751
  20   31446.7    318.0   0.026248105   0.27479   0.31149   0.32172  -0.27250
  21   31736.9    315.1   0.010492028   0.10884   0.24369   0.01099  -0.22210
  22   32372.5    308.9   0.061773602   0.62821  -0.43803  -0.66012   0.02413
  23   32582.3    306.9   0.029876408   0.30187   0.10919  -0.45788  -0.28336
  24   32869.3    304.2   0.010613324   0.10630   0.31116   0.09206  -0.03171
  25   33209.9    301.1   0.028248713   0.28003   0.14409   0.48438   0.15700
  26   33276.4    300.5   0.058284623   0.57663   0.03776   0.75587   0.06211
  27   33667.4    297.0   0.018844580   0.18427  -0.32230  -0.28228  -0.02670
  28   34061.3    293.6   0.062310652   0.60225  -0.20852   0.65082   0.36770
  29   34570.1    289.3   0.036842976   0.35086  -0.53679  -0.16416   0.18911
  30   35087.7    285.0   0.083861438   0.78683   0.56812  -0.31916  -0.60184
  31   35467.9    281.9   0.004888624   0.04538  -0.02421   0.20935  -0.03104
  32   35850.0    278.9   0.075472185   0.69306  -0.19650   0.41126   0.69665
  33   36523.7    273.8   0.176820147   1.59379  -0.39097   1.06552   0.55283
  34   37082.7    269.7   0.066014706   0.58606  -0.61712   0.17914   0.41610
  35   37578.9    266.1   0.022780240   0.19957   0.36812   0.03038  -0.25126
  36   37697.3    265.3   0.008462404   0.07390   0.13983  -0.20380  -0.11321
  37   38081.7    262.6   0.002563127   0.02216  -0.04168   0.13751   0.03887
  38   38595.4    259.1   0.002151961   0.01836  -0.03142  -0.12792  -0.03173
  39   39061.6    256.0   0.009484035   0.07993  -0.14971  -0.23811   0.02871
  40   39462.6    253.4   0.011816313   0.09858  -0.14693   0.27255   0.05199
  41   39642.1    252.3   0.027481916   0.22823  -0.38335   0.17437   0.22554
  42   39745.9    251.6   0.011392908   0.09437   0.19219  -0.14372  -0.19177
  43   39906.0    250.6   0.019225229   0.15860  -0.02782  -0.36082  -0.16624
  44   39956.6    250.3   0.030144419   0.24837   0.41049   0.28221   0.01507
  45   40183.0    248.9   0.039470735   0.32338  -0.03783  -0.53827   0.17948

FINAL SINGLE POINT ENERGY     -4513.067534215759

DIPOLE MOMENT
-------------
                                X             Y             Z
Electronic contribution:     63.02910      -2.15238     -51.80244
Nuclear contribution   :    -67.72791       1.77550      54.47728
                        -----------------------------------------
Total Dipole Moment    :     -4.69882      -0.37688       2.67483
                        -----------------------------------------
Magnitude (a.u.)       :      5.41993
Magnitude (Debye)      :     13.77637

Rotational constants in cm-1:     0.001685     0.000853     0.000609
Rotational constants in MHz :    50.521696    25.579379    18.262695

                             ****ORCA TERMINATED NORMALLY****
TOTAL RUN TIME: 0 days 0 hours 8 minutes 37 seconds 840 msec
