                         Program Version 4.2.0 -  RELEASE  -
|  1> # ORCA input file
|  2> # SCF done       -169.978217070995          0.000303317659
|  3> ! CAM-B3LYP def2-SVP def2/J RIJCOSX Grid4 TightSCF
|  4> %maxcore 5000
|  5> %tddft
|  6>     Mode sTDDFT
|  7>     Ethresh 5.0
|  8>     maxcore 5000
|  9> end
| 10>
| 11> %pal
| 12>   nprocs 6
| 13>   end
| 14> * xyz 0 1
| 15>    C        8.52978         0.34313        -2.68238
| 16>    C        9.39558        -0.34921        -1.89025
| 17>    C        9.23415        -0.02927        -0.50501
| 18>    C        8.25761         0.87895        -0.26701
| 19>    S        7.50852         1.36400        -1.74566
| 20>    C       10.25637        -0.73690         0.26986
| 21>    O       10.46200        -0.66985         1.46786
| 22>    C       11.05572        -1.48932        -0.72011
| 23>    C       10.52012        -1.26716        -2.04427
| 24>    C       10.84413        -1.84305        -3.25095
| 25>    N        9.90518        -1.79761        -4.35669
| 26>    O        8.74859        -2.06131        -4.11089
| 27>    O       10.34055        -1.48902        -5.44014
| 28>    N       12.04195        -2.53215        -3.58784
| 29>    O       11.96397        -3.41220        -4.42037
| 30>    O       13.07095        -2.20198        -3.02319
| 31>    C       12.16876        -2.22812        -0.36735
| 32>    C       12.50194        -2.75787         0.88102
| 33>    S       14.17201        -3.30527         1.08898
| 34>    C       13.86018        -3.92123         2.65396
| 35>    C       12.55576        -3.75788         3.02170
| 36>    C       11.77941        -3.08775         2.02708
| 37>    S       10.10977        -2.93697         2.43596
| 38>    C       10.39234        -3.76290         3.95211
| 39>    C       11.75545        -4.13371         4.15153
| 40>    C       11.95367        -4.76061         5.34520
| 41>    S       10.48945        -4.90613         6.23643
| 42>    C        9.55172        -4.09771         4.99014
| 43>    C        8.16197        -3.85503         5.10583
| 44>    C        7.42943        -4.23996         6.18020
| 45>    C        6.03756        -3.99103         6.33302
| 46>    C        5.29603        -4.39961         7.42229
| 47>    O        3.95281        -4.11618         7.55636
| 48>    C        3.39681        -3.40881         6.53328
| 49>    C        4.15782        -2.99758         5.40104
| 50>    C        3.42123        -2.30903         4.49457
| 51>    S        1.78320        -2.15166         5.01025
| 52>    C        2.09854        -3.02386         6.46349
| 53>    O        5.48348        -3.28260         5.28157
| 54>    C        5.83960        -5.15286         8.49982
| 55>    C        5.14976        -5.54691         9.59877
| 56>    C        5.73890        -6.31014        10.63898
| 57>    S        4.80571        -6.75624        12.05540
| 58>    C        6.12887        -7.59549        12.76443
| 59>    C        7.23813        -7.54918        11.97287
| 60>    C        7.01449        -6.81790        10.76710
| 61>    S        8.41798        -6.74632         9.72488
| 62>    C        9.32673        -7.69777        10.88012
| 63>    C        8.58010        -8.05882        12.04029
| 64>    C        9.31884        -8.79803        12.91379
| 65>    S       10.92116        -9.05834        12.32775
| 66>    C       10.62073        -8.15274        10.85418
| 67>    C       11.58542        -7.95938         9.83294
| 68>    C       12.84300        -8.45602         9.85586
| 69>    C       13.80578        -8.27063         8.83443
| 70>    S       13.43830        -7.33968         7.40001
| 71>    C       15.01104        -7.61007         6.77093
| 72>    C       15.78158        -8.36641         7.59145
| 73>    C       15.11006        -8.75721         8.78052
| 74>    N       15.65753        -9.56708         9.73404
| 75>    C       17.07822        -9.82482         9.81111
| 76>    C       17.37217       -10.74407        10.98616
| 77>    H        8.40259         0.34127        -3.74614
| 78>    H        7.93260         1.29418         0.66554
| 79>    H       12.91323        -2.40763        -1.13568
| 80>    H       14.64977        -4.37343         3.22093
| 81>    H       12.86056        -5.14950         5.76069
| 82>    H        7.69794        -3.33175         4.28186
| 83>    H        7.93628        -4.76197         6.97533
| 84>    H        3.74281        -1.89153         3.56375
| 85>    H        1.31849        -3.20113         7.17362
| 86>    H        6.87560        -5.42699         8.41782
| 87>    H        4.10928        -5.28176         9.71337
| 88>    H        6.00911        -8.07064        13.71694
| 89>    H        9.03115        -9.20790        13.86027
| 90>    H       11.25136        -7.37180         8.98649
| 91>    H       13.14423        -9.04767        10.71232
| 92>    H       15.27826        -7.19368         5.81987
| 93>    H       16.79502        -8.63717         7.36018
| 94>    H       15.17318        -9.59228        10.61823
| 95>    H       17.64699        -8.88826         9.91891
| 96>    H       17.39318       -10.30798         8.88068
| 97>    H       17.09114       -10.26935        11.92426
| 98>    H       18.43320       -10.97445        11.02273
| 99>    H       16.81740       -11.67363        10.88498
|100> *
|101>
|102>                          ****END OF INPUT****

CARTESIAN COORDINATES (ANGSTROEM)
---------------------------------
  C      8.529780    0.343130   -2.682380
  C      9.395580   -0.349210   -1.890250
  C      9.234150   -0.029270   -0.505010
  C      8.257610    0.878950   -0.267010
  S      7.508520    1.364000   -1.745660
  C     10.256370   -0.736900    0.269860
  O     10.462000   -0.669850    1.467860
  C     11.055720   -1.489320   -0.720110
  C     10.520120   -1.267160   -2.044270
  C     10.844130   -1.843050   -3.250950
  N      9.905180   -1.797610   -4.356690
  O      8.748590   -2.061310   -4.110890
  O     10.340550   -1.489020   -5.440140
  N     12.041950   -2.532150   -3.587840
  O     11.963970   -3.412200   -4.420370
  O     13.070950   -2.201980   -3.023190
  C     12.168760   -2.228120   -0.367350
  C     12.501940   -2.757870    0.881020
  S     14.172010   -3.305270    1.088980
  C     13.860180   -3.921230    2.653960
  C     12.555760   -3.757880    3.021700
  C     11.779410   -3.087750    2.027080
  S     10.109770   -2.936970    2.435960
  C     10.392340   -3.762900    3.952110
  C     11.755450   -4.133710    4.151530
  C     11.953670   -4.760610    5.345200
  S     10.489450   -4.906130    6.236430
  C      9.551720   -4.097710    4.990140
  C      8.161970   -3.855030    5.105830
  C      7.429430   -4.239960    6.180200
  C      6.037560   -3.991030    6.333020
  C      5.296030   -4.399610    7.422290
  O      3.952810   -4.116180    7.556360
  C      3.396810   -3.408810    6.533280
  C      4.157820   -2.997580    5.401040
  C      3.421230   -2.309030    4.494570
  S      1.783200   -2.151660    5.010250
  C      2.098540   -3.023860    6.463490
  O      5.483480   -3.282600    5.281570
  C      5.839600   -5.152860    8.499820
  C      5.149760   -5.546910    9.598770
  C      5.738900   -6.310140   10.638980
  S      4.805710   -6.756240   12.055400
  C      6.128870   -7.595490   12.764430
  C      7.238130   -7.549180   11.972870
  C      7.014490   -6.817900   10.767100
  S      8.417980   -6.746320    9.724880
  C      9.326730   -7.697770   10.880120
  C      8.580100   -8.058820   12.040290
  C      9.318840   -8.798030   12.913790
  S     10.921160   -9.058340   12.327750
  C     10.620730   -8.152740   10.854180
  C     11.585420   -7.959380    9.832940
  C     12.843000   -8.456020    9.855860
  C     13.805780   -8.270630    8.834430
  S     13.438300   -7.339680    7.400010
  C     15.011040   -7.610070    6.770930
  C     15.781580   -8.366410    7.591450
  C     15.110060   -8.757210    8.780520
  N     15.657530   -9.567080    9.734040
  C     17.078220   -9.824820    9.811110
  C     17.372170  -10.744070   10.986160
  H      8.402590    0.341270   -3.746140
  H      7.932600    1.294180    0.665540
  H     12.913230   -2.407630   -1.135680
  H     14.649770   -4.373430    3.220930
  H     12.860560   -5.149500    5.760690
  H      7.697940   -3.331750    4.281860
  H      7.936280   -4.761970    6.975330
  H      3.742810   -1.891530    3.563750
  H      1.318490   -3.201130    7.173620
  H      6.875600   -5.426990    8.417820
  H      4.109280   -5.281760    9.713370
  H      6.009110   -8.070640   13.716940
  H      9.031150   -9.207900   13.860270
  H     11.251360   -7.371800    8.986490
  H     13.144230   -9.047670   10.712320
  H     15.278260   -7.193680    5.819870
  H     16.795020   -8.637170    7.360180
  H     15.173180   -9.592280   10.618230
  H     17.646990   -8.888260    9.918910
  H     17.393180  -10.307980    8.880680
  H     17.091140  -10.269350   11.924260
  H     18.433200  -10.974450   11.022730
  H     16.817400  -11.673630   10.884980

 Total Charge           Charge          ....    0
 Multiplicity           Mult            ....    1
 Number of Electrons    NEL             ....  502
 Basis Dimension        Dim             .... 1019

ORBITAL ENERGIES
----------------

  NO   OCC          E(Eh)            E(eV)
   0   2.0000     -88.977601     -2421.2036
   1   2.0000     -88.972662     -2421.0692
   2   2.0000     -88.964839     -2420.8563
   3   2.0000     -88.962113     -2420.7822
   4   2.0000     -88.955802     -2420.6104
   5   2.0000     -88.954100     -2420.5641
   6   2.0000     -88.953912     -2420.5590
   7   2.0000     -88.949846     -2420.4484
   8   2.0000     -88.949464     -2420.4380
   9   2.0000     -19.271822      -524.4129
  10   2.0000     -19.270405      -524.3744
  11   2.0000     -19.246607      -523.7268
  12   2.0000     -19.245667      -523.7012
  13   2.0000     -19.245158      -523.6874
  14   2.0000     -19.243520      -523.6428
  15   2.0000     -19.212088      -522.7875
  16   2.0000     -14.654536      -398.7702
  17   2.0000     -14.653345      -398.7378
  18   2.0000     -14.422553      -392.4576
  19   2.0000     -10.362530      -281.9788
  20   2.0000     -10.359469      -281.8955
  21   2.0000     -10.347108      -281.5591
  22   2.0000     -10.343675      -281.4657
  23   2.0000     -10.341704      -281.4121
  24   2.0000     -10.337292      -281.2920
  25   2.0000     -10.336989      -281.2838
  26   2.0000     -10.325870      -280.9812
  27   2.0000     -10.323972      -280.9296
  28   2.0000     -10.320385      -280.8319
  29   2.0000     -10.318115      -280.7702
  30   2.0000     -10.315789      -280.7069
  31   2.0000     -10.315368      -280.6954
  32   2.0000     -10.314415      -280.6695
  33   2.0000     -10.307766      -280.4886
  34   2.0000     -10.307541      -280.4824
  35   2.0000     -10.303702      -280.3780
  36   2.0000     -10.302314      -280.3402
  37   2.0000     -10.300721      -280.2969
  38   2.0000     -10.300689      -280.2960
  39   2.0000     -10.300043      -280.2784
  40   2.0000     -10.299231      -280.2563
  41   2.0000     -10.298621      -280.2397
  42   2.0000     -10.298240      -280.2294
  43   2.0000     -10.296930      -280.1937
  44   2.0000     -10.296916      -280.1933
  45   2.0000     -10.294983      -280.1407
  46   2.0000     -10.293956      -280.1128
  47   2.0000     -10.290959      -280.0312
  48   2.0000     -10.290796      -280.0268
  49   2.0000     -10.290386      -280.0157
  50   2.0000     -10.285203      -279.8746
  51   2.0000     -10.283896      -279.8390
  52   2.0000     -10.283638      -279.8320
  53   2.0000     -10.283568      -279.8301
  54   2.0000     -10.282811      -279.8095
  55   2.0000     -10.282526      -279.8018
  56   2.0000     -10.282475      -279.8004
  57   2.0000     -10.282376      -279.7977
  58   2.0000     -10.278051      -279.6800
  59   2.0000     -10.274179      -279.5746
  60   2.0000     -10.272659      -279.5333
  61   2.0000     -10.271644      -279.5056
  62   2.0000      -8.073404      -219.6885
  63   2.0000      -8.068368      -219.5515
  64   2.0000      -8.059087      -219.2989
  65   2.0000      -8.057024      -219.2428
  66   2.0000      -8.051299      -219.0870
  67   2.0000      -8.049962      -219.0506
  68   2.0000      -8.049274      -219.0319
  69   2.0000      -8.045124      -218.9189
  70   2.0000      -8.043835      -218.8839
  71   2.0000      -6.042690      -164.4300
  72   2.0000      -6.037949      -164.3009
  73   2.0000      -6.037766      -164.2960
  74   2.0000      -6.036105      -164.2508
  75   2.0000      -6.033437      -164.1782
  76   2.0000      -6.030368      -164.0947
  77   2.0000      -6.028866      -164.0538
  78   2.0000      -6.026390      -163.9864
  79   2.0000      -6.024524      -163.9356
  80   2.0000      -6.022178      -163.8718
  81   2.0000      -6.020680      -163.8310
  82   2.0000      -6.020315      -163.8211
  83   2.0000      -6.019473      -163.7982
  84   2.0000      -6.019183      -163.7903
  85   2.0000      -6.018679      -163.7766
  86   2.0000      -6.016421      -163.7151
  87   2.0000      -6.015318      -163.6851
  88   2.0000      -6.014513      -163.6632
  89   2.0000      -6.014505      -163.6630
  90   2.0000      -6.013926      -163.6473
  91   2.0000      -6.013399      -163.6329
  92   2.0000      -6.011593      -163.5838
  93   2.0000      -6.011283      -163.5753
  94   2.0000      -6.010474      -163.5533
  95   2.0000      -6.009953      -163.5391
  96   2.0000      -6.007100      -163.4615
  97   2.0000      -6.004365      -163.3871
  98   2.0000      -1.335999       -36.3544
  99   2.0000      -1.318113       -35.8677
 100   2.0000      -1.197070       -32.5739
 101   2.0000      -1.160399       -31.5761
 102   2.0000      -1.149453       -31.2782
 103   2.0000      -1.141742       -31.0684
 104   2.0000      -1.128221       -30.7005
 105   2.0000      -1.033378       -28.1196
 106   2.0000      -1.023183       -27.8422
 107   2.0000      -1.015140       -27.6234
 108   2.0000      -1.007941       -27.4275
 109   2.0000      -0.988411       -26.8960
 110   2.0000      -0.982912       -26.7464
 111   2.0000      -0.975566       -26.5465
 112   2.0000      -0.974196       -26.5092
 113   2.0000      -0.965417       -26.2703
 114   2.0000      -0.935932       -25.4680
 115   2.0000      -0.929054       -25.2808
 116   2.0000      -0.920959       -25.0606
 117   2.0000      -0.914537       -24.8858
 118   2.0000      -0.901212       -24.5232
 119   2.0000      -0.895062       -24.3559
 120   2.0000      -0.891448       -24.2575
 121   2.0000      -0.869289       -23.6545
 122   2.0000      -0.858974       -23.3739
 123   2.0000      -0.851332       -23.1659
 124   2.0000      -0.844917       -22.9914
 125   2.0000      -0.839978       -22.8570
 126   2.0000      -0.833535       -22.6816
 127   2.0000      -0.823554       -22.4100
 128   2.0000      -0.814573       -22.1657
 129   2.0000      -0.809933       -22.0394
 130   2.0000      -0.808153       -21.9909
 131   2.0000      -0.806745       -21.9527
 132   2.0000      -0.801198       -21.8017
 133   2.0000      -0.795241       -21.6396
 134   2.0000      -0.788258       -21.4496
 135   2.0000      -0.776103       -21.1188
 136   2.0000      -0.772051       -21.0086
 137   2.0000      -0.763816       -20.7845
 138   2.0000      -0.756201       -20.5773
 139   2.0000      -0.733359       -19.9557
 140   2.0000      -0.718997       -19.5649
 141   2.0000      -0.711933       -19.3727
 142   2.0000      -0.710227       -19.3263
 143   2.0000      -0.700111       -19.0510
 144   2.0000      -0.688356       -18.7311
 145   2.0000      -0.683785       -18.6067
 146   2.0000      -0.680268       -18.5110
 147   2.0000      -0.677780       -18.4433
 148   2.0000      -0.676246       -18.4016
 149   2.0000      -0.664386       -18.0789
 150   2.0000      -0.660660       -17.9775
 151   2.0000      -0.646919       -17.6036
 152   2.0000      -0.645747       -17.5717
 153   2.0000      -0.642384       -17.4802
 154   2.0000      -0.641389       -17.4531
 155   2.0000      -0.633580       -17.2406
 156   2.0000      -0.632926       -17.2228
 157   2.0000      -0.624470       -16.9927
 158   2.0000      -0.617350       -16.7989
 159   2.0000      -0.613993       -16.7076
 160   2.0000      -0.609983       -16.5985
 161   2.0000      -0.604954       -16.4616
 162   2.0000      -0.598881       -16.2964
 163   2.0000      -0.593547       -16.1512
 164   2.0000      -0.591425       -16.0935
 165   2.0000      -0.586983       -15.9726
 166   2.0000      -0.584464       -15.9041
 167   2.0000      -0.582625       -15.8540
 168   2.0000      -0.579989       -15.7823
 169   2.0000      -0.578922       -15.7533
 170   2.0000      -0.573353       -15.6017
 171   2.0000      -0.565012       -15.3748
 172   2.0000      -0.563559       -15.3352
 173   2.0000      -0.553094       -15.0505
 174   2.0000      -0.549898       -14.9635
 175   2.0000      -0.547100       -14.8873
 176   2.0000      -0.541576       -14.7370
 177   2.0000      -0.536604       -14.6017
 178   2.0000      -0.532856       -14.4997
 179   2.0000      -0.531584       -14.4651
 180   2.0000      -0.529897       -14.4192
 181   2.0000      -0.523447       -14.2437
 182   2.0000      -0.516785       -14.0624
 183   2.0000      -0.516161       -14.0455
 184   2.0000      -0.513728       -13.9793
 185   2.0000      -0.509135       -13.8543
 186   2.0000      -0.506315       -13.7775
 187   2.0000      -0.503275       -13.6948
 188   2.0000      -0.501029       -13.6337
 189   2.0000      -0.496956       -13.5228
 190   2.0000      -0.493685       -13.4338
 191   2.0000      -0.491602       -13.3772
 192   2.0000      -0.488495       -13.2926
 193   2.0000      -0.486056       -13.2263
 194   2.0000      -0.479849       -13.0574
 195   2.0000      -0.478102       -13.0098
 196   2.0000      -0.476854       -12.9759
 197   2.0000      -0.475257       -12.9324
 198   2.0000      -0.474227       -12.9044
 199   2.0000      -0.471472       -12.8294
 200   2.0000      -0.471154       -12.8207
 201   2.0000      -0.468535       -12.7495
 202   2.0000      -0.467462       -12.7203
 203   2.0000      -0.465306       -12.6616
 204   2.0000      -0.460442       -12.5293
 205   2.0000      -0.459392       -12.5007
 206   2.0000      -0.455668       -12.3994
 207   2.0000      -0.453703       -12.3459
 208   2.0000      -0.449594       -12.2341
 209   2.0000      -0.447705       -12.1827
 210   2.0000      -0.442256       -12.0344
 211   2.0000      -0.441991       -12.0272
 212   2.0000      -0.440353       -11.9826
 213   2.0000      -0.433317       -11.7912
 214   2.0000      -0.431238       -11.7346
 215   2.0000      -0.429117       -11.6769
 216   2.0000      -0.423786       -11.5318
 217   2.0000      -0.416148       -11.3240
 218   2.0000      -0.412388       -11.2217
 219   2.0000      -0.407169       -11.0796
 220   2.0000      -0.406616       -11.0646
 221   2.0000      -0.405590       -11.0367
 222   2.0000      -0.404043       -10.9946
 223   2.0000      -0.402124       -10.9424
 224   2.0000      -0.398356       -10.8398
 225   2.0000      -0.392327       -10.6758
 226   2.0000      -0.391597       -10.6559
 227   2.0000      -0.391460       -10.6522
 228   2.0000      -0.387933       -10.5562
 229   2.0000      -0.385118       -10.4796
 230   2.0000      -0.380858       -10.3637
 231   2.0000      -0.376750       -10.2519
 232   2.0000      -0.373351       -10.1594
 233   2.0000      -0.371444       -10.1075
 234   2.0000      -0.364874        -9.9287
 235   2.0000      -0.355122        -9.6634
 236   2.0000      -0.340865        -9.2754
 237   2.0000      -0.339078        -9.2268
 238   2.0000      -0.332175        -9.0389
 239   2.0000      -0.324188        -8.8216
 240   2.0000      -0.316509        -8.6126
 241   2.0000      -0.307436        -8.3658
 242   2.0000      -0.307015        -8.3543
 243   2.0000      -0.301412        -8.2018
 244   2.0000      -0.298186        -8.1141
 245   2.0000      -0.280150        -7.6233
 246   2.0000      -0.277999        -7.5647
 247   2.0000      -0.275281        -7.4908
 248   2.0000      -0.266624        -7.2552
 249   2.0000      -0.229286        -6.2392
 250   2.0000      -0.222791        -6.0625
 251   0.0000      -0.095163        -2.5895
 252   0.0000      -0.056216        -1.5297
 253   0.0000      -0.047883        -1.3030
 254   0.0000      -0.034242        -0.9318
 255   0.0000      -0.031208        -0.8492

MULLIKEN ATOMIC CHARGES
-----------------------
   0 C :   -0.123151
   1 C :    0.045370
   2 C :    0.023897
   3 C :   -0.134031
   4 S :    0.146439
   5 C :    0.136713
   6 O :   -0.165303
   7 C :   -0.081328
   8 C :    0.237895
   9 C :    0.032986
  10 N :    0.210308
  11 O :   -0.224324
  12 O :   -0.212867
  13 N :    0.257208
  14 O :   -0.224910
  15 O :   -0.247462
  16 C :    0.003243
  17 C :   -0.185924
  18 S :    0.151606
  19 C :   -0.102957
  20 C :    0.087555
  21 C :    0.035812
  22 S :    0.206576
  23 C :   -0.018230
  24 C :    0.137885
  25 C :   -0.124255
  26 S :    0.115413
  27 C :   -0.139192
  28 C :    0.011428
  29 C :   -0.068639
  30 C :    0.171018
  31 C :    0.180507
  32 O :   -0.254788
  33 C :    0.219902
  34 C :    0.224839
  35 C :   -0.176107
  36 S :    0.107977
  37 C :   -0.174160
  38 O :   -0.259297
  39 C :   -0.062552
  40 C :    0.061616
  41 C :   -0.170795
  42 S :    0.126867
  43 C :   -0.141280
  44 C :    0.120998
  45 C :   -0.008426
  46 S :    0.061138
  47 C :    0.001505
  48 C :    0.138486
  49 C :   -0.145214
  50 S :    0.094437
  51 C :   -0.127457
  52 C :   -0.035484
  53 C :   -0.008614
  54 C :   -0.124808
  55 S :    0.067824
  56 C :   -0.038539
  57 C :   -0.026810
  58 C :    0.111543
  59 N :   -0.159707
  60 C :    0.098515
  61 C :   -0.020525
  62 H :    0.046817
  63 H :    0.035387
  64 H :    0.026967
  65 H :    0.026403
  66 H :    0.001129
  67 H :    0.002639
  68 H :    0.000485
  69 H :    0.022701
  70 H :    0.024280
  71 H :   -0.011376
  72 H :   -0.013316
  73 H :    0.013268
  74 H :    0.011784
  75 H :   -0.012855
  76 H :   -0.026334
  77 H :    0.018768
  78 H :   -0.022455
  79 H :    0.112681
  80 H :    0.009429
  81 H :    0.020258
  82 H :    0.019956
  83 H :    0.025535
  84 H :    0.027477
Sum of atomic charges:   -0.0000000

LOEWDIN ATOMIC CHARGES
----------------------
   0 C :   -0.147920
   1 C :   -0.065500
   2 C :   -0.087227
   3 C :   -0.146506
   4 S :    0.480646
   5 C :    0.063997
   6 O :   -0.161007
   7 C :   -0.106939
   8 C :    0.060852
   9 C :   -0.075684
  10 N :    0.270588
  11 O :   -0.189662
  12 O :   -0.182595
  13 N :    0.279266
  14 O :   -0.191268
  15 O :   -0.207243
  16 C :    0.046692
  17 C :   -0.198872
  18 S :    0.462525
  19 C :   -0.145714
  20 C :   -0.075909
  21 C :   -0.138335
  22 S :    0.479256
  23 C :   -0.188390
  24 C :   -0.079598
  25 C :   -0.176533
  26 S :    0.449887
  27 C :   -0.186368
  28 C :   -0.035208
  29 C :   -0.040376
  30 C :    0.022058
  31 C :    0.030028
  32 O :   -0.052790
  33 C :   -0.007020
  34 C :   -0.006457
  35 C :   -0.211929
  36 S :    0.434367
  37 C :   -0.211096
  38 O :   -0.056001
  39 C :   -0.049564
  40 C :   -0.029809
  41 C :   -0.197910
  42 S :    0.441382
  43 C :   -0.181495
  44 C :   -0.072715
  45 C :   -0.174509
  46 S :    0.370562
  47 C :   -0.187312
  48 C :   -0.072346
  49 C :   -0.183833
  50 S :    0.422661
  51 C :   -0.186741
  52 C :   -0.069442
  53 C :   -0.038151
  54 C :   -0.231781
  55 S :    0.417566
  56 C :   -0.167910
  57 C :   -0.090740
  58 C :    0.004609
  59 N :   -0.036996
  60 C :    0.033887
  61 C :   -0.059012
  62 H :    0.029420
  63 H :    0.034136
  64 H :    0.032613
  65 H :    0.030683
  66 H :    0.011962
  67 H :    0.035250
  68 H :    0.025646
  69 H :    0.028357
  70 H :    0.028864
  71 H :    0.016259
  72 H :    0.031300
  73 H :    0.024424
  74 H :    0.023344
  75 H :    0.022092
  76 H :    0.020012
  77 H :    0.021261
  78 H :    0.028108
  79 H :    0.069692
  80 H :    0.011217
  81 H :    0.021295
  82 H :    0.023998
  83 H :    0.033413
  84 H :    0.028239

  Mayer bond orders larger than 0.100000
B(  0-C ,  1-C ) :   1.5381 B(  0-C ,  4-S ) :   1.1934 B(  0-C , 62-H ) :   0.9583
B(  1-C ,  2-C ) :   1.2388 B(  1-C ,  8-C ) :   1.0141 B(  2-C ,  3-C ) :   1.5575
B(  2-C ,  5-C ) :   0.9494 B(  3-C ,  4-S ) :   1.1737 B(  3-C , 63-H ) :   0.9716
B(  5-C ,  6-O ) :   2.1524 B(  5-C ,  7-C ) :   0.9865 B(  7-C ,  8-C ) :   1.1295
B(  7-C , 16-C ) :   1.5003 B(  8-C ,  9-C ) :   1.5459 B(  9-C , 10-N ) :   0.8925
B(  9-C , 13-N ) :   0.9556 B( 10-N , 11-O ) :   1.5219 B( 10-N , 12-O ) :   1.5349
B( 11-O , 12-O ) :   0.2847 B( 13-N , 14-O ) :   1.5280 B( 13-N , 15-O ) :   1.4602
B( 14-O , 15-O ) :   0.2581 B( 16-C , 17-C ) :   1.2758 B( 16-C , 64-H ) :   0.9163
B( 17-C , 18-S ) :   1.1059 B( 17-C , 21-C ) :   1.3892 B( 18-S , 19-C ) :   1.1844
B( 19-C , 20-C ) :   1.5134 B( 19-C , 65-H ) :   0.9666 B( 20-C , 21-C ) :   1.2516
B( 20-C , 24-C ) :   1.0098 B( 21-C , 22-S ) :   1.1114 B( 22-S , 23-C ) :   1.0095
B( 23-C , 24-C ) :   1.2251 B( 23-C , 27-C ) :   1.5191 B( 24-C , 25-C ) :   1.5402
B( 25-C , 26-S ) :   1.1539 B( 25-C , 66-H ) :   0.9655 B( 26-S , 27-C ) :   1.1206
B( 27-C , 28-C ) :   1.1254 B( 28-C , 29-C ) :   1.6558 B( 28-C , 67-H ) :   0.9821
B( 29-C , 30-C ) :   1.1858 B( 29-C , 68-H ) :   0.9555 B( 30-C , 31-C ) :   1.4463
B( 30-C , 38-O ) :   1.0615 B( 31-C , 32-O ) :   1.0704 B( 31-C , 39-C ) :   1.2054
B( 32-O , 33-C ) :   1.0510 B( 33-C , 34-C ) :   1.2017 B( 33-C , 37-C ) :   1.5724
B( 34-C , 35-C ) :   1.5713 B( 34-C , 38-O ) :   1.0537 B( 35-C , 36-S ) :   1.1410
B( 35-C , 69-H ) :   0.9723 B( 36-S , 37-C ) :   1.1416 B( 37-C , 70-H ) :   0.9719
B( 39-C , 40-C ) :   1.6539 B( 39-C , 71-H ) :   0.9446 B( 40-C , 41-C ) :   1.1100
B( 40-C , 72-H ) :   0.9766 B( 41-C , 42-S ) :   1.1189 B( 41-C , 45-C ) :   1.5228
B( 42-S , 43-C ) :   1.1514 B( 43-C , 44-C ) :   1.5361 B( 43-C , 73-H ) :   0.9680
B( 44-C , 45-C ) :   1.2497 B( 44-C , 48-C ) :   1.0036 B( 45-C , 46-S ) :   1.0202
B( 46-S , 47-C ) :   0.9992 B( 47-C , 48-C ) :   1.2259 B( 47-C , 51-C ) :   1.5349
B( 48-C , 49-C ) :   1.5510 B( 49-C , 50-S ) :   1.1328 B( 49-C , 74-H ) :   0.9693
B( 50-S , 51-C ) :   1.1100 B( 51-C , 52-C ) :   1.1530 B( 52-C , 53-C ) :   1.6751
B( 52-C , 75-H ) :   0.9691 B( 53-C , 54-C ) :   1.1707 B( 53-C , 76-H ) :   0.9686
B( 54-C , 55-S ) :   1.0688 B( 54-C , 58-C ) :   1.4313 B( 55-S , 56-C ) :   1.1712
B( 56-C , 57-C ) :   1.5656 B( 56-C , 77-H ) :   0.9661 B( 57-C , 58-C ) :   1.2185
B( 57-C , 78-H ) :   1.0007 B( 58-C , 59-N ) :   1.2305 B( 59-N , 60-C ) :   1.0008
B( 59-N , 79-H ) :   0.9232 B( 60-C , 61-C ) :   1.1044 B( 60-C , 80-H ) :   0.9477
B( 60-C , 81-H ) :   0.9456 B( 61-C , 82-H ) :   0.9694 B( 61-C , 83-H ) :   0.9651
B( 61-C , 84-H ) :   0.9719

-----------------------------------------------------------------------------
         ABSORPTION SPECTRUM VIA TRANSITION ELECTRIC DIPOLE MOMENTS
-----------------------------------------------------------------------------
State   Energy  Wavelength   fosc         T2         TX        TY        TZ
        (cm-1)    (nm)                  (au**2)     (au)      (au)      (au)
-----------------------------------------------------------------------------
   0   15900.8    628.9   0.216728230   4.48717   0.80088   0.72514  -1.82206
   1   19861.6    503.5   0.013688614   0.22689   0.22574   0.07060  -0.41346
   2   21252.3    470.5   0.827616360  12.82034  -0.31376  -1.58342   3.19604
   3   21847.0    457.7   0.208135023   3.13637   0.65671  -0.27760   1.62112
   4   24140.4    414.2   0.253332911   3.45479   1.27193   0.38166  -1.30051
   5   24691.3    405.0   0.036381448   0.48508  -0.43979   0.02483  -0.53948
   6   25012.3    399.8   0.014626673   0.19252  -0.39594  -0.06576  -0.17727
   7   26566.8    376.4   0.995580245  12.33707  -3.13362   0.16167   1.57841
   8   27392.4    365.1   0.006504515   0.07817  -0.16105   0.15472   0.16822
   9   27850.6    359.1   0.123747783   1.46278   0.79372  -0.83096  -0.37721
  10   28207.8    354.5   0.185218680   2.16168   1.24097  -0.08876  -0.78345
  11   28951.1    345.4   0.115354021   1.31173   0.44476  -0.92593   0.50654
  12   29123.3    343.4   0.011274328   0.12745   0.16749  -0.31081   0.05284
  13   29440.2    339.7   0.033282844   0.37218  -0.21135   0.55863  -0.12429
  14   29569.8    338.2   0.042772253   0.47620   0.14273   0.10011  -0.66769
  15   30460.6    328.3   0.033171835   0.35851   0.54871  -0.23341   0.05435
  16   30763.4    325.1   0.088403819   0.94605   0.35644   0.29886  -0.85422
  17   30955.2    323.0   0.035265903   0.37506   0.56171  -0.23429   0.06823
  18   31242.4    320.1   0.275608098   2.90417   1.46552  -0.69291   0.52563
  19   31534.2    317.1   0.008089950   0.08446   0.03764   0.15184  -0.24492
  20   31800.6    314.5   0.032654309   0.33805  -0.49620   0.08963   0.28949
  21   32181.1    310.7   0.089482416   0.91540  -0.87810   0.20872   0.31745
  22   32408.2    308.6   0.015716949   0.15966   0.35265  -0.15726   0.10277
  23   32695.9    305.8   0.189479754   1.90785  -0.53270   0.65109  -1.09552
  24   32752.4    305.3   0.036167618   0.36354  -0.32968   0.49065  -0.11881
  25   33670.0    297.0   0.023459425   0.22938   0.36915  -0.10704   0.28575
  26   34596.2    289.0   0.016956442   0.16135   0.10049   0.38846  -0.01879
  27   34667.5    288.5   0.340011294   3.22883  -1.54769   0.88675  -0.21715
  28   34954.8    286.1   0.222076506   2.09156  -0.89760   0.71231  -0.88232
  29   35055.5    285.3   0.045023922   0.42283   0.49387  -0.24557   0.34440
  30   35194.3    284.1   0.050232829   0.46988  -0.56922   0.36700   0.10574
  31   35313.3    283.2   0.059379267   0.55357   0.20092  -0.28369   0.65781
  32   35387.7    282.6   0.046811911   0.43549   0.16081  -0.00060   0.64002
  33   35613.1    280.8   0.020360531   0.18822   0.26834  -0.14854   0.30683
  34   35620.8    280.7   0.060513783   0.55928   0.31341  -0.45355   0.50532
  35   35765.1    279.6   0.009186329   0.08456  -0.03744   0.18526  -0.22099
  36   35820.2    279.2   0.072007945   0.66180   0.67765  -0.43178  -0.12712
  37   36405.7    274.7   0.117041974   1.05840   0.66063  -0.63240  -0.47120
  38   36779.0    271.9   0.002440527   0.02185  -0.03524  -0.05772  -0.13142
  39   37541.6    266.4   0.082722181   0.72541   0.12671  -0.36836   0.75741
  40   37860.2    264.1   0.008754374   0.07612   0.04381  -0.15344   0.22508
  41   38158.6    262.1   0.015759159   0.13596  -0.32475   0.05409  -0.16605
  42   38223.5    261.6   0.119144579   1.02617   0.79362  -0.59281   0.21191
  43   38467.8    260.0   0.025206013   0.21572   0.35228  -0.03504  -0.30065
  44   38604.0    259.0   0.001954139   0.01666   0.00480   0.02551  -0.12645
  45   39337.9    254.2   0.014274906   0.11946  -0.14234   0.30841  -0.06394
  46   39433.4    253.6   0.004166651   0.03479   0.15197  -0.09345  -0.05437
  47   39501.3    253.2   0.005707459   0.04757  -0.03377   0.04216  -0.21130
  48   39886.4    250.7   0.023789392   0.19635   0.25461   0.04382  -0.36000
  49   39961.9    250.2   0.058164248   0.47917  -0.17482  -0.29319   0.60220
  50   40189.5    248.8   0.021404612   0.17534   0.26329  -0.21364  -0.24571

FINAL SINGLE POINT ENERGY     -5922.653492828492

DIPOLE MOMENT
-------------
                                X             Y             Z
Electronic contribution:    -37.63732      37.83432     -46.54812
Nuclear contribution   :     38.68716     -38.57726      50.36538
                        -----------------------------------------
Total Dipole Moment    :      1.04985      -0.74294       3.81726
                        -----------------------------------------
Magnitude (a.u.)       :      4.02810
Magnitude (Debye)      :     10.23861

Rotational constants in cm-1:     0.001088     0.000491     0.000347
Rotational constants in MHz :    32.631721    14.731771    10.408188

                             ****ORCA TERMINATED NORMALLY****
TOTAL RUN TIME: 0 days 0 hours 7 minutes 4 seconds 913 msec
