                         Program Version 4.2.0 -  RELEASE  -
|  1> # ORCA input file
|  2> # SCF done       -154.426515309166          0.000824889151
|  3> ! CAM-B3LYP def2-SVP def2/J RIJCOSX Grid4 TightSCF
|  4> %maxcore 5000
|  5> %tddft
|  6>     Mode sTDDFT
|  7>     Ethresh 5.0
|  8>     maxcore 5000
|  9> end
| 10>
| 11> %pal
| 12>   nprocs 6
| 13>   end
| 14> * xyz 0 1
| 15>    C        5.06811       -16.23580        -2.57629
| 16>    C        5.45962       -15.18633        -3.30922
| 17>    C        6.65271       -15.05226        -4.09515
| 18>    C        6.76478       -13.87246        -4.74492
| 19>    C        5.68492       -12.97462        -4.52060
| 20>    S        4.50112       -13.70378        -3.45143
| 21>    C        5.53220       -11.68952        -4.98199
| 22>    C        6.41204       -10.90750        -5.76755
| 23>    C        6.02134        -9.61037        -5.90341
| 24>    C        4.82988        -9.27372        -5.20963
| 25>    S        4.13864       -10.73285        -4.51114
| 26>    C        4.28199        -8.01345        -5.12478
| 27>    C        3.24821        -7.56161        -4.27112
| 28>    C        2.98107        -8.06242        -3.00673
| 29>    O        1.84576        -7.72767        -2.29379
| 30>    C        1.09681        -6.73347        -2.84352
| 31>    C        1.45309        -6.10663        -4.07521
| 32>    C        0.59406        -5.11852        -4.42922
| 33>    S       -0.66634        -4.93706        -3.26669
| 34>    C       -0.02550        -6.20717        -2.29269
| 35>    O        2.52964        -6.50412        -4.80722
| 36>    C        3.89204        -8.92680        -2.35697
| 37>    C        3.59405        -9.81775        -1.36854
| 38>    C        4.54598       -10.78149        -0.95269
| 39>    C        4.28294       -11.84306        -0.10041
| 40>    O        5.22967       -12.81451         0.17116
| 41>    C        6.35861       -12.77194        -0.58322
| 42>    C        6.63430       -11.67617        -1.44919
| 43>    C        7.80446       -11.81517        -2.11978
| 44>    S        8.59104       -13.29063        -1.69370
| 45>    C        7.32543       -13.72071        -0.60545
| 46>    O        5.78023       -10.62604        -1.56067
| 47>    C        3.04226       -12.07610         0.53468
| 48>    C        2.83732       -13.15706         1.34794
| 49>    C        1.60841       -13.43936         1.97983
| 50>    C        1.34465       -14.58538         2.72135
| 51>    O        0.17036       -14.71222         3.45807
| 52>    C       -0.73302       -13.70500         3.34396
| 53>    C       -0.48922       -12.57255         2.51583
| 54>    C       -1.51499       -11.68510         2.51968
| 55>    S       -2.79844       -12.22085         3.53942
| 56>    C       -1.93909       -13.65560         3.96227
| 57>    O        0.67203       -12.43023         1.82644
| 58>    C        2.13161       -15.74448         2.89394
| 59>    C        3.23061       -16.21194         2.21996
| 60>    C        3.86318       -17.40698         2.57485
| 61>    C        4.99183       -17.90966         1.96713
| 62>    C        5.65259       -19.12057         2.27631
| 63>    C        6.76347       -19.36605         1.52719
| 64>    C        7.05394       -18.35529         0.58221
| 65>    S        5.84806       -17.08327         0.67409
| 66>    C        8.11317       -18.29960        -0.29654
| 67>    C        9.15476       -19.25150        -0.46157
| 68>    C       10.07846       -18.91633        -1.39219
| 69>    C        9.83991       -17.65985        -2.03932
| 70>    S        8.35317       -16.95077        -1.39210
| 71>    C       10.57545       -17.05466        -2.98283
| 72>    H        5.67605       -17.12037        -2.52047
| 73>    H        4.15007       -16.22597        -2.01843
| 74>    H        7.37579       -15.84724        -4.12632
| 75>    H        7.59326       -13.60003        -5.37452
| 76>    H        7.31306       -11.31624        -6.18903
| 77>    H        6.58047        -8.86328        -6.43950
| 78>    H        4.62789        -7.28154        -5.84396
| 79>    H        0.62897        -4.49447        -5.29729
| 80>    H       -0.50642        -6.48957        -1.37996
| 81>    H        4.90015        -8.90668        -2.74030
| 82>    H        2.59697        -9.86075        -0.96736
| 83>    H        8.24564       -11.14140        -2.82379
| 84>    H        7.36393       -14.63930        -0.06031
| 85>    H        2.23399       -11.39158         0.34761
| 86>    H        3.66436       -13.81246         1.54729
| 87>    H       -1.58963       -10.75920         1.98942
| 88>    H       -2.36831       -14.36972         4.63290
| 89>    H        1.73411       -16.38640         3.67241
| 90>    H        3.63645       -15.68993         1.36694
| 91>    H        3.45314       -17.98424         3.39381
| 92>    H        5.28244       -19.77641         3.04489
| 93>    H        7.38102       -20.23997         1.63119
| 94>    H        9.18434       -20.15524         0.12101
| 95>    H       10.93701       -19.51158        -1.64803
| 96>    H       11.47475       -17.51128        -3.35631
| 97>    H       10.29839       -16.09575        -3.38161
| 98> *
| 99>
|100>                          ****END OF INPUT****

CARTESIAN COORDINATES (ANGSTROEM)
---------------------------------
  C      5.068110  -16.235800   -2.576290
  C      5.459620  -15.186330   -3.309220
  C      6.652710  -15.052260   -4.095150
  C      6.764780  -13.872460   -4.744920
  C      5.684920  -12.974620   -4.520600
  S      4.501120  -13.703780   -3.451430
  C      5.532200  -11.689520   -4.981990
  C      6.412040  -10.907500   -5.767550
  C      6.021340   -9.610370   -5.903410
  C      4.829880   -9.273720   -5.209630
  S      4.138640  -10.732850   -4.511140
  C      4.281990   -8.013450   -5.124780
  C      3.248210   -7.561610   -4.271120
  C      2.981070   -8.062420   -3.006730
  O      1.845760   -7.727670   -2.293790
  C      1.096810   -6.733470   -2.843520
  C      1.453090   -6.106630   -4.075210
  C      0.594060   -5.118520   -4.429220
  S     -0.666340   -4.937060   -3.266690
  C     -0.025500   -6.207170   -2.292690
  O      2.529640   -6.504120   -4.807220
  C      3.892040   -8.926800   -2.356970
  C      3.594050   -9.817750   -1.368540
  C      4.545980  -10.781490   -0.952690
  C      4.282940  -11.843060   -0.100410
  O      5.229670  -12.814510    0.171160
  C      6.358610  -12.771940   -0.583220
  C      6.634300  -11.676170   -1.449190
  C      7.804460  -11.815170   -2.119780
  S      8.591040  -13.290630   -1.693700
  C      7.325430  -13.720710   -0.605450
  O      5.780230  -10.626040   -1.560670
  C      3.042260  -12.076100    0.534680
  C      2.837320  -13.157060    1.347940
  C      1.608410  -13.439360    1.979830
  C      1.344650  -14.585380    2.721350
  O      0.170360  -14.712220    3.458070
  C     -0.733020  -13.705000    3.343960
  C     -0.489220  -12.572550    2.515830
  C     -1.514990  -11.685100    2.519680
  S     -2.798440  -12.220850    3.539420
  C     -1.939090  -13.655600    3.962270
  O      0.672030  -12.430230    1.826440
  C      2.131610  -15.744480    2.893940
  C      3.230610  -16.211940    2.219960
  C      3.863180  -17.406980    2.574850
  C      4.991830  -17.909660    1.967130
  C      5.652590  -19.120570    2.276310
  C      6.763470  -19.366050    1.527190
  C      7.053940  -18.355290    0.582210
  S      5.848060  -17.083270    0.674090
  C      8.113170  -18.299600   -0.296540
  C      9.154760  -19.251500   -0.461570
  C     10.078460  -18.916330   -1.392190
  C      9.839910  -17.659850   -2.039320
  S      8.353170  -16.950770   -1.392100
  C     10.575450  -17.054660   -2.982830
  H      5.676050  -17.120370   -2.520470
  H      4.150070  -16.225970   -2.018430
  H      7.375790  -15.847240   -4.126320
  H      7.593260  -13.600030   -5.374520
  H      7.313060  -11.316240   -6.189030
  H      6.580470   -8.863280   -6.439500
  H      4.627890   -7.281540   -5.843960
  H      0.628970   -4.494470   -5.297290
  H     -0.506420   -6.489570   -1.379960
  H      4.900150   -8.906680   -2.740300
  H      2.596970   -9.860750   -0.967360
  H      8.245640  -11.141400   -2.823790
  H      7.363930  -14.639300   -0.060310
  H      2.233990  -11.391580    0.347610
  H      3.664360  -13.812460    1.547290
  H     -1.589630  -10.759200    1.989420
  H     -2.368310  -14.369720    4.632900
  H      1.734110  -16.386400    3.672410
  H      3.636450  -15.689930    1.366940
  H      3.453140  -17.984240    3.393810
  H      5.282440  -19.776410    3.044890
  H      7.381020  -20.239970    1.631190
  H      9.184340  -20.155240    0.121010
  H     10.937010  -19.511580   -1.648030
  H     11.474750  -17.511280   -3.356310
  H     10.298390  -16.095750   -3.381610

 Total Charge           Charge          ....    0
 Multiplicity           Mult            ....    1
 Number of Electrons    NEL             ....  450
 Basis Dimension        Dim             ....  956

ORBITAL ENERGIES
----------------

  NO   OCC          E(Eh)            E(eV)
   0   2.0000     -88.948260     -2420.4052
   1   2.0000     -88.946597     -2420.3600
   2   2.0000     -88.944757     -2420.3099
   3   2.0000     -88.944398     -2420.3001
   4   2.0000     -88.941802     -2420.2295
   5   2.0000     -88.932393     -2419.9735
   6   2.0000     -88.932327     -2419.9716
   7   2.0000     -19.265797      -524.2490
   8   2.0000     -19.262828      -524.1682
   9   2.0000     -19.261160      -524.1228
  10   2.0000     -19.260931      -524.1166
  11   2.0000     -19.260751      -524.1117
  12   2.0000     -19.259268      -524.0713
  13   2.0000     -10.338652      -281.3290
  14   2.0000     -10.336811      -281.2789
  15   2.0000     -10.336320      -281.2656
  16   2.0000     -10.333298      -281.1833
  17   2.0000     -10.332449      -281.1602
  18   2.0000     -10.331224      -281.1269
  19   2.0000     -10.330400      -281.1045
  20   2.0000     -10.329096      -281.0690
  21   2.0000     -10.328563      -281.0545
  22   2.0000     -10.328060      -281.0408
  23   2.0000     -10.326416      -280.9961
  24   2.0000     -10.324302      -280.9385
  25   2.0000     -10.310251      -280.5562
  26   2.0000     -10.308424      -280.5065
  27   2.0000     -10.307267      -280.4750
  28   2.0000     -10.305356      -280.4230
  29   2.0000     -10.304075      -280.3881
  30   2.0000     -10.303395      -280.3696
  31   2.0000     -10.297567      -280.2110
  32   2.0000     -10.296706      -280.1876
  33   2.0000     -10.290068      -280.0070
  34   2.0000     -10.285796      -279.8907
  35   2.0000     -10.285066      -279.8709
  36   2.0000     -10.284454      -279.8542
  37   2.0000     -10.283938      -279.8402
  38   2.0000     -10.283664      -279.8327
  39   2.0000     -10.282627      -279.8045
  40   2.0000     -10.282559      -279.8027
  41   2.0000     -10.281996      -279.7873
  42   2.0000     -10.281348      -279.7697
  43   2.0000     -10.280047      -279.7343
  44   2.0000     -10.278840      -279.7015
  45   2.0000     -10.278489      -279.6919
  46   2.0000     -10.278125      -279.6820
  47   2.0000     -10.276856      -279.6475
  48   2.0000     -10.275993      -279.6240
  49   2.0000     -10.275549      -279.6119
  50   2.0000     -10.274081      -279.5720
  51   2.0000     -10.271912      -279.5129
  52   2.0000     -10.269740      -279.4538
  53   2.0000     -10.269578      -279.4494
  54   2.0000     -10.268258      -279.4135
  55   2.0000     -10.266720      -279.3717
  56   2.0000     -10.262095      -279.2458
  57   2.0000      -8.044092      -218.8909
  58   2.0000      -8.042383      -218.8444
  59   2.0000      -8.040203      -218.7851
  60   2.0000      -8.039435      -218.7642
  61   2.0000      -8.037695      -218.7168
  62   2.0000      -8.028296      -218.4610
  63   2.0000      -8.027999      -218.4529
  64   2.0000      -6.013628      -163.6391
  65   2.0000      -6.011906      -163.5923
  66   2.0000      -6.009947      -163.5390
  67   2.0000      -6.009444      -163.5253
  68   2.0000      -6.008995      -163.5131
  69   2.0000      -6.007735      -163.4788
  70   2.0000      -6.007493      -163.4722
  71   2.0000      -6.005971      -163.4308
  72   2.0000      -6.005726      -163.4241
  73   2.0000      -6.004821      -163.3995
  74   2.0000      -6.004059      -163.3788
  75   2.0000      -6.003539      -163.3646
  76   2.0000      -6.001178      -163.3004
  77   2.0000      -6.001178      -163.3003
  78   2.0000      -5.998416      -163.2252
  79   2.0000      -5.998143      -163.2178
  80   2.0000      -5.997890      -163.2109
  81   2.0000      -5.994202      -163.1105
  82   2.0000      -5.993746      -163.0981
  83   2.0000      -5.988934      -162.9672
  84   2.0000      -5.988698      -162.9608
  85   2.0000      -1.189804       -32.3762
  86   2.0000      -1.188309       -32.3355
  87   2.0000      -1.185865       -32.2690
  88   2.0000      -1.152558       -31.3627
  89   2.0000      -1.151207       -31.3259
  90   2.0000      -1.149534       -31.2804
  91   2.0000      -0.992235       -27.0001
  92   2.0000      -0.984972       -26.8024
  93   2.0000      -0.977043       -26.5867
  94   2.0000      -0.974662       -26.5219
  95   2.0000      -0.971755       -26.4428
  96   2.0000      -0.969441       -26.3798
  97   2.0000      -0.960936       -26.1484
  98   2.0000      -0.920103       -25.0373
  99   2.0000      -0.914059       -24.8728
 100   2.0000      -0.903686       -24.5906
 101   2.0000      -0.890312       -24.2266
 102   2.0000      -0.878236       -23.8980
 103   2.0000      -0.868297       -23.6276
 104   2.0000      -0.860297       -23.4099
 105   2.0000      -0.848208       -23.0809
 106   2.0000      -0.844681       -22.9849
 107   2.0000      -0.837109       -22.7789
 108   2.0000      -0.835425       -22.7331
 109   2.0000      -0.824578       -22.4379
 110   2.0000      -0.823331       -22.4040
 111   2.0000      -0.814877       -22.1739
 112   2.0000      -0.808964       -22.0130
 113   2.0000      -0.808179       -21.9917
 114   2.0000      -0.806694       -21.9513
 115   2.0000      -0.800405       -21.7801
 116   2.0000      -0.795435       -21.6449
 117   2.0000      -0.789375       -21.4800
 118   2.0000      -0.774303       -21.0699
 119   2.0000      -0.766726       -20.8637
 120   2.0000      -0.746409       -20.3108
 121   2.0000      -0.735412       -20.0116
 122   2.0000      -0.719668       -19.5832
 123   2.0000      -0.707355       -19.2481
 124   2.0000      -0.697738       -18.9864
 125   2.0000      -0.687904       -18.7188
 126   2.0000      -0.684650       -18.6303
 127   2.0000      -0.679052       -18.4779
 128   2.0000      -0.677318       -18.4308
 129   2.0000      -0.672172       -18.2907
 130   2.0000      -0.668830       -18.1998
 131   2.0000      -0.663911       -18.0659
 132   2.0000      -0.663126       -18.0446
 133   2.0000      -0.645354       -17.5610
 134   2.0000      -0.644485       -17.5373
 135   2.0000      -0.635370       -17.2893
 136   2.0000      -0.633312       -17.2333
 137   2.0000      -0.628172       -17.0934
 138   2.0000      -0.614678       -16.7263
 139   2.0000      -0.613703       -16.6997
 140   2.0000      -0.613412       -16.6918
 141   2.0000      -0.598065       -16.2742
 142   2.0000      -0.595777       -16.2119
 143   2.0000      -0.589892       -16.0518
 144   2.0000      -0.575132       -15.6501
 145   2.0000      -0.573532       -15.6066
 146   2.0000      -0.570746       -15.5308
 147   2.0000      -0.569849       -15.5064
 148   2.0000      -0.566189       -15.4068
 149   2.0000      -0.561175       -15.2704
 150   2.0000      -0.557460       -15.1693
 151   2.0000      -0.555254       -15.1092
 152   2.0000      -0.553197       -15.0532
 153   2.0000      -0.551064       -14.9952
 154   2.0000      -0.541091       -14.7238
 155   2.0000      -0.537871       -14.6362
 156   2.0000      -0.529731       -14.4147
 157   2.0000      -0.527151       -14.3445
 158   2.0000      -0.522110       -14.2073
 159   2.0000      -0.520907       -14.1746
 160   2.0000      -0.511540       -13.9197
 161   2.0000      -0.506229       -13.7752
 162   2.0000      -0.503579       -13.7031
 163   2.0000      -0.501344       -13.6423
 164   2.0000      -0.499823       -13.6009
 165   2.0000      -0.498225       -13.5574
 166   2.0000      -0.496250       -13.5036
 167   2.0000      -0.493894       -13.4395
 168   2.0000      -0.493187       -13.4203
 169   2.0000      -0.490875       -13.3574
 170   2.0000      -0.490053       -13.3350
 171   2.0000      -0.488125       -13.2825
 172   2.0000      -0.484491       -13.1837
 173   2.0000      -0.483389       -13.1537
 174   2.0000      -0.481246       -13.0954
 175   2.0000      -0.479634       -13.0515
 176   2.0000      -0.474645       -12.9158
 177   2.0000      -0.474411       -12.9094
 178   2.0000      -0.473375       -12.8812
 179   2.0000      -0.468848       -12.7580
 180   2.0000      -0.466412       -12.6917
 181   2.0000      -0.465070       -12.6552
 182   2.0000      -0.463861       -12.6223
 183   2.0000      -0.461051       -12.5458
 184   2.0000      -0.457229       -12.4418
 185   2.0000      -0.454700       -12.3730
 186   2.0000      -0.452372       -12.3097
 187   2.0000      -0.449363       -12.2278
 188   2.0000      -0.443771       -12.0756
 189   2.0000      -0.437493       -11.9048
 190   2.0000      -0.433028       -11.7833
 191   2.0000      -0.427562       -11.6345
 192   2.0000      -0.424523       -11.5519
 193   2.0000      -0.423754       -11.5309
 194   2.0000      -0.421517       -11.4701
 195   2.0000      -0.420987       -11.4556
 196   2.0000      -0.416563       -11.3353
 197   2.0000      -0.414117       -11.2687
 198   2.0000      -0.408781       -11.1235
 199   2.0000      -0.408330       -11.1112
 200   2.0000      -0.404894       -11.0177
 201   2.0000      -0.399795       -10.8790
 202   2.0000      -0.398219       -10.8361
 203   2.0000      -0.392271       -10.6742
 204   2.0000      -0.384579       -10.4649
 205   2.0000      -0.378828       -10.3084
 206   2.0000      -0.374486       -10.1903
 207   2.0000      -0.368354       -10.0234
 208   2.0000      -0.348097        -9.4722
 209   2.0000      -0.338291        -9.2054
 210   2.0000      -0.334919        -9.1136
 211   2.0000      -0.330567        -8.9952
 212   2.0000      -0.323172        -8.7939
 213   2.0000      -0.315991        -8.5986
 214   2.0000      -0.304649        -8.2899
 215   2.0000      -0.300263        -8.1706
 216   2.0000      -0.291967        -7.9448
 217   2.0000      -0.291110        -7.9215
 218   2.0000      -0.284415        -7.7393
 219   2.0000      -0.283088        -7.7032
 220   2.0000      -0.259767        -7.0686
 221   2.0000      -0.254017        -6.9122
 222   2.0000      -0.232392        -6.3237
 223   2.0000      -0.214665        -5.8413
 224   2.0000      -0.195409        -5.3174
 225   0.0000      -0.080188        -2.1820
 226   0.0000      -0.062131        -1.6907
 227   0.0000      -0.030693        -0.8352
 228   0.0000      -0.004475        -0.1218
 229   0.0000       0.019019         0.5175

MULLIKEN ATOMIC CHARGES
-----------------------
   0 C :   -0.010889
   1 C :   -0.065794
   2 C :    0.068539
   3 C :    0.038737
   4 C :   -0.052330
   5 S :    0.071804
   6 C :   -0.063696
   7 C :    0.025417
   8 C :    0.037023
   9 C :   -0.060115
  10 S :    0.100761
  11 C :   -0.051669
  12 C :    0.160361
  13 C :    0.147727
  14 O :   -0.252622
  15 C :    0.217376
  16 C :    0.219217
  17 C :   -0.177079
  18 S :    0.100686
  19 C :   -0.175036
  20 O :   -0.253057
  21 C :   -0.056481
  22 C :   -0.061706
  23 C :    0.191692
  24 C :    0.193456
  25 O :   -0.263155
  26 C :    0.236490
  27 C :    0.228305
  28 C :   -0.177870
  29 S :    0.086497
  30 C :   -0.166270
  31 O :   -0.261778
  32 C :   -0.048972
  33 C :   -0.083286
  34 C :    0.171291
  35 C :    0.189662
  36 O :   -0.256555
  37 C :    0.219799
  38 C :    0.220333
  39 C :   -0.174618
  40 S :    0.101960
  41 C :   -0.178670
  42 O :   -0.259653
  43 C :   -0.025256
  44 C :   -0.009896
  45 C :   -0.011300
  46 C :   -0.024918
  47 C :    0.039894
  48 C :    0.020695
  49 C :   -0.038269
  50 S :    0.066891
  51 C :   -0.068004
  52 C :    0.032708
  53 C :    0.051203
  54 C :   -0.063375
  55 S :    0.056615
  56 C :   -0.032445
  57 H :    0.022373
  58 H :    0.020331
  59 H :   -0.014500
  60 H :   -0.019834
  61 H :   -0.018221
  62 H :   -0.015070
  63 H :    0.003303
  64 H :    0.021599
  65 H :    0.019519
  66 H :    0.046807
  67 H :   -0.002635
  68 H :    0.014957
  69 H :    0.008699
  70 H :    0.004620
  71 H :    0.012012
  72 H :    0.021277
  73 H :    0.021490
  74 H :    0.002355
  75 H :    0.013025
  76 H :   -0.016068
  77 H :   -0.013060
  78 H :   -0.015567
  79 H :   -0.012075
  80 H :   -0.012925
  81 H :    0.018923
  82 H :    0.018286
Sum of atomic charges:    0.0000000

LOEWDIN ATOMIC CHARGES
----------------------
   0 C :   -0.066037
   1 C :   -0.142724
   2 C :   -0.021973
   3 C :   -0.032929
   4 C :   -0.163201
   5 S :    0.359467
   6 C :   -0.189439
   7 C :   -0.032927
   8 C :   -0.040222
   9 C :   -0.137764
  10 S :    0.407055
  11 C :   -0.085334
  12 C :    0.018553
  13 C :    0.004631
  14 O :   -0.057752
  15 C :   -0.006837
  16 C :   -0.007448
  17 C :   -0.213993
  18 S :    0.428341
  19 C :   -0.214777
  20 O :   -0.060552
  21 C :   -0.038853
  22 C :   -0.038308
  23 C :    0.037959
  24 C :    0.024350
  25 O :   -0.051327
  26 C :   -0.011146
  27 C :   -0.007726
  28 C :   -0.215387
  29 S :    0.428139
  30 C :   -0.211354
  31 O :   -0.047153
  32 C :   -0.020395
  33 C :   -0.046124
  34 C :    0.036941
  35 C :    0.016295
  36 O :   -0.062358
  37 C :   -0.008854
  38 C :   -0.009027
  39 C :   -0.213240
  40 S :    0.428730
  41 C :   -0.214512
  42 O :   -0.053309
  43 C :   -0.026522
  44 C :   -0.036028
  45 C :   -0.047728
  46 C :   -0.153165
  47 C :   -0.030583
  48 C :   -0.038000
  49 C :   -0.175813
  50 S :    0.384367
  51 C :   -0.186492
  52 C :   -0.024401
  53 C :   -0.037147
  54 C :   -0.139813
  55 S :    0.373057
  56 C :   -0.083360
  57 H :    0.019359
  58 H :    0.023461
  59 H :    0.028392
  60 H :    0.029254
  61 H :    0.029554
  62 H :    0.031838
  63 H :    0.037875
  64 H :    0.027624
  65 H :    0.026877
  66 H :    0.035336
  67 H :    0.033725
  68 H :    0.024093
  69 H :    0.006909
  70 H :    0.034369
  71 H :    0.033711
  72 H :    0.027635
  73 H :    0.027545
  74 H :    0.038959
  75 H :    0.023034
  76 H :    0.033163
  77 H :    0.033733
  78 H :    0.030795
  79 H :    0.032569
  80 H :    0.033096
  81 H :    0.028424
  82 H :    0.022815

  Mayer bond orders larger than 0.100000
B(  0-C ,  1-C ) :   1.8630 B(  0-C , 57-H ) :   0.9438 B(  0-C , 58-H ) :   0.9395
B(  1-C ,  2-C ) :   1.0783 B(  1-C ,  5-S ) :   0.9991 B(  2-C ,  3-C ) :   1.6521
B(  2-C , 59-H ) :   0.9930 B(  3-C ,  4-C ) :   1.1433 B(  3-C , 60-H ) :   0.9953
B(  4-C ,  5-S ) :   1.0565 B(  4-C ,  6-C ) :   1.5496 B(  6-C ,  7-C ) :   1.1691
B(  6-C , 10-S ) :   1.0372 B(  7-C ,  8-C ) :   1.5969 B(  7-C , 61-H ) :   0.9944
B(  8-C ,  9-C ) :   1.1335 B(  8-C , 62-H ) :   1.0000 B(  9-C , 10-S ) :   1.0612
B(  9-C , 11-C ) :   1.5625 B( 11-C , 12-C ) :   1.1664 B( 11-C , 63-H ) :   0.9493
B( 12-C , 13-C ) :   1.4535 B( 12-C , 20-O ) :   1.0285 B( 13-C , 14-O ) :   1.0520
B( 13-C , 21-C ) :   1.1870 B( 14-O , 15-C ) :   1.0639 B( 15-C , 16-C ) :   1.1946
B( 15-C , 19-C ) :   1.5727 B( 16-C , 17-C ) :   1.5717 B( 16-C , 20-O ) :   1.0667
B( 17-C , 18-S ) :   1.1398 B( 17-C , 64-H ) :   0.9714 B( 18-S , 19-C ) :   1.1373
B( 19-C , 65-H ) :   0.9716 B( 21-C , 22-C ) :   1.6008 B( 21-C , 66-H ) :   0.9522
B( 22-C , 23-C ) :   1.1899 B( 22-C , 67-H ) :   0.9674 B( 23-C , 24-C ) :   1.4117
B( 23-C , 31-O ) :   1.0495 B( 24-C , 25-O ) :   1.0523 B( 24-C , 32-C ) :   1.1919
B( 25-O , 26-C ) :   1.0507 B( 26-C , 27-C ) :   1.2081 B( 26-C , 30-C ) :   1.5670
B( 27-C , 28-C ) :   1.5661 B( 27-C , 31-O ) :   1.0490 B( 28-C , 29-S ) :   1.1302
B( 28-C , 68-H ) :   0.9713 B( 29-S , 30-C ) :   1.1348 B( 30-C , 69-H ) :   0.9656
B( 32-C , 33-C ) :   1.5929 B( 32-C , 70-H ) :   0.9624 B( 33-C , 34-C ) :   1.1801
B( 33-C , 71-H ) :   0.9596 B( 34-C , 35-C ) :   1.4287 B( 34-C , 42-O ) :   1.0611
B( 35-C , 36-O ) :   1.0289 B( 35-C , 43-C ) :   1.1754 B( 36-O , 37-C ) :   1.0694
B( 37-C , 38-C ) :   1.2016 B( 37-C , 41-C ) :   1.5699 B( 38-C , 39-C ) :   1.5700
B( 38-C , 42-O ) :   1.0522 B( 39-C , 40-S ) :   1.1378 B( 39-C , 72-H ) :   0.9726
B( 40-S , 41-C ) :   1.1384 B( 41-C , 73-H ) :   0.9720 B( 43-C , 44-C ) :   1.5810
B( 43-C , 74-H ) :   0.9583 B( 44-C , 45-C ) :   1.1852 B( 44-C , 75-H ) :   0.9620
B( 45-C , 46-C ) :   1.5400 B( 45-C , 76-H ) :   0.9840 B( 46-C , 47-C ) :   1.1485
B( 46-C , 50-S ) :   1.0260 B( 47-C , 48-C ) :   1.5890 B( 47-C , 77-H ) :   0.9992
B( 48-C , 49-C ) :   1.1828 B( 48-C , 78-H ) :   0.9926 B( 49-C , 50-S ) :   1.0416
B( 49-C , 51-C ) :   1.5378 B( 51-C , 52-C ) :   1.1604 B( 51-C , 55-S ) :   1.0312
B( 52-C , 53-C ) :   1.6530 B( 52-C , 79-H ) :   0.9907 B( 53-C , 54-C ) :   1.0807
B( 53-C , 80-H ) :   0.9929 B( 54-C , 55-S ) :   1.0052 B( 54-C , 56-C ) :   1.8601
B( 56-C , 81-H ) :   0.9503 B( 56-C , 82-H ) :   0.9388

-----------------------------------------------------------------------------
         ABSORPTION SPECTRUM VIA TRANSITION ELECTRIC DIPOLE MOMENTS
-----------------------------------------------------------------------------
State   Energy  Wavelength   fosc         T2         TX        TY        TZ
        (cm-1)    (nm)                  (au**2)     (au)      (au)      (au)
-----------------------------------------------------------------------------
   0   10029.5    997.1   0.149040226   4.89216  -0.91554   1.59542  -1.22824
   1   14045.4    712.0   0.015630358   0.36636  -0.36127   0.40159   0.27309
   2   15474.5    646.2   0.900411847  19.15582   2.60946  -3.26266  -1.30445
   3   17748.2    563.4   0.149199886   2.76751   1.17301   0.03186  -1.17921
   4   18941.3    527.9   0.051061611   0.88748   0.30864   0.86059  -0.22718
   5   21708.6    460.6   0.288510605   4.37528   1.62222   0.37122  -1.26723
   6   22112.9    452.2   0.382441993   5.69370  -0.66606  -1.74890   1.48034
   7   22932.1    436.1   0.149402281   2.14481   0.70161   0.76467  -1.03336
   8   23793.6    420.3   0.858796261  11.88245  -1.27656  -2.28208   2.24610
   9   25365.5    394.2   0.255453343   3.31546  -1.25048   1.30201   0.23775
  10   26432.5    378.3   0.202848769   2.52645   0.89761  -1.18893   0.55424
  11   27612.5    362.2   0.013945625   0.16627  -0.30440  -0.05100   0.26647
  12   27675.4    361.3   0.113301758   1.34778  -0.97373   0.52200   0.35658
  13   27915.1    358.2   0.039346673   0.46403   0.01765   0.64863  -0.20736
  14   28571.4    350.0   0.102343023   1.17924   0.04482  -0.89624   0.61154
  15   28894.4    346.1   0.090077741   1.02631   0.31565   0.69198  -0.66921
  16   29801.7    335.6   0.018780931   0.20747   0.43877   0.11838  -0.03057
  17   30794.4    324.7   0.008231050   0.08800   0.24013   0.08615  -0.15136
  18   31046.8    322.1   0.265940694   2.81996   0.68821   1.11422  -1.05112
  19   31663.4    315.8   0.034125464   0.35481   0.24154   0.29579  -0.45714
  20   31899.2    313.5   0.117128518   1.20881   0.22875  -0.92332   0.55134
  21   32343.4    309.2   0.032184649   0.32760  -0.24237   0.51306   0.07498
  22   32672.4    306.1   0.021380998   0.21544  -0.24252   0.26243  -0.29623
  23   33142.6    301.7   0.030634328   0.30430   0.53072  -0.15030  -0.00681
  24   33343.0    299.9   0.001191138   0.01176   0.00774  -0.10814   0.00260
  25   33693.2    296.8   0.005098043   0.04981   0.01254  -0.19830   0.10164
  26   33894.8    295.0   0.106510118   1.03451   0.78907  -0.59711  -0.23523
  27   34028.9    293.9   0.044519811   0.43071   0.48183   0.14309  -0.42198
  28   34380.0    290.9   0.037079902   0.35507   0.08361  -0.49755   0.31704
  29   34427.6    290.5   0.168855336   1.61467   1.05859  -0.68860   0.14104
  30   34803.3    287.3   0.029192999   0.27614   0.19470  -0.44838  -0.19285
  31   35194.0    284.1   0.000027483   0.00026   0.00669  -0.00584   0.01335
  32   35271.1    283.5   0.050463368   0.47101  -0.59363   0.34411  -0.01442
  33   35717.9    280.0   0.030520939   0.28131  -0.39688   0.33419   0.11007
  34   35908.8    278.5   0.061152633   0.56065  -0.63024   0.14151   0.37871
  35   36455.7    274.3   0.031903749   0.28811  -0.21345   0.48054   0.10783
  36   37123.5    269.4   0.031839117   0.28235   0.01996   0.02525  -0.53039
  37   37203.0    268.8   0.011035586   0.09765   0.03922  -0.23549   0.20165
  38   37628.8    265.8   0.072938342   0.63813  -0.17641   0.69063  -0.36063
  39   38055.4    262.8   0.040793235   0.35290   0.02535   0.54695  -0.23044
  40   38157.6    262.1   0.008822710   0.07612   0.19762   0.14491  -0.12677
  41   38274.8    261.3   0.001417538   0.01219   0.02739   0.09118  -0.05593
  42   38759.0    258.0   0.008909416   0.07568   0.23669  -0.07580  -0.11794
  43   38995.8    256.4   0.043734118   0.36921   0.51784   0.10482  -0.30011
  44   39306.4    254.4   0.038320834   0.32096  -0.27912  -0.21164   0.44526
  45   39591.7    252.6   0.050678485   0.42140   0.45454  -0.15552  -0.43659
  46   39972.8    250.2   0.039645708   0.32652  -0.22411  -0.22346   0.47577
  47   40217.0    248.7   0.079721402   0.65259   0.77768  -0.11656  -0.18499

FINAL SINGLE POINT ENERGY     -4927.224711166530

DIPOLE MOMENT
-------------
                                X             Y             Z
Electronic contribution:    -20.68687      24.77798       1.74304
Nuclear contribution   :     22.03330     -26.40089      -1.89650
                        -----------------------------------------
Total Dipole Moment    :      1.34642      -1.62291      -0.15346
                        -----------------------------------------
Magnitude (a.u.)       :      2.11429
Magnitude (Debye)      :      5.37411

Rotational constants in cm-1:     0.001452     0.000896     0.000586
Rotational constants in MHz :    43.541941    26.865572    17.579220

                             ****ORCA TERMINATED NORMALLY****
TOTAL RUN TIME: 0 days 0 hours 8 minutes 20 seconds 870 msec
