                         Program Version 4.2.0 -  RELEASE  -
|  1> # ORCA input file
|  2> # SCF done       -179.360510393794          0.000438656434
|  3> ! CAM-B3LYP def2-SVP def2/J RIJCOSX Grid4 TightSCF
|  4> %maxcore 5000
|  5> %tddft
|  6>     Mode sTDDFT
|  7>     Ethresh 5.0
|  8>     maxcore 5000
|  9> end
| 10>
| 11> %pal
| 12>   nprocs 6
| 13>   end
| 14> * xyz 0 1
| 15>    C        2.14937         2.99444        -2.73152
| 16>    O        1.18245         3.07670        -3.67082
| 17>    C        0.02572         2.98205        -2.97014
| 18>    C        0.37554         2.84246        -1.59719
| 19>    N        1.75255         2.85920        -1.52193
| 20>    C       -0.57746         2.71889        -0.60251
| 21>    C       -1.88927         2.74310        -1.05235
| 22>    C       -2.21364         2.88764        -2.43410
| 23>    C       -1.27389         3.01007        -3.43835
| 24>    O       -3.55995         2.87834        -2.53486
| 25>    C       -4.00645         2.73065        -1.25103
| 26>    N       -3.06458         2.64762        -0.36078
| 27>    C       -5.41662         2.68996        -1.02005
| 28>    C       -5.94688         2.51248         0.20341
| 29>    C       -7.35877         2.48724         0.42504
| 30>    O       -7.82103         2.26860         1.69459
| 31>    C       -9.16422         2.30925         1.58688
| 32>    C       -9.47366         2.56027         0.21468
| 33>    N       -8.29053         2.65965        -0.46248
| 34>    C      -10.77744         2.67002        -0.23799
| 35>    C      -11.74522         2.51478         0.74287
| 36>    C      -11.40927         2.25762         2.10742
| 37>    C      -10.11482         2.14756         2.57574
| 38>    O      -12.56487         2.15604         2.79618
| 39>    C      -13.54487         2.35050         1.86352
| 40>    N      -13.10636         2.56323         0.65752
| 41>    C      -14.92063         2.31091         2.23252
| 42>    C      -15.34155         2.05018         3.49126
| 43>    C      -16.69872         1.99238         3.90369
| 44>    C      -17.18641         1.68957         5.16326
| 45>    C      -18.61287         1.73771         5.12762
| 46>    C      -19.01692         2.09445         3.76755
| 47>    O      -20.09129         2.25652         3.24946
| 48>    N      -17.79127         2.22713         3.09947
| 49>    C      -19.05335         1.41903         6.38804
| 50>    O      -18.00422         1.17624         7.20991
| 51>    C      -16.79926         1.32789         6.50954
| 52>    O      -15.73407         1.16411         7.03225
| 53>    C      -20.38560         1.32101         6.88527
| 54>    O      -21.40848         1.60532         6.02899
| 55>    C      -22.52447         1.42947         6.76217
| 56>    C      -22.11685         1.03116         8.07375
| 57>    N      -20.75470         0.98329         8.08447
| 58>    C      -23.03217         0.76377         9.08214
| 59>    C      -24.35746         0.91661         8.71341
| 60>    C      -24.73824         1.32130         7.39533
| 61>    C      -23.84230         1.58907         6.37942
| 62>    O      -26.08420         1.37658         7.36600
| 63>    C      -26.48047         1.01256         8.62551
| 64>    N      -25.50424         0.73821         9.43607
| 65>    C      -27.87953         0.96676         8.91200
| 66>    C      -28.36083         0.58434        10.10882
| 67>    C      -29.76156         0.52902        10.38763
| 68>    O      -30.16896         0.09334        11.61791
| 69>    C      -31.51772         0.14457        11.57366
| 70>    C      -31.88348         0.62651        10.28166
| 71>    N      -30.73005         0.84873         9.58300
| 72>    C      -33.20744         0.79883         9.90691
| 73>    C      -34.13233         0.46434        10.88064
| 74>    C      -33.73999        -0.01837        12.16417
| 75>    C      -32.42760        -0.19436        12.55602
| 76>    O      -34.86879        -0.25104        12.86838
| 77>    C      -35.88662         0.08701        12.01907
| 78>    N      -35.50173         0.50660        10.85686
| 79>    C      -37.24162        -0.05358        12.48778
| 80>    C      -38.29456         0.25388        11.73761
| 81>    H        3.17057         3.04684        -3.05529
| 82>    H       -0.32266         2.61303         0.43668
| 83>    H       -1.52796         3.11669        -4.47853
| 84>    H       -6.05485         2.81018        -1.88255
| 85>    H       -5.31242         2.38369         1.06708
| 86>    H      -11.02103         2.86155        -1.26748
| 87>    H       -9.87233         1.95598         3.60640
| 88>    H      -15.59816         2.49949         1.41351
| 89>    H      -14.61746         1.85814         4.27100
| 90>    H      -17.73942         2.47453         2.12375
| 91>    H      -22.73312         0.46178        10.06975
| 92>    H      -24.13538         1.89051         5.38909
| 93>    H      -28.55037         1.24942         8.11492
| 94>    H      -27.69154         0.29641        10.90545
| 95>    H      -33.49225         1.16252         8.93596
| 96>    H      -32.14237        -0.55925        13.52747
| 97>    H      -37.33760        -0.42822        13.49696
| 98>    H      -38.16052         0.62554        10.73656
| 99>    H      -39.30015         0.14339        12.10323
|100> *
|101>
|102>                          ****END OF INPUT****

CARTESIAN COORDINATES (ANGSTROEM)
---------------------------------
  C      2.149370    2.994440   -2.731520
  O      1.182450    3.076700   -3.670820
  C      0.025720    2.982050   -2.970140
  C      0.375540    2.842460   -1.597190
  N      1.752550    2.859200   -1.521930
  C     -0.577460    2.718890   -0.602510
  C     -1.889270    2.743100   -1.052350
  C     -2.213640    2.887640   -2.434100
  C     -1.273890    3.010070   -3.438350
  O     -3.559950    2.878340   -2.534860
  C     -4.006450    2.730650   -1.251030
  N     -3.064580    2.647620   -0.360780
  C     -5.416620    2.689960   -1.020050
  C     -5.946880    2.512480    0.203410
  C     -7.358770    2.487240    0.425040
  O     -7.821030    2.268600    1.694590
  C     -9.164220    2.309250    1.586880
  C     -9.473660    2.560270    0.214680
  N     -8.290530    2.659650   -0.462480
  C    -10.777440    2.670020   -0.237990
  C    -11.745220    2.514780    0.742870
  C    -11.409270    2.257620    2.107420
  C    -10.114820    2.147560    2.575740
  O    -12.564870    2.156040    2.796180
  C    -13.544870    2.350500    1.863520
  N    -13.106360    2.563230    0.657520
  C    -14.920630    2.310910    2.232520
  C    -15.341550    2.050180    3.491260
  C    -16.698720    1.992380    3.903690
  C    -17.186410    1.689570    5.163260
  C    -18.612870    1.737710    5.127620
  C    -19.016920    2.094450    3.767550
  O    -20.091290    2.256520    3.249460
  N    -17.791270    2.227130    3.099470
  C    -19.053350    1.419030    6.388040
  O    -18.004220    1.176240    7.209910
  C    -16.799260    1.327890    6.509540
  O    -15.734070    1.164110    7.032250
  C    -20.385600    1.321010    6.885270
  O    -21.408480    1.605320    6.028990
  C    -22.524470    1.429470    6.762170
  C    -22.116850    1.031160    8.073750
  N    -20.754700    0.983290    8.084470
  C    -23.032170    0.763770    9.082140
  C    -24.357460    0.916610    8.713410
  C    -24.738240    1.321300    7.395330
  C    -23.842300    1.589070    6.379420
  O    -26.084200    1.376580    7.366000
  C    -26.480470    1.012560    8.625510
  N    -25.504240    0.738210    9.436070
  C    -27.879530    0.966760    8.912000
  C    -28.360830    0.584340   10.108820
  C    -29.761560    0.529020   10.387630
  O    -30.168960    0.093340   11.617910
  C    -31.517720    0.144570   11.573660
  C    -31.883480    0.626510   10.281660
  N    -30.730050    0.848730    9.583000
  C    -33.207440    0.798830    9.906910
  C    -34.132330    0.464340   10.880640
  C    -33.739990   -0.018370   12.164170
  C    -32.427600   -0.194360   12.556020
  O    -34.868790   -0.251040   12.868380
  C    -35.886620    0.087010   12.019070
  N    -35.501730    0.506600   10.856860
  C    -37.241620   -0.053580   12.487780
  C    -38.294560    0.253880   11.737610
  H      3.170570    3.046840   -3.055290
  H     -0.322660    2.613030    0.436680
  H     -1.527960    3.116690   -4.478530
  H     -6.054850    2.810180   -1.882550
  H     -5.312420    2.383690    1.067080
  H    -11.021030    2.861550   -1.267480
  H     -9.872330    1.955980    3.606400
  H    -15.598160    2.499490    1.413510
  H    -14.617460    1.858140    4.271000
  H    -17.739420    2.474530    2.123750
  H    -22.733120    0.461780   10.069750
  H    -24.135380    1.890510    5.389090
  H    -28.550370    1.249420    8.114920
  H    -27.691540    0.296410   10.905450
  H    -33.492250    1.162520    8.935960
  H    -32.142370   -0.559250   13.527470
  H    -37.337600   -0.428220   13.496960
  H    -38.160520    0.625540   10.736560
  H    -39.300150    0.143390   12.103230

 Total Charge           Charge          ....    0
 Multiplicity           Mult            ....    1
 Number of Electrons    NEL             ....  446
 Basis Dimension        Dim             .... 1019

ORBITAL ENERGIES
----------------

  NO   OCC          E(Eh)            E(eV)
   0   2.0000     -19.309314      -525.4331
   1   2.0000     -19.306298      -525.3511
   2   2.0000     -19.305398      -525.3266
   3   2.0000     -19.302293      -525.2421
   4   2.0000     -19.301433      -525.2187
   5   2.0000     -19.300739      -525.1998
   6   2.0000     -19.298067      -525.1271
   7   2.0000     -19.295131      -525.0472
   8   2.0000     -19.285686      -524.7902
   9   2.0000     -19.212759      -522.8058
  10   2.0000     -19.204608      -522.5839
  11   2.0000     -14.469135      -393.7252
  12   2.0000     -14.421224      -392.4215
  13   2.0000     -14.421141      -392.4192
  14   2.0000     -14.414094      -392.2274
  15   2.0000     -14.411756      -392.1638
  16   2.0000     -14.411225      -392.1494
  17   2.0000     -14.409400      -392.0997
  18   2.0000     -14.408138      -392.0654
  19   2.0000     -14.402265      -391.9056
  20   2.0000     -10.412330      -283.3339
  21   2.0000     -10.396539      -282.9042
  22   2.0000     -10.382938      -282.5341
  23   2.0000     -10.381833      -282.5040
  24   2.0000     -10.378781      -282.4210
  25   2.0000     -10.377388      -282.3831
  26   2.0000     -10.374681      -282.3094
  27   2.0000     -10.373789      -282.2852
  28   2.0000     -10.370045      -282.1833
  29   2.0000     -10.366322      -282.0819
  30   2.0000     -10.366321      -282.0819
  31   2.0000     -10.361608      -281.9537
  32   2.0000     -10.351805      -281.6869
  33   2.0000     -10.350184      -281.6428
  34   2.0000     -10.348941      -281.6090
  35   2.0000     -10.347933      -281.5816
  36   2.0000     -10.343818      -281.4696
  37   2.0000     -10.342725      -281.4399
  38   2.0000     -10.339799      -281.3602
  39   2.0000     -10.338799      -281.3330
  40   2.0000     -10.319648      -280.8119
  41   2.0000     -10.314409      -280.6693
  42   2.0000     -10.314281      -280.6659
  43   2.0000     -10.313541      -280.6457
  44   2.0000     -10.312056      -280.6053
  45   2.0000     -10.310912      -280.5742
  46   2.0000     -10.308357      -280.5047
  47   2.0000     -10.306482      -280.4536
  48   2.0000     -10.304171      -280.3908
  49   2.0000     -10.303171      -280.3635
  50   2.0000     -10.303084      -280.3612
  51   2.0000     -10.302190      -280.3368
  52   2.0000     -10.300207      -280.2829
  53   2.0000     -10.300061      -280.2789
  54   2.0000     -10.298693      -280.2417
  55   2.0000     -10.296228      -280.1746
  56   2.0000     -10.295337      -280.1504
  57   2.0000     -10.292398      -280.0704
  58   2.0000     -10.291097      -280.0350
  59   2.0000     -10.289572      -279.9935
  60   2.0000     -10.288019      -279.9512
  61   2.0000     -10.287080      -279.9257
  62   2.0000     -10.286835      -279.9190
  63   2.0000     -10.283966      -279.8409
  64   2.0000     -10.281338      -279.7694
  65   2.0000     -10.278912      -279.7034
  66   2.0000      -1.238917       -33.7126
  67   2.0000      -1.238509       -33.7016
  68   2.0000      -1.234660       -33.5968
  69   2.0000      -1.231726       -33.5170
  70   2.0000      -1.231711       -33.5166
  71   2.0000      -1.230275       -33.4775
  72   2.0000      -1.226919       -33.3862
  73   2.0000      -1.223974       -33.3060
  74   2.0000      -1.215804       -33.0837
  75   2.0000      -1.144782       -31.1511
  76   2.0000      -1.122696       -30.5501
  77   2.0000      -1.072457       -29.1831
  78   2.0000      -1.033242       -28.1159
  79   2.0000      -1.031433       -28.0667
  80   2.0000      -1.026521       -27.9330
  81   2.0000      -1.025143       -27.8956
  82   2.0000      -1.023577       -27.8530
  83   2.0000      -1.021250       -27.7896
  84   2.0000      -1.019231       -27.7347
  85   2.0000      -1.014898       -27.6168
  86   2.0000      -0.967033       -26.3143
  87   2.0000      -0.962484       -26.1905
  88   2.0000      -0.956926       -26.0393
  89   2.0000      -0.954826       -25.9821
  90   2.0000      -0.931265       -25.3410
  91   2.0000      -0.924249       -25.1501
  92   2.0000      -0.914835       -24.8939
  93   2.0000      -0.912762       -24.8375
  94   2.0000      -0.891901       -24.2699
  95   2.0000      -0.882412       -24.0117
  96   2.0000      -0.867384       -23.6027
  97   2.0000      -0.858489       -23.3607
  98   2.0000      -0.854637       -23.2558
  99   2.0000      -0.851839       -23.1797
 100   2.0000      -0.849147       -23.1065
 101   2.0000      -0.845867       -23.0172
 102   2.0000      -0.841154       -22.8890
 103   2.0000      -0.819499       -22.2997
 104   2.0000      -0.810875       -22.0650
 105   2.0000      -0.787007       -21.4156
 106   2.0000      -0.778759       -21.1911
 107   2.0000      -0.768502       -20.9120
 108   2.0000      -0.756025       -20.5725
 109   2.0000      -0.746915       -20.3246
 110   2.0000      -0.734583       -19.9890
 111   2.0000      -0.730973       -19.8908
 112   2.0000      -0.722483       -19.6598
 113   2.0000      -0.721608       -19.6360
 114   2.0000      -0.717167       -19.5151
 115   2.0000      -0.710293       -19.3281
 116   2.0000      -0.707646       -19.2560
 117   2.0000      -0.706640       -19.2286
 118   2.0000      -0.704497       -19.1703
 119   2.0000      -0.700756       -19.0686
 120   2.0000      -0.697133       -18.9699
 121   2.0000      -0.691876       -18.8269
 122   2.0000      -0.675793       -18.3893
 123   2.0000      -0.666646       -18.1404
 124   2.0000      -0.658012       -17.9054
 125   2.0000      -0.657858       -17.9012
 126   2.0000      -0.654490       -17.8096
 127   2.0000      -0.653571       -17.7846
 128   2.0000      -0.651174       -17.7194
 129   2.0000      -0.646182       -17.5835
 130   2.0000      -0.642993       -17.4967
 131   2.0000      -0.633192       -17.2300
 132   2.0000      -0.624705       -16.9991
 133   2.0000      -0.618582       -16.8325
 134   2.0000      -0.606019       -16.4906
 135   2.0000      -0.602982       -16.4080
 136   2.0000      -0.596193       -16.2232
 137   2.0000      -0.594869       -16.1872
 138   2.0000      -0.591792       -16.1035
 139   2.0000      -0.589540       -16.0422
 140   2.0000      -0.584921       -15.9165
 141   2.0000      -0.583992       -15.8912
 142   2.0000      -0.581775       -15.8309
 143   2.0000      -0.579769       -15.7763
 144   2.0000      -0.579607       -15.7719
 145   2.0000      -0.577888       -15.7251
 146   2.0000      -0.576824       -15.6962
 147   2.0000      -0.572478       -15.5779
 148   2.0000      -0.569247       -15.4900
 149   2.0000      -0.568361       -15.4659
 150   2.0000      -0.566614       -15.4184
 151   2.0000      -0.566289       -15.4095
 152   2.0000      -0.558430       -15.1957
 153   2.0000      -0.557507       -15.1705
 154   2.0000      -0.555185       -15.1074
 155   2.0000      -0.552680       -15.0392
 156   2.0000      -0.549131       -14.9426
 157   2.0000      -0.545706       -14.8494
 158   2.0000      -0.545390       -14.8408
 159   2.0000      -0.540805       -14.7161
 160   2.0000      -0.539652       -14.6847
 161   2.0000      -0.536842       -14.6082
 162   2.0000      -0.529830       -14.4174
 163   2.0000      -0.527236       -14.3468
 164   2.0000      -0.526041       -14.3143
 165   2.0000      -0.522784       -14.2257
 166   2.0000      -0.517007       -14.0685
 167   2.0000      -0.514650       -14.0043
 168   2.0000      -0.511241       -13.9116
 169   2.0000      -0.504471       -13.7274
 170   2.0000      -0.503086       -13.6897
 171   2.0000      -0.495015       -13.4700
 172   2.0000      -0.486932       -13.2501
 173   2.0000      -0.486052       -13.2261
 174   2.0000      -0.484089       -13.1727
 175   2.0000      -0.480250       -13.0683
 176   2.0000      -0.478856       -13.0303
 177   2.0000      -0.474514       -12.9122
 178   2.0000      -0.469468       -12.7749
 179   2.0000      -0.468911       -12.7597
 180   2.0000      -0.467094       -12.7103
 181   2.0000      -0.455552       -12.3962
 182   2.0000      -0.452625       -12.3165
 183   2.0000      -0.450947       -12.2709
 184   2.0000      -0.449359       -12.2277
 185   2.0000      -0.449125       -12.2213
 186   2.0000      -0.448639       -12.2081
 187   2.0000      -0.447288       -12.1713
 188   2.0000      -0.447076       -12.1655
 189   2.0000      -0.444500       -12.0955
 190   2.0000      -0.442839       -12.0503
 191   2.0000      -0.442826       -12.0499
 192   2.0000      -0.439116       -11.9489
 193   2.0000      -0.429138       -11.6774
 194   2.0000      -0.424926       -11.5628
 195   2.0000      -0.419990       -11.4285
 196   2.0000      -0.413802       -11.2601
 197   2.0000      -0.413078       -11.2404
 198   2.0000      -0.410386       -11.1672
 199   2.0000      -0.385338       -10.4856
 200   2.0000      -0.380102       -10.3431
 201   2.0000      -0.378516       -10.3000
 202   2.0000      -0.376385       -10.2419
 203   2.0000      -0.374345       -10.1864
 204   2.0000      -0.371866       -10.1190
 205   2.0000      -0.371024       -10.0961
 206   2.0000      -0.370535       -10.0828
 207   2.0000      -0.369396       -10.0518
 208   2.0000      -0.368251       -10.0206
 209   2.0000      -0.366828        -9.9819
 210   2.0000      -0.366531        -9.9738
 211   2.0000      -0.362521        -9.8647
 212   2.0000      -0.357548        -9.7294
 213   2.0000      -0.347868        -9.4660
 214   2.0000      -0.318189        -8.6584
 215   2.0000      -0.312521        -8.5041
 216   2.0000      -0.307754        -8.3744
 217   2.0000      -0.304937        -8.2978
 218   2.0000      -0.303702        -8.2642
 219   2.0000      -0.290244        -7.8979
 220   2.0000      -0.277907        -7.5622
 221   2.0000      -0.271332        -7.3833
 222   2.0000      -0.258192        -7.0258
 223   0.0000      -0.103310        -2.8112
 224   0.0000      -0.065743        -1.7890
 225   0.0000      -0.060731        -1.6526
 226   0.0000      -0.034608        -0.9417
 227   0.0000      -0.018623        -0.5068

MULLIKEN ATOMIC CHARGES
-----------------------
   0 C :    0.173200
   1 O :   -0.195163
   2 C :    0.188475
   3 C :    0.005900
   4 N :   -0.074256
   5 C :   -0.075809
   6 C :    0.017787
   7 C :    0.214274
   8 C :   -0.146678
   9 O :   -0.200912
  10 C :    0.114567
  11 N :   -0.046879
  12 C :    0.009058
  13 C :    0.004955
  14 C :    0.118323
  15 O :   -0.197996
  16 C :    0.213765
  17 C :    0.022364
  18 N :   -0.049846
  19 C :   -0.076551
  20 C :    0.011459
  21 C :    0.219211
  22 C :   -0.151535
  23 O :   -0.204049
  24 C :    0.099916
  25 N :   -0.035181
  26 C :   -0.007277
  27 C :    0.032938
  28 C :    0.063347
  29 C :   -0.087786
  30 C :   -0.026521
  31 C :    0.150361
  32 O :   -0.137037
  33 N :   -0.131075
  34 C :    0.084370
  35 O :   -0.228414
  36 C :    0.224652
  37 O :   -0.127171
  38 C :    0.061966
  39 O :   -0.178277
  40 C :    0.228721
  41 C :    0.013013
  42 N :   -0.008274
  43 C :   -0.076593
  44 C :    0.027409
  45 C :    0.213524
  46 C :   -0.155258
  47 O :   -0.197715
  48 C :    0.120092
  49 N :   -0.051141
  50 C :    0.004342
  51 C :    0.010066
  52 C :    0.115814
  53 O :   -0.199943
  54 C :    0.207991
  55 C :    0.026481
  56 N :   -0.052212
  57 C :   -0.087320
  58 C :    0.019224
  59 C :    0.212315
  60 C :   -0.157335
  61 O :   -0.205459
  62 C :    0.101481
  63 N :   -0.052759
  64 C :   -0.030780
  65 C :    0.032178
  66 H :    0.032302
  67 H :   -0.021586
  68 H :   -0.012265
  69 H :    0.029535
  70 H :    0.029671
  71 H :   -0.020441
  72 H :   -0.007327
  73 H :    0.011129
  74 H :    0.032117
  75 H :    0.133283
  76 H :   -0.017582
  77 H :   -0.003687
  78 H :    0.029399
  79 H :    0.029178
  80 H :   -0.025546
  81 H :   -0.015018
  82 H :    0.006750
  83 H :    0.046282
  84 H :    0.033471
Sum of atomic charges:   -0.0000000

LOEWDIN ATOMIC CHARGES
----------------------
   0 C :    0.083940
   1 O :   -0.007438
   2 C :    0.031923
   3 C :   -0.038657
   4 N :   -0.097418
   5 C :   -0.012997
   6 C :   -0.036404
   7 C :    0.035439
   8 C :   -0.060556
   9 O :   -0.007199
  10 C :    0.055857
  11 N :   -0.097394
  12 C :   -0.000618
  13 C :   -0.006642
  14 C :    0.061203
  15 O :   -0.005152
  16 C :    0.040362
  17 C :   -0.034480
  18 N :   -0.099815
  19 C :   -0.013281
  20 C :   -0.039112
  21 C :    0.040423
  22 C :   -0.060733
  23 O :   -0.006036
  24 C :    0.054314
  25 N :   -0.088680
  26 C :   -0.013877
  27 C :   -0.009461
  28 C :    0.075545
  29 C :   -0.123134
  30 C :   -0.100880
  31 C :    0.079483
  32 O :   -0.159995
  33 N :    0.024120
  34 C :    0.080621
  35 O :   -0.035107
  36 C :    0.104627
  37 O :   -0.133913
  38 C :    0.037431
  39 O :    0.012529
  40 C :    0.043723
  41 C :   -0.038742
  42 N :   -0.065991
  43 C :   -0.010268
  44 C :   -0.033940
  45 C :    0.042168
  46 C :   -0.059034
  47 O :   -0.005484
  48 C :    0.062075
  49 N :   -0.099959
  50 C :   -0.008155
  51 C :    0.000224
  52 C :    0.054870
  53 O :   -0.007173
  54 C :    0.034028
  55 C :   -0.036652
  56 N :   -0.098180
  57 C :   -0.018381
  58 C :   -0.034301
  59 C :    0.034924
  60 C :   -0.063050
  61 O :   -0.011933
  62 C :    0.063328
  63 N :   -0.104989
  64 C :   -0.051779
  65 C :    0.015955
  66 H :    0.026095
  67 H :    0.043749
  68 H :    0.044300
  69 H :    0.048153
  70 H :    0.048378
  71 H :    0.044181
  72 H :    0.046574
  73 H :    0.043294
  74 H :    0.052553
  75 H :    0.089865
  76 H :    0.045503
  77 H :    0.048298
  78 H :    0.048232
  79 H :    0.048252
  80 H :    0.042219
  81 H :    0.043482
  82 H :    0.037954
  83 H :    0.035756
  84 H :    0.031040

  Mayer bond orders larger than 0.100000
B(  0-C ,  1-O ) :   1.1274 B(  0-C ,  4-N ) :   1.8018 B(  0-C , 66-H ) :   0.9839
B(  1-O ,  2-C ) :   1.1157 B(  2-C ,  3-C ) :   1.2775 B(  2-C ,  8-C ) :   1.3200
B(  3-C ,  4-N ) :   1.2806 B(  3-C ,  5-C ) :   1.3015 B(  5-C ,  6-C ) :   1.2799
B(  5-C ,  8-C ) :   0.1540 B(  5-C , 67-H ) :   1.0538 B(  6-C ,  7-C ) :   1.2540
B(  6-C , 11-N ) :   1.2923 B(  7-C ,  8-C ) :   1.3177 B(  7-C ,  9-O ) :   1.1109
B(  8-C , 68-H ) :   1.0470 B(  9-O , 10-C ) :   1.1247 B( 10-C , 11-N ) :   1.7551
B( 10-C , 12-C ) :   1.0788 B( 12-C , 13-C ) :   1.7200 B( 12-C , 69-H ) :   0.9616
B( 13-C , 14-C ) :   1.0802 B( 13-C , 70-H ) :   0.9630 B( 14-C , 15-O ) :   1.1198
B( 14-C , 18-N ) :   1.7531 B( 15-O , 16-C ) :   1.1181 B( 16-C , 17-C ) :   1.2435
B( 16-C , 22-C ) :   1.3148 B( 17-C , 18-N ) :   1.2928 B( 17-C , 19-C ) :   1.2907
B( 19-C , 20-C ) :   1.2777 B( 19-C , 22-C ) :   0.1482 B( 19-C , 71-H ) :   1.0514
B( 20-C , 21-C ) :   1.2456 B( 20-C , 25-N ) :   1.2971 B( 21-C , 22-C ) :   1.3185
B( 21-C , 23-O ) :   1.1087 B( 22-C , 72-H ) :   1.0466 B( 23-O , 24-C ) :   1.1357
B( 24-C , 25-N ) :   1.7269 B( 24-C , 26-C ) :   1.1217 B( 26-C , 27-C ) :   1.5895
B( 26-C , 73-H ) :   0.9653 B( 27-C , 28-C ) :   1.1544 B( 27-C , 74-H ) :   0.9612
B( 28-C , 29-C ) :   1.3684 B( 28-C , 33-N ) :   1.2030 B( 29-C , 30-C ) :   1.1704
B( 29-C , 36-C ) :   0.9777 B( 30-C , 31-C ) :   0.8978 B( 30-C , 34-C ) :   1.4648
B( 31-C , 32-O ) :   2.2667 B( 31-C , 33-N ) :   1.0543 B( 33-N , 75-H ) :   0.9165
B( 34-C , 35-O ) :   1.2032 B( 34-C , 38-C ) :   1.0569 B( 35-O , 36-C ) :   0.9891
B( 36-C , 37-O ) :   2.2554 B( 38-C , 39-O ) :   1.1963 B( 38-C , 42-N ) :   1.7376
B( 39-O , 40-C ) :   1.1177 B( 40-C , 41-C ) :   1.2311 B( 40-C , 46-C ) :   1.3113
B( 41-C , 42-N ) :   1.2988 B( 41-C , 43-C ) :   1.2670 B( 43-C , 44-C ) :   1.2950
B( 43-C , 46-C ) :   0.1484 B( 43-C , 76-H ) :   1.0507 B( 44-C , 45-C ) :   1.2363
B( 44-C , 49-N ) :   1.2909 B( 45-C , 46-C ) :   1.3169 B( 45-C , 47-O ) :   1.1203
B( 46-C , 77-H ) :   1.0477 B( 47-O , 48-C ) :   1.1182 B( 48-C , 49-N ) :   1.7534
B( 48-C , 50-C ) :   1.0805 B( 50-C , 51-C ) :   1.7201 B( 50-C , 78-H ) :   0.9610
B( 51-C , 52-C ) :   1.0796 B( 51-C , 79-H ) :   0.9621 B( 52-C , 53-O ) :   1.1257
B( 52-C , 56-N ) :   1.7502 B( 53-O , 54-C ) :   1.1123 B( 54-C , 55-C ) :   1.2541
B( 54-C , 60-C ) :   1.3133 B( 55-C , 56-N ) :   1.2937 B( 55-C , 57-C ) :   1.2754
B( 57-C , 58-C ) :   1.2944 B( 57-C , 60-C ) :   0.1516 B( 57-C , 80-H ) :   1.0517
B( 58-C , 59-C ) :   1.2539 B( 58-C , 63-N ) :   1.2875 B( 59-C , 60-C ) :   1.3192
B( 59-C , 61-O ) :   1.1122 B( 60-C , 81-H ) :   1.0461 B( 61-O , 62-C ) :   1.1183
B( 62-C , 63-N ) :   1.7642 B( 62-C , 64-C ) :   1.0847 B( 64-C , 65-C ) :   1.9506
B( 64-C , 82-H ) :   0.9504 B( 65-C , 83-H ) :   0.9486 B( 65-C , 84-H ) :   0.9473

-----------------------------------------------------------------------------
         ABSORPTION SPECTRUM VIA TRANSITION ELECTRIC DIPOLE MOMENTS
-----------------------------------------------------------------------------
State   Energy  Wavelength   fosc         T2         TX        TY        TZ
        (cm-1)    (nm)                  (au**2)     (au)      (au)      (au)
-----------------------------------------------------------------------------
   0   18886.2    529.5   2.215664807  38.62200   5.06505   0.74697  -3.52269
   1   25056.5    399.1   0.023359105   0.30691  -0.45150  -0.01019   0.32086
   2   26208.5    381.6   0.739842592   9.29335  -3.04142   0.10884  -0.17677
   3   28554.9    350.2   0.455207467   5.24812  -2.09786  -0.25511   0.88432
   4   29086.2    343.8   0.626750661   7.09388  -2.55429  -0.18853   0.73070
   5   29462.1    339.4   0.006577102   0.07349   0.24311  -0.05139  -0.10839
   6   29547.1    338.4   1.204678293  13.42246   3.41031   0.20277  -1.32330
   7   30207.4    331.0   0.091288321   0.99490  -0.96215  -0.05681   0.25678
   8   31496.8    317.5   0.032020160   0.33468   0.56204  -0.06530   0.12056
   9   32220.4    310.4   0.013826049   0.14127   0.33122  -0.08178   0.15770
  10   33224.5    301.0   0.172056009   1.70485  -1.30559   0.01275   0.01135
  11   33509.0    298.4   0.007650850   0.07517  -0.15697  -0.08212   0.20925
  12   34051.1    293.7   0.000078988   0.00076  -0.01043   0.02339   0.01038
  13   34147.9    292.8   0.023533684   0.22688   0.47630   0.00145  -0.00467
  14   34846.4    287.0   0.044110875   0.41674   0.64498  -0.02315  -0.01432
  15   35126.6    284.7   0.039085242   0.36631  -0.14710   0.06556  -0.58342
  16   35739.7    279.8   0.017977778   0.16560  -0.30193   0.11052  -0.24944
  17   37361.4    267.7   0.015129264   0.13331  -0.31150   0.06954  -0.17732
  18   37786.7    264.6   0.033345006   0.29051  -0.36665   0.09130  -0.38438
  19   38182.3    261.9   0.005703692   0.04918   0.08014  -0.03842   0.20317
  20   38372.9    260.6   0.024368905   0.20907   0.11535   0.04982  -0.43964
  21   38947.4    256.8   0.017588990   0.14868  -0.37604   0.02973  -0.07989
  22   39530.2    253.0   0.016465372   0.13713  -0.24674   0.12719  -0.24509
  23   39924.0    250.5   0.004854510   0.04003   0.05881   0.05227  -0.18396
  24   40258.9    248.4   0.089225756   0.72963  -0.67106   0.16714  -0.50137

FINAL SINGLE POINT ENERGY     -3080.859193823840

DIPOLE MOMENT
-------------
                                X             Y             Z
Electronic contribution:     25.41902       1.12056      -5.15108
Nuclear contribution   :    -25.64306      -0.96684       4.00371
                        -----------------------------------------
Total Dipole Moment    :     -0.22403       0.15372      -1.14737
                        -----------------------------------------
Magnitude (a.u.)       :      1.17910
Magnitude (Debye)      :      2.99704

Rotational constants in cm-1:     0.012642     0.000124     0.000123
Rotational constants in MHz :   378.997675     3.716504     3.681273

                             ****ORCA TERMINATED NORMALLY****
TOTAL RUN TIME: 0 days 0 hours 5 minutes 43 seconds 548 msec
