                         Program Version 4.2.0 -  RELEASE  -
|  1> # ORCA input file
|  2> # SCF done       -123.997204364449          0.000995382614
|  3> ! CAM-B3LYP def2-SVP def2/J RIJCOSX Grid4 TightSCF
|  4> %maxcore 5000
|  5> %tddft
|  6>     Mode sTDDFT
|  7>     Ethresh 5.0
|  8>     maxcore 5000
|  9> end
| 10>
| 11> %pal
| 12>   nprocs 6
| 13>   end
| 14> * xyz 0 1
| 15>    C        3.36804        -0.03581        -0.09066
| 16>    N        2.53684        -1.02704        -0.11114
| 17>    C        1.28861        -0.46381        -0.10950
| 18>    C        1.37697         1.00205        -0.08792
| 19>    C        0.03428         1.60899        -0.08431
| 20>    O       -0.27340         2.77598        -0.06811
| 21>    C       -0.84576         0.41581        -0.10603
| 22>    C       -0.02876        -0.82390        -0.12087
| 23>    N       -0.83057        -1.92209        -0.14038
| 24>    C       -2.04931        -1.45572        -0.13860
| 25>    C       -2.13263        -0.00035        -0.11708
| 26>    C        2.71951         1.29033        -0.07617
| 27>    C        3.39273         2.49307        -0.05316
| 28>    C        4.01741         3.54224        -0.03464
| 29>    C        4.72408         4.67579        -0.01126
| 30>    C        5.38924         5.69975         0.01907
| 31>    C        6.16681         6.83867         0.06390
| 32>    N        7.54126         6.79632         0.13029
| 33>    C        8.34077         5.59650         0.09806
| 34>    C        8.41207         5.00365        -1.30640
| 35>    C        8.09681         8.08108         0.18806
| 36>    O        9.29199         8.29743         0.25230
| 37>    C        6.95224         8.96752         0.15988
| 38>    C        5.78126         8.17468         0.07735
| 39>    C        4.63265         9.05801         0.06063
| 40>    O        3.44298         8.85546        -0.00020
| 41>    N        5.20122        10.35006         0.14669
| 42>    C        4.36923        11.52828         0.11048
| 43>    C        4.35731        12.17304        -1.27339
| 44>    C        6.57245        10.31096         0.20657
| 45>    C        7.39477        11.45764         0.33059
| 46>    C        8.75068        11.37252         0.41500
| 47>    C        9.57153        12.46882         0.57902
| 48>    C       10.33530        13.41011         0.74048
| 49>    C       11.17642        14.42869         0.93841
| 50>    C       11.96157        15.34628         1.12952
| 51>    C       12.83382        16.39393         1.35098
| 52>    N       14.04706        16.22561         1.87145
| 53>    C       14.58034        17.45399         1.93271
| 54>    C       13.63492        18.47647         1.40948
| 55>    C       14.24037        19.82619         1.48418
| 56>    O       13.76299        20.88302         1.14563
| 57>    C       15.56173        19.54690         2.07233
| 58>    C       15.72582        18.09643         2.32851
| 59>    N       16.94080        17.84297         2.87135
| 60>    C       17.52530        19.01226         2.96472
| 61>    C       16.72242        20.11831         2.48420
| 62>    C       12.52713        17.79925         1.04360
| 63>    H        4.43227        -0.19682        -0.08723
| 64>    H       -2.88996        -2.12777        -0.15189
| 65>    H       -3.04028         0.56997        -0.11180
| 66>    H        7.91817         4.86818         0.79734
| 67>    H        9.34018         5.88463         0.43489
| 68>    H        7.41984         4.72677        -1.65666
| 69>    H        9.03878         4.11662        -1.29800
| 70>    H        8.84049         5.72531        -1.99799
| 71>    H        4.70545        12.23946         0.87031
| 72>    H        3.36039        11.19167         0.36557
| 73>    H        5.35735        12.48042        -1.57211
| 74>    H        3.71072        13.04596        -1.26611
| 75>    H        3.97793        11.46691        -2.00789
| 76>    H        6.91794        12.42667         0.38137
| 77>    H        9.24418        10.40685         0.36789
| 78>    H       18.51886        19.09051         3.37143
| 79>    H       17.02032        21.14801         2.47528
| 80>    H       11.60599        18.14589         0.61822
| 81> *
| 82>
| 83>                          ****END OF INPUT****

CARTESIAN COORDINATES (ANGSTROEM)
---------------------------------
  C      3.368040   -0.035810   -0.090660
  N      2.536840   -1.027040   -0.111140
  C      1.288610   -0.463810   -0.109500
  C      1.376970    1.002050   -0.087920
  C      0.034280    1.608990   -0.084310
  O     -0.273400    2.775980   -0.068110
  C     -0.845760    0.415810   -0.106030
  C     -0.028760   -0.823900   -0.120870
  N     -0.830570   -1.922090   -0.140380
  C     -2.049310   -1.455720   -0.138600
  C     -2.132630   -0.000350   -0.117080
  C      2.719510    1.290330   -0.076170
  C      3.392730    2.493070   -0.053160
  C      4.017410    3.542240   -0.034640
  C      4.724080    4.675790   -0.011260
  C      5.389240    5.699750    0.019070
  C      6.166810    6.838670    0.063900
  N      7.541260    6.796320    0.130290
  C      8.340770    5.596500    0.098060
  C      8.412070    5.003650   -1.306400
  C      8.096810    8.081080    0.188060
  O      9.291990    8.297430    0.252300
  C      6.952240    8.967520    0.159880
  C      5.781260    8.174680    0.077350
  C      4.632650    9.058010    0.060630
  O      3.442980    8.855460   -0.000200
  N      5.201220   10.350060    0.146690
  C      4.369230   11.528280    0.110480
  C      4.357310   12.173040   -1.273390
  C      6.572450   10.310960    0.206570
  C      7.394770   11.457640    0.330590
  C      8.750680   11.372520    0.415000
  C      9.571530   12.468820    0.579020
  C     10.335300   13.410110    0.740480
  C     11.176420   14.428690    0.938410
  C     11.961570   15.346280    1.129520
  C     12.833820   16.393930    1.350980
  N     14.047060   16.225610    1.871450
  C     14.580340   17.453990    1.932710
  C     13.634920   18.476470    1.409480
  C     14.240370   19.826190    1.484180
  O     13.762990   20.883020    1.145630
  C     15.561730   19.546900    2.072330
  C     15.725820   18.096430    2.328510
  N     16.940800   17.842970    2.871350
  C     17.525300   19.012260    2.964720
  C     16.722420   20.118310    2.484200
  C     12.527130   17.799250    1.043600
  H      4.432270   -0.196820   -0.087230
  H     -2.889960   -2.127770   -0.151890
  H     -3.040280    0.569970   -0.111800
  H      7.918170    4.868180    0.797340
  H      9.340180    5.884630    0.434890
  H      7.419840    4.726770   -1.656660
  H      9.038780    4.116620   -1.298000
  H      8.840490    5.725310   -1.997990
  H      4.705450   12.239460    0.870310
  H      3.360390   11.191670    0.365570
  H      5.357350   12.480420   -1.572110
  H      3.710720   13.045960   -1.266110
  H      3.977930   11.466910   -2.007890
  H      6.917940   12.426670    0.381370
  H      9.244180   10.406850    0.367890
  H     18.518860   19.090510    3.371430
  H     17.020320   21.148010    2.475280
  H     11.605990   18.145890    0.618220

 Total Charge           Charge          ....    0
 Multiplicity           Mult            ....    1
 Number of Electrons    NEL             ....  320
 Basis Dimension        Dim             ....  762

ORBITAL ENERGIES
----------------

  NO   OCC          E(Eh)            E(eV)
   0   2.0000     -19.220644      -523.0203
   1   2.0000     -19.210137      -522.7344
   2   2.0000     -19.200162      -522.4630
   3   2.0000     -19.199739      -522.4515
   4   2.0000     -14.463498      -393.5718
   5   2.0000     -14.463299      -393.5664
   6   2.0000     -14.427770      -392.5996
   7   2.0000     -14.421075      -392.4174
   8   2.0000     -14.414042      -392.2260
   9   2.0000     -14.407879      -392.0583
  10   2.0000     -10.384619      -282.5799
  11   2.0000     -10.384013      -282.5634
  12   2.0000     -10.382261      -282.5157
  13   2.0000     -10.372104      -282.2393
  14   2.0000     -10.359120      -281.8860
  15   2.0000     -10.357139      -281.8321
  16   2.0000     -10.355522      -281.7881
  17   2.0000     -10.349184      -281.6156
  18   2.0000     -10.346374      -281.5392
  19   2.0000     -10.343603      -281.4638
  20   2.0000     -10.343043      -281.4485
  21   2.0000     -10.333384      -281.1857
  22   2.0000     -10.329896      -281.0908
  23   2.0000     -10.329727      -281.0862
  24   2.0000     -10.329395      -281.0771
  25   2.0000     -10.320120      -280.8247
  26   2.0000     -10.317581      -280.7557
  27   2.0000     -10.317190      -280.7450
  28   2.0000     -10.316147      -280.7166
  29   2.0000     -10.314998      -280.6854
  30   2.0000     -10.313345      -280.6404
  31   2.0000     -10.312241      -280.6103
  32   2.0000     -10.311909      -280.6013
  33   2.0000     -10.311091      -280.5790
  34   2.0000     -10.310208      -280.5550
  35   2.0000     -10.309904      -280.5468
  36   2.0000     -10.309793      -280.5437
  37   2.0000     -10.305958      -280.4394
  38   2.0000     -10.305365      -280.4232
  39   2.0000     -10.303524      -280.3732
  40   2.0000     -10.300932      -280.3026
  41   2.0000     -10.296258      -280.1754
  42   2.0000     -10.292581      -280.0754
  43   2.0000     -10.291615      -280.0491
  44   2.0000     -10.280787      -279.7544
  45   2.0000     -10.275459      -279.6095
  46   2.0000     -10.270672      -279.4792
  47   2.0000     -10.265214      -279.3307
  48   2.0000      -1.143578       -31.1183
  49   2.0000      -1.136574       -30.9278
  50   2.0000      -1.136016       -30.9126
  51   2.0000      -1.125784       -30.6341
  52   2.0000      -1.092931       -29.7402
  53   2.0000      -1.081420       -29.4269
  54   2.0000      -1.075214       -29.2581
  55   2.0000      -1.074959       -29.2511
  56   2.0000      -1.066673       -29.0257
  57   2.0000      -1.062759       -28.9191
  58   2.0000      -0.949795       -25.8452
  59   2.0000      -0.941798       -25.6276
  60   2.0000      -0.938109       -25.5273
  61   2.0000      -0.933120       -25.3915
  62   2.0000      -0.923934       -25.1415
  63   2.0000      -0.906694       -24.6724
  64   2.0000      -0.901261       -24.5246
  65   2.0000      -0.882292       -24.0084
  66   2.0000      -0.875152       -23.8141
  67   2.0000      -0.874858       -23.8061
  68   2.0000      -0.865728       -23.5577
  69   2.0000      -0.858806       -23.3693
  70   2.0000      -0.852704       -23.2032
  71   2.0000      -0.827981       -22.5305
  72   2.0000      -0.821338       -22.3497
  73   2.0000      -0.809463       -22.0266
  74   2.0000      -0.787926       -21.4406
  75   2.0000      -0.782259       -21.2864
  76   2.0000      -0.773013       -21.0348
  77   2.0000      -0.767833       -20.8938
  78   2.0000      -0.758813       -20.6484
  79   2.0000      -0.737520       -20.0689
  80   2.0000      -0.727252       -19.7895
  81   2.0000      -0.718042       -19.5389
  82   2.0000      -0.715655       -19.4740
  83   2.0000      -0.713872       -19.4254
  84   2.0000      -0.698145       -18.9975
  85   2.0000      -0.677810       -18.4441
  86   2.0000      -0.674935       -18.3659
  87   2.0000      -0.660591       -17.9756
  88   2.0000      -0.658497       -17.9186
  89   2.0000      -0.654286       -17.8040
  90   2.0000      -0.644220       -17.5301
  91   2.0000      -0.641587       -17.4585
  92   2.0000      -0.635769       -17.3002
  93   2.0000      -0.621769       -16.9192
  94   2.0000      -0.617907       -16.8141
  95   2.0000      -0.599365       -16.3096
  96   2.0000      -0.593989       -16.1633
  97   2.0000      -0.588082       -16.0025
  98   2.0000      -0.586540       -15.9606
  99   2.0000      -0.578388       -15.7387
 100   2.0000      -0.570663       -15.5285
 101   2.0000      -0.565817       -15.3967
 102   2.0000      -0.558849       -15.2071
 103   2.0000      -0.557947       -15.1825
 104   2.0000      -0.557730       -15.1766
 105   2.0000      -0.553906       -15.0725
 106   2.0000      -0.546775       -14.8785
 107   2.0000      -0.539732       -14.6868
 108   2.0000      -0.539043       -14.6681
 109   2.0000      -0.534748       -14.5512
 110   2.0000      -0.527887       -14.3645
 111   2.0000      -0.523434       -14.2434
 112   2.0000      -0.521693       -14.1960
 113   2.0000      -0.520388       -14.1605
 114   2.0000      -0.518413       -14.1067
 115   2.0000      -0.509395       -13.8613
 116   2.0000      -0.507152       -13.8003
 117   2.0000      -0.500321       -13.6144
 118   2.0000      -0.496417       -13.5082
 119   2.0000      -0.496337       -13.5060
 120   2.0000      -0.491155       -13.3650
 121   2.0000      -0.483802       -13.1649
 122   2.0000      -0.482509       -13.1297
 123   2.0000      -0.480804       -13.0834
 124   2.0000      -0.476012       -12.9530
 125   2.0000      -0.475917       -12.9504
 126   2.0000      -0.474030       -12.8990
 127   2.0000      -0.473104       -12.8738
 128   2.0000      -0.466949       -12.7063
 129   2.0000      -0.466567       -12.6959
 130   2.0000      -0.464831       -12.6487
 131   2.0000      -0.460434       -12.5291
 132   2.0000      -0.456386       -12.4189
 133   2.0000      -0.446005       -12.1364
 134   2.0000      -0.443312       -12.0631
 135   2.0000      -0.441929       -12.0255
 136   2.0000      -0.434501       -11.8234
 137   2.0000      -0.432852       -11.7785
 138   2.0000      -0.424993       -11.5647
 139   2.0000      -0.398577       -10.8458
 140   2.0000      -0.379619       -10.3300
 141   2.0000      -0.378561       -10.3012
 142   2.0000      -0.367950       -10.0124
 143   2.0000      -0.364493        -9.9184
 144   2.0000      -0.358700        -9.7607
 145   2.0000      -0.355542        -9.6748
 146   2.0000      -0.353336        -9.6147
 147   2.0000      -0.350634        -9.5412
 148   2.0000      -0.347855        -9.4656
 149   2.0000      -0.345061        -9.3896
 150   2.0000      -0.342944        -9.3320
 151   2.0000      -0.339958        -9.2507
 152   2.0000      -0.333991        -9.0883
 153   2.0000      -0.332134        -9.0378
 154   2.0000      -0.329375        -8.9627
 155   2.0000      -0.326560        -8.8862
 156   2.0000      -0.324707        -8.8357
 157   2.0000      -0.312753        -8.5104
 158   2.0000      -0.300495        -8.1769
 159   2.0000      -0.249515        -6.7896
 160   0.0000      -0.129934        -3.5357
 161   0.0000      -0.120128        -3.2689
 162   0.0000      -0.092196        -2.5088
 163   0.0000      -0.060565        -1.6481
 164   0.0000      -0.040687        -1.1072

MULLIKEN ATOMIC CHARGES
-----------------------
   0 C :    0.085032
   1 N :   -0.026298
   2 C :    0.022291
   3 C :   -0.066377
   4 C :    0.205217
   5 O :   -0.099829
   6 C :   -0.058045
   7 C :    0.028115
   8 N :   -0.045057
   9 C :    0.095771
  10 C :   -0.083860
  11 C :   -0.144711
  12 C :    0.094095
  13 C :   -0.061242
  14 C :   -0.096472
  15 C :    0.144174
  16 C :   -0.000129
  17 N :   -0.258081
  18 C :    0.114150
  19 C :   -0.001673
  20 C :    0.179230
  21 O :   -0.206394
  22 C :   -0.093439
  23 C :    0.023123
  24 C :    0.124839
  25 O :   -0.159877
  26 N :   -0.269460
  27 C :    0.095184
  28 C :    0.003275
  29 C :    0.144260
  30 C :   -0.012249
  31 C :   -0.107814
  32 C :    0.069067
  33 C :   -0.006189
  34 C :   -0.062924
  35 C :    0.168049
  36 C :   -0.069449
  37 N :   -0.041482
  38 C :    0.036756
  39 C :   -0.025972
  40 C :    0.210883
  41 O :   -0.116075
  42 C :   -0.046486
  43 C :    0.000139
  44 N :   -0.053777
  45 C :    0.096338
  46 C :   -0.088110
  47 C :   -0.057359
  48 H :    0.014703
  49 H :    0.020437
  50 H :    0.003827
  51 H :    0.027439
  52 H :    0.044433
  53 H :    0.024781
  54 H :    0.024133
  55 H :    0.026669
  56 H :    0.026157
  57 H :    0.048628
  58 H :    0.015508
  59 H :    0.027837
  60 H :    0.032243
  61 H :   -0.001827
  62 H :    0.076045
  63 H :    0.012311
  64 H :   -0.001736
  65 H :   -0.002744
Sum of atomic charges:    0.0000000

LOEWDIN ATOMIC CHARGES
----------------------
   0 C :    0.102296
   1 N :   -0.076614
   2 C :    0.042386
   3 C :   -0.023042
   4 C :    0.065931
   5 O :   -0.114733
   6 C :   -0.034617
   7 C :    0.044116
   8 N :   -0.090921
   9 C :    0.090582
  10 C :   -0.025797
  11 C :   -0.064350
  12 C :    0.018230
  13 C :   -0.025659
  14 C :   -0.008912
  15 C :   -0.001624
  16 C :    0.046416
  17 N :    0.009839
  18 C :    0.039774
  19 C :   -0.060537
  20 C :    0.078256
  21 O :   -0.196139
  22 C :   -0.118672
  23 C :   -0.090506
  24 C :    0.083956
  25 O :   -0.167988
  26 N :   -0.004586
  27 C :    0.036185
  28 C :   -0.060524
  29 C :    0.080860
  30 C :   -0.011438
  31 C :    0.008377
  32 C :    0.028431
  33 C :   -0.038194
  34 C :    0.006627
  35 C :    0.002307
  36 C :    0.039633
  37 N :   -0.084082
  38 C :    0.036323
  39 C :   -0.032218
  40 C :    0.063662
  41 O :   -0.129626
  42 C :   -0.040417
  43 C :    0.035056
  44 N :   -0.095427
  45 C :    0.082611
  46 C :   -0.034679
  47 C :   -0.007765
  48 H :    0.031265
  49 H :    0.027859
  50 H :    0.038164
  51 H :    0.028554
  52 H :    0.037561
  53 H :    0.025872
  54 H :    0.031391
  55 H :    0.030556
  56 H :    0.023847
  57 H :    0.039903
  58 H :    0.021826
  59 H :    0.032557
  60 H :    0.033593
  61 H :    0.038060
  62 H :    0.056627
  63 H :    0.025242
  64 H :    0.035594
  65 H :    0.038741

  Mayer bond orders larger than 0.100000
B(  0-C ,  1-N ) :   1.7387 B(  0-C , 11-C ) :   1.0260 B(  0-C , 48-H ) :   0.9961
B(  1-N ,  2-C ) :   1.2641 B(  2-C ,  3-C ) :   1.0532 B(  2-C ,  7-C ) :   1.4908
B(  3-C ,  4-C ) :   0.8725 B(  3-C , 11-C ) :   1.6240 B(  4-C ,  5-O ) :   2.3335
B(  4-C ,  6-C ) :   0.8813 B(  6-C ,  7-C ) :   1.0264 B(  6-C , 10-C ) :   1.6598
B(  7-C ,  8-N ) :   1.2884 B(  8-N ,  9-C ) :   1.6838 B(  9-C , 10-C ) :   1.0435
B(  9-C , 49-H ) :   0.9881 B( 10-C , 50-H ) :   1.0095 B( 11-C , 12-C ) :   0.8971
B( 12-C , 13-C ) :   2.1461 B( 12-C , 15-C ) :   0.1787 B( 13-C , 14-C ) :   0.9405
B( 14-C , 15-C ) :   2.0470 B( 15-C , 16-C ) :   0.8023 B( 16-C , 17-N ) :   1.2017
B( 16-C , 23-C ) :   1.4172 B( 17-N , 18-C ) :   0.9425 B( 17-N , 20-C ) :   1.0630
B( 18-C , 19-C ) :   1.1214 B( 18-C , 51-H ) :   0.9473 B( 18-C , 52-H ) :   0.9327
B( 19-C , 53-H ) :   0.9690 B( 19-C , 54-H ) :   0.9673 B( 19-C , 55-H ) :   0.9653
B( 20-C , 21-O ) :   2.0257 B( 20-C , 22-C ) :   0.9882 B( 21-O , 62-H ) :   0.1150
B( 22-C , 23-C ) :   1.2410 B( 22-C , 29-C ) :   1.3369 B( 23-C , 24-C ) :   0.9311
B( 24-C , 25-O ) :   2.1984 B( 24-C , 26-N ) :   1.0223 B( 26-N , 27-C ) :   0.9429
B( 26-N , 29-C ) :   1.1722 B( 27-C , 28-C ) :   1.1215 B( 27-C , 56-H ) :   0.9505
B( 27-C , 57-H ) :   0.9269 B( 28-C , 58-H ) :   0.9687 B( 28-C , 59-H ) :   0.9680
B( 28-C , 60-H ) :   0.9636 B( 29-C , 30-C ) :   1.1602 B( 30-C , 31-C ) :   1.6282
B( 30-C , 61-H ) :   0.9688 B( 31-C , 32-C ) :   1.0029 B( 31-C , 62-H ) :   0.9172
B( 32-C , 33-C ) :   2.1058 B( 32-C , 35-C ) :   0.1763 B( 33-C , 34-C ) :   0.9294
B( 34-C , 35-C ) :   2.1713 B( 35-C , 36-C ) :   0.8272 B( 36-C , 37-N ) :   1.5913
B( 36-C , 38-C ) :   0.1262 B( 36-C , 47-C ) :   1.0655 B( 37-N , 38-C ) :   1.3612
B( 38-C , 39-C ) :   1.0229 B( 38-C , 43-C ) :   1.4134 B( 39-C , 40-C ) :   0.8640
B( 39-C , 47-C ) :   1.6307 B( 40-C , 41-O ) :   2.3270 B( 40-C , 42-C ) :   0.8854
B( 42-C , 43-C ) :   1.0374 B( 42-C , 46-C ) :   1.6194 B( 43-C , 44-N ) :   1.3146
B( 44-N , 45-C ) :   1.6553 B( 45-C , 46-C ) :   1.0697 B( 45-C , 63-H ) :   0.9888
B( 46-C , 64-H ) :   1.0100 B( 47-C , 65-H ) :   1.0143

-----------------------------------------------------------------------------
         ABSORPTION SPECTRUM VIA TRANSITION ELECTRIC DIPOLE MOMENTS
-----------------------------------------------------------------------------
State   Energy  Wavelength   fosc         T2         TX        TY        TZ
        (cm-1)    (nm)                  (au**2)     (au)      (au)      (au)
-----------------------------------------------------------------------------
   0   13262.0    754.0   1.391496768  34.54201  -3.14952  -4.93417  -0.52585
   1   16687.4    599.3   0.024002510   0.47353   0.26772   0.55776   0.30125
   2   20686.0    483.4   0.025447226   0.40499  -0.38460   0.48871  -0.13504
   3   20944.1    477.5   0.086599016   1.36122   0.95600  -0.64976   0.15840
   4   21636.5    462.2   0.000300213   0.00457  -0.00087   0.00229   0.06754
   5   23112.7    432.7   0.558786552   7.95923  -2.23715  -1.61471  -0.58915
   6   23707.9    421.8   0.010668748   0.14815  -0.31218  -0.22134  -0.04127
   7   23845.1    419.4   0.004107049   0.05670   0.17705   0.12938   0.09283
   8   24324.8    411.1   0.155813918   2.10879   1.14251   0.88940   0.11149
   9   24703.9    404.8   0.322865332   4.30261   1.57814   1.31257   0.29877
  10   25213.9    396.6   0.002636149   0.03442   0.15515   0.10170  -0.00187
  11   25468.5    392.6   0.001618169   0.02092   0.10038   0.08426   0.06116
  12   26089.4    383.3   0.003326987   0.04198   0.09256   0.18189   0.01814
  13   26444.7    378.1   0.005667308   0.07055  -0.18848  -0.15694  -0.10196
  14   26516.8    377.1   0.107628361   1.33623   0.89257   0.72527   0.11633
  15   26906.5    371.7   0.016185744   0.19804  -0.28814  -0.21977  -0.25829
  16   27343.4    365.7   0.221601329   2.66806   1.25772   1.04013   0.06580
  17   27477.4    363.9   0.072332730   0.86663   0.74786   0.54427  -0.10536
  18   29063.6    344.1   0.185587040   2.10220  -1.06234  -0.98660  -0.01597
  19   29302.5    341.3   0.002582256   0.02901   0.10563   0.10224   0.08602
  20   29649.0    337.3   0.000066442   0.00074   0.00964   0.01093   0.02292
  21   30080.6    332.4   0.040219939   0.44018  -0.51882  -0.36032  -0.20293
  22   30341.4    329.6   0.010944491   0.11875   0.26353   0.16883   0.14422
  23   31367.3    318.8   0.000676421   0.00710  -0.08206   0.01207   0.01483
  24   32158.0    311.0   0.016385995   0.16775   0.05016  -0.40571   0.02517
  25   32610.1    306.7   0.029880018   0.30165   0.40305   0.32071   0.19065
  26   32908.9    303.9   0.000913259   0.00914  -0.08541  -0.01318   0.04084
  27   33173.3    301.4   0.409050055   4.05942   1.90583   0.64766   0.08811
  28   33485.2    298.6   0.101896690   1.00180   0.84146   0.54021   0.04394
  29   33994.6    294.2   0.046495468   0.45027  -0.63545  -0.21286  -0.03417
  30   34522.3    289.7   0.008578075   0.08180  -0.12872   0.08718  -0.24007
  31   34684.4    288.3   0.000732220   0.00695  -0.06128   0.01301   0.05500
  32   35129.4    284.7   0.005333460   0.04998   0.02866   0.21329   0.06058
  33   35480.8    281.8   0.031807529   0.29513   0.05176  -0.53901   0.04384
  34   36176.2    276.4   0.017400657   0.15835   0.08055   0.38958   0.00921
  35   36491.1    274.0   0.005396504   0.04869  -0.21214   0.06040  -0.00575
  36   36672.6    272.7   0.002620281   0.02352  -0.14176  -0.05450  -0.02139
  37   37582.6    266.1   0.001399477   0.01226  -0.07722  -0.07895   0.00800
  38   37876.9    264.0   0.013390127   0.11638  -0.28276  -0.18773  -0.03445
  39   38238.5    261.5   0.005745047   0.04946   0.18365   0.12521   0.00739
  40   38480.1    259.9   0.000847798   0.00725   0.06958   0.04029  -0.02809
  41   38981.1    256.5   0.000254555   0.00215   0.04281   0.01760  -0.00266
  42   39261.8    254.7   0.000467942   0.00392   0.00999  -0.02927   0.05447
  43   39418.6    253.7   0.011508396   0.09611   0.29593  -0.08900   0.02489
  44   39598.5    252.5   0.004394016   0.03653   0.16766   0.07056   0.05866
  45   40115.0    249.3   0.002791569   0.02291  -0.13154  -0.05479   0.05103

FINAL SINGLE POINT ENERGY     -2085.287831483110

DIPOLE MOMENT
-------------
                                X             Y             Z
Electronic contribution:      3.61273      -1.36058       8.55717
Nuclear contribution   :     -4.78004       0.79666      -8.86664
                        -----------------------------------------
Total Dipole Moment    :     -1.16731      -0.56393      -0.30947
                        -----------------------------------------
Magnitude (a.u.)       :      1.33282
Magnitude (Debye)      :      3.38775

Rotational constants in cm-1:     0.007938     0.000352     0.000339
Rotational constants in MHz :   237.965269    10.540862    10.169948

                             ****ORCA TERMINATED NORMALLY****
TOTAL RUN TIME: 0 days 0 hours 4 minutes 1 seconds 158 msec
