                         Program Version 4.2.0 -  RELEASE  -
|  1> # ORCA input file
|  2> # SCF done       -167.362501622875          0.000958887368
|  3> ! CAM-B3LYP def2-SVP def2/J RIJCOSX Grid4 TightSCF
|  4> %maxcore 5000
|  5> %tddft
|  6>     Mode sTDDFT
|  7>     Ethresh 5.0
|  8>     maxcore 5000
|  9> end
| 10>
| 11> %pal
| 12>   nprocs 6
| 13>   end
| 14> * xyz 0 1
| 15>    C        1.69964         0.79888        -0.87772
| 16>    N        0.49864         0.36280        -0.66586
| 17>    C       -0.26275         1.47244        -0.42931
| 18>    C        0.55927         2.69345        -0.50776
| 19>    C       -0.27224         3.90065        -0.28906
| 20>    O        0.02811         5.06056        -0.38693
| 21>    C       -1.59172         3.30702         0.03335
| 22>    C       -1.53648         1.82324        -0.09156
| 23>    N       -2.74564         1.27728         0.20242
| 24>    C       -3.51363         2.28673         0.50557
| 25>    C       -2.85244         3.58707         0.43027
| 26>    C        1.83136         2.26324        -0.77932
| 27>    C        3.05335         2.99474        -0.86705
| 28>    N        3.25261         4.08880        -0.16401
| 29>    C        4.53537         4.45012        -0.37493
| 30>    C        5.20333         3.49637        -1.27421
| 31>    C        6.60180         3.89728        -1.53755
| 32>    O        7.39767         3.39608        -2.29315
| 33>    C        6.73974         5.09449        -0.68460
| 34>    C        5.45048         5.40324        -0.00890
| 35>    N        5.56923         6.51534         0.75535
| 36>    C        6.80837         6.90583         0.60528
| 37>    C        7.59535         6.06473        -0.28470
| 38>    C        4.26129         2.56861        -1.61439
| 39>    C        4.50727         1.42626        -2.44036
| 40>    N        3.74702         0.96414        -3.47745
| 41>    C        2.57435         1.59644        -4.03776
| 42>    C        2.93919         2.81083        -4.88482
| 43>    C        4.37796        -0.11899        -4.12915
| 44>    O        3.89219        -0.69430        -5.08137
| 45>    C        5.60483        -0.32923        -3.38429
| 46>    C        5.63929         0.62828        -2.34577
| 47>    C        6.83804         0.41611        -1.55630
| 48>    O        7.25347         0.93815        -0.54974
| 49>    N        7.48927        -0.64382        -2.22370
| 50>    C        8.74262        -1.17348        -1.74209
| 51>    C        8.55268        -2.49787        -1.00750
| 52>    C        6.78001        -1.09017        -3.30810
| 53>    C        7.23668        -2.08303        -4.20693
| 54>    C        6.51150        -2.42123        -5.30857
| 55>    C        6.95498        -3.32337        -6.30235
| 56>    N        7.98733        -4.14563        -6.17395
| 57>    C        8.04442        -4.85096        -7.31411
| 58>    C        6.96933        -4.45245        -8.24981
| 59>    C        7.08094        -5.20107        -9.52455
| 60>    O        6.43739        -5.07363       -10.53539
| 61>    C        8.21193        -6.10921        -9.25018
| 62>    C        8.77673        -5.85234        -7.90512
| 63>    N        9.82469        -6.67412        -7.66148
| 64>    C        9.94038        -7.41092        -8.74033
| 65>    C        8.96462        -7.11157        -9.77056
| 66>    C        6.26786        -3.47679        -7.61144
| 67>    C        5.15397        -2.66463        -8.00086
| 68>    N        4.03263        -3.14164        -8.50256
| 69>    C        3.21177        -2.07909        -8.63174
| 70>    C        3.88990        -0.83123        -8.18452
| 71>    C        2.96757         0.31828        -8.26504
| 72>    O        3.16376         1.46674        -7.94078
| 73>    C        1.74455        -0.29715        -8.81088
| 74>    C        1.94018        -1.75631        -9.01356
| 75>    N        0.80961        -2.31942        -9.50997
| 76>    C       -0.04400        -1.33647        -9.62644
| 77>    C        0.47258        -0.04590        -9.20788
| 78>    C        5.12567        -1.20665        -7.79976
| 79>    H        2.50771         0.11588        -1.07543
| 80>    H       -4.54306         2.12622         0.77624
| 81>    H       -3.31250         4.53039         0.64758
| 82>    H        7.16945         7.77877         1.12122
| 83>    H        8.62598         6.21843        -0.53591
| 84>    H        1.89713         1.88197        -3.22874
| 85>    H        2.08536         0.84216        -4.65951
| 86>    H        3.54135         3.51319        -4.31185
| 87>    H        2.03285         3.31312        -5.20978
| 88>    H        3.49190         2.50411        -5.76900
| 89>    H        9.14100        -0.42218        -1.05484
| 90>    H        9.43613        -1.28945        -2.57910
| 91>    H        7.89221        -2.36032        -0.15472
| 92>    H        9.51251        -2.85681        -0.64742
| 93>    H        8.12233        -3.25118        -1.66355
| 94>    H        8.20038        -2.54507        -4.05108
| 95>    H        5.54555        -1.96353        -5.47132
| 96>    H       10.71411        -8.15604        -8.80771
| 97>    H        8.89210        -7.59996       -10.72186
| 98>    H       -1.03455        -1.51923       -10.00673
| 99>    H       -0.07131         0.87798        -9.22683
|100>    H        5.94565        -0.61695        -7.43969
|101> *
|102>
|103>                          ****END OF INPUT****

CARTESIAN COORDINATES (ANGSTROEM)
---------------------------------
  C      1.699640    0.798880   -0.877720
  N      0.498640    0.362800   -0.665860
  C     -0.262750    1.472440   -0.429310
  C      0.559270    2.693450   -0.507760
  C     -0.272240    3.900650   -0.289060
  O      0.028110    5.060560   -0.386930
  C     -1.591720    3.307020    0.033350
  C     -1.536480    1.823240   -0.091560
  N     -2.745640    1.277280    0.202420
  C     -3.513630    2.286730    0.505570
  C     -2.852440    3.587070    0.430270
  C      1.831360    2.263240   -0.779320
  C      3.053350    2.994740   -0.867050
  N      3.252610    4.088800   -0.164010
  C      4.535370    4.450120   -0.374930
  C      5.203330    3.496370   -1.274210
  C      6.601800    3.897280   -1.537550
  O      7.397670    3.396080   -2.293150
  C      6.739740    5.094490   -0.684600
  C      5.450480    5.403240   -0.008900
  N      5.569230    6.515340    0.755350
  C      6.808370    6.905830    0.605280
  C      7.595350    6.064730   -0.284700
  C      4.261290    2.568610   -1.614390
  C      4.507270    1.426260   -2.440360
  N      3.747020    0.964140   -3.477450
  C      2.574350    1.596440   -4.037760
  C      2.939190    2.810830   -4.884820
  C      4.377960   -0.118990   -4.129150
  O      3.892190   -0.694300   -5.081370
  C      5.604830   -0.329230   -3.384290
  C      5.639290    0.628280   -2.345770
  C      6.838040    0.416110   -1.556300
  O      7.253470    0.938150   -0.549740
  N      7.489270   -0.643820   -2.223700
  C      8.742620   -1.173480   -1.742090
  C      8.552680   -2.497870   -1.007500
  C      6.780010   -1.090170   -3.308100
  C      7.236680   -2.083030   -4.206930
  C      6.511500   -2.421230   -5.308570
  C      6.954980   -3.323370   -6.302350
  N      7.987330   -4.145630   -6.173950
  C      8.044420   -4.850960   -7.314110
  C      6.969330   -4.452450   -8.249810
  C      7.080940   -5.201070   -9.524550
  O      6.437390   -5.073630  -10.535390
  C      8.211930   -6.109210   -9.250180
  C      8.776730   -5.852340   -7.905120
  N      9.824690   -6.674120   -7.661480
  C      9.940380   -7.410920   -8.740330
  C      8.964620   -7.111570   -9.770560
  C      6.267860   -3.476790   -7.611440
  C      5.153970   -2.664630   -8.000860
  N      4.032630   -3.141640   -8.502560
  C      3.211770   -2.079090   -8.631740
  C      3.889900   -0.831230   -8.184520
  C      2.967570    0.318280   -8.265040
  O      3.163760    1.466740   -7.940780
  C      1.744550   -0.297150   -8.810880
  C      1.940180   -1.756310   -9.013560
  N      0.809610   -2.319420   -9.509970
  C     -0.044000   -1.336470   -9.626440
  C      0.472580   -0.045900   -9.207880
  C      5.125670   -1.206650   -7.799760
  H      2.507710    0.115880   -1.075430
  H     -4.543060    2.126220    0.776240
  H     -3.312500    4.530390    0.647580
  H      7.169450    7.778770    1.121220
  H      8.625980    6.218430   -0.535910
  H      1.897130    1.881970   -3.228740
  H      2.085360    0.842160   -4.659510
  H      3.541350    3.513190   -4.311850
  H      2.032850    3.313120   -5.209780
  H      3.491900    2.504110   -5.769000
  H      9.141000   -0.422180   -1.054840
  H      9.436130   -1.289450   -2.579100
  H      7.892210   -2.360320   -0.154720
  H      9.512510   -2.856810   -0.647420
  H      8.122330   -3.251180   -1.663550
  H      8.200380   -2.545070   -4.051080
  H      5.545550   -1.963530   -5.471320
  H     10.714110   -8.156040   -8.807710
  H      8.892100   -7.599960  -10.721860
  H     -1.034550   -1.519230  -10.006730
  H     -0.071310    0.877980   -9.226830
  H      5.945650   -0.616950   -7.439690

 Total Charge           Charge          ....    0
 Multiplicity           Mult            ....    1
 Number of Electrons    NEL             ....  428
 Basis Dimension        Dim             .... 1006

ORBITAL ENERGIES
----------------

  NO   OCC          E(Eh)            E(eV)
   0   2.0000     -19.225195      -523.1441
   1   2.0000     -19.218948      -522.9742
   2   2.0000     -19.211914      -522.7828
   3   2.0000     -19.210960      -522.7568
   4   2.0000     -19.210195      -522.7360
   5   2.0000     -19.198694      -522.4230
   6   2.0000     -14.470473      -393.7616
   7   2.0000     -14.463469      -393.5710
   8   2.0000     -14.430409      -392.6714
   9   2.0000     -14.426861      -392.5748
  10   2.0000     -14.423144      -392.4737
  11   2.0000     -14.416913      -392.3041
  12   2.0000     -14.415906      -392.2767
  13   2.0000     -14.408958      -392.0877
  14   2.0000     -14.408666      -392.0797
  15   2.0000     -14.406135      -392.0109
  16   2.0000     -10.392447      -282.7929
  17   2.0000     -10.387097      -282.6473
  18   2.0000     -10.383286      -282.5436
  19   2.0000     -10.379703      -282.4461
  20   2.0000     -10.372438      -282.2484
  21   2.0000     -10.371297      -282.2173
  22   2.0000     -10.361092      -281.9397
  23   2.0000     -10.357391      -281.8389
  24   2.0000     -10.355236      -281.7803
  25   2.0000     -10.351835      -281.6878
  26   2.0000     -10.351749      -281.6854
  27   2.0000     -10.350525      -281.6521
  28   2.0000     -10.350316      -281.6464
  29   2.0000     -10.347487      -281.5694
  30   2.0000     -10.344412      -281.4858
  31   2.0000     -10.342754      -281.4406
  32   2.0000     -10.341166      -281.3974
  33   2.0000     -10.339624      -281.3555
  34   2.0000     -10.337454      -281.2964
  35   2.0000     -10.330593      -281.1097
  36   2.0000     -10.330238      -281.1001
  37   2.0000     -10.329998      -281.0935
  38   2.0000     -10.327133      -281.0156
  39   2.0000     -10.326506      -280.9985
  40   2.0000     -10.321929      -280.8740
  41   2.0000     -10.321777      -280.8698
  42   2.0000     -10.319355      -280.8039
  43   2.0000     -10.316312      -280.7211
  44   2.0000     -10.313827      -280.6535
  45   2.0000     -10.313804      -280.6529
  46   2.0000     -10.310669      -280.5676
  47   2.0000     -10.309567      -280.5376
  48   2.0000     -10.308963      -280.5212
  49   2.0000     -10.308378      -280.5052
  50   2.0000     -10.304788      -280.4075
  51   2.0000     -10.301294      -280.3125
  52   2.0000     -10.301282      -280.3121
  53   2.0000     -10.300390      -280.2879
  54   2.0000     -10.292954      -280.0855
  55   2.0000     -10.292253      -280.0664
  56   2.0000     -10.291588      -280.0483
  57   2.0000     -10.291391      -280.0430
  58   2.0000     -10.290372      -280.0153
  59   2.0000     -10.289361      -279.9877
  60   2.0000     -10.280514      -279.7470
  61   2.0000     -10.276137      -279.6279
  62   2.0000     -10.267966      -279.4056
  63   2.0000     -10.257351      -279.1167
  64   2.0000      -1.150293       -31.3011
  65   2.0000      -1.142378       -31.0857
  66   2.0000      -1.139218       -30.9997
  67   2.0000      -1.133611       -30.8471
  68   2.0000      -1.126788       -30.6615
  69   2.0000      -1.125529       -30.6272
  70   2.0000      -1.099282       -29.9130
  71   2.0000      -1.092203       -29.7204
  72   2.0000      -1.084746       -29.5174
  73   2.0000      -1.080479       -29.4013
  74   2.0000      -1.079568       -29.3765
  75   2.0000      -1.076390       -29.2900
  76   2.0000      -1.072239       -29.1771
  77   2.0000      -1.068381       -29.0721
  78   2.0000      -1.064169       -28.9575
  79   2.0000      -1.058672       -28.8079
  80   2.0000      -0.954856       -25.9830
  81   2.0000      -0.949363       -25.8335
  82   2.0000      -0.945199       -25.7202
  83   2.0000      -0.939346       -25.5609
  84   2.0000      -0.935618       -25.4595
  85   2.0000      -0.920319       -25.0432
  86   2.0000      -0.913416       -24.8553
  87   2.0000      -0.897697       -24.4276
  88   2.0000      -0.893516       -24.3138
  89   2.0000      -0.881021       -23.9738
  90   2.0000      -0.877362       -23.8742
  91   2.0000      -0.868196       -23.6248
  92   2.0000      -0.864181       -23.5156
  93   2.0000      -0.862503       -23.4699
  94   2.0000      -0.855600       -23.2821
  95   2.0000      -0.830433       -22.5972
  96   2.0000      -0.826699       -22.4956
  97   2.0000      -0.809328       -22.0229
  98   2.0000      -0.805115       -21.9083
  99   2.0000      -0.787549       -21.4303
 100   2.0000      -0.784748       -21.3541
 101   2.0000      -0.766204       -20.8495
 102   2.0000      -0.765045       -20.8179
 103   2.0000      -0.764316       -20.7981
 104   2.0000      -0.757099       -20.6017
 105   2.0000      -0.753438       -20.5021
 106   2.0000      -0.750463       -20.4211
 107   2.0000      -0.726007       -19.7557
 108   2.0000      -0.722911       -19.6714
 109   2.0000      -0.718303       -19.5460
 110   2.0000      -0.715106       -19.4590
 111   2.0000      -0.707638       -19.2558
 112   2.0000      -0.700699       -19.0670
 113   2.0000      -0.668832       -18.1998
 114   2.0000      -0.667436       -18.1619
 115   2.0000      -0.661798       -18.0084
 116   2.0000      -0.659491       -17.9457
 117   2.0000      -0.655077       -17.8255
 118   2.0000      -0.652280       -17.7494
 119   2.0000      -0.649507       -17.6740
 120   2.0000      -0.648383       -17.6434
 121   2.0000      -0.637909       -17.3584
 122   2.0000      -0.634818       -17.2743
 123   2.0000      -0.626746       -17.0546
 124   2.0000      -0.614102       -16.7106
 125   2.0000      -0.613649       -16.6982
 126   2.0000      -0.610448       -16.6111
 127   2.0000      -0.602669       -16.3995
 128   2.0000      -0.599365       -16.3096
 129   2.0000      -0.597853       -16.2684
 130   2.0000      -0.584244       -15.8981
 131   2.0000      -0.582944       -15.8627
 132   2.0000      -0.578551       -15.7432
 133   2.0000      -0.574609       -15.6359
 134   2.0000      -0.572908       -15.5896
 135   2.0000      -0.567026       -15.4296
 136   2.0000      -0.564887       -15.3713
 137   2.0000      -0.562228       -15.2990
 138   2.0000      -0.560067       -15.2402
 139   2.0000      -0.553507       -15.0617
 140   2.0000      -0.551829       -15.0160
 141   2.0000      -0.548515       -14.9259
 142   2.0000      -0.546808       -14.8794
 143   2.0000      -0.543991       -14.8028
 144   2.0000      -0.538949       -14.6655
 145   2.0000      -0.536509       -14.5992
 146   2.0000      -0.535754       -14.5786
 147   2.0000      -0.533906       -14.5283
 148   2.0000      -0.530408       -14.4331
 149   2.0000      -0.530061       -14.4237
 150   2.0000      -0.530014       -14.4224
 151   2.0000      -0.524288       -14.2666
 152   2.0000      -0.520811       -14.1720
 153   2.0000      -0.520629       -14.1670
 154   2.0000      -0.517562       -14.0836
 155   2.0000      -0.514905       -14.0113
 156   2.0000      -0.511869       -13.9287
 157   2.0000      -0.505452       -13.7541
 158   2.0000      -0.504233       -13.7209
 159   2.0000      -0.499875       -13.6023
 160   2.0000      -0.495482       -13.4827
 161   2.0000      -0.494085       -13.4447
 162   2.0000      -0.492767       -13.4089
 163   2.0000      -0.489261       -13.3135
 164   2.0000      -0.487162       -13.2563
 165   2.0000      -0.486669       -13.2429
 166   2.0000      -0.483417       -13.1545
 167   2.0000      -0.481302       -13.0969
 168   2.0000      -0.480846       -13.0845
 169   2.0000      -0.477275       -12.9873
 170   2.0000      -0.475809       -12.9474
 171   2.0000      -0.474313       -12.9067
 172   2.0000      -0.473128       -12.8745
 173   2.0000      -0.471824       -12.8390
 174   2.0000      -0.470412       -12.8006
 175   2.0000      -0.469152       -12.7663
 176   2.0000      -0.467452       -12.7200
 177   2.0000      -0.463379       -12.6092
 178   2.0000      -0.458129       -12.4663
 179   2.0000      -0.456341       -12.4177
 180   2.0000      -0.451234       -12.2787
 181   2.0000      -0.444803       -12.1037
 182   2.0000      -0.433363       -11.7924
 183   2.0000      -0.429788       -11.6951
 184   2.0000      -0.422236       -11.4896
 185   2.0000      -0.385612       -10.4930
 186   2.0000      -0.383028       -10.4227
 187   2.0000      -0.373330       -10.1588
 188   2.0000      -0.372445       -10.1347
 189   2.0000      -0.371735       -10.1154
 190   2.0000      -0.368626       -10.0308
 191   2.0000      -0.363896        -9.9021
 192   2.0000      -0.363375        -9.8879
 193   2.0000      -0.358629        -9.7588
 194   2.0000      -0.357160        -9.7188
 195   2.0000      -0.357072        -9.7164
 196   2.0000      -0.355322        -9.6688
 197   2.0000      -0.353561        -9.6209
 198   2.0000      -0.353053        -9.6071
 199   2.0000      -0.351242        -9.5578
 200   2.0000      -0.345385        -9.3984
 201   2.0000      -0.343478        -9.3465
 202   2.0000      -0.341420        -9.2905
 203   2.0000      -0.338809        -9.2195
 204   2.0000      -0.337864        -9.1938
 205   2.0000      -0.336352        -9.1526
 206   2.0000      -0.330236        -8.9862
 207   2.0000      -0.329099        -8.9552
 208   2.0000      -0.328104        -8.9282
 209   2.0000      -0.327975        -8.9246
 210   2.0000      -0.321938        -8.7604
 211   2.0000      -0.319126        -8.6839
 212   2.0000      -0.310998        -8.4627
 213   2.0000      -0.255857        -6.9622
 214   0.0000      -0.136677        -3.7192
 215   0.0000      -0.130021        -3.5381
 216   0.0000      -0.110460        -3.0058
 217   0.0000      -0.105392        -2.8679
 218   0.0000      -0.070116        -1.9080

MULLIKEN ATOMIC CHARGES
-----------------------
   0 C :    0.060107
   1 N :   -0.019978
   2 C :    0.033174
   3 C :   -0.058121
   4 C :    0.210745
   5 O :   -0.082937
   6 C :   -0.047011
   7 C :    0.024295
   8 N :   -0.047084
   9 C :    0.102145
  10 C :   -0.087812
  11 C :   -0.125013
  12 C :    0.025302
  13 N :   -0.004243
  14 C :    0.074468
  15 C :   -0.130332
  16 C :    0.230227
  17 O :   -0.115196
  18 C :   -0.038492
  19 C :   -0.008687
  20 N :   -0.048759
  21 C :    0.101243
  22 C :   -0.085226
  23 C :    0.008466
  24 C :    0.008865
  25 N :   -0.244390
  26 C :    0.091210
  27 C :    0.003945
  28 C :    0.183520
  29 O :   -0.194398
  30 C :   -0.080489
  31 C :    0.000041
  32 C :    0.147186
  33 O :   -0.178099
  34 N :   -0.263028
  35 C :    0.095728
  36 C :    0.002150
  37 C :    0.143632
  38 C :    0.012031
  39 C :   -0.063202
  40 C :    0.034424
  41 N :   -0.034993
  42 C :    0.046723
  43 C :   -0.092825
  44 C :    0.205918
  45 O :   -0.099356
  46 C :   -0.056957
  47 C :    0.003984
  48 N :   -0.054308
  49 C :    0.093611
  50 C :   -0.084621
  51 C :    0.056987
  52 C :   -0.053617
  53 N :   -0.015765
  54 C :    0.062162
  55 C :   -0.005603
  56 C :    0.228457
  57 O :   -0.128875
  58 C :   -0.041676
  59 C :   -0.010800
  60 N :   -0.047971
  61 C :    0.092764
  62 C :   -0.096134
  63 C :   -0.098194
  64 H :    0.028502
  65 H :    0.023291
  66 H :    0.006424
  67 H :    0.017547
  68 H :    0.001550
  69 H :    0.029616
  70 H :    0.045698
  71 H :    0.016300
  72 H :    0.022096
  73 H :    0.047999
  74 H :    0.049066
  75 H :    0.030414
  76 H :    0.029577
  77 H :    0.028363
  78 H :    0.020511
  79 H :    0.004671
  80 H :    0.043941
  81 H :    0.014056
  82 H :   -0.002959
  83 H :    0.011567
  84 H :   -0.004647
  85 H :   -0.002899
Sum of atomic charges:   -0.0000000

LOEWDIN ATOMIC CHARGES
----------------------
   0 C :    0.088368
   1 N :   -0.076115
   2 C :    0.037785
   3 C :    0.000165
   4 C :    0.065248
   5 O :   -0.098011
   6 C :   -0.032187
   7 C :    0.052815
   8 N :   -0.090054
   9 C :    0.098560
  10 C :   -0.025156
  11 C :   -0.070712
  12 C :    0.063122
  13 N :   -0.071920
  14 C :    0.039795
  15 C :   -0.006094
  16 C :    0.070814
  17 O :   -0.119105
  18 C :   -0.032034
  19 C :    0.047156
  20 N :   -0.091235
  21 C :    0.092032
  22 C :   -0.028199
  23 C :   -0.054412
  24 C :    0.066659
  25 N :    0.006551
  26 C :    0.034301
  27 C :   -0.060459
  28 C :    0.086897
  29 O :   -0.179753
  30 C :   -0.109044
  31 C :   -0.104836
  32 C :    0.085681
  33 O :   -0.179227
  34 N :    0.002212
  35 C :    0.037742
  36 C :   -0.059956
  37 C :    0.073900
  38 C :    0.023443
  39 C :   -0.006485
  40 C :    0.062518
  41 N :   -0.101781
  42 C :    0.038632
  43 C :   -0.004682
  44 C :    0.064342
  45 O :   -0.114111
  46 C :   -0.039772
  47 C :    0.032106
  48 N :   -0.098916
  49 C :    0.082891
  50 C :   -0.035075
  51 C :   -0.042470
  52 C :    0.062056
  53 N :   -0.081862
  54 C :    0.049553
  55 C :   -0.025548
  56 C :    0.072847
  57 O :   -0.136133
  58 C :   -0.037546
  59 C :    0.034754
  60 N :   -0.091050
  61 C :    0.079620
  62 C :   -0.037022
  63 C :   -0.016032
  64 H :    0.030831
  65 H :    0.029401
  66 H :    0.039305
  67 H :    0.027333
  68 H :    0.037546
  69 H :    0.021809
  70 H :    0.038723
  71 H :    0.021846
  72 H :    0.032557
  73 H :    0.032850
  74 H :    0.040056
  75 H :    0.026190
  76 H :    0.032118
  77 H :    0.033268
  78 H :    0.024098
  79 H :    0.042626
  80 H :    0.040405
  81 H :    0.025284
  82 H :    0.035826
  83 H :    0.024763
  84 H :    0.034117
  85 H :    0.033476

  Mayer bond orders larger than 0.100000
B(  0-C ,  1-N ) :   1.7342 B(  0-C , 11-C ) :   1.0508 B(  0-C , 64-H ) :   0.9889
B(  1-N ,  2-C ) :   1.2772 B(  2-C ,  3-C ) :   1.0479 B(  2-C ,  7-C ) :   1.4788
B(  3-C ,  4-C ) :   0.8670 B(  3-C , 11-C ) :   1.6323 B(  4-C ,  5-O ) :   2.3435
B(  4-C ,  6-C ) :   0.8747 B(  6-C ,  7-C ) :   1.0267 B(  6-C , 10-C ) :   1.6596
B(  7-C ,  8-N ) :   1.2881 B(  8-N ,  9-C ) :   1.6836 B(  9-C , 10-C ) :   1.0403
B(  9-C , 65-H ) :   0.9872 B( 10-C , 66-H ) :   1.0100 B( 11-C , 12-C ) :   1.0001
B( 12-C , 13-N ) :   1.6877 B( 12-C , 14-C ) :   0.1284 B( 12-C , 23-C ) :   1.0449
B( 13-N , 14-C ) :   1.3198 B( 14-C , 15-C ) :   1.0477 B( 14-C , 19-C ) :   1.4297
B( 15-C , 16-C ) :   0.8752 B( 15-C , 23-C ) :   1.6371 B( 16-C , 17-O ) :   2.2833
B( 16-C , 18-C ) :   0.8936 B( 18-C , 19-C ) :   1.0428 B( 18-C , 22-C ) :   1.6391
B( 19-C , 20-N ) :   1.3047 B( 20-N , 21-C ) :   1.6628 B( 21-C , 22-C ) :   1.0514
B( 21-C , 67-H ) :   0.9883 B( 22-C , 68-H ) :   1.0089 B( 23-C , 24-C ) :   0.9539
B( 24-C , 25-N ) :   1.2261 B( 24-C , 31-C ) :   1.4406 B( 25-N , 26-C ) :   0.9334
B( 25-N , 28-C ) :   1.0416 B( 26-C , 27-C ) :   1.1178 B( 26-C , 69-H ) :   0.9437
B( 26-C , 70-H ) :   0.9279 B( 27-C , 71-H ) :   0.9654 B( 27-C , 72-H ) :   0.9652
B( 27-C , 73-H ) :   0.9534 B( 28-C , 29-O ) :   2.0093 B( 28-C , 30-C ) :   0.9862
B( 29-O , 80-H ) :   0.1082 B( 30-C , 31-C ) :   1.2377 B( 30-C , 37-C ) :   1.3342
B( 31-C , 32-C ) :   0.9509 B( 32-C , 33-O ) :   2.1549 B( 32-C , 34-N ) :   1.0269
B( 34-N , 35-C ) :   0.9386 B( 34-N , 37-C ) :   1.1755 B( 35-C , 36-C ) :   1.1219
B( 35-C , 74-H ) :   0.9283 B( 35-C , 75-H ) :   0.9497 B( 36-C , 76-H ) :   0.9635
B( 36-C , 77-H ) :   0.9678 B( 36-C , 78-H ) :   0.9690 B( 37-C , 38-C ) :   1.1169
B( 38-C , 39-C ) :   1.5825 B( 38-C , 79-H ) :   0.9890 B( 39-C , 40-C ) :   1.1325
B( 39-C , 80-H ) :   0.9327 B( 40-C , 41-N ) :   1.5879 B( 40-C , 42-C ) :   0.1058
B( 40-C , 51-C ) :   1.0536 B( 41-N , 42-C ) :   1.3619 B( 42-C , 43-C ) :   1.0417
B( 42-C , 47-C ) :   1.3922 B( 43-C , 44-C ) :   0.8654 B( 43-C , 51-C ) :   1.6706
B( 44-C , 45-O ) :   2.3347 B( 44-C , 46-C ) :   0.8853 B( 46-C , 47-C ) :   1.0449
B( 46-C , 50-C ) :   1.6186 B( 47-C , 48-N ) :   1.3227 B( 48-N , 49-C ) :   1.6439
B( 49-C , 50-C ) :   1.0733 B( 49-C , 81-H ) :   0.9888 B( 50-C , 82-H ) :   1.0090
B( 51-C , 52-C ) :   0.9160 B( 52-C , 53-N ) :   1.6756 B( 52-C , 54-C ) :   0.1331
B( 52-C , 63-C ) :   1.0564 B( 53-N , 54-C ) :   1.3230 B( 54-C , 55-C ) :   1.0258
B( 54-C , 59-C ) :   1.4452 B( 55-C , 56-C ) :   0.8703 B( 55-C , 63-C ) :   1.6271
B( 56-C , 57-O ) :   2.2594 B( 56-C , 58-C ) :   0.8933 B( 58-C , 59-C ) :   1.0374
B( 58-C , 62-C ) :   1.6193 B( 59-C , 60-N ) :   1.3019 B( 60-N , 61-C ) :   1.6714
B( 61-C , 62-C ) :   1.0649 B( 61-C , 83-H ) :   0.9889 B( 62-C , 84-H ) :   1.0106
B( 63-C , 85-H ) :   1.0098

-----------------------------------------------------------------------------
         ABSORPTION SPECTRUM VIA TRANSITION ELECTRIC DIPOLE MOMENTS
-----------------------------------------------------------------------------
State   Energy  Wavelength   fosc         T2         TX        TY        TZ
        (cm-1)    (nm)                  (au**2)     (au)      (au)      (au)
-----------------------------------------------------------------------------
   0   10516.2    950.9   0.146850898   4.59718  -0.50697   1.77591   1.08917
   1   12846.7    778.4   0.439416068  11.26058  -1.56512   2.40072   1.74572
   2   16329.7    612.4   0.001974483   0.03981   0.14580   0.11394   0.07460
   3   17114.7    584.3   0.017949128   0.34526   0.17634  -0.27144  -0.49040
   4   20209.6    494.8   0.000337791   0.00550  -0.01891  -0.06772  -0.02363
   5   20500.4    487.8   0.001423711   0.02286   0.14284   0.03187   0.03801
   6   20862.2    479.3   0.001974032   0.03115   0.15346   0.04883   0.07223
   7   21534.7    464.4   0.039091484   0.59761  -0.49953   0.58311   0.08977
   8   22251.7    449.4   0.001259939   0.01864   0.12704   0.00721  -0.04950
   9   22897.5    436.7   0.272548596   3.91861  -1.88833  -0.58316   0.11280
  10   23343.4    428.4   0.023380399   0.32973  -0.31046   0.31475  -0.36644
  11   23923.1    418.0   0.029084523   0.40024  -0.20744   0.55049   0.23275
  12   24056.5    415.7   0.032932249   0.45068   0.63097  -0.15452  -0.16933
  13   24488.5    408.4   0.015977920   0.21480   0.39287  -0.05366  -0.23995
  14   24746.0    404.1   0.031744119   0.42231   0.34724  -0.46577  -0.29120
  15   24851.6    402.4   0.000935394   0.01239  -0.08789  -0.06739   0.01118
  16   24968.2    400.5   0.035293097   0.46535  -0.60351   0.31443  -0.04745
  17   25533.2    391.6   0.121964631   1.57255   0.31826  -0.91974  -0.79079
  18   25600.2    390.6   0.029906983   0.38460   0.23425  -0.54511  -0.18049
  19   25749.6    388.4   0.014158209   0.18101  -0.33169  -0.25271   0.08447
  20   25791.4    387.7   0.030204087   0.38554   0.58776  -0.15188  -0.13040
  21   25915.7    385.9   0.001621449   0.02060  -0.13817   0.01223  -0.03682
  22   26069.5    383.6   0.038508849   0.48630  -0.13608  -0.37807  -0.56996
  23   26287.0    380.4   0.042663568   0.53431  -0.64945  -0.32759   0.07213
  24   26507.5    377.3   0.219869216   2.73069  -0.22812  -0.97807  -1.31226
  25   26545.3    376.7   0.036333161   0.45060  -0.11750  -0.61927  -0.23085
  26   26747.9    373.9   0.211573122   2.60403   0.73001  -1.16812  -0.84061
  27   26937.4    371.2   0.056292315   0.68797  -0.67152  -0.48396   0.05312
  28   27501.8    363.6   0.094012594   1.12539  -0.91060  -0.46145   0.28856
  29   27549.1    363.0   0.064823981   0.77465   0.70333  -0.52510   0.06512
  30   27772.5    360.1   0.045939679   0.54456   0.67317  -0.18384  -0.24003
  31   27993.6    357.2   0.041612729   0.48938   0.52160  -0.44580   0.13630
  32   28286.0    353.5   0.117389726   1.36626   0.49595   0.88802   0.57596
  33   28364.4    352.6   0.052172837   0.60555  -0.77069   0.03463  -0.10191
  34   28378.0    352.4   0.006754409   0.07836   0.02114  -0.27273  -0.05942
  35   28521.4    350.6   0.035854067   0.41385  -0.31576   0.55594  -0.07125
  36   28693.6    348.5   0.073412598   0.84229  -0.69107  -0.04768  -0.60203
  37   28979.8    345.1   0.041540069   0.47190  -0.61479   0.23584   0.19574
  38   29262.7    341.7   0.518000332   5.82762  -2.11740   0.93851  -0.68077
  39   29800.9    335.6   0.040374543   0.44602  -0.54861  -0.29860   0.23640
  40   29928.4    334.1   0.301167968   3.31284  -1.78603  -0.32909   0.12093
  41   30130.1    331.9   0.089361649   0.97640   0.80337  -0.42890  -0.38346
  42   30609.7    326.7   0.061430973   0.66070   0.76154  -0.14323  -0.24544
  43   30685.8    325.9   0.011856235   0.12720   0.33781  -0.11414  -0.00725
  44   30716.2    325.6   0.067902854   0.72777   0.75312  -0.40069  -0.00592
  45   30745.6    325.2   0.131970405   1.41309  -0.01852  -0.97629  -0.67794
  46   31298.0    319.5   0.061898752   0.65109   0.12437  -0.66235  -0.44374
  47   31398.1    318.5   0.108279825   1.13532  -1.05295  -0.05277   0.15440
  48   31647.7    316.0   0.010775353   0.11209   0.31306   0.11507   0.02897
  49   31694.7    315.5   0.042933878   0.44595   0.61626  -0.12610  -0.22421
  50   32006.3    312.4   0.004967515   0.05110  -0.14201  -0.05032  -0.16851
  51   32012.2    312.4   0.006786673   0.06979   0.12526   0.20620   0.10764
  52   32494.2    307.7   0.148814383   1.50770   0.50363   0.83080   0.75088
  53   32716.8    305.7   0.003100352   0.03120  -0.16442  -0.03427  -0.05468
  54   32831.9    304.6   0.088428793   0.88669  -0.69368  -0.61435  -0.16757
  55   32885.5    304.1   0.046004474   0.46054   0.42115   0.22751   0.48106
  56   33053.7    302.5   0.012595963   0.12545  -0.07193   0.10066  -0.33189
  57   33453.4    298.9   0.023579785   0.23205   0.24210   0.28729   0.30150
  58   33577.4    297.8   0.003639130   0.03568  -0.17272   0.06166  -0.04523
  59   33778.6    296.0   0.027913672   0.27205  -0.15573   0.39641   0.30110
  60   33919.7    294.8   0.000120883   0.00117   0.01838   0.01156   0.02650
  61   34098.5    293.3   0.003684397   0.03557   0.11738   0.11598   0.09133
  62   34154.1    292.8   0.007439738   0.07171   0.22900   0.03487   0.13437
  63   34308.9    291.5   0.000354824   0.00340   0.04957  -0.03074   0.00173
  64   34500.0    289.9   0.003184832   0.03039   0.08223   0.03790   0.14897
  65   34681.5    288.3   0.012401923   0.11772  -0.24148  -0.22796  -0.08629
  66   34734.1    287.9   0.012056554   0.11427  -0.29821  -0.13151  -0.08973
  67   34953.1    286.1   0.015701776   0.14789  -0.37880  -0.02056   0.06308
  68   35165.1    284.4   0.032968015   0.30864   0.27118   0.38075   0.30023
  69   35330.8    283.0   0.018131966   0.16895   0.27037  -0.05670  -0.30437
  70   35394.0    282.5   0.006040861   0.05619  -0.20320   0.04052  -0.11514
  71   35482.6    281.8   0.003983248   0.03696   0.16211  -0.02877   0.09925
  72   35704.6    280.1   0.012528028   0.11551  -0.23787   0.24262   0.00813
  73   35808.8    279.3   0.043822848   0.40289   0.60564  -0.00427   0.18993
  74   36099.0    277.0   0.006257239   0.05706   0.18197   0.09922   0.11876
  75   36137.1    276.7   0.023312132   0.21238   0.42843  -0.13825  -0.09854
  76   36198.2    276.3   0.015565746   0.14157   0.15220   0.32858   0.10217
  77   36454.4    274.3   0.001139171   0.01029   0.04547  -0.08664  -0.02671
  78   36616.0    273.1   0.011733614   0.10550  -0.11629   0.30298  -0.01322
  79   36737.5    272.2   0.012648461   0.11335   0.08569  -0.30677  -0.10906
  80   36907.0    271.0   0.001487289   0.01327   0.06486  -0.08944   0.03255
  81   37109.1    269.5   0.076009868   0.67432  -0.72695   0.23213   0.30328
  82   37172.9    269.0   0.001271299   0.01126  -0.06982   0.06061   0.05207
  83   37421.4    267.2   0.003044685   0.02679  -0.14976  -0.06532  -0.00949
  84   37617.9    265.8   0.000118410   0.00104   0.02374  -0.01133   0.01856
  85   37665.0    265.5   0.002822547   0.02467  -0.14814   0.01322  -0.05050
  86   38019.8    263.0   0.064862497   0.56164  -0.72915  -0.06597   0.16009
  87   38111.4    262.4   0.000739707   0.00639  -0.01518  -0.02967  -0.07266
  88   38202.1    261.8   0.016687789   0.14381  -0.32615  -0.13622  -0.13740
  89   38245.0    261.5   0.080795547   0.69549  -0.77478   0.10820   0.28894
  90   38651.3    258.7   0.057100166   0.48635   0.30881  -0.37551  -0.49998
  91   38724.1    258.2   0.044208401   0.37584   0.41769  -0.33619  -0.29723
  92   38769.9    257.9   0.005808508   0.04932  -0.13313   0.05756  -0.16818
  93   38836.1    257.5   0.043146856   0.36575  -0.46117   0.29566   0.25625
  94   38837.6    257.5   0.033128218   0.28082  -0.42589   0.19242   0.24982
  95   38882.7    257.2   0.018738019   0.15865   0.37187   0.13839   0.03478
  96   38963.0    256.7   0.033765463   0.28530   0.50551  -0.16639  -0.04555
  97   39110.8    255.7   0.005935529   0.04996  -0.07271   0.20384   0.05590
  98   39183.1    255.2   0.004150530   0.03487   0.11070   0.05381   0.14044
  99   39362.8    254.0   0.044467358   0.37190   0.36831  -0.42273   0.23991
 100   39430.5    253.6   0.024532474   0.20483  -0.12191  -0.29869  -0.31741
 101   39766.8    251.5   0.114085120   0.94446   0.10393  -0.79911  -0.54321
 102   39825.1    251.1   0.134377127   1.11082  -0.14087   0.85498   0.59999
 103   40089.3    249.4   0.048920698   0.40173   0.59151  -0.11943  -0.19387
 104   40195.4    248.8   0.032224215   0.26393   0.44936  -0.23270   0.08862
 105   40241.3    248.5   0.038085284   0.31157  -0.35386   0.36757  -0.22639

FINAL SINGLE POINT ENERGY     -2837.382459386162

DIPOLE MOMENT
-------------
                                X             Y             Z
Electronic contribution:     -9.12243       1.47790      -4.74387
Nuclear contribution   :      9.01675      -0.39696       5.74823
                        -----------------------------------------
Total Dipole Moment    :     -0.10567       1.08094       1.00436
                        -----------------------------------------
Magnitude (a.u.)       :      1.47930
Magnitude (Debye)      :      3.76008

Rotational constants in cm-1:     0.001757     0.000718     0.000584
Rotational constants in MHz :    52.669034    21.526635    17.497329

                             ****ORCA TERMINATED NORMALLY****
TOTAL RUN TIME: 0 days 0 hours 8 minutes 32 seconds 796 msec
