                         Program Version 4.2.0 -  RELEASE  -
|  1> # ORCA input file
|  2> # SCF done       -148.385463636112          0.000833762504
|  3> ! CAM-B3LYP def2-SVP def2/J RIJCOSX Grid4 TightSCF
|  4> %maxcore 5000
|  5> %tddft
|  6>     Mode sTDDFT
|  7>     Ethresh 5.0
|  8>     maxcore 5000
|  9> end
| 10>
| 11> %pal
| 12>   nprocs 6
| 13>   end
| 14> * xyz 0 1
| 15>    N       -3.14400        -1.95017        -0.44634
| 16>    C       -2.65367        -1.40007        -1.62470
| 17>    O       -3.17462        -0.51499        -2.24808
| 18>    C       -1.40348        -2.13716        -1.89882
| 19>    C       -1.19402        -3.05254        -0.93351
| 20>    C       -2.33977        -2.95230         0.04367
| 21>    O       -2.55178        -3.59627         1.03578
| 22>    C       -0.10445        -3.99365        -0.79299
| 23>    C        0.16805        -4.60580         0.42856
| 24>    C        1.22015        -5.49895         0.55097
| 25>    N        1.39686        -6.10854         1.84579
| 26>    O        1.00594        -5.48842         2.80913
| 27>    O        1.92057        -7.20411         1.89899
| 28>    C        2.05724        -5.81907        -0.53745
| 29>    C        1.75972        -5.19397        -1.75890
| 30>    C        0.71358        -4.31396        -1.88808
| 31>    C        3.20297        -6.68555        -0.40011
| 32>    C        3.74453        -7.38001        -1.42291
| 33>    C        4.88144        -8.23800        -1.41076
| 34>    N        5.54942        -8.80771        -0.35405
| 35>    C        5.23504        -8.74853         1.05520
| 36>    C        5.95522        -7.59289         1.74733
| 37>    C        6.65017        -9.57354        -0.78848
| 38>    O        7.38600       -10.17373        -0.02995
| 39>    C        6.63736        -9.45438        -2.22892
| 40>    C        5.52798        -8.64298        -2.57291
| 41>    C        5.49316        -8.50460        -4.00977
| 42>    O        4.74089        -7.91073        -4.75444
| 43>    N        6.59287        -9.26792        -4.45081
| 44>    C        6.93122        -9.34200        -5.85092
| 45>    C        8.06913        -8.39033        -6.21381
| 46>    C        7.28731        -9.82804        -3.40192
| 47>    C        8.45048       -10.62978        -3.56564
| 48>    C        9.12036       -11.14388        -2.50911
| 49>    C       10.32089       -11.93803        -2.56348
| 50>    C       10.90165       -12.34747        -1.35886
| 51>    C       12.06865       -13.08909        -1.34475
| 52>    N       12.66378       -13.32882        -0.04857
| 53>    O       11.91522       -13.59837         0.86274
| 54>    O       13.86459       -13.19663         0.04981
| 55>    C       12.69436       -13.49869        -2.53204
| 56>    C       12.11888       -13.06193        -3.73026
| 57>    C       10.97083       -12.30401        -3.75147
| 58>    C       13.85940       -14.36369        -2.58526
| 59>    C       14.06157       -15.39366        -1.76188
| 60>    N       15.16263       -16.24065        -1.79348
| 61>    C       16.28500       -16.16009        -2.61562
| 62>    O       16.46581       -15.37055        -3.50327
| 63>    C       17.18418       -17.26537        -2.17248
| 64>    C       16.60302       -17.93069        -1.17906
| 65>    C       15.27904       -17.31267        -0.89668
| 66>    O       14.44608       -17.63351        -0.09651
| 67>    H       -4.00159        -1.65689        -0.00288
| 68>    H       -0.79085        -1.90599        -2.74908
| 69>    H       -0.44410        -4.40265         1.29462
| 70>    H        2.38952        -5.39361        -2.61129
| 71>    H        0.51191        -3.86652        -2.84835
| 72>    H        3.62369        -6.76681         0.58795
| 73>    H        3.31225        -7.29993        -2.41248
| 74>    H        5.58735        -9.69007         1.48727
| 75>    H        4.15339        -8.68673         1.18693
| 76>    H        7.02961        -7.75458         1.71045
| 77>    H        5.64539        -7.54051         2.78705
| 78>    H        5.73562        -6.64214         1.26543
| 79>    H        6.02703        -9.05293        -6.39430
| 80>    H        7.18384       -10.37312        -6.11423
| 81>    H        7.77922        -7.36642        -5.99160
| 82>    H        8.28877        -8.46619        -7.27518
| 83>    H        8.97026        -8.62303        -5.65042
| 84>    H        8.78562       -10.80880        -4.57644
| 85>    H        8.74273       -10.94339        -1.51495
| 86>    H       10.45017       -12.06362        -0.41908
| 87>    H       12.58950       -13.34828        -4.65879
| 88>    H       10.56841       -11.99452        -4.70310
| 89>    H       14.55801       -14.16778        -3.38464
| 90>    H       13.36214       -15.68340        -0.98700
| 91>    H       18.13830       -17.43392        -2.63592
| 92>    H       16.96228       -18.77860        -0.62661
| 93> *
| 94>
| 95>                          ****END OF INPUT****

CARTESIAN COORDINATES (ANGSTROEM)
---------------------------------
  N     -3.144000   -1.950170   -0.446340
  C     -2.653670   -1.400070   -1.624700
  O     -3.174620   -0.514990   -2.248080
  C     -1.403480   -2.137160   -1.898820
  C     -1.194020   -3.052540   -0.933510
  C     -2.339770   -2.952300    0.043670
  O     -2.551780   -3.596270    1.035780
  C     -0.104450   -3.993650   -0.792990
  C      0.168050   -4.605800    0.428560
  C      1.220150   -5.498950    0.550970
  N      1.396860   -6.108540    1.845790
  O      1.005940   -5.488420    2.809130
  O      1.920570   -7.204110    1.898990
  C      2.057240   -5.819070   -0.537450
  C      1.759720   -5.193970   -1.758900
  C      0.713580   -4.313960   -1.888080
  C      3.202970   -6.685550   -0.400110
  C      3.744530   -7.380010   -1.422910
  C      4.881440   -8.238000   -1.410760
  N      5.549420   -8.807710   -0.354050
  C      5.235040   -8.748530    1.055200
  C      5.955220   -7.592890    1.747330
  C      6.650170   -9.573540   -0.788480
  O      7.386000  -10.173730   -0.029950
  C      6.637360   -9.454380   -2.228920
  C      5.527980   -8.642980   -2.572910
  C      5.493160   -8.504600   -4.009770
  O      4.740890   -7.910730   -4.754440
  N      6.592870   -9.267920   -4.450810
  C      6.931220   -9.342000   -5.850920
  C      8.069130   -8.390330   -6.213810
  C      7.287310   -9.828040   -3.401920
  C      8.450480  -10.629780   -3.565640
  C      9.120360  -11.143880   -2.509110
  C     10.320890  -11.938030   -2.563480
  C     10.901650  -12.347470   -1.358860
  C     12.068650  -13.089090   -1.344750
  N     12.663780  -13.328820   -0.048570
  O     11.915220  -13.598370    0.862740
  O     13.864590  -13.196630    0.049810
  C     12.694360  -13.498690   -2.532040
  C     12.118880  -13.061930   -3.730260
  C     10.970830  -12.304010   -3.751470
  C     13.859400  -14.363690   -2.585260
  C     14.061570  -15.393660   -1.761880
  N     15.162630  -16.240650   -1.793480
  C     16.285000  -16.160090   -2.615620
  O     16.465810  -15.370550   -3.503270
  C     17.184180  -17.265370   -2.172480
  C     16.603020  -17.930690   -1.179060
  C     15.279040  -17.312670   -0.896680
  O     14.446080  -17.633510   -0.096510
  H     -4.001590   -1.656890   -0.002880
  H     -0.790850   -1.905990   -2.749080
  H     -0.444100   -4.402650    1.294620
  H      2.389520   -5.393610   -2.611290
  H      0.511910   -3.866520   -2.848350
  H      3.623690   -6.766810    0.587950
  H      3.312250   -7.299930   -2.412480
  H      5.587350   -9.690070    1.487270
  H      4.153390   -8.686730    1.186930
  H      7.029610   -7.754580    1.710450
  H      5.645390   -7.540510    2.787050
  H      5.735620   -6.642140    1.265430
  H      6.027030   -9.052930   -6.394300
  H      7.183840  -10.373120   -6.114230
  H      7.779220   -7.366420   -5.991600
  H      8.288770   -8.466190   -7.275180
  H      8.970260   -8.623030   -5.650420
  H      8.785620  -10.808800   -4.576440
  H      8.742730  -10.943390   -1.514950
  H     10.450170  -12.063620   -0.419080
  H     12.589500  -13.348280   -4.658790
  H     10.568410  -11.994520   -4.703100
  H     14.558010  -14.167780   -3.384640
  H     13.362140  -15.683400   -0.987000
  H     18.138300  -17.433920   -2.635920
  H     16.962280  -18.778600   -0.626610

 Total Charge           Charge          ....    0
 Multiplicity           Mult            ....    1
 Number of Electrons    NEL             ....  364
 Basis Dimension        Dim             ....  858

ORBITAL ENERGIES
----------------

  NO   OCC          E(Eh)            E(eV)
   0   2.0000     -19.249236      -523.7983
   1   2.0000     -19.248660      -523.7827
   2   2.0000     -19.241031      -523.5751
   3   2.0000     -19.238755      -523.5131
   4   2.0000     -19.233660      -523.3745
   5   2.0000     -19.233115      -523.3597
   6   2.0000     -19.225606      -523.1553
   7   2.0000     -19.219228      -522.9818
   8   2.0000     -19.191475      -522.2266
   9   2.0000     -19.188160      -522.1364
  10   2.0000     -14.654382      -398.7660
  11   2.0000     -14.644369      -398.4936
  12   2.0000     -14.477874      -393.9630
  13   2.0000     -14.458070      -393.4241
  14   2.0000     -14.454038      -393.3144
  15   2.0000     -14.451492      -393.2451
  16   2.0000     -10.410808      -283.2925
  17   2.0000     -10.409577      -283.2590
  18   2.0000     -10.406756      -283.1822
  19   2.0000     -10.400563      -283.0137
  20   2.0000     -10.374675      -282.3093
  21   2.0000     -10.370763      -282.2028
  22   2.0000     -10.342469      -281.4329
  23   2.0000     -10.338139      -281.3151
  24   2.0000     -10.335599      -281.2459
  25   2.0000     -10.328620      -281.0560
  26   2.0000     -10.324926      -280.9555
  27   2.0000     -10.323147      -280.9071
  28   2.0000     -10.321768      -280.8696
  29   2.0000     -10.319216      -280.8001
  30   2.0000     -10.318321      -280.7758
  31   2.0000     -10.312772      -280.6248
  32   2.0000     -10.311521      -280.5908
  33   2.0000     -10.310568      -280.5648
  34   2.0000     -10.307214      -280.4735
  35   2.0000     -10.306398      -280.4513
  36   2.0000     -10.303725      -280.3786
  37   2.0000     -10.300468      -280.2900
  38   2.0000     -10.299919      -280.2750
  39   2.0000     -10.297886      -280.2197
  40   2.0000     -10.297417      -280.2070
  41   2.0000     -10.296498      -280.1819
  42   2.0000     -10.295844      -280.1642
  43   2.0000     -10.295785      -280.1625
  44   2.0000     -10.293900      -280.1113
  45   2.0000     -10.291742      -280.0525
  46   2.0000     -10.291231      -280.0386
  47   2.0000     -10.276928      -279.6494
  48   2.0000     -10.267639      -279.3967
  49   2.0000     -10.260433      -279.2006
  50   2.0000     -10.257808      -279.1292
  51   2.0000     -10.256339      -279.0892
  52   2.0000      -1.330054       -36.1926
  53   2.0000      -1.321427       -35.9579
  54   2.0000      -1.179118       -32.0854
  55   2.0000      -1.167759       -31.7763
  56   2.0000      -1.156087       -31.4587
  57   2.0000      -1.148469       -31.2514
  58   2.0000      -1.145640       -31.1744
  59   2.0000      -1.140242       -31.0276
  60   2.0000      -1.132548       -30.8182
  61   2.0000      -1.125330       -30.6218
  62   2.0000      -1.071766       -29.1642
  63   2.0000      -1.062868       -28.9221
  64   2.0000      -1.053099       -28.6563
  65   2.0000      -1.052903       -28.6509
  66   2.0000      -0.999107       -27.1871
  67   2.0000      -0.989590       -26.9281
  68   2.0000      -0.947405       -25.7802
  69   2.0000      -0.940732       -25.5986
  70   2.0000      -0.929361       -25.2892
  71   2.0000      -0.922447       -25.1011
  72   2.0000      -0.911824       -24.8120
  73   2.0000      -0.898069       -24.4377
  74   2.0000      -0.892008       -24.2728
  75   2.0000      -0.884664       -24.0729
  76   2.0000      -0.871588       -23.7171
  77   2.0000      -0.859270       -23.3819
  78   2.0000      -0.840988       -22.8844
  79   2.0000      -0.819145       -22.2901
  80   2.0000      -0.813727       -22.1426
  81   2.0000      -0.792355       -21.5611
  82   2.0000      -0.789443       -21.4818
  83   2.0000      -0.783978       -21.3331
  84   2.0000      -0.777060       -21.1449
  85   2.0000      -0.765956       -20.8427
  86   2.0000      -0.759282       -20.6611
  87   2.0000      -0.744039       -20.2463
  88   2.0000      -0.737234       -20.0612
  89   2.0000      -0.718335       -19.5469
  90   2.0000      -0.709871       -19.3166
  91   2.0000      -0.708488       -19.2789
  92   2.0000      -0.705422       -19.1955
  93   2.0000      -0.702160       -19.1067
  94   2.0000      -0.697849       -18.9894
  95   2.0000      -0.683198       -18.5908
  96   2.0000      -0.680080       -18.5059
  97   2.0000      -0.663387       -18.0517
  98   2.0000      -0.650706       -17.7066
  99   2.0000      -0.647881       -17.6297
 100   2.0000      -0.642098       -17.4724
 101   2.0000      -0.639156       -17.3923
 102   2.0000      -0.629216       -17.1218
 103   2.0000      -0.624130       -16.9834
 104   2.0000      -0.611712       -16.6455
 105   2.0000      -0.608588       -16.5605
 106   2.0000      -0.605865       -16.4864
 107   2.0000      -0.599184       -16.3046
 108   2.0000      -0.593654       -16.1542
 109   2.0000      -0.591617       -16.0987
 110   2.0000      -0.590088       -16.0571
 111   2.0000      -0.584972       -15.9179
 112   2.0000      -0.584257       -15.8984
 113   2.0000      -0.582088       -15.8394
 114   2.0000      -0.578995       -15.7552
 115   2.0000      -0.576513       -15.6877
 116   2.0000      -0.568311       -15.4645
 117   2.0000      -0.563970       -15.3464
 118   2.0000      -0.560985       -15.2652
 119   2.0000      -0.560337       -15.2476
 120   2.0000      -0.552019       -15.0212
 121   2.0000      -0.548691       -14.9307
 122   2.0000      -0.545700       -14.8493
 123   2.0000      -0.544716       -14.8225
 124   2.0000      -0.541499       -14.7349
 125   2.0000      -0.537698       -14.6315
 126   2.0000      -0.537637       -14.6298
 127   2.0000      -0.533097       -14.5063
 128   2.0000      -0.530468       -14.4348
 129   2.0000      -0.523096       -14.2342
 130   2.0000      -0.520169       -14.1545
 131   2.0000      -0.518182       -14.1005
 132   2.0000      -0.515244       -14.0205
 133   2.0000      -0.512852       -13.9554
 134   2.0000      -0.512065       -13.9340
 135   2.0000      -0.504029       -13.7153
 136   2.0000      -0.500375       -13.6159
 137   2.0000      -0.496740       -13.5170
 138   2.0000      -0.496189       -13.5020
 139   2.0000      -0.495633       -13.4869
 140   2.0000      -0.491252       -13.3676
 141   2.0000      -0.486309       -13.2331
 142   2.0000      -0.485190       -13.2027
 143   2.0000      -0.475430       -12.9371
 144   2.0000      -0.470590       -12.8054
 145   2.0000      -0.466280       -12.6881
 146   2.0000      -0.464792       -12.6476
 147   2.0000      -0.459921       -12.5151
 148   2.0000      -0.457264       -12.4428
 149   2.0000      -0.455503       -12.3949
 150   2.0000      -0.450293       -12.2531
 151   2.0000      -0.449008       -12.2181
 152   2.0000      -0.441880       -12.0242
 153   2.0000      -0.437490       -11.9047
 154   2.0000      -0.435799       -11.8587
 155   2.0000      -0.433815       -11.8047
 156   2.0000      -0.426091       -11.5945
 157   2.0000      -0.418672       -11.3926
 158   2.0000      -0.411145       -11.1878
 159   2.0000      -0.394051       -10.7227
 160   2.0000      -0.392920       -10.6919
 161   2.0000      -0.388548       -10.5729
 162   2.0000      -0.386612       -10.5203
 163   2.0000      -0.383154       -10.4262
 164   2.0000      -0.382475       -10.4077
 165   2.0000      -0.382045       -10.3960
 166   2.0000      -0.378051       -10.2873
 167   2.0000      -0.377728       -10.2785
 168   2.0000      -0.371611       -10.1120
 169   2.0000      -0.370861       -10.0916
 170   2.0000      -0.361332        -9.8324
 171   2.0000      -0.359414        -9.7801
 172   2.0000      -0.350870        -9.5477
 173   2.0000      -0.348153        -9.4737
 174   2.0000      -0.347611        -9.4590
 175   2.0000      -0.341150        -9.2832
 176   2.0000      -0.331294        -9.0150
 177   2.0000      -0.330539        -8.9944
 178   2.0000      -0.314277        -8.5519
 179   2.0000      -0.312916        -8.5149
 180   2.0000      -0.289137        -7.8678
 181   2.0000      -0.238233        -6.4827
 182   0.0000      -0.093232        -2.5370
 183   0.0000      -0.069905        -1.9022
 184   0.0000      -0.068995        -1.8774
 185   0.0000      -0.051345        -1.3972
 186   0.0000      -0.041290        -1.1235

MULLIKEN ATOMIC CHARGES
-----------------------
   0 N :   -0.142088
   1 C :    0.175016
   2 O :   -0.142662
   3 C :   -0.120000
   4 C :    0.007437
   5 C :    0.169507
   6 O :   -0.144208
   7 C :    0.088158
   8 C :   -0.049449
   9 C :    0.136616
  10 N :    0.246917
  11 O :   -0.220057
  12 O :   -0.240641
  13 C :    0.073607
  14 C :   -0.038104
  15 C :    0.016819
  16 C :    0.001270
  17 C :   -0.032801
  18 C :    0.097509
  19 N :   -0.259637
  20 C :    0.094709
  21 C :    0.004464
  22 C :    0.163684
  23 O :   -0.215250
  24 C :   -0.064906
  25 C :   -0.038769
  26 C :    0.146142
  27 O :   -0.198199
  28 N :   -0.266290
  29 C :    0.102760
  30 C :    0.001813
  31 C :    0.136022
  32 C :   -0.000758
  33 C :    0.011415
  34 C :    0.096183
  35 C :   -0.038872
  36 C :    0.111246
  37 N :    0.223567
  38 O :   -0.226147
  39 O :   -0.222492
  40 C :    0.090024
  41 C :   -0.022476
  42 C :    0.015063
  43 C :   -0.040945
  44 C :    0.097992
  45 N :   -0.242011
  46 C :    0.206871
  47 O :   -0.151427
  48 C :   -0.007357
  49 C :   -0.006526
  50 C :    0.197286
  51 O :   -0.140171
  52 H :    0.141793
  53 H :    0.008459
  54 H :    0.026241
  55 H :    0.004803
  56 H :   -0.010487
  57 H :    0.005474
  58 H :    0.014339
  59 H :    0.037160
  60 H :    0.044120
  61 H :    0.029824
  62 H :    0.027714
  63 H :    0.013858
  64 H :    0.042269
  65 H :    0.021702
  66 H :    0.030077
  67 H :    0.023378
  68 H :    0.014935
  69 H :   -0.035780
  70 H :    0.011519
  71 H :    0.015044
  72 H :   -0.014489
  73 H :   -0.018408
  74 H :    0.031903
  75 H :    0.038743
  76 H :    0.027598
  77 H :    0.028356
Sum of atomic charges:    0.0000000

LOEWDIN ATOMIC CHARGES
----------------------
   0 N :   -0.007555
   1 C :    0.078182
   2 O :   -0.141331
   3 C :   -0.027210
   4 C :   -0.021107
   5 C :    0.090223
   6 O :   -0.141173
   7 C :   -0.033111
   8 C :    0.026160
   9 C :   -0.027956
  10 N :    0.286318
  11 O :   -0.187572
  12 O :   -0.201461
  13 C :    0.006722
  14 C :   -0.003455
  15 C :    0.020368
  16 C :   -0.010207
  17 C :   -0.014894
  18 C :    0.064986
  19 N :    0.002576
  20 C :    0.036124
  21 C :   -0.062616
  22 C :    0.080525
  23 O :   -0.203996
  24 C :   -0.130713
  25 C :   -0.112601
  26 C :    0.079638
  27 O :   -0.200898
  28 N :   -0.005737
  29 C :    0.035874
  30 C :   -0.061668
  31 C :    0.086942
  32 C :   -0.054043
  33 C :    0.043675
  34 C :   -0.035258
  35 C :    0.020952
  36 C :   -0.027785
  37 N :    0.279144
  38 O :   -0.193695
  39 O :   -0.195443
  40 C :    0.006572
  41 C :   -0.009439
  42 C :    0.010664
  43 C :   -0.058465
  44 C :    0.051093
  45 N :   -0.024939
  46 C :    0.093506
  47 O :   -0.127595
  48 C :   -0.002078
  49 C :   -0.006825
  50 C :    0.092542
  51 O :   -0.121094
  52 H :    0.097356
  53 H :    0.037726
  54 H :    0.044576
  55 H :    0.040881
  56 H :    0.035578
  57 H :    0.028501
  58 H :    0.043432
  59 H :    0.036571
  60 H :    0.029825
  61 H :    0.032360
  62 H :    0.033026
  63 H :    0.018762
  64 H :    0.037764
  65 H :    0.022090
  66 H :    0.032561
  67 H :    0.030385
  68 H :    0.021452
  69 H :    0.024479
  70 H :    0.039444
  71 H :    0.047149
  72 H :    0.035262
  73 H :    0.030142
  74 H :    0.037234
  75 H :    0.032864
  76 H :    0.044594
  77 H :    0.045118

  Mayer bond orders larger than 0.100000
B(  0-N ,  1-C ) :   1.0536 B(  0-N ,  5-C ) :   1.1155 B(  0-N , 52-H ) :   0.9186
B(  1-C ,  2-O ) :   2.2233 B(  1-C ,  3-C ) :   0.9330 B(  3-C ,  4-C ) :   1.7063
B(  3-C , 53-H ) :   1.0154 B(  4-C ,  5-C ) :   0.8895 B(  4-C ,  7-C ) :   1.0371
B(  5-C ,  6-O ) :   2.1883 B(  7-C ,  8-C ) :   1.3174 B(  7-C , 15-C ) :   1.3221
B(  8-C ,  9-C ) :   1.3582 B(  8-C , 54-H ) :   0.9859 B(  9-C , 10-N ) :   0.8780
B(  9-C , 13-C ) :   1.3424 B( 10-N , 11-O ) :   1.5657 B( 10-N , 12-O ) :   1.5003
B( 11-O , 12-O ) :   0.2648 B( 13-C , 14-C ) :   1.3281 B( 13-C , 16-C ) :   1.0712
B( 14-C , 15-C ) :   1.4220 B( 14-C , 55-H ) :   0.9883 B( 15-C , 56-H ) :   0.9947
B( 16-C , 17-C ) :   1.6648 B( 16-C , 57-H ) :   0.9492 B( 17-C , 18-C ) :   1.1604
B( 17-C , 58-H ) :   0.9456 B( 18-C , 19-N ) :   1.1765 B( 18-C , 25-C ) :   1.3616
B( 19-N , 20-C ) :   0.9350 B( 19-N , 22-C ) :   1.0643 B( 20-C , 21-C ) :   1.1168
B( 20-C , 59-H ) :   0.9283 B( 20-C , 60-H ) :   0.9506 B( 21-C , 61-H ) :   0.9604
B( 21-C , 62-H ) :   0.9689 B( 21-C , 63-H ) :   0.9656 B( 22-C , 23-O ) :   2.0119
B( 22-C , 24-C ) :   0.9929 B( 23-O , 70-H ) :   0.1165 B( 24-C , 25-C ) :   1.2321
B( 24-C , 31-C ) :   1.3471 B( 25-C , 26-C ) :   0.9767 B( 26-C , 27-O ) :   2.1294
B( 26-C , 28-N ) :   1.0340 B( 28-N , 29-C ) :   0.9480 B( 28-N , 31-C ) :   1.1622
B( 29-C , 30-C ) :   1.1194 B( 29-C , 64-H ) :   0.9277 B( 29-C , 65-H ) :   0.9497
B( 30-C , 66-H ) :   0.9639 B( 30-C , 67-H ) :   0.9680 B( 30-C , 68-H ) :   0.9684
B( 31-C , 32-C ) :   1.1503 B( 32-C , 33-C ) :   1.6044 B( 32-C , 69-H ) :   0.9585
B( 33-C , 34-C ) :   1.0784 B( 33-C , 70-H ) :   0.9664 B( 34-C , 35-C ) :   1.2966
B( 34-C , 42-C ) :   1.3133 B( 35-C , 36-C ) :   1.3767 B( 35-C , 71-H ) :   1.0058
B( 36-C , 37-N ) :   0.8521 B( 36-C , 40-C ) :   1.3743 B( 37-N , 38-O ) :   1.5418
B( 37-N , 39-O ) :   1.5500 B( 38-O , 39-O ) :   0.2731 B( 40-C , 41-C ) :   1.3347
B( 40-C , 43-C ) :   1.0446 B( 41-C , 42-C ) :   1.4172 B( 41-C , 72-H ) :   0.9918
B( 42-C , 73-H ) :   0.9922 B( 43-C , 44-C ) :   1.7763 B( 43-C , 74-H ) :   0.9461
B( 44-C , 45-N ) :   1.0319 B( 44-C , 75-H ) :   0.9697 B( 45-N , 46-C ) :   1.0230
B( 45-N , 50-C ) :   1.0052 B( 46-C , 47-O ) :   2.1431 B( 46-C , 48-C ) :   0.9604
B( 48-C , 49-C ) :   1.7474 B( 48-C , 76-H ) :   1.0124 B( 49-C , 50-C ) :   0.9575
B( 49-C , 77-H ) :   1.0157 B( 50-C , 51-O ) :   2.1767

-----------------------------------------------------------------------------
         ABSORPTION SPECTRUM VIA TRANSITION ELECTRIC DIPOLE MOMENTS
-----------------------------------------------------------------------------
State   Energy  Wavelength   fosc         T2         TX        TY        TZ
        (cm-1)    (nm)                  (au**2)     (au)      (au)      (au)
-----------------------------------------------------------------------------
   0   16504.2    605.9   0.927541314  18.50177   3.21626  -2.44016  -1.48426
   1   22919.7    436.3   0.010912409   0.15674  -0.21967   0.05285   0.32510
   2   25455.9    392.8   0.008221753   0.10633  -0.23091  -0.09572   0.20940
   3   25930.6    385.6   0.028348460   0.35991  -0.23604   0.35715  -0.42029
   4   27086.3    369.2   0.004111146   0.04997  -0.15492   0.07433   0.14298
   5   27526.6    363.3   0.076828123   0.91885  -0.61973   0.64609  -0.34256
   6   28729.1    348.1   0.457828938   5.24635   1.75556  -1.43776   0.31178
   7   29527.3    338.7   0.028196270   0.31437  -0.38935   0.39916  -0.05878
   8   30124.7    332.0   0.006097664   0.06664   0.07645   0.15308  -0.19328
   9   30583.8    327.0   0.067270970   0.72412  -0.66700   0.47128  -0.23900
  10   30792.4    324.8   0.456414655   4.87968   1.67790  -1.36753   0.44068
  11   32163.7    310.9   0.125933774   1.28900  -0.54435   0.64186   0.76204
  12   32544.2    307.3   0.001456713   0.01474   0.04059   0.05248   0.10166
  13   33270.8    300.6   0.001255241   0.01242   0.10336  -0.00698   0.04109
  14   33528.6    298.3   0.021707252   0.21314   0.41579  -0.07744   0.18511
  15   35567.5    281.2   0.015848930   0.14670  -0.29637   0.17034   0.17275
  16   36111.4    276.9   0.073376630   0.66894   0.33605  -0.50725   0.54655
  17   36641.1    272.9   0.094039836   0.84493   0.65267  -0.64044   0.09379
  18   36902.3    271.0   0.097183791   0.86699  -0.66643   0.63944   0.11828
  19   37467.8    266.9   0.285186246   2.50579  -0.94132   0.77030  -1.01310
  20   37879.5    264.0   0.007102362   0.06173   0.03670   0.02215  -0.24472
  21   38304.0    261.1   0.101297335   0.87062   0.72606  -0.39431   0.43355
  22   38733.7    258.2   0.056649041   0.48148  -0.43853   0.30685  -0.44160
  23   38868.6    257.3   0.097617650   0.82681   0.77789  -0.43900   0.17022
  24   39082.9    255.9   0.079191377   0.66706  -0.47540   0.41749  -0.51649
  25   40182.4    248.9   0.226836892   1.85846   0.57163  -0.69445   1.02442

FINAL SINGLE POINT ENERGY     -2465.093771244896

DIPOLE MOMENT
-------------
                                X             Y             Z
Electronic contribution:     -7.17375      -3.67080      14.53118
Nuclear contribution   :      8.63306       3.11126     -17.24281
                        -----------------------------------------
Total Dipole Moment    :      1.45932      -0.55954      -2.71163
                        -----------------------------------------
Magnitude (a.u.)       :      3.12979
Magnitude (Debye)      :      7.95530

Rotational constants in cm-1:     0.005692     0.000412     0.000388
Rotational constants in MHz :   170.645708    12.349536    11.640356

                             ****ORCA TERMINATED NORMALLY****
TOTAL RUN TIME: 0 days 0 hours 5 minutes 27 seconds 365 msec
