                         Program Version 4.2.0 -  RELEASE  -
|  1> # ORCA input file
|  2> # SCF done       -168.405828577045          0.000850905130
|  3> ! CAM-B3LYP def2-SVP def2/J RIJCOSX Grid4 TightSCF
|  4> %maxcore 5000
|  5> %tddft
|  6>     Mode sTDDFT
|  7>     Ethresh 5.0
|  8>     maxcore 5000
|  9> end
| 10>
| 11> %pal
| 12>   nprocs 6
| 13>   end
| 14> * xyz 0 1
| 15>    C       -2.28380        -1.09074        -3.54584
| 16>    C       -2.17577        -0.94604        -2.16580
| 17>    C       -1.73471        -2.02803        -1.31558
| 18>    N       -1.56333        -1.81768        -0.00185
| 19>    C       -1.87157        -0.65456         0.50198
| 20>    C       -2.40016         0.39902        -0.33011
| 21>    N       -2.51209         0.24359        -1.61929
| 22>    C       -2.77868         1.63328         0.25967
| 23>    N       -3.07561         2.61187         0.77416
| 24>    C       -1.66093        -0.41286         1.88349
| 25>    N       -1.50957        -0.16677         2.99164
| 26>    C       -1.44688        -3.30190        -1.85480
| 27>    C       -1.54023        -3.42859        -3.25049
| 28>    C       -1.95466        -2.32384        -4.09048
| 29>    N       -1.98037        -2.67667        -5.38433
| 30>    S       -1.53705        -4.20314        -5.51728
| 31>    N       -1.28757        -4.52628        -3.96902
| 32>    C       -1.09394        -4.41565        -1.03363
| 33>    S       -0.49028        -5.92519        -1.70423
| 34>    C       -0.41181        -6.47403        -0.03965
| 35>    N       -0.82346        -5.56271         0.81009
| 36>    N       -1.19227        -4.44841         0.26709
| 37>    C        0.04245        -7.76820         0.32291
| 38>    C        0.07123        -8.16969         1.61965
| 39>    C        0.51986        -9.45165         2.01958
| 40>    N        0.55245        -9.87362         3.32802
| 41>    C        0.20349        -9.09488         4.49250
| 42>    C        1.31088        -8.11603         4.87371
| 43>    C        1.03311       -11.18769         3.44664
| 44>    O        1.14292       -11.77121         4.50683
| 45>    C        1.30914       -11.59230         2.08456
| 46>    C        0.98367       -10.50790         1.23449
| 47>    C        1.26270       -10.91137        -0.12721
| 48>    O        1.14793       -10.33095        -1.18828
| 49>    N        1.75137       -12.22319        -0.00755
| 50>    C        2.10542       -13.00036        -1.17123
| 51>    C        1.00547       -13.98859        -1.55002
| 52>    C        1.78066       -12.64590         1.30058
| 53>    C        2.23411       -13.92554         1.70368
| 54>    C        2.22882       -14.33154         2.99907
| 55>    C        2.68859       -15.61833         3.37828
| 56>    S        2.66839       -16.17384         5.04561
| 57>    C        3.35895       -17.66812         4.41832
| 58>    N        3.53096       -17.62890         3.12293
| 59>    N        3.16740       -16.52098         2.55928
| 60>    C        3.67593       -18.76441         5.26291
| 61>    C        4.24569       -19.89774         4.78977
| 62>    C        4.59112       -21.03444         5.58096
| 63>    C        5.23011       -22.14086         4.96547
| 64>    C        5.61080       -23.31572         5.71211
| 65>    N        6.22882       -24.34491         5.08965
| 66>    C        6.46921       -24.25238         3.81220
| 67>    C        6.08259       -23.08278         3.06435
| 68>    N        5.48550       -22.07698         3.64783
| 69>    C        6.35334       -23.02051         1.67442
| 70>    N        6.58942       -23.01111         0.55367
| 71>    C        7.12307       -25.32180         3.14574
| 72>    N        7.64899       -26.16230         2.57311
| 73>    C        5.36063       -23.42216         7.07538
| 74>    C        4.73166       -22.35221         7.69732
| 75>    C        4.34718       -21.15985         6.96531
| 76>    N        3.76108       -20.26779         7.77071
| 77>    S        3.70268       -20.85776         9.25924
| 78>    N        4.40556       -22.26420         8.99461
| 79>    H       -2.62322        -0.27072        -4.15541
| 80>    H        0.36857        -8.42426        -0.47196
| 81>    H       -0.26808        -7.47684         2.37558
| 82>    H        0.05404        -9.81429         5.30242
| 83>    H       -0.73589        -8.56663         4.31030
| 84>    H        2.22903        -8.65779         5.08763
| 85>    H        1.01968        -7.56172         5.76130
| 86>    H        1.50245        -7.41033         4.06885
| 87>    H        3.04933       -13.52084        -0.98958
| 88>    H        2.24822       -12.28077        -1.98217
| 89>    H        0.82124       -14.69530        -0.74419
| 90>    H        1.29925       -14.54081        -2.43812
| 91>    H        0.08241       -13.45447        -1.76206
| 92>    H        2.60144       -14.60983         0.95312
| 93>    H        1.86886       -13.68089         3.78392
| 94>    H        3.44682       -18.66000         6.31298
| 95>    H        4.47393       -19.97090         3.73572
| 96>    H        5.65028       -24.30515         7.61864
| 97> *
| 98>
| 99>                          ****END OF INPUT****

CARTESIAN COORDINATES (ANGSTROEM)
---------------------------------
  C     -2.283800   -1.090740   -3.545840
  C     -2.175770   -0.946040   -2.165800
  C     -1.734710   -2.028030   -1.315580
  N     -1.563330   -1.817680   -0.001850
  C     -1.871570   -0.654560    0.501980
  C     -2.400160    0.399020   -0.330110
  N     -2.512090    0.243590   -1.619290
  C     -2.778680    1.633280    0.259670
  N     -3.075610    2.611870    0.774160
  C     -1.660930   -0.412860    1.883490
  N     -1.509570   -0.166770    2.991640
  C     -1.446880   -3.301900   -1.854800
  C     -1.540230   -3.428590   -3.250490
  C     -1.954660   -2.323840   -4.090480
  N     -1.980370   -2.676670   -5.384330
  S     -1.537050   -4.203140   -5.517280
  N     -1.287570   -4.526280   -3.969020
  C     -1.093940   -4.415650   -1.033630
  S     -0.490280   -5.925190   -1.704230
  C     -0.411810   -6.474030   -0.039650
  N     -0.823460   -5.562710    0.810090
  N     -1.192270   -4.448410    0.267090
  C      0.042450   -7.768200    0.322910
  C      0.071230   -8.169690    1.619650
  C      0.519860   -9.451650    2.019580
  N      0.552450   -9.873620    3.328020
  C      0.203490   -9.094880    4.492500
  C      1.310880   -8.116030    4.873710
  C      1.033110  -11.187690    3.446640
  O      1.142920  -11.771210    4.506830
  C      1.309140  -11.592300    2.084560
  C      0.983670  -10.507900    1.234490
  C      1.262700  -10.911370   -0.127210
  O      1.147930  -10.330950   -1.188280
  N      1.751370  -12.223190   -0.007550
  C      2.105420  -13.000360   -1.171230
  C      1.005470  -13.988590   -1.550020
  C      1.780660  -12.645900    1.300580
  C      2.234110  -13.925540    1.703680
  C      2.228820  -14.331540    2.999070
  C      2.688590  -15.618330    3.378280
  S      2.668390  -16.173840    5.045610
  C      3.358950  -17.668120    4.418320
  N      3.530960  -17.628900    3.122930
  N      3.167400  -16.520980    2.559280
  C      3.675930  -18.764410    5.262910
  C      4.245690  -19.897740    4.789770
  C      4.591120  -21.034440    5.580960
  C      5.230110  -22.140860    4.965470
  C      5.610800  -23.315720    5.712110
  N      6.228820  -24.344910    5.089650
  C      6.469210  -24.252380    3.812200
  C      6.082590  -23.082780    3.064350
  N      5.485500  -22.076980    3.647830
  C      6.353340  -23.020510    1.674420
  N      6.589420  -23.011110    0.553670
  C      7.123070  -25.321800    3.145740
  N      7.648990  -26.162300    2.573110
  C      5.360630  -23.422160    7.075380
  C      4.731660  -22.352210    7.697320
  C      4.347180  -21.159850    6.965310
  N      3.761080  -20.267790    7.770710
  S      3.702680  -20.857760    9.259240
  N      4.405560  -22.264200    8.994610
  H     -2.623220   -0.270720   -4.155410
  H      0.368570   -8.424260   -0.471960
  H     -0.268080   -7.476840    2.375580
  H      0.054040   -9.814290    5.302420
  H     -0.735890   -8.566630    4.310300
  H      2.229030   -8.657790    5.087630
  H      1.019680   -7.561720    5.761300
  H      1.502450   -7.410330    4.068850
  H      3.049330  -13.520840   -0.989580
  H      2.248220  -12.280770   -1.982170
  H      0.821240  -14.695300   -0.744190
  H      1.299250  -14.540810   -2.438120
  H      0.082410  -13.454470   -1.762060
  H      2.601440  -14.609830    0.953120
  H      1.868860  -13.680890    3.783920
  H      3.446820  -18.660000    6.312980
  H      4.473930  -19.970900    3.735720
  H      5.650280  -24.305150    7.618640

 Total Charge           Charge          ....    0
 Multiplicity           Mult            ....    1
 Number of Electrons    NEL             ....  464
 Basis Dimension        Dim             .... 1002

ORBITAL ENERGIES
----------------

  NO   OCC          E(Eh)            E(eV)
   0   2.0000     -89.061904     -2423.4976
   1   2.0000     -89.057592     -2423.3803
   2   2.0000     -88.978863     -2421.2380
   3   2.0000     -88.978370     -2421.2245
   4   2.0000     -19.198947      -522.4299
   5   2.0000     -19.198044      -522.4053
   6   2.0000     -14.467760      -393.6878
   7   2.0000     -14.467327      -393.6760
   8   2.0000     -14.466021      -393.6404
   9   2.0000     -14.465914      -393.6375
  10   2.0000     -14.465882      -393.6367
  11   2.0000     -14.464075      -393.5875
  12   2.0000     -14.462359      -393.5408
  13   2.0000     -14.459918      -393.4744
  14   2.0000     -14.459513      -393.4633
  15   2.0000     -14.458976      -393.4487
  16   2.0000     -14.444767      -393.0621
  17   2.0000     -14.444340      -393.0505
  18   2.0000     -14.443330      -393.0230
  19   2.0000     -14.440490      -392.9457
  20   2.0000     -14.432773      -392.7357
  21   2.0000     -14.432265      -392.7219
  22   2.0000     -14.431323      -392.6963
  23   2.0000     -14.428853      -392.6291
  24   2.0000     -10.387170      -282.6493
  25   2.0000     -10.386767      -282.6383
  26   2.0000     -10.386015      -282.6178
  27   2.0000     -10.384353      -282.5726
  28   2.0000     -10.380941      -282.4798
  29   2.0000     -10.380252      -282.4610
  30   2.0000     -10.357672      -281.8466
  31   2.0000     -10.356683      -281.8197
  32   2.0000     -10.355374      -281.7840
  33   2.0000     -10.354437      -281.7586
  34   2.0000     -10.354139      -281.7505
  35   2.0000     -10.353257      -281.7265
  36   2.0000     -10.352398      -281.7031
  37   2.0000     -10.350662      -281.6558
  38   2.0000     -10.350569      -281.6533
  39   2.0000     -10.346698      -281.5480
  40   2.0000     -10.346486      -281.5422
  41   2.0000     -10.345364      -281.5117
  42   2.0000     -10.344534      -281.4891
  43   2.0000     -10.343076      -281.4494
  44   2.0000     -10.335132      -281.2332
  45   2.0000     -10.328123      -281.0425
  46   2.0000     -10.325582      -280.9734
  47   2.0000     -10.324941      -280.9559
  48   2.0000     -10.324294      -280.9383
  49   2.0000     -10.321652      -280.8664
  50   2.0000     -10.317810      -280.7619
  51   2.0000     -10.312974      -280.6303
  52   2.0000     -10.311616      -280.5933
  53   2.0000     -10.310715      -280.5688
  54   2.0000     -10.301449      -280.3167
  55   2.0000     -10.300627      -280.2943
  56   2.0000     -10.300295      -280.2853
  57   2.0000     -10.299727      -280.2698
  58   2.0000     -10.299611      -280.2667
  59   2.0000     -10.296498      -280.1820
  60   2.0000     -10.269100      -279.4364
  61   2.0000     -10.268532      -279.4210
  62   2.0000     -10.265732      -279.3448
  63   2.0000     -10.264346      -279.3071
  64   2.0000      -8.152946      -221.8529
  65   2.0000      -8.148955      -221.7443
  66   2.0000      -8.075179      -219.7368
  67   2.0000      -8.073609      -219.6941
  68   2.0000      -6.123778      -166.6365
  69   2.0000      -6.119848      -166.5295
  70   2.0000      -6.116247      -166.4315
  71   2.0000      -6.116009      -166.4251
  72   2.0000      -6.112170      -166.3206
  73   2.0000      -6.111973      -166.3152
  74   2.0000      -6.043748      -164.4587
  75   2.0000      -6.042372      -164.4213
  76   2.0000      -6.040431      -164.3685
  77   2.0000      -6.038693      -164.3212
  78   2.0000      -6.037674      -164.2935
  79   2.0000      -6.036109      -164.2509
  80   2.0000      -1.156888       -31.4805
  81   2.0000      -1.152502       -31.3612
  82   2.0000      -1.148947       -31.2644
  83   2.0000      -1.148874       -31.2624
  84   2.0000      -1.140542       -31.0357
  85   2.0000      -1.133996       -30.8576
  86   2.0000      -1.124940       -30.6112
  87   2.0000      -1.123948       -30.5842
  88   2.0000      -1.070521       -29.1304
  89   2.0000      -1.061961       -28.8974
  90   2.0000      -1.051795       -28.6208
  91   2.0000      -1.050454       -28.5843
  92   2.0000      -1.016543       -27.6615
  93   2.0000      -1.015932       -27.6449
  94   2.0000      -1.010538       -27.4981
  95   2.0000      -1.006886       -27.3988
  96   2.0000      -1.003931       -27.3184
  97   2.0000      -1.003903       -27.3176
  98   2.0000      -0.987374       -26.8678
  99   2.0000      -0.983255       -26.7557
 100   2.0000      -0.953500       -25.9460
 101   2.0000      -0.947690       -25.7880
 102   2.0000      -0.935115       -25.4458
 103   2.0000      -0.931165       -25.3383
 104   2.0000      -0.926653       -25.2155
 105   2.0000      -0.912470       -24.8296
 106   2.0000      -0.912290       -24.8247
 107   2.0000      -0.903947       -24.5977
 108   2.0000      -0.895806       -24.3761
 109   2.0000      -0.887510       -24.1504
 110   2.0000      -0.874693       -23.8016
 111   2.0000      -0.869147       -23.6507
 112   2.0000      -0.852132       -23.1877
 113   2.0000      -0.841631       -22.9019
 114   2.0000      -0.839121       -22.8336
 115   2.0000      -0.823942       -22.4206
 116   2.0000      -0.812286       -22.1034
 117   2.0000      -0.804686       -21.8966
 118   2.0000      -0.800846       -21.7921
 119   2.0000      -0.794293       -21.6138
 120   2.0000      -0.764486       -20.8027
 121   2.0000      -0.764031       -20.7903
 122   2.0000      -0.760553       -20.6957
 123   2.0000      -0.740656       -20.1543
 124   2.0000      -0.738572       -20.0976
 125   2.0000      -0.734182       -19.9781
 126   2.0000      -0.720352       -19.6018
 127   2.0000      -0.712915       -19.3994
 128   2.0000      -0.710839       -19.3429
 129   2.0000      -0.707435       -19.2503
 130   2.0000      -0.704019       -19.1573
 131   2.0000      -0.697313       -18.9749
 132   2.0000      -0.692840       -18.8531
 133   2.0000      -0.684973       -18.6391
 134   2.0000      -0.679908       -18.5012
 135   2.0000      -0.674179       -18.3453
 136   2.0000      -0.656687       -17.8694
 137   2.0000      -0.656335       -17.8598
 138   2.0000      -0.654621       -17.8132
 139   2.0000      -0.642447       -17.4819
 140   2.0000      -0.634444       -17.2641
 141   2.0000      -0.623079       -16.9548
 142   2.0000      -0.620502       -16.8847
 143   2.0000      -0.619929       -16.8691
 144   2.0000      -0.605321       -16.4716
 145   2.0000      -0.600583       -16.3427
 146   2.0000      -0.593584       -16.1523
 147   2.0000      -0.590142       -16.0586
 148   2.0000      -0.587557       -15.9882
 149   2.0000      -0.584155       -15.8957
 150   2.0000      -0.581114       -15.8129
 151   2.0000      -0.578590       -15.7442
 152   2.0000      -0.575002       -15.6466
 153   2.0000      -0.570819       -15.5328
 154   2.0000      -0.565667       -15.3926
 155   2.0000      -0.564342       -15.3565
 156   2.0000      -0.561089       -15.2680
 157   2.0000      -0.549784       -14.9604
 158   2.0000      -0.546915       -14.8823
 159   2.0000      -0.546046       -14.8587
 160   2.0000      -0.542110       -14.7516
 161   2.0000      -0.539319       -14.6756
 162   2.0000      -0.536408       -14.5964
 163   2.0000      -0.535525       -14.5724
 164   2.0000      -0.533557       -14.5188
 165   2.0000      -0.532736       -14.4965
 166   2.0000      -0.529776       -14.4159
 167   2.0000      -0.516690       -14.0598
 168   2.0000      -0.513155       -13.9637
 169   2.0000      -0.509439       -13.8625
 170   2.0000      -0.507739       -13.8163
 171   2.0000      -0.498207       -13.5569
 172   2.0000      -0.497008       -13.5243
 173   2.0000      -0.495613       -13.4863
 174   2.0000      -0.490945       -13.3593
 175   2.0000      -0.488419       -13.2906
 176   2.0000      -0.487250       -13.2587
 177   2.0000      -0.484553       -13.1854
 178   2.0000      -0.483607       -13.1596
 179   2.0000      -0.482811       -13.1380
 180   2.0000      -0.480787       -13.0829
 181   2.0000      -0.477023       -12.9805
 182   2.0000      -0.471750       -12.8370
 183   2.0000      -0.470402       -12.8003
 184   2.0000      -0.460285       -12.5250
 185   2.0000      -0.457792       -12.4572
 186   2.0000      -0.457179       -12.4405
 187   2.0000      -0.456423       -12.4199
 188   2.0000      -0.455368       -12.3912
 189   2.0000      -0.455081       -12.3834
 190   2.0000      -0.453409       -12.3379
 191   2.0000      -0.453270       -12.3341
 192   2.0000      -0.450308       -12.2535
 193   2.0000      -0.446662       -12.1543
 194   2.0000      -0.445825       -12.1315
 195   2.0000      -0.445409       -12.1202
 196   2.0000      -0.441185       -12.0052
 197   2.0000      -0.441046       -12.0015
 198   2.0000      -0.439224       -11.9519
 199   2.0000      -0.431404       -11.7391
 200   2.0000      -0.429864       -11.6972
 201   2.0000      -0.428798       -11.6682
 202   2.0000      -0.425364       -11.5747
 203   2.0000      -0.423846       -11.5334
 204   2.0000      -0.423327       -11.5193
 205   2.0000      -0.420123       -11.4321
 206   2.0000      -0.419465       -11.4142
 207   2.0000      -0.415908       -11.3174
 208   2.0000      -0.413883       -11.2623
 209   2.0000      -0.412538       -11.2257
 210   2.0000      -0.407163       -11.0795
 211   2.0000      -0.398582       -10.8460
 212   2.0000      -0.398347       -10.8396
 213   2.0000      -0.390726       -10.6322
 214   2.0000      -0.386762       -10.5243
 215   2.0000      -0.386167       -10.5081
 216   2.0000      -0.373104       -10.1527
 217   2.0000      -0.365166        -9.9367
 218   2.0000      -0.364549        -9.9199
 219   2.0000      -0.360704        -9.8153
 220   2.0000      -0.355946        -9.6858
 221   2.0000      -0.354482        -9.6460
 222   2.0000      -0.353678        -9.6241
 223   2.0000      -0.340270        -9.2592
 224   2.0000      -0.339135        -9.2283
 225   2.0000      -0.329075        -8.9546
 226   2.0000      -0.328259        -8.9324
 227   2.0000      -0.321417        -8.7462
 228   2.0000      -0.316625        -8.6158
 229   2.0000      -0.296766        -8.0754
 230   2.0000      -0.283273        -7.7083
 231   2.0000      -0.242183        -6.5901
 232   0.0000      -0.131058        -3.5663
 233   0.0000      -0.126970        -3.4550
 234   0.0000      -0.094283        -2.5656
 235   0.0000      -0.058725        -1.5980
 236   0.0000      -0.053443        -1.4543

MULLIKEN ATOMIC CHARGES
-----------------------
   0 C :   -0.064285
   1 C :    0.015913
   2 C :   -0.089688
   3 N :    0.113144
   4 C :   -0.152454
   5 C :   -0.148423
   6 N :    0.052558
   7 C :   -0.192192
   8 N :    0.236031
   9 C :   -0.179376
  10 N :    0.232635
  11 C :    0.230988
  12 C :   -0.023097
  13 C :    0.101749
  14 N :   -0.261451
  15 S :    0.568765
  16 N :   -0.304182
  17 C :   -0.251960
  18 S :    0.161302
  19 C :   -0.072476
  20 N :   -0.051377
  21 N :   -0.000164
  22 C :    0.055585
  23 C :   -0.025391
  24 C :    0.140896
  25 N :   -0.255644
  26 C :    0.097526
  27 C :    0.005278
  28 C :    0.167860
  29 O :   -0.211346
  30 C :   -0.060267
  31 C :   -0.058581
  32 C :    0.167431
  33 O :   -0.209281
  34 N :   -0.256421
  35 C :    0.097786
  36 C :    0.005003
  37 C :    0.139683
  38 C :   -0.027089
  39 C :    0.074509
  40 C :   -0.108296
  41 S :    0.127982
  42 C :   -0.104611
  43 N :   -0.034195
  44 N :   -0.044451
  45 C :    0.095026
  46 C :   -0.078063
  47 C :    0.126171
  48 C :   -0.050546
  49 C :    0.020112
  50 N :    0.055501
  51 C :   -0.148915
  52 C :   -0.139859
  53 N :    0.061025
  54 C :   -0.196260
  55 N :    0.235434
  56 C :   -0.196078
  57 N :    0.238380
  58 C :   -0.070932
  59 C :    0.104779
  60 C :   -0.007453
  61 N :   -0.295318
  62 S :    0.560979
  63 N :   -0.265726
  64 H :   -0.010836
  65 H :    0.012209
  66 H :    0.007498
  67 H :    0.042446
  68 H :    0.029498
  69 H :    0.026280
  70 H :    0.026785
  71 H :    0.022405
  72 H :    0.029752
  73 H :    0.042695
  74 H :    0.021548
  75 H :    0.026098
  76 H :    0.026224
  77 H :    0.005700
  78 H :    0.012657
  79 H :    0.009123
  80 H :    0.029635
  81 H :   -0.013901
Sum of atomic charges:   -0.0000000

LOEWDIN ATOMIC CHARGES
----------------------
   0 C :    0.007245
   1 C :   -0.009748
   2 C :   -0.001028
   3 N :    0.027636
   4 C :   -0.023928
   5 C :   -0.022901
   6 N :   -0.000425
   7 C :   -0.035443
   8 N :    0.000621
   9 C :   -0.032802
  10 N :   -0.000730
  11 C :   -0.036394
  12 C :   -0.047178
  13 C :   -0.048219
  14 N :   -0.278529
  15 S :    0.705576
  16 N :   -0.303844
  17 C :   -0.157734
  18 S :    0.445399
  19 C :   -0.152363
  20 N :   -0.078254
  21 N :   -0.042289
  22 C :   -0.010156
  23 C :   -0.008844
  24 C :    0.072179
  25 N :    0.003228
  26 C :    0.037247
  27 C :   -0.059507
  28 C :    0.080700
  29 O :   -0.200323
  30 C :   -0.116756
  31 C :   -0.114740
  32 C :    0.081326
  33 O :   -0.198578
  34 N :    0.002625
  35 C :    0.037246
  36 C :   -0.059766
  37 C :    0.074287
  38 C :   -0.012873
  39 C :   -0.008066
  40 C :   -0.151747
  41 S :    0.409091
  42 C :   -0.150418
  43 N :   -0.065480
  44 N :   -0.071359
  45 C :   -0.027235
  46 C :    0.011723
  47 C :   -0.008283
  48 C :   -0.007902
  49 C :   -0.011040
  50 N :    0.001299
  51 C :   -0.024534
  52 C :   -0.027793
  53 N :    0.008602
  54 C :   -0.036545
  55 N :   -0.000738
  56 C :   -0.035170
  57 N :    0.000339
  58 C :   -0.000138
  59 C :   -0.047226
  60 C :   -0.038723
  61 N :   -0.285568
  62 S :    0.696202
  63 N :   -0.280651
  64 H :    0.051003
  65 H :    0.037392
  66 H :    0.038741
  67 H :    0.037241
  68 H :    0.026298
  69 H :    0.030886
  70 H :    0.032707
  71 H :    0.025008
  72 H :    0.026324
  73 H :    0.037316
  74 H :    0.024658
  75 H :    0.032352
  76 H :    0.030839
  77 H :    0.038302
  78 H :    0.037806
  79 H :    0.030266
  80 H :    0.042414
  81 H :    0.049845

  Mayer bond orders larger than 0.100000
B(  0-C ,  1-C ) :   1.3060 B(  0-C , 11-C ) :   0.1465 B(  0-C , 13-C ) :   1.1892
B(  0-C , 64-H ) :   1.0571 B(  1-C ,  2-C ) :   1.1283 B(  1-C ,  6-N ) :   1.3346
B(  2-C ,  3-N ) :   1.4649 B(  2-C , 11-C ) :   1.2650 B(  3-N ,  4-C ) :   1.7791
B(  4-C ,  5-C ) :   1.1692 B(  4-C ,  9-C ) :   1.1399 B(  5-C ,  6-N ) :   1.7959
B(  5-C ,  7-C ) :   1.1438 B(  7-C ,  8-N ) :   3.0545 B(  9-C , 10-N ) :   3.0468
B( 11-C , 12-C ) :   1.2453 B( 11-C , 17-C ) :   1.0800 B( 12-C , 13-C ) :   1.1345
B( 12-C , 16-N ) :   1.4718 B( 13-C , 14-N ) :   1.4469 B( 14-N , 15-S ) :   1.3294
B( 14-N , 16-N ) :   0.1611 B( 15-S , 16-N ) :   1.2869 B( 17-C , 18-S ) :   1.1250
B( 17-C , 21-N ) :   1.6816 B( 18-S , 19-C ) :   1.0983 B( 19-C , 20-N ) :   1.6098
B( 19-C , 22-C ) :   1.1152 B( 20-N , 21-N ) :   1.2517 B( 22-C , 23-C ) :   1.6473
B( 22-C , 65-H ) :   0.9287 B( 23-C , 24-C ) :   1.1327 B( 23-C , 66-H ) :   0.9696
B( 24-C , 25-N ) :   1.1632 B( 24-C , 31-C ) :   1.3364 B( 25-N , 26-C ) :   0.9414
B( 25-N , 28-C ) :   1.0637 B( 26-C , 27-C ) :   1.1203 B( 26-C , 67-H ) :   0.9288
B( 26-C , 68-H ) :   0.9502 B( 27-C , 69-H ) :   0.9637 B( 27-C , 70-H ) :   0.9681
B( 27-C , 71-H ) :   0.9690 B( 28-C , 29-O ) :   2.0270 B( 28-C , 30-C ) :   0.9830
B( 29-O , 78-H ) :   0.1103 B( 30-C , 31-C ) :   1.2631 B( 30-C , 37-C ) :   1.3349
B( 31-C , 32-C ) :   0.9819 B( 32-C , 33-O ) :   2.0315 B( 32-C , 34-N ) :   1.0612
B( 33-O , 65-H ) :   0.1074 B( 34-N , 35-C ) :   0.9421 B( 34-N , 37-C ) :   1.1639
B( 35-C , 36-C ) :   1.1201 B( 35-C , 72-H ) :   0.9502 B( 35-C , 73-H ) :   0.9289
B( 36-C , 74-H ) :   0.9689 B( 36-C , 75-H ) :   0.9681 B( 36-C , 76-H ) :   0.9638
B( 37-C , 38-C ) :   1.1350 B( 38-C , 39-C ) :   1.6509 B( 38-C , 77-H ) :   0.9705
B( 39-C , 40-C ) :   1.1136 B( 39-C , 78-H ) :   0.9256 B( 40-C , 41-S ) :   1.1056
B( 40-C , 44-N ) :   1.6409 B( 41-S , 42-C ) :   1.1012 B( 42-C , 43-N ) :   1.6509
B( 42-C , 45-C ) :   1.0983 B( 43-N , 44-N ) :   1.2519 B( 45-C , 46-C ) :   1.6502
B( 45-C , 79-H ) :   0.9315 B( 46-C , 47-C ) :   1.1528 B( 46-C , 80-H ) :   0.9766
B( 47-C , 48-C ) :   1.2579 B( 47-C , 58-C ) :   0.1406 B( 47-C , 60-C ) :   1.2042
B( 48-C , 49-C ) :   1.1276 B( 48-C , 53-N ) :   1.4358 B( 49-C , 50-N ) :   1.3346
B( 49-C , 58-C ) :   1.3110 B( 50-N , 51-C ) :   1.7935 B( 51-C , 52-C ) :   1.1768
B( 51-C , 56-C ) :   1.1495 B( 52-C , 53-N ) :   1.7662 B( 52-C , 54-C ) :   1.1472
B( 54-C , 55-N ) :   3.0458 B( 56-C , 57-N ) :   3.0537 B( 58-C , 59-C ) :   1.1834
B( 58-C , 81-H ) :   1.0542 B( 59-C , 60-C ) :   1.1282 B( 59-C , 63-N ) :   1.4519
B( 60-C , 61-N ) :   1.4815 B( 61-N , 62-S ) :   1.2850 B( 61-N , 63-N ) :   0.1592
B( 62-S , 63-N ) :   1.3212

-----------------------------------------------------------------------------
         ABSORPTION SPECTRUM VIA TRANSITION ELECTRIC DIPOLE MOMENTS
-----------------------------------------------------------------------------
State   Energy  Wavelength   fosc         T2         TX        TY        TZ
        (cm-1)    (nm)                  (au**2)     (au)      (au)      (au)
-----------------------------------------------------------------------------
   0   11769.0    849.7   1.061093631  29.68180  -1.72343   4.93084  -1.54869
   1   14037.4    712.4   0.124931039   2.92994  -0.59921   1.56432  -0.35184
   2   17665.5    566.1   0.106427122   1.98336  -0.48817   1.22208   0.50157
   3   18600.2    537.6   0.005235306   0.09266  -0.02573   0.15133  -0.26287
   4   19142.0    522.4   0.199887458   3.43774  -0.64040   1.69310  -0.40129
   5   20551.2    486.6   0.193995628   3.10764  -0.46215   1.44301  -0.90098
   6   24812.1    403.0   0.000054861   0.00073   0.02081  -0.01373   0.01032
   7   25157.3    397.5   0.010209788   0.13361  -0.10926   0.30610  -0.16725
   8   25504.6    392.1   0.268248791   3.46255   0.52150  -1.55682   0.87573
   9   25939.7    385.5   0.001947959   0.02472  -0.14509  -0.03081   0.05218
  10   26500.9    377.3   0.001620609   0.02013   0.04045  -0.11906   0.06574
  11   26631.7    375.5   0.003292722   0.04070   0.18448   0.07453   0.03343
  12   27808.6    359.6   0.037643877   0.44565  -0.03208   0.57396  -0.33939
  13   28068.4    356.3   0.054466474   0.63883  -0.18367   0.58718  -0.51021
  14   28366.1    352.5   0.237119405   2.75196  -0.32118   1.21782  -1.07969
  15   28617.0    349.4   0.043133169   0.49621  -0.11962   0.05513  -0.69200
  16   28675.0    348.7   0.154458279   1.77330   0.55697  -1.20828  -0.05609
  17   28903.0    346.0   0.044498715   0.50685  -0.04362   0.49186   0.51285
  18   29294.5    341.4   0.012418431   0.13956   0.20886  -0.21599  -0.22200
  19   30002.6    333.3   0.002445291   0.02683  -0.15198  -0.05412  -0.02838
  20   30130.9    331.9   0.004194647   0.04583  -0.04170  -0.17304  -0.11896
  21   30997.6    322.6   0.115732641   1.22914  -0.29950   1.06376  -0.08864
  22   31175.6    320.8   0.022357211   0.23609  -0.19014   0.34000  -0.29041
  23   31319.0    319.3   0.029294634   0.30793  -0.12040   0.39387  -0.37189
  24   31444.7    318.0   0.000356214   0.00373   0.01288  -0.05830   0.01282
  25   31528.3    317.2   0.030006701   0.31332  -0.07049   0.05760   0.55230
  26   31666.1    315.8   0.171920694   1.78735  -0.24587   0.86974   0.98511
  27   31799.0    314.5   0.000220859   0.00229  -0.00526   0.04348  -0.01919
  28   31874.3    313.7   0.223361560   2.30698  -0.23356   1.13272   0.98457
  29   32250.0    310.1   0.095172857   0.97153   0.62373  -0.67637  -0.35359
  30   33732.6    296.4   0.035016757   0.34174  -0.04526  -0.10014   0.57417
  31   33847.5    295.4   0.330416034   3.21373   0.03599   0.56617  -1.70055
  32   34023.4    293.9   0.022859488   0.22119  -0.08607   0.12869   0.44409
  33   34377.5    290.9   0.073301005   0.70196  -0.22470   0.09805   0.80116
  34   35171.4    284.3   0.001351235   0.01265  -0.05659   0.06400   0.07314
  35   35305.6    283.2   0.000524548   0.00489   0.02205  -0.03913   0.05361
  36   35643.1    280.6   0.108975264   1.00653  -0.41591   0.52983   0.74353
  37   35711.3    280.0   0.000949248   0.00875   0.06762  -0.06204  -0.01815
  38   35919.5    278.4   0.204504660   1.87434   0.58162  -1.16736  -0.41633
  39   36626.9    273.0   0.044458193   0.39960  -0.21088   0.19240   0.56402
  40   36655.3    272.8   0.630512289   5.66281  -0.79271   0.88033   2.06384
  41   36922.8    270.8   0.008578010   0.07648  -0.20035   0.04112  -0.18615
  42   37035.5    270.0   0.000999781   0.00889   0.03351   0.04032   0.07835
  43   37403.5    267.4   0.078534336   0.69123   0.15112  -0.41661   0.70344
  44   37483.7    266.8   0.049515934   0.43489  -0.17225   0.05965  -0.63377
  45   37711.8    265.2   0.163235561   1.42500   0.38833  -1.09093  -0.28993
  46   37984.9    263.3   0.049594965   0.42984   0.03432   0.04846   0.65292
  47   38025.7    263.0   0.283243374   2.45221   0.36021  -0.52584  -1.43037
  48   38448.5    260.1   0.476146368   4.07696  -0.08751   1.70576   1.07689
  49   38848.5    257.4   0.590151169   5.00109   0.12083  -0.26619  -2.21712
  50   39082.9    255.9   0.006976379   0.05877  -0.06028  -0.03013   0.23286
  51   39789.2    251.3   0.003353661   0.02775  -0.14540  -0.08068  -0.00993

FINAL SINGLE POINT ENERGY     -4259.865924464119

DIPOLE MOMENT
-------------
                                X             Y             Z
Electronic contribution:     -0.59562       3.86772      -3.42447
Nuclear contribution   :     -0.26601      -4.42170       3.54716
                        -----------------------------------------
Total Dipole Moment    :     -0.86163      -0.55398       0.12269
                        -----------------------------------------
Magnitude (a.u.)       :      1.03168
Magnitude (Debye)      :      2.62231

Rotational constants in cm-1:     0.002910     0.000220     0.000205
Rotational constants in MHz :    87.253637     6.588046     6.155129

                             ****ORCA TERMINATED NORMALLY****
TOTAL RUN TIME: 0 days 0 hours 8 minutes 55 seconds 681 msec
