                         Program Version 4.2.0 -  RELEASE  -
|  1> # ORCA input file
|  2> # SCF done       -118.653078802309          0.000586111532
|  3> ! CAM-B3LYP def2-SVP def2/J RIJCOSX Grid4 TightSCF
|  4> %maxcore 5000
|  5> %tddft
|  6>     Mode sTDDFT
|  7>     Ethresh 5.0
|  8>     maxcore 5000
|  9> end
| 10>
| 11> %pal
| 12>   nprocs 6
| 13>   end
| 14> * xyz 0 1
| 15>    C        2.57826         0.04642         1.78864
| 16>    C        2.39050         0.37106         0.51417
| 17>    C        2.95874         1.51775        -0.17863
| 18>    C        2.64037         1.72531        -1.51710
| 19>    C        3.15179         2.80462        -2.22240
| 20>    N        2.69690         2.96298        -3.57535
| 21>    O        2.29219         1.97367        -4.15047
| 22>    O        2.72694         4.07427        -4.06843
| 23>    C        4.03369         3.72570        -1.62446
| 24>    C        4.34181         3.50192        -0.27492
| 25>    C        3.81821         2.44257         0.42852
| 26>    C        4.66020         4.80087        -2.36098
| 27>    C        5.06022         5.95132        -1.78046
| 28>    C        5.72984         7.07623        -2.34224
| 29>    N        6.12785         7.33716        -3.63286
| 30>    C        5.89766         6.56974        -4.83418
| 31>    C        4.46317         6.69604        -5.33957
| 32>    C        6.79519         8.58152        -3.72957
| 33>    O        7.23941         9.02581        -4.76826
| 34>    C        6.80024         9.09386        -2.38109
| 35>    C        6.13892         8.15212        -1.56035
| 36>    C        6.15569         8.65788        -0.20959
| 37>    O        5.71840         8.21553         0.83298
| 38>    N        6.83385         9.89590        -0.30560
| 39>    C        7.03525        10.68499         0.88487
| 40>    C        8.41480        10.45231         1.49820
| 41>    C        7.23085        10.15947        -1.59781
| 42>    C        7.93306        11.26867        -2.14828
| 43>    C        8.50688        12.32745        -1.53731
| 44>    C        9.20228        13.39625        -2.21329
| 45>    C        9.80624        14.39305        -1.44762
| 46>    C       10.47959        15.45285        -2.03448
| 47>    N       11.01797        16.43995        -1.13729
| 48>    O       11.24582        16.08679         0.00288
| 49>    O       11.20057        17.56654        -1.55061
| 50>    C       10.59592        15.56783        -3.43365
| 51>    C        9.98930        14.55124        -4.18838
| 52>    C        9.31131        13.50686        -3.60948
| 53>    C       11.34454        16.61919        -4.08313
| 54>    C       11.09632        17.07949        -5.32182
| 55>    C       11.87043        18.12150        -5.93998
| 56>    C       11.60651        18.60903        -7.15127
| 57>    H        2.11492        -0.82681         2.21360
| 58>    H        3.19071         0.62631         2.45744
| 59>    H        1.75980        -0.25712        -0.10190
| 60>    H        1.96928         1.05244        -2.03148
| 61>    H        5.03173         4.17039         0.21567
| 62>    H        4.08710         2.32190         1.46574
| 63>    H        4.78275         4.64827        -3.42051
| 64>    H        4.85816         6.10254        -0.72697
| 65>    H        6.17367         5.52570        -4.66625
| 66>    H        6.58030         6.99060        -5.57965
| 67>    H        3.74664         6.29445        -4.62836
| 68>    H        4.35881         6.15032        -6.27306
| 69>    H        4.22832         7.74199        -5.52149
| 70>    H        6.27012        10.35510         1.59478
| 71>    H        6.86618        11.73989         0.65684
| 72>    H        8.50494         9.41516         1.81132
| 73>    H        8.54453        11.08974         2.36864
| 74>    H        9.20674        10.66438         0.78318
| 75>    H        8.00395        11.18240        -3.22480
| 76>    H        8.48851        12.42329        -0.46290
| 77>    H        9.75086        14.36277        -0.36865
| 78>    H       10.08364        14.58485        -5.26246
| 79>    H        8.86363        12.75959        -4.24511
| 80>    H       12.13801        17.08408        -3.51430
| 81>    H       10.26169        16.69910        -5.89586
| 82>    H       12.70113        18.50918        -5.36551
| 83>    H       10.78249        18.24074        -7.74061
| 84>    H       12.20256        19.38740        -7.59450
| 85> *
| 86>
| 87>                          ****END OF INPUT****

CARTESIAN COORDINATES (ANGSTROEM)
---------------------------------
  C      2.578260    0.046420    1.788640
  C      2.390500    0.371060    0.514170
  C      2.958740    1.517750   -0.178630
  C      2.640370    1.725310   -1.517100
  C      3.151790    2.804620   -2.222400
  N      2.696900    2.962980   -3.575350
  O      2.292190    1.973670   -4.150470
  O      2.726940    4.074270   -4.068430
  C      4.033690    3.725700   -1.624460
  C      4.341810    3.501920   -0.274920
  C      3.818210    2.442570    0.428520
  C      4.660200    4.800870   -2.360980
  C      5.060220    5.951320   -1.780460
  C      5.729840    7.076230   -2.342240
  N      6.127850    7.337160   -3.632860
  C      5.897660    6.569740   -4.834180
  C      4.463170    6.696040   -5.339570
  C      6.795190    8.581520   -3.729570
  O      7.239410    9.025810   -4.768260
  C      6.800240    9.093860   -2.381090
  C      6.138920    8.152120   -1.560350
  C      6.155690    8.657880   -0.209590
  O      5.718400    8.215530    0.832980
  N      6.833850    9.895900   -0.305600
  C      7.035250   10.684990    0.884870
  C      8.414800   10.452310    1.498200
  C      7.230850   10.159470   -1.597810
  C      7.933060   11.268670   -2.148280
  C      8.506880   12.327450   -1.537310
  C      9.202280   13.396250   -2.213290
  C      9.806240   14.393050   -1.447620
  C     10.479590   15.452850   -2.034480
  N     11.017970   16.439950   -1.137290
  O     11.245820   16.086790    0.002880
  O     11.200570   17.566540   -1.550610
  C     10.595920   15.567830   -3.433650
  C      9.989300   14.551240   -4.188380
  C      9.311310   13.506860   -3.609480
  C     11.344540   16.619190   -4.083130
  C     11.096320   17.079490   -5.321820
  C     11.870430   18.121500   -5.939980
  C     11.606510   18.609030   -7.151270
  H      2.114920   -0.826810    2.213600
  H      3.190710    0.626310    2.457440
  H      1.759800   -0.257120   -0.101900
  H      1.969280    1.052440   -2.031480
  H      5.031730    4.170390    0.215670
  H      4.087100    2.321900    1.465740
  H      4.782750    4.648270   -3.420510
  H      4.858160    6.102540   -0.726970
  H      6.173670    5.525700   -4.666250
  H      6.580300    6.990600   -5.579650
  H      3.746640    6.294450   -4.628360
  H      4.358810    6.150320   -6.273060
  H      4.228320    7.741990   -5.521490
  H      6.270120   10.355100    1.594780
  H      6.866180   11.739890    0.656840
  H      8.504940    9.415160    1.811320
  H      8.544530   11.089740    2.368640
  H      9.206740   10.664380    0.783180
  H      8.003950   11.182400   -3.224800
  H      8.488510   12.423290   -0.462900
  H      9.750860   14.362770   -0.368650
  H     10.083640   14.584850   -5.262460
  H      8.863630   12.759590   -4.245110
  H     12.138010   17.084080   -3.514300
  H     10.261690   16.699100   -5.895860
  H     12.701130   18.509180   -5.365510
  H     10.782490   18.240740   -7.740610
  H     12.202560   19.387400   -7.594500

 Total Charge           Charge          ....    0
 Multiplicity           Mult            ....    1
 Number of Electrons    NEL             ....  296
 Basis Dimension        Dim             ....  728

ORBITAL ENERGIES
----------------

  NO   OCC          E(Eh)            E(eV)
   0   2.0000     -19.248667      -523.7829
   1   2.0000     -19.247205      -523.7431
   2   2.0000     -19.242176      -523.6062
   3   2.0000     -19.240045      -523.5482
   4   2.0000     -19.188718      -522.1516
   5   2.0000     -19.187979      -522.1315
   6   2.0000     -14.653280      -398.7360
   7   2.0000     -14.646860      -398.5613
   8   2.0000     -14.452152      -393.2630
   9   2.0000     -14.450689      -393.2233
  10   2.0000     -10.372182      -282.2414
  11   2.0000     -10.371153      -282.2134
  12   2.0000     -10.339192      -281.3437
  13   2.0000     -10.338648      -281.3289
  14   2.0000     -10.334882      -281.2264
  15   2.0000     -10.330185      -281.0986
  16   2.0000     -10.314275      -280.6657
  17   2.0000     -10.310976      -280.5759
  18   2.0000     -10.307162      -280.4721
  19   2.0000     -10.300949      -280.3031
  20   2.0000     -10.300652      -280.2950
  21   2.0000     -10.299713      -280.2694
  22   2.0000     -10.298787      -280.2442
  23   2.0000     -10.298081      -280.2250
  24   2.0000     -10.297844      -280.2186
  25   2.0000     -10.297221      -280.2016
  26   2.0000     -10.296383      -280.1788
  27   2.0000     -10.294781      -280.1352
  28   2.0000     -10.294627      -280.1310
  29   2.0000     -10.292780      -280.0808
  30   2.0000     -10.292543      -280.0743
  31   2.0000     -10.290759      -280.0258
  32   2.0000     -10.286247      -279.9030
  33   2.0000     -10.280059      -279.7346
  34   2.0000     -10.278601      -279.6950
  35   2.0000     -10.278058      -279.6802
  36   2.0000     -10.273717      -279.5621
  37   2.0000     -10.267768      -279.4002
  38   2.0000     -10.263111      -279.2735
  39   2.0000     -10.258302      -279.1426
  40   2.0000     -10.257999      -279.1343
  41   2.0000     -10.251032      -278.9448
  42   2.0000      -1.328162       -36.1411
  43   2.0000      -1.321850       -35.9694
  44   2.0000      -1.146125       -31.1876
  45   2.0000      -1.139638       -31.0111
  46   2.0000      -1.130372       -30.7590
  47   2.0000      -1.123579       -30.5742
  48   2.0000      -1.059812       -28.8389
  49   2.0000      -1.050727       -28.5917
  50   2.0000      -0.993423       -27.0324
  51   2.0000      -0.989859       -26.9354
  52   2.0000      -0.929236       -25.2858
  53   2.0000      -0.926702       -25.2168
  54   2.0000      -0.924561       -25.1586
  55   2.0000      -0.908955       -24.7339
  56   2.0000      -0.907439       -24.6927
  57   2.0000      -0.889907       -24.2156
  58   2.0000      -0.880174       -23.9507
  59   2.0000      -0.871372       -23.7112
  60   2.0000      -0.863507       -23.4972
  61   2.0000      -0.841187       -22.8899
  62   2.0000      -0.826496       -22.4901
  63   2.0000      -0.816500       -22.2181
  64   2.0000      -0.808645       -22.0043
  65   2.0000      -0.792833       -21.5741
  66   2.0000      -0.780021       -21.2254
  67   2.0000      -0.767719       -20.8907
  68   2.0000      -0.756519       -20.5859
  69   2.0000      -0.732300       -19.9269
  70   2.0000      -0.723393       -19.6845
  71   2.0000      -0.710040       -19.3212
  72   2.0000      -0.705451       -19.1963
  73   2.0000      -0.702460       -19.1149
  74   2.0000      -0.683793       -18.6069
  75   2.0000      -0.680972       -18.5302
  76   2.0000      -0.676561       -18.4102
  77   2.0000      -0.656596       -17.8669
  78   2.0000      -0.652406       -17.7529
  79   2.0000      -0.647197       -17.6111
  80   2.0000      -0.639751       -17.4085
  81   2.0000      -0.637365       -17.3436
  82   2.0000      -0.628538       -17.1034
  83   2.0000      -0.623472       -16.9655
  84   2.0000      -0.616379       -16.7725
  85   2.0000      -0.603863       -16.4319
  86   2.0000      -0.602026       -16.3820
  87   2.0000      -0.597577       -16.2609
  88   2.0000      -0.592750       -16.1295
  89   2.0000      -0.586135       -15.9495
  90   2.0000      -0.582904       -15.8616
  91   2.0000      -0.577722       -15.7206
  92   2.0000      -0.571743       -15.5579
  93   2.0000      -0.563353       -15.3296
  94   2.0000      -0.559598       -15.2274
  95   2.0000      -0.555804       -15.1242
  96   2.0000      -0.554799       -15.0969
  97   2.0000      -0.548030       -14.9127
  98   2.0000      -0.535212       -14.5639
  99   2.0000      -0.534053       -14.5323
 100   2.0000      -0.528837       -14.3904
 101   2.0000      -0.527223       -14.3465
 102   2.0000      -0.524595       -14.2750
 103   2.0000      -0.515379       -14.0242
 104   2.0000      -0.512805       -13.9541
 105   2.0000      -0.509931       -13.8759
 106   2.0000      -0.502786       -13.6815
 107   2.0000      -0.501917       -13.6579
 108   2.0000      -0.496001       -13.4969
 109   2.0000      -0.489635       -13.3237
 110   2.0000      -0.488797       -13.3008
 111   2.0000      -0.480405       -13.0725
 112   2.0000      -0.477080       -12.9820
 113   2.0000      -0.469017       -12.7626
 114   2.0000      -0.467699       -12.7267
 115   2.0000      -0.466333       -12.6896
 116   2.0000      -0.461951       -12.5703
 117   2.0000      -0.459503       -12.5037
 118   2.0000      -0.453846       -12.3498
 119   2.0000      -0.452704       -12.3187
 120   2.0000      -0.447478       -12.1765
 121   2.0000      -0.443604       -12.0711
 122   2.0000      -0.438830       -11.9412
 123   2.0000      -0.437762       -11.9121
 124   2.0000      -0.435329       -11.8459
 125   2.0000      -0.432973       -11.7818
 126   2.0000      -0.427302       -11.6275
 127   2.0000      -0.423783       -11.5317
 128   2.0000      -0.416247       -11.3266
 129   2.0000      -0.414930       -11.2908
 130   2.0000      -0.407336       -11.0842
 131   2.0000      -0.391335       -10.6488
 132   2.0000      -0.386009       -10.5038
 133   2.0000      -0.385516       -10.4904
 134   2.0000      -0.384648       -10.4668
 135   2.0000      -0.378845       -10.3089
 136   2.0000      -0.374324       -10.1859
 137   2.0000      -0.368221       -10.0198
 138   2.0000      -0.354431        -9.6445
 139   2.0000      -0.346433        -9.4269
 140   2.0000      -0.345863        -9.4114
 141   2.0000      -0.345445        -9.4000
 142   2.0000      -0.330067        -8.9816
 143   2.0000      -0.328296        -8.9334
 144   2.0000      -0.313503        -8.5309
 145   2.0000      -0.302551        -8.2328
 146   2.0000      -0.282754        -7.6941
 147   2.0000      -0.236899        -6.4463
 148   0.0000      -0.089550        -2.4368
 149   0.0000      -0.057556        -1.5662
 150   0.0000      -0.047113        -1.2820
 151   0.0000      -0.028690        -0.7807
 152   0.0000      -0.010834        -0.2948

MULLIKEN ATOMIC CHARGES
-----------------------
   0 C :   -0.008545
   1 C :    0.000627
   2 C :    0.107079
   3 C :   -0.075444
   4 C :    0.139276
   5 N :    0.249662
   6 O :   -0.229890
   7 O :   -0.240314
   8 C :    0.062588
   9 C :   -0.036168
  10 C :    0.019627
  11 C :    0.013746
  12 C :   -0.043066
  13 C :    0.114897
  14 N :   -0.269597
  15 C :    0.095610
  16 C :    0.003631
  17 C :    0.148792
  18 O :   -0.198705
  19 C :   -0.043012
  20 C :   -0.035979
  21 C :    0.145159
  22 O :   -0.200402
  23 N :   -0.272149
  24 C :    0.101934
  25 C :    0.003485
  26 C :    0.119815
  27 C :   -0.018814
  28 C :    0.006748
  29 C :    0.108938
  30 C :   -0.080530
  31 C :    0.143066
  32 N :    0.243672
  33 O :   -0.238137
  34 O :   -0.232444
  35 C :    0.069410
  36 C :   -0.038227
  37 C :    0.023048
  38 C :   -0.004439
  39 C :    0.009610
  40 C :    0.003320
  41 C :   -0.012947
  42 H :    0.031500
  43 H :    0.019690
  44 H :   -0.006286
  45 H :    0.002462
  46 H :    0.000654
  47 H :   -0.015545
  48 H :    0.005283
  49 H :    0.012923
  50 H :    0.021882
  51 H :    0.040259
  52 H :    0.037529
  53 H :    0.021963
  54 H :    0.018469
  55 H :    0.041378
  56 H :    0.023603
  57 H :    0.028286
  58 H :    0.022642
  59 H :    0.020224
  60 H :    0.004909
  61 H :   -0.023048
  62 H :    0.001502
  63 H :   -0.009275
  64 H :    0.000391
  65 H :    0.006866
  66 H :   -0.006349
  67 H :   -0.000628
  68 H :    0.016613
  69 H :    0.027173
Sum of atomic charges:   -0.0000000

LOEWDIN ATOMIC CHARGES
----------------------
   0 C :   -0.027990
   1 C :   -0.021840
   2 C :   -0.020722
   3 C :    0.006674
   4 C :   -0.028063
   5 N :    0.288043
   6 O :   -0.198003
   7 O :   -0.197665
   8 C :   -0.006609
   9 C :   -0.000594
  10 C :    0.014856
  11 C :    0.001840
  12 C :   -0.025831
  13 C :    0.077040
  14 N :   -0.005000
  15 C :    0.034000
  16 C :   -0.062654
  17 C :    0.081574
  18 O :   -0.199220
  19 C :   -0.118708
  20 C :   -0.119293
  21 C :    0.081041
  22 O :   -0.201663
  23 N :   -0.007094
  24 C :    0.034694
  25 C :   -0.063483
  26 C :    0.075357
  27 C :   -0.028576
  28 C :   -0.000794
  29 C :   -0.030421
  30 C :    0.009374
  31 C :   -0.031038
  32 N :    0.285448
  33 O :   -0.206049
  34 O :   -0.193000
  35 C :    0.003511
  36 C :   -0.006315
  37 C :    0.016950
  38 C :   -0.024654
  39 C :   -0.006206
  40 C :   -0.024063
  41 C :   -0.034187
  42 H :    0.030581
  43 H :    0.022264
  44 H :    0.032472
  45 H :    0.039839
  46 H :    0.039063
  47 H :    0.033908
  48 H :    0.027829
  49 H :    0.044375
  50 H :    0.020087
  51 H :    0.036078
  52 H :    0.024971
  53 H :    0.031994
  54 H :    0.028888
  55 H :    0.037273
  56 H :    0.021631
  57 H :    0.032946
  58 H :    0.030644
  59 H :    0.021493
  60 H :    0.043813
  61 H :    0.029982
  62 H :    0.038406
  63 H :    0.035216
  64 H :    0.037993
  65 H :    0.029841
  66 H :    0.026484
  67 H :    0.031879
  68 H :    0.022647
  69 H :    0.026735

  Mayer bond orders larger than 0.100000
B(  0-C ,  1-C ) :   1.9505 B(  0-C , 42-H ) :   0.9487 B(  0-C , 43-H ) :   0.9504
B(  1-C ,  2-C ) :   1.0687 B(  1-C , 44-H ) :   0.9705 B(  2-C ,  3-C ) :   1.3084
B(  2-C , 10-C ) :   1.3184 B(  3-C ,  4-C ) :   1.3604 B(  3-C , 45-H ) :   0.9994
B(  4-C ,  5-N ) :   0.8869 B(  4-C ,  8-C ) :   1.3444 B(  5-N ,  6-O ) :   1.5584
B(  5-N ,  7-O ) :   1.5005 B(  6-O ,  7-O ) :   0.2620 B(  8-C ,  9-C ) :   1.3308
B(  8-C , 11-C ) :   1.0631 B(  9-C , 10-C ) :   1.4252 B(  9-C , 46-H ) :   0.9888
B( 10-C , 47-H ) :   0.9914 B( 11-C , 12-C ) :   1.6523 B( 11-C , 48-H ) :   0.9520
B( 12-C , 13-C ) :   1.1679 B( 12-C , 49-H ) :   0.9442 B( 13-C , 14-N ) :   1.1766
B( 13-C , 20-C ) :   1.3540 B( 14-N , 15-C ) :   0.9382 B( 14-N , 17-C ) :   1.0361
B( 15-C , 16-C ) :   1.1197 B( 15-C , 50-H ) :   0.9495 B( 15-C , 51-H ) :   0.9225
B( 16-C , 52-H ) :   0.9659 B( 16-C , 53-H ) :   0.9669 B( 16-C , 54-H ) :   0.9595
B( 17-C , 18-O ) :   2.1138 B( 17-C , 19-C ) :   0.9840 B( 19-C , 20-C ) :   1.2191
B( 19-C , 26-C ) :   1.3516 B( 20-C , 21-C ) :   0.9840 B( 21-C , 22-O ) :   2.1152
B( 21-C , 23-N ) :   1.0347 B( 23-N , 24-C ) :   0.9434 B( 23-N , 26-C ) :   1.1690
B( 24-C , 25-C ) :   1.1176 B( 24-C , 55-H ) :   0.9251 B( 24-C , 56-H ) :   0.9513
B( 25-C , 57-H ) :   0.9608 B( 25-C , 58-H ) :   0.9685 B( 25-C , 59-H ) :   0.9677
B( 26-C , 27-C ) :   1.1705 B( 27-C , 28-C ) :   1.5971 B( 27-C , 60-H ) :   0.9428
B( 28-C , 29-C ) :   1.0758 B( 28-C , 61-H ) :   0.9909 B( 29-C , 30-C ) :   1.2917
B( 29-C , 37-C ) :   1.3031 B( 30-C , 31-C ) :   1.3598 B( 30-C , 62-H ) :   0.9991
B( 31-C , 32-N ) :   0.8822 B( 31-C , 35-C ) :   1.3496 B( 32-N , 33-O ) :   1.5494
B( 32-N , 34-O ) :   1.5251 B( 33-O , 34-O ) :   0.2642 B( 35-C , 36-C ) :   1.3242
B( 35-C , 38-C ) :   1.0581 B( 36-C , 37-C ) :   1.4352 B( 36-C , 63-H ) :   0.9867
B( 37-C , 64-H ) :   0.9892 B( 38-C , 39-C ) :   1.7419 B( 38-C , 65-H ) :   0.9547
B( 39-C , 40-C ) :   1.1067 B( 39-C , 66-H ) :   0.9748 B( 40-C , 41-C ) :   1.9052
B( 40-C , 67-H ) :   0.9764 B( 41-C , 68-H ) :   0.9587 B( 41-C , 69-H ) :   0.9527

-----------------------------------------------------------------------------
         ABSORPTION SPECTRUM VIA TRANSITION ELECTRIC DIPOLE MOMENTS
-----------------------------------------------------------------------------
State   Energy  Wavelength   fosc         T2         TX        TY        TZ
        (cm-1)    (nm)                  (au**2)     (au)      (au)      (au)
-----------------------------------------------------------------------------
   0   16968.3    589.3   1.023019326  19.84815   1.93621   3.99229   0.40105
   1   24017.8    416.4   0.016249670   0.22273  -0.05787  -0.32642   0.33591
   2   26385.0    379.0   0.095765085   1.19488   0.14878  -0.07191  -1.08054
   3   26923.1    371.4   0.040615114   0.49664  -0.18823  -0.41020   0.54124
   4   28152.3    355.2   0.431657210   5.04778  -0.89056  -1.64590   1.24326
   5   29083.6    343.8   0.010674852   0.12083   0.22879   0.23985   0.10471
   6   29745.5    336.2   0.372674099   4.12462  -1.05441  -1.67324   0.46165
   7   31319.4    319.3   0.080631765   0.84756  -0.31870  -0.80479   0.31354
   8   32226.6    310.3   0.057582177   0.58823  -0.41712  -0.63793  -0.08537
   9   32972.6    303.3   0.000236020   0.00236  -0.02412  -0.03806  -0.01807
  10   35112.1    284.8   0.659910040   6.18734   0.90698   1.57581  -1.69751
  11   35739.7    279.8   0.047535170   0.43786   0.15635   0.47428  -0.43414
  12   36256.1    275.8   0.053447300   0.48531   0.07825   0.04852   0.69053
  13   37357.1    267.7   0.060701322   0.53493   0.38981   0.61619   0.05740
  14   38626.5    258.9   0.071312976   0.60780   0.35402   0.69109  -0.06967
  15   38968.1    256.6   0.173257507   1.46372   0.27795  -0.14440   1.16860
  16   39677.1    252.0   0.113428154   0.94114  -0.41908  -0.87382  -0.04417
  17   40034.2    249.8   0.046557236   0.38285  -0.42745  -0.30239  -0.32969

FINAL SINGLE POINT ENERGY     -1904.024197940568

DIPOLE MOMENT
-------------
                                X             Y             Z
Electronic contribution:     -2.78634      -1.59665       1.65287
Nuclear contribution   :      2.71534       0.38925      -1.28117
                        -----------------------------------------
Total Dipole Moment    :     -0.07100      -1.20741       0.37171
                        -----------------------------------------
Magnitude (a.u.)       :      1.26532
Magnitude (Debye)      :      3.21619

Rotational constants in cm-1:     0.006764     0.000752     0.000682
Rotational constants in MHz :   202.782706    22.539350    20.447630

                             ****ORCA TERMINATED NORMALLY****
TOTAL RUN TIME: 0 days 0 hours 4 minutes 2 seconds 181 msec
