                         Program Version 4.2.0 -  RELEASE  -
|  1> # ORCA input file
|  2> # SCF done       -160.033755335495          0.000321354454
|  3> ! CAM-B3LYP def2-SVP def2/J RIJCOSX Grid4 TightSCF
|  4> %maxcore 5000
|  5> %tddft
|  6>     Mode sTDDFT
|  7>     Ethresh 5.0
|  8>     maxcore 5000
|  9> end
| 10>
| 11> %pal
| 12>   nprocs 6
| 13>   end
| 14> * xyz 0 1
| 15>    C       -1.39515        -0.43593         0.49163
| 16>    C       -1.58617        -1.26780        -0.57742
| 17>    C       -2.82797        -1.82067        -0.95269
| 18>    N       -3.81589        -2.23960        -1.36010
| 19>    C       -0.58068        -1.57636        -1.51977
| 20>    N        0.20087        -1.86606        -2.30831
| 21>    C       -0.21048         0.38478         0.73743
| 22>    C       -0.53031         1.38169         1.68013
| 23>    C        0.40405         2.32643         2.06178
| 24>    C        1.66941         2.26599         1.50109
| 25>    C        2.00904         1.27711         0.57863
| 26>    C        1.06064         0.33029         0.19386
| 27>    C        3.39271         1.21211         0.01670
| 28>    C       -1.91530         1.20191         2.14360
| 29>    O       -2.54679         1.87719         2.92311
| 30>    C       -2.37990        -0.05407         1.48391
| 31>    C       -3.46413        -0.71236         1.96983
| 32>    C       -3.83255        -2.00698         1.66926
| 33>    C       -4.12055        -3.17355         1.44922
| 34>    C       -4.40727        -4.44195         1.13837
| 35>    C       -4.65055        -5.59220         0.81268
| 36>    C       -4.88831        -6.89630         0.42011
| 37>    N       -6.08342        -7.31897        -0.11013
| 38>    C       -7.21844        -6.47088        -0.37956
| 39>    C       -6.98426        -5.58207        -1.59786
| 40>    C       -6.04705        -8.68259        -0.44305
| 41>    O       -6.98804        -9.27857        -0.93128
| 42>    C       -4.71834        -9.10917        -0.06063
| 43>    C       -4.03013        -7.98375         0.46851
| 44>    C       -2.70078        -8.39972         0.85586
| 45>    O       -1.76634        -7.80749         1.34854
| 46>    N       -2.66700        -9.76936         0.51786
| 47>    C       -1.50088       -10.57115         0.79557
| 48>    C       -1.67374       -11.40871         2.06058
| 49>    C       -3.85667       -10.20251        -0.02256
| 50>    C       -4.07959       -11.53201        -0.46509
| 51>    C       -5.26082       -11.93193        -1.00009
| 52>    C       -5.52834       -13.24368        -1.47576
| 53>    S       -7.07664       -13.58637        -2.17768
| 54>    C       -6.61772       -15.22154        -2.48617
| 55>    C       -7.46428       -16.21071        -3.08873
| 56>    O       -7.11293       -17.35667        -3.27733
| 57>    C       -5.32248       -15.48519        -2.04471
| 58>    C       -4.71381       -14.36616        -1.48056
| 59>    C       -4.73937       -16.81278        -2.20739
| 60>    C       -4.71932       -17.71610        -1.21279
| 61>    C       -4.23188       -19.08980        -1.23996
| 62>    C       -3.41225       -19.63639        -2.18407
| 63>    C       -2.88144       -18.92228        -3.28116
| 64>    N       -2.39365       -18.38774        -4.17161
| 65>    C       -2.94967       -20.97027        -2.15970
| 66>    N       -2.53951       -22.04137        -2.18966
| 67>    C       -4.73438       -19.74475        -0.03835
| 68>    C       -5.41325       -18.80069         0.75675
| 69>    C       -5.40288       -17.48833         0.09470
| 70>    O       -5.86336       -16.44322         0.49720
| 71>    C       -5.98640       -19.16447         1.96149
| 72>    C       -5.88111       -20.48331         2.37099
| 73>    C       -5.21846       -21.43406         1.59506
| 74>    C       -4.64080       -21.06094         0.38292
| 75>    C       -5.10442       -22.84790         2.06720
| 76>    H        0.14131         3.08843         2.77926
| 77>    H        2.41320         2.99637         1.78401
| 78>    H        1.33318        -0.43622        -0.51406
| 79>    H        3.83408         2.20345        -0.05001
| 80>    H        3.39022         0.75351        -0.96883
| 81>    H        4.02433         0.60625         0.66744
| 82>    H       -4.05198        -0.19265         2.72141
| 83>    H       -7.42237        -5.85730         0.50373
| 84>    H       -8.06405        -7.14061        -0.55838
| 85>    H       -6.13864        -4.91713        -1.43499
| 86>    H       -7.86811        -4.97940        -1.78604
| 87>    H       -6.78707        -6.19355        -2.47523
| 88>    H       -0.67771        -9.86442         0.93466
| 89>    H       -1.27641       -11.20588        -0.06650
| 90>    H       -1.84590       -10.75747         2.91395
| 91>    H       -0.77388       -11.98959         2.24346
| 92>    H       -2.51839       -12.08829         1.96882
| 93>    H       -3.26303       -12.23231        -0.37285
| 94>    H       -6.07005       -11.21828        -1.08660
| 95>    H       -8.46883       -15.85564        -3.37734
| 96>    H       -3.71549       -14.38017        -1.08338
| 97>    H       -4.35592       -17.04787        -3.19173
| 98>    H       -6.50394       -18.42860         2.55757
| 99>    H       -6.32333       -20.78773         3.30836
|100>    H       -4.13597       -21.80391        -0.21385
|101>    H       -5.94499       -23.11754         2.70170
|102>    H       -4.19035       -22.96689         2.64998
|103>    H       -5.05490       -23.53494         1.22627
|104> *
|105>
|106>                          ****END OF INPUT****

CARTESIAN COORDINATES (ANGSTROEM)
---------------------------------
  C     -1.395150   -0.435930    0.491630
  C     -1.586170   -1.267800   -0.577420
  C     -2.827970   -1.820670   -0.952690
  N     -3.815890   -2.239600   -1.360100
  C     -0.580680   -1.576360   -1.519770
  N      0.200870   -1.866060   -2.308310
  C     -0.210480    0.384780    0.737430
  C     -0.530310    1.381690    1.680130
  C      0.404050    2.326430    2.061780
  C      1.669410    2.265990    1.501090
  C      2.009040    1.277110    0.578630
  C      1.060640    0.330290    0.193860
  C      3.392710    1.212110    0.016700
  C     -1.915300    1.201910    2.143600
  O     -2.546790    1.877190    2.923110
  C     -2.379900   -0.054070    1.483910
  C     -3.464130   -0.712360    1.969830
  C     -3.832550   -2.006980    1.669260
  C     -4.120550   -3.173550    1.449220
  C     -4.407270   -4.441950    1.138370
  C     -4.650550   -5.592200    0.812680
  C     -4.888310   -6.896300    0.420110
  N     -6.083420   -7.318970   -0.110130
  C     -7.218440   -6.470880   -0.379560
  C     -6.984260   -5.582070   -1.597860
  C     -6.047050   -8.682590   -0.443050
  O     -6.988040   -9.278570   -0.931280
  C     -4.718340   -9.109170   -0.060630
  C     -4.030130   -7.983750    0.468510
  C     -2.700780   -8.399720    0.855860
  O     -1.766340   -7.807490    1.348540
  N     -2.667000   -9.769360    0.517860
  C     -1.500880  -10.571150    0.795570
  C     -1.673740  -11.408710    2.060580
  C     -3.856670  -10.202510   -0.022560
  C     -4.079590  -11.532010   -0.465090
  C     -5.260820  -11.931930   -1.000090
  C     -5.528340  -13.243680   -1.475760
  S     -7.076640  -13.586370   -2.177680
  C     -6.617720  -15.221540   -2.486170
  C     -7.464280  -16.210710   -3.088730
  O     -7.112930  -17.356670   -3.277330
  C     -5.322480  -15.485190   -2.044710
  C     -4.713810  -14.366160   -1.480560
  C     -4.739370  -16.812780   -2.207390
  C     -4.719320  -17.716100   -1.212790
  C     -4.231880  -19.089800   -1.239960
  C     -3.412250  -19.636390   -2.184070
  C     -2.881440  -18.922280   -3.281160
  N     -2.393650  -18.387740   -4.171610
  C     -2.949670  -20.970270   -2.159700
  N     -2.539510  -22.041370   -2.189660
  C     -4.734380  -19.744750   -0.038350
  C     -5.413250  -18.800690    0.756750
  C     -5.402880  -17.488330    0.094700
  O     -5.863360  -16.443220    0.497200
  C     -5.986400  -19.164470    1.961490
  C     -5.881110  -20.483310    2.370990
  C     -5.218460  -21.434060    1.595060
  C     -4.640800  -21.060940    0.382920
  C     -5.104420  -22.847900    2.067200
  H      0.141310    3.088430    2.779260
  H      2.413200    2.996370    1.784010
  H      1.333180   -0.436220   -0.514060
  H      3.834080    2.203450   -0.050010
  H      3.390220    0.753510   -0.968830
  H      4.024330    0.606250    0.667440
  H     -4.051980   -0.192650    2.721410
  H     -7.422370   -5.857300    0.503730
  H     -8.064050   -7.140610   -0.558380
  H     -6.138640   -4.917130   -1.434990
  H     -7.868110   -4.979400   -1.786040
  H     -6.787070   -6.193550   -2.475230
  H     -0.677710   -9.864420    0.934660
  H     -1.276410  -11.205880   -0.066500
  H     -1.845900  -10.757470    2.913950
  H     -0.773880  -11.989590    2.243460
  H     -2.518390  -12.088290    1.968820
  H     -3.263030  -12.232310   -0.372850
  H     -6.070050  -11.218280   -1.086600
  H     -8.468830  -15.855640   -3.377340
  H     -3.715490  -14.380170   -1.083380
  H     -4.355920  -17.047870   -3.191730
  H     -6.503940  -18.428600    2.557570
  H     -6.323330  -20.787730    3.308360
  H     -4.135970  -21.803910   -0.213850
  H     -5.944990  -23.117540    2.701700
  H     -4.190350  -22.966890    2.649980
  H     -5.054900  -23.534940    1.226270

 Total Charge           Charge          ....    0
 Multiplicity           Mult            ....    1
 Number of Electrons    NEL             ....  420
 Basis Dimension        Dim             ....  998

ORBITAL ENERGIES
----------------

  NO   OCC          E(Eh)            E(eV)
   0   2.0000     -88.978550     -2421.2295
   1   2.0000     -19.222637      -523.0746
   2   2.0000     -19.219696      -522.9945
   3   2.0000     -19.219408      -522.9867
   4   2.0000     -19.194490      -522.3086
   5   2.0000     -19.190663      -522.2045
   6   2.0000     -14.457338      -393.4042
   7   2.0000     -14.455597      -393.3568
   8   2.0000     -14.421145      -392.4193
   9   2.0000     -14.419423      -392.3725
  10   2.0000     -14.419234      -392.3673
  11   2.0000     -14.417227      -392.3127
  12   2.0000     -10.378950      -282.4256
  13   2.0000     -10.375451      -282.3304
  14   2.0000     -10.372729      -282.2563
  15   2.0000     -10.369753      -282.1753
  16   2.0000     -10.367602      -282.1168
  17   2.0000     -10.352845      -281.7152
  18   2.0000     -10.350148      -281.6419
  19   2.0000     -10.349354      -281.6202
  20   2.0000     -10.348725      -281.6031
  21   2.0000     -10.346560      -281.5442
  22   2.0000     -10.344113      -281.4776
  23   2.0000     -10.333885      -281.1993
  24   2.0000     -10.326354      -280.9944
  25   2.0000     -10.323161      -280.9075
  26   2.0000     -10.322749      -280.8963
  27   2.0000     -10.321446      -280.8608
  28   2.0000     -10.321336      -280.8578
  29   2.0000     -10.318853      -280.7903
  30   2.0000     -10.315393      -280.6961
  31   2.0000     -10.312931      -280.6291
  32   2.0000     -10.312106      -280.6067
  33   2.0000     -10.311433      -280.5884
  34   2.0000     -10.311042      -280.5777
  35   2.0000     -10.310922      -280.5745
  36   2.0000     -10.309740      -280.5423
  37   2.0000     -10.309043      -280.5233
  38   2.0000     -10.307783      -280.4890
  39   2.0000     -10.306792      -280.4621
  40   2.0000     -10.306515      -280.4545
  41   2.0000     -10.305029      -280.4141
  42   2.0000     -10.304050      -280.3874
  43   2.0000     -10.303460      -280.3714
  44   2.0000     -10.300665      -280.2953
  45   2.0000     -10.300573      -280.2928
  46   2.0000     -10.298882      -280.2468
  47   2.0000     -10.297817      -280.2179
  48   2.0000     -10.296552      -280.1834
  49   2.0000     -10.294157      -280.1182
  50   2.0000     -10.294121      -280.1173
  51   2.0000     -10.294115      -280.1171
  52   2.0000     -10.293987      -280.1136
  53   2.0000     -10.293689      -280.1055
  54   2.0000     -10.292483      -280.0727
  55   2.0000     -10.277723      -279.6711
  56   2.0000     -10.277447      -279.6635
  57   2.0000     -10.273100      -279.5453
  58   2.0000     -10.267647      -279.3969
  59   2.0000     -10.265370      -279.3349
  60   2.0000     -10.253662      -279.0163
  61   2.0000      -8.074020      -219.7053
  62   2.0000      -6.043034      -164.4393
  63   2.0000      -6.039009      -164.3298
  64   2.0000      -6.036566      -164.2633
  65   2.0000      -1.136957       -30.9382
  66   2.0000      -1.136320       -30.9208
  67   2.0000      -1.134784       -30.8791
  68   2.0000      -1.131625       -30.7931
  69   2.0000      -1.128697       -30.7134
  70   2.0000      -1.067798       -29.0563
  71   2.0000      -1.059328       -28.8258
  72   2.0000      -1.023107       -27.8402
  73   2.0000      -1.021592       -27.7989
  74   2.0000      -1.007042       -27.4030
  75   2.0000      -1.001272       -27.2460
  76   2.0000      -0.999224       -27.1903
  77   2.0000      -0.997496       -27.1432
  78   2.0000      -0.996807       -27.1245
  79   2.0000      -0.958963       -26.0947
  80   2.0000      -0.955635       -26.0041
  81   2.0000      -0.932902       -25.3856
  82   2.0000      -0.923716       -25.1356
  83   2.0000      -0.922571       -25.1044
  84   2.0000      -0.909018       -24.7356
  85   2.0000      -0.908286       -24.7157
  86   2.0000      -0.899875       -24.4868
  87   2.0000      -0.897265       -24.4158
  88   2.0000      -0.875964       -23.8362
  89   2.0000      -0.868769       -23.6404
  90   2.0000      -0.867575       -23.6079
  91   2.0000      -0.858189       -23.3525
  92   2.0000      -0.855411       -23.2769
  93   2.0000      -0.849731       -23.1224
  94   2.0000      -0.828407       -22.5421
  95   2.0000      -0.820478       -22.3263
  96   2.0000      -0.812379       -22.1060
  97   2.0000      -0.803633       -21.8680
  98   2.0000      -0.791847       -21.5472
  99   2.0000      -0.784024       -21.3344
 100   2.0000      -0.780258       -21.2319
 101   2.0000      -0.760833       -20.7033
 102   2.0000      -0.753751       -20.5106
 103   2.0000      -0.747501       -20.3405
 104   2.0000      -0.730789       -19.8858
 105   2.0000      -0.724143       -19.7049
 106   2.0000      -0.717911       -19.5354
 107   2.0000      -0.710255       -19.3270
 108   2.0000      -0.705565       -19.1994
 109   2.0000      -0.699338       -19.0300
 110   2.0000      -0.689839       -18.7715
 111   2.0000      -0.687903       -18.7188
 112   2.0000      -0.684229       -18.6188
 113   2.0000      -0.673337       -18.3224
 114   2.0000      -0.668577       -18.1929
 115   2.0000      -0.654883       -17.8203
 116   2.0000      -0.648647       -17.6506
 117   2.0000      -0.646055       -17.5801
 118   2.0000      -0.637452       -17.3460
 119   2.0000      -0.636526       -17.3207
 120   2.0000      -0.622813       -16.9476
 121   2.0000      -0.614573       -16.7234
 122   2.0000      -0.614041       -16.7089
 123   2.0000      -0.609587       -16.5877
 124   2.0000      -0.597071       -16.2471
 125   2.0000      -0.595027       -16.1915
 126   2.0000      -0.590401       -16.0656
 127   2.0000      -0.577905       -15.7256
 128   2.0000      -0.575090       -15.6490
 129   2.0000      -0.571712       -15.5571
 130   2.0000      -0.569289       -15.4911
 131   2.0000      -0.556940       -15.1551
 132   2.0000      -0.556445       -15.1416
 133   2.0000      -0.552295       -15.0287
 134   2.0000      -0.542581       -14.7644
 135   2.0000      -0.540295       -14.7022
 136   2.0000      -0.538066       -14.6415
 137   2.0000      -0.537713       -14.6319
 138   2.0000      -0.534359       -14.5406
 139   2.0000      -0.532178       -14.4813
 140   2.0000      -0.530240       -14.4286
 141   2.0000      -0.528384       -14.3781
 142   2.0000      -0.528275       -14.3751
 143   2.0000      -0.523166       -14.2361
 144   2.0000      -0.520783       -14.1712
 145   2.0000      -0.519642       -14.1402
 146   2.0000      -0.516502       -14.0547
 147   2.0000      -0.514454       -13.9990
 148   2.0000      -0.514206       -13.9923
 149   2.0000      -0.512306       -13.9406
 150   2.0000      -0.508761       -13.8441
 151   2.0000      -0.504816       -13.7367
 152   2.0000      -0.502698       -13.6791
 153   2.0000      -0.502372       -13.6702
 154   2.0000      -0.500429       -13.6174
 155   2.0000      -0.499936       -13.6040
 156   2.0000      -0.496552       -13.5119
 157   2.0000      -0.482472       -13.1287
 158   2.0000      -0.477590       -12.9959
 159   2.0000      -0.476389       -12.9632
 160   2.0000      -0.475775       -12.9465
 161   2.0000      -0.474657       -12.9161
 162   2.0000      -0.472859       -12.8672
 163   2.0000      -0.470366       -12.7993
 164   2.0000      -0.464893       -12.6504
 165   2.0000      -0.463854       -12.6221
 166   2.0000      -0.458750       -12.4832
 167   2.0000      -0.455353       -12.3908
 168   2.0000      -0.454467       -12.3667
 169   2.0000      -0.454075       -12.3560
 170   2.0000      -0.452960       -12.3257
 171   2.0000      -0.452076       -12.3016
 172   2.0000      -0.451418       -12.2837
 173   2.0000      -0.449546       -12.2328
 174   2.0000      -0.447922       -12.1886
 175   2.0000      -0.447398       -12.1743
 176   2.0000      -0.446466       -12.1490
 177   2.0000      -0.445181       -12.1140
 178   2.0000      -0.443840       -12.0775
 179   2.0000      -0.440549       -11.9879
 180   2.0000      -0.438731       -11.9385
 181   2.0000      -0.433606       -11.7990
 182   2.0000      -0.430345       -11.7103
 183   2.0000      -0.428138       -11.6502
 184   2.0000      -0.426854       -11.6153
 185   2.0000      -0.425395       -11.5756
 186   2.0000      -0.424035       -11.5386
 187   2.0000      -0.417819       -11.3694
 188   2.0000      -0.414946       -11.2913
 189   2.0000      -0.412176       -11.2159
 190   2.0000      -0.411116       -11.1870
 191   2.0000      -0.399504       -10.8710
 192   2.0000      -0.381026       -10.3682
 193   2.0000      -0.376885       -10.2556
 194   2.0000      -0.363822        -9.9001
 195   2.0000      -0.354760        -9.6535
 196   2.0000      -0.350056        -9.5255
 197   2.0000      -0.348202        -9.4750
 198   2.0000      -0.339922        -9.2498
 199   2.0000      -0.339847        -9.2477
 200   2.0000      -0.335501        -9.1294
 201   2.0000      -0.329237        -8.9590
 202   2.0000      -0.326707        -8.8901
 203   2.0000      -0.324800        -8.8382
 204   2.0000      -0.320188        -8.7128
 205   2.0000      -0.318777        -8.6744
 206   2.0000      -0.311254        -8.4696
 207   2.0000      -0.306809        -8.3487
 208   2.0000      -0.304388        -8.2828
 209   2.0000      -0.244580        -6.6554
 210   0.0000      -0.103527        -2.8171
 211   0.0000      -0.088844        -2.4176
 212   0.0000      -0.081830        -2.2267
 213   0.0000      -0.065034        -1.7697
 214   0.0000      -0.054071        -1.4714

MULLIKEN ATOMIC CHARGES
-----------------------
   0 C :    0.278439
   1 C :   -0.310062
   2 C :   -0.200126
   3 N :    0.183228
   4 C :   -0.179280
   5 N :    0.154484
   6 C :    0.041594
   7 C :   -0.015351
   8 C :   -0.018278
   9 C :    0.007078
  10 C :   -0.037326
  11 C :   -0.066087
  12 C :    0.086370
  13 C :    0.137813
  14 O :   -0.135739
  15 C :   -0.111130
  16 C :   -0.079242
  17 C :    0.027359
  18 C :    0.027779
  19 C :   -0.067086
  20 C :    0.140203
  21 C :    0.003661
  22 N :   -0.253926
  23 C :    0.112214
  24 C :   -0.006129
  25 C :    0.170830
  26 O :   -0.213443
  27 C :   -0.096691
  28 C :    0.025862
  29 C :    0.119861
  30 O :   -0.169387
  31 N :   -0.271347
  32 C :    0.097757
  33 C :    0.002895
  34 C :    0.153541
  35 C :   -0.025057
  36 C :    0.087977
  37 C :   -0.086437
  38 S :    0.197170
  39 C :   -0.154861
  40 C :    0.176275
  41 O :   -0.196207
  42 C :    0.084482
  43 C :    0.024222
  44 C :   -0.050256
  45 C :   -0.054028
  46 C :    0.324217
  47 C :   -0.327528
  48 C :   -0.201416
  49 N :    0.165465
  50 C :   -0.186162
  51 N :    0.157186
  52 C :    0.041084
  53 C :   -0.027907
  54 C :    0.144449
  55 O :   -0.137376
  56 C :   -0.016081
  57 C :    0.009866
  58 C :   -0.038761
  59 C :   -0.063571
  60 C :    0.087412
  61 H :   -0.001774
  62 H :   -0.013259
  63 H :   -0.006605
  64 H :    0.024693
  65 H :    0.032820
  66 H :    0.045998
  67 H :    0.054330
  68 H :    0.025932
  69 H :    0.040400
  70 H :    0.040790
  71 H :    0.021893
  72 H :    0.022960
  73 H :    0.046685
  74 H :    0.024630
  75 H :    0.030737
  76 H :    0.024686
  77 H :    0.016976
  78 H :   -0.024837
  79 H :    0.013190
  80 H :   -0.009946
  81 H :   -0.014220
  82 H :    0.056595
  83 H :   -0.004379
  84 H :   -0.014494
  85 H :   -0.010111
  86 H :    0.023021
  87 H :    0.045154
  88 H :    0.033644
Sum of atomic charges:   -0.0000000

LOEWDIN ATOMIC CHARGES
----------------------
   0 C :    0.066542
   1 C :   -0.116052
   2 C :   -0.014050
   3 N :   -0.037749
   4 C :   -0.016142
   5 N :   -0.042251
   6 C :   -0.005687
   7 C :   -0.055633
   8 C :    0.020069
   9 C :   -0.008134
  10 C :    0.005457
  11 C :   -0.007730
  12 C :   -0.042664
  13 C :    0.083007
  14 O :   -0.134002
  15 C :   -0.054683
  16 C :    0.038725
  17 C :   -0.001562
  18 C :    0.002926
  19 C :   -0.015377
  20 C :    0.016991
  21 C :    0.039063
  22 N :    0.009957
  23 C :    0.038404
  24 C :   -0.060381
  25 C :    0.077126
  26 O :   -0.206627
  27 C :   -0.128535
  28 C :   -0.089616
  29 C :    0.084188
  30 O :   -0.176371
  31 N :   -0.006225
  32 C :    0.035552
  33 C :   -0.061325
  34 C :    0.090293
  35 C :   -0.042482
  36 C :    0.020839
  37 C :   -0.152098
  38 S :    0.493836
  39 C :   -0.236208
  40 C :    0.093758
  41 O :   -0.143277
  42 C :   -0.012553
  43 C :   -0.026355
  44 C :    0.087945
  45 C :   -0.075591
  46 C :    0.080277
  47 C :   -0.125280
  48 C :   -0.018867
  49 N :   -0.043863
  50 C :   -0.017478
  51 N :   -0.046126
  52 C :   -0.008738
  53 C :   -0.051984
  54 C :    0.083949
  55 O :   -0.135200
  56 C :    0.018616
  57 C :   -0.006263
  58 C :    0.003276
  59 C :   -0.004131
  60 C :   -0.042637
  61 H :    0.040909
  62 H :    0.032315
  63 H :    0.037297
  64 H :    0.035063
  65 H :    0.038608
  66 H :    0.045491
  67 H :    0.063556
  68 H :    0.027570
  69 H :    0.035903
  70 H :    0.031349
  71 H :    0.031091
  72 H :    0.029335
  73 H :    0.039293
  74 H :    0.022950
  75 H :    0.033107
  76 H :    0.031201
  77 H :    0.022024
  78 H :    0.029273
  79 H :    0.038498
  80 H :    0.001356
  81 H :    0.032836
  82 H :    0.052729
  83 H :    0.040091
  84 H :    0.031954
  85 H :    0.037133
  86 H :    0.034232
  87 H :    0.045412
  88 H :    0.038553

  Mayer bond orders larger than 0.100000
B(  0-C ,  1-C ) :   1.6677 B(  0-C ,  6-C ) :   1.0012 B(  0-C , 15-C ) :   1.0241
B(  1-C ,  2-C ) :   1.1661 B(  1-C ,  4-C ) :   1.1273 B(  2-C ,  3-N ) :   2.9880
B(  4-C ,  5-N ) :   2.9825 B(  6-C ,  7-C ) :   1.3240 B(  6-C , 11-C ) :   1.3705
B(  7-C ,  8-C ) :   1.3756 B(  7-C , 13-C ) :   0.9347 B(  8-C ,  9-C ) :   1.3577
B(  8-C , 61-H ) :   1.0076 B(  9-C , 10-C ) :   1.3786 B(  9-C , 62-H ) :   0.9933
B( 10-C , 11-C ) :   1.3555 B( 10-C , 12-C ) :   1.0541 B( 11-C , 63-H ) :   0.9870
B( 12-C , 64-H ) :   0.9580 B( 12-C , 65-H ) :   0.9582 B( 12-C , 66-H ) :   0.9504
B( 13-C , 14-O ) :   2.2731 B( 13-C , 15-C ) :   0.9270 B( 15-C , 16-C ) :   1.7156
B( 16-C , 17-C ) :   0.9404 B( 16-C , 67-H ) :   0.9490 B( 17-C , 18-C ) :   2.0734
B( 17-C , 20-C ) :   0.1728 B( 18-C , 19-C ) :   0.8882 B( 19-C , 20-C ) :   2.0675
B( 20-C , 21-C ) :   0.7988 B( 21-C , 22-N ) :   1.1992 B( 21-C , 28-C ) :   1.4369
B( 22-N , 23-C ) :   0.9414 B( 22-N , 25-C ) :   1.0624 B( 23-C , 24-C ) :   1.1194
B( 23-C , 68-H ) :   0.9478 B( 23-C , 69-H ) :   0.9327 B( 24-C , 70-H ) :   0.9682
B( 24-C , 71-H ) :   0.9668 B( 24-C , 72-H ) :   0.9648 B( 25-C , 26-O ) :   2.0200
B( 25-C , 27-C ) :   0.9960 B( 26-O , 79-H ) :   0.1198 B( 27-C , 28-C ) :   1.2290
B( 27-C , 34-C ) :   1.3375 B( 28-C , 29-C ) :   0.9333 B( 29-C , 30-O ) :   2.1903
B( 29-C , 31-N ) :   1.0264 B( 31-N , 32-C ) :   0.9450 B( 31-N , 34-C ) :   1.1668
B( 32-C , 33-C ) :   1.1207 B( 32-C , 73-H ) :   0.9263 B( 32-C , 74-H ) :   0.9502
B( 33-C , 75-H ) :   0.9632 B( 33-C , 76-H ) :   0.9681 B( 33-C , 77-H ) :   0.9686
B( 34-C , 35-C ) :   1.1638 B( 35-C , 36-C ) :   1.6285 B( 35-C , 78-H ) :   0.9628
B( 36-C , 37-C ) :   1.1183 B( 36-C , 79-H ) :   0.9352 B( 37-C , 38-S ) :   1.1737
B( 37-C , 43-C ) :   1.4280 B( 38-S , 39-C ) :   1.1074 B( 39-C , 40-C ) :   1.0322
B( 39-C , 42-C ) :   1.4627 B( 40-C , 41-O ) :   2.0886 B( 40-C , 80-H ) :   0.9586
B( 42-C , 43-C ) :   1.3386 B( 42-C , 44-C ) :   0.9866 B( 43-C , 81-H ) :   0.9955
B( 44-C , 45-C ) :   1.7959 B( 44-C , 82-H ) :   0.9267 B( 45-C , 46-C ) :   1.0038
B( 45-C , 54-C ) :   0.9196 B( 46-C , 47-C ) :   1.6840 B( 46-C , 52-C ) :   0.9999
B( 47-C , 48-C ) :   1.1450 B( 47-C , 50-C ) :   1.1324 B( 48-C , 49-N ) :   2.9935
B( 50-C , 51-N ) :   2.9768 B( 52-C , 53-C ) :   1.3234 B( 52-C , 59-C ) :   1.3630
B( 53-C , 54-C ) :   0.9513 B( 53-C , 56-C ) :   1.3743 B( 54-C , 55-O ) :   2.2387
B( 56-C , 57-C ) :   1.3563 B( 56-C , 83-H ) :   1.0067 B( 57-C , 58-C ) :   1.3757
B( 57-C , 84-H ) :   0.9917 B( 58-C , 59-C ) :   1.3624 B( 58-C , 60-C ) :   1.0534
B( 59-C , 85-H ) :   0.9857 B( 60-C , 86-H ) :   0.9588 B( 60-C , 87-H ) :   0.9503
B( 60-C , 88-H ) :   0.9577

-----------------------------------------------------------------------------
         ABSORPTION SPECTRUM VIA TRANSITION ELECTRIC DIPOLE MOMENTS
-----------------------------------------------------------------------------
State   Energy  Wavelength   fosc         T2         TX        TY        TZ
        (cm-1)    (nm)                  (au**2)     (au)      (au)      (au)
-----------------------------------------------------------------------------
   0   15277.6    654.6   0.646001390  13.92049  -0.28753  -3.69498  -0.43001
   1   18651.5    536.1   0.273781785   4.83243  -0.43267   2.08499   0.54595
   2   23845.7    419.4   0.007079675   0.09774  -0.13776   0.27751  -0.04188
   3   25749.6    388.4   0.034120699   0.43624  -0.15193   0.60846   0.20720
   4   26118.0    382.9   0.120238281   1.51558  -0.66266  -0.96391   0.38384
   5   26776.2    373.5   0.058024664   0.71341  -0.55692  -0.53101   0.34826
   6   27751.9    360.3   0.127105242   1.50781  -0.12697  -1.19627  -0.24620
   7   28059.2    356.4   0.013705811   0.16081   0.09259   0.25546   0.29491
   8   28477.5    351.2   0.310151033   3.58548  -1.23390  -1.43522   0.05601
   9   28672.0    348.8   0.004168161   0.04786  -0.09666  -0.05448  -0.18854
  10   29129.7    343.3   0.047904439   0.54140   0.61137   0.40570   0.05508
  11   29330.9    340.9   0.410281162   4.60503   0.73057   1.79722   0.91722
  12   29783.4    335.8   0.039447411   0.43603   0.16472   0.54552   0.33364
  13   29867.4    334.8   0.150216248   1.65575   1.00737   0.58747   0.54390
  14   30255.8    330.5   0.040548432   0.44121  -0.16072   0.07783   0.63978
  15   30446.3    328.4   0.008378529   0.09060   0.19105  -0.19564  -0.12579
  16   30637.7    326.4   0.074981345   0.80570   0.47731   0.54821   0.52663
  17   31517.2    317.3   0.002639745   0.02757  -0.06328   0.14015   0.06266
  18   32115.9    311.4   0.173814383   1.78173   1.12741  -0.71032   0.07825
  19   32483.1    307.9   0.095393550   0.96680   0.08647   0.91720   0.34361
  20   32814.9    304.7   0.138900105   1.39350   0.83204   0.19955  -0.81326
  21   33017.3    302.9   0.018947682   0.18893  -0.23001  -0.33045  -0.16377
  22   33510.4    298.4   0.005884982   0.05782  -0.08753  -0.15712   0.15958
  23   33792.9    295.9   0.034771275   0.33874   0.36009  -0.25689  -0.37827
  24   34027.1    293.9   0.008088296   0.07825  -0.07458  -0.26873  -0.02181
  25   34642.8    288.7   0.011712971   0.11131   0.22572   0.08937  -0.22885
  26   35027.5    285.5   0.059036430   0.55486  -0.69288   0.09442   0.25665
  27   35542.0    281.4   0.063862753   0.59154   0.24167   0.62450  -0.37833
  28   35792.8    279.4   0.036732931   0.33786   0.24506   0.50648   0.14590
  29   35913.2    278.4   0.350814397   3.21587   1.25273   1.28318   0.00273
  30   36350.1    275.1   0.161851926   1.46585  -0.63461  -0.12841   1.02305
  31   36790.1    271.8   0.897306200   8.02944   1.34511   2.13691   1.28597
  32   36938.9    270.7   0.416169442   3.70904   0.24903  -0.24501  -1.89394
  33   37756.2    264.9   0.039591870   0.34522  -0.00597   0.31502   0.49593
  34   37852.7    264.2   0.008920630   0.07758   0.14269   0.12839   0.20184
  35   38029.9    263.0   0.025244240   0.21853  -0.23986  -0.31034   0.25435
  36   38081.4    262.6   0.044452315   0.38429  -0.28172   0.11786  -0.53947
  37   38812.1    257.7   0.066478616   0.56389   0.55719  -0.37145  -0.33977
  38   39105.7    255.7   0.072171436   0.60758   0.52382  -0.57722  -0.00123
  39   39483.4    253.3   0.049081272   0.40924   0.35293   0.35492  -0.39839
  40   39888.6    250.7   0.036279463   0.29942  -0.04197  -0.52010   0.16480
  41   40146.5    249.1   0.133007933   1.09070   0.91843  -0.13748  -0.47779

FINAL SINGLE POINT ENERGY     -2983.322327053333

DIPOLE MOMENT
-------------
                                X             Y             Z
Electronic contribution:    -12.11681       2.69179     -13.59145
Nuclear contribution   :     12.45016      -2.03770      16.31051
                        -----------------------------------------
Total Dipole Moment    :      0.33335       0.65408       2.71907
                        -----------------------------------------
Magnitude (a.u.)       :      2.81643
Magnitude (Debye)      :      7.15879

Rotational constants in cm-1:     0.003180     0.000315     0.000307
Rotational constants in MHz :    95.320358     9.433853     9.195598

                             ****ORCA TERMINATED NORMALLY****
TOTAL RUN TIME: 0 days 0 hours 7 minutes 23 seconds 446 msec
