                         Program Version 4.2.0 -  RELEASE  -
|  1> # ORCA input file
|  2> # SCF done       -188.720290346489          0.000963217563
|  3> ! CAM-B3LYP def2-SVP def2/J RIJCOSX Grid4 TightSCF
|  4> %maxcore 5000
|  5> %tddft
|  6>     Mode sTDDFT
|  7>     Ethresh 5.0
|  8>     maxcore 5000
|  9> end
| 10>
| 11> %pal
| 12>   nprocs 6
| 13>   end
| 14> * xyz 0 1
| 15>    C       11.94772         2.11015         4.14696
| 16>    C       12.93057         2.22416         5.08106
| 17>    S       14.19118         3.26954         4.53747
| 18>    C       13.38616         3.55635         3.01347
| 19>   Cl       14.06208         4.56614         1.83424
| 20>    C       12.20684         2.87395         2.96022
| 21>    C       11.12175         2.67976         1.99630
| 22>    O       11.02797         3.08941         0.86301
| 23>    C       10.13958         1.80261         2.70915
| 24>    C       10.68811         1.41090         4.00368
| 25>    C       10.18609         0.49201         4.87765
| 26>    C       10.89831         0.10843         6.03391
| 27>    N       11.47160        -0.24024         6.96445
| 28>    C        8.97816        -0.22035         4.72504
| 29>    N        8.00183        -0.82271         4.68948
| 30>    C        8.99079         1.39180         2.14558
| 31>    C        8.61135         1.72796         0.78134
| 32>    C        8.61707         0.75464        -0.22182
| 33>    N        8.23886         0.98559        -1.50725
| 34>    C        7.88786         2.16090        -1.90917
| 35>    C        7.87614         3.25476        -1.00745
| 36>    C        8.23209         3.02088         0.37120
| 37>    N        8.10424         4.17160         1.00979
| 38>    O        7.71035         5.05054         0.09457
| 39>    N        7.56468         4.53077        -1.11665
| 40>    C        9.09348        -0.55603         0.12180
| 41>    C        9.11593        -1.63998        -0.68600
| 42>    C        9.59755        -2.88236        -0.19271
| 43>    N        9.58498        -4.05428        -0.90772
| 44>    C        9.17856        -4.21700        -2.28342
| 45>    C       10.25528        -3.73633        -3.25252
| 46>    C       10.06725        -5.13518        -0.15494
| 47>    O       10.15920        -6.26863        -0.59117
| 48>    C       10.38904        -4.56399         1.13400
| 49>    C       10.10755        -3.17629         1.07518
| 50>    C       10.47069        -2.60271         2.35259
| 51>    O       10.47322        -1.45111         2.76068
| 52>    N       10.90990        -3.68655         3.11691
| 53>    C       11.30192        -3.52270         4.49751
| 54>    C       10.16003        -3.85379         5.45377
| 55>    C       10.86394        -4.86785         2.41266
| 56>    C       11.24617        -6.12123         2.94640
| 57>    C       11.24716        -7.23818         2.16958
| 58>    C       11.63054        -8.53566         2.60388
| 59>    C       11.73407        -9.64704         1.73610
| 60>    N       12.16827       -10.87481         2.13773
| 61>    C       12.47522       -11.14306         3.36022
| 62>    C       12.38257       -10.13717         4.35560
| 63>    C       11.96989        -8.81320         3.96030
| 64>    N       11.98715        -8.06639         5.04877
| 65>    O       12.37812        -8.86650         6.04340
| 66>    N       12.62087       -10.10944         5.65009
| 67>    C       11.40803        -9.56429         0.34028
| 68>    C       11.59429       -10.60292        -0.51354
| 69>    C       11.31375       -10.49417        -1.89544
| 70>    C       11.39395       -11.47949        -2.83303
| 71>    C       11.48548       -11.11100        -4.28002
| 72>    O       11.24114       -10.03327        -4.76626
| 73>    C       11.98811       -12.32732        -4.93257
| 74>    C       12.38997       -12.70290        -6.17890
| 75>    S       12.89415       -14.37692        -6.18293
| 76>    C       12.54526       -14.55142        -4.50064
| 77>    C       12.07748       -13.38973        -3.97290
| 78>    C       11.58571       -12.91025        -2.69311
| 79>    C       11.20547       -13.71891        -1.65492
| 80>    C       11.44576       -15.10868        -1.68943
| 81>    N       11.66003       -16.23583        -1.70062
| 82>    C       10.45060       -13.30846        -0.53636
| 83>    N        9.78269       -13.05777         0.36233
| 84>   Cl       12.43591       -11.76631        -7.59005
| 85>    H       13.00343         1.77125         6.04999
| 86>    H        8.33017         0.71854         2.67720
| 87>    H        7.60069         2.28085        -2.94343
| 88>    H        9.47477        -0.65317         1.12800
| 89>    H        8.74965        -1.56942        -1.69863
| 90>    H        8.23891        -3.68382        -2.44996
| 91>    H        9.00791        -5.28766        -2.42562
| 92>    H       10.47107        -2.68072        -3.10384
| 93>    H        9.92039        -3.88538        -4.27503
| 94>    H       11.17112        -4.30276        -3.10229
| 95>    H       11.58682        -2.47331         4.61523
| 96>    H       12.17481        -4.14666         4.70335
| 97>    H        9.29711        -3.22794         5.23684
| 98>    H       10.47600        -3.66472         6.47563
| 99>    H        9.86783        -4.89720         5.36244
|100>    H       11.54697        -6.18036         3.98139
|101>    H       10.94853        -7.13102         1.13970
|102>    H       12.80749       -12.14310         3.59584
|103>    H       10.98262        -8.64977        -0.04428
|104>    H       12.01312       -11.51827        -0.12318
|105>    H       11.09552        -9.50226        -2.27836
|106>    H       12.71923       -15.49497        -4.02274
|107> *
|108>
|109>                          ****END OF INPUT****

CARTESIAN COORDINATES (ANGSTROEM)
---------------------------------
  C     11.947720    2.110150    4.146960
  C     12.930570    2.224160    5.081060
  S     14.191180    3.269540    4.537470
  C     13.386160    3.556350    3.013470
  Cl    14.062080    4.566140    1.834240
  C     12.206840    2.873950    2.960220
  C     11.121750    2.679760    1.996300
  O     11.027970    3.089410    0.863010
  C     10.139580    1.802610    2.709150
  C     10.688110    1.410900    4.003680
  C     10.186090    0.492010    4.877650
  C     10.898310    0.108430    6.033910
  N     11.471600   -0.240240    6.964450
  C      8.978160   -0.220350    4.725040
  N      8.001830   -0.822710    4.689480
  C      8.990790    1.391800    2.145580
  C      8.611350    1.727960    0.781340
  C      8.617070    0.754640   -0.221820
  N      8.238860    0.985590   -1.507250
  C      7.887860    2.160900   -1.909170
  C      7.876140    3.254760   -1.007450
  C      8.232090    3.020880    0.371200
  N      8.104240    4.171600    1.009790
  O      7.710350    5.050540    0.094570
  N      7.564680    4.530770   -1.116650
  C      9.093480   -0.556030    0.121800
  C      9.115930   -1.639980   -0.686000
  C      9.597550   -2.882360   -0.192710
  N      9.584980   -4.054280   -0.907720
  C      9.178560   -4.217000   -2.283420
  C     10.255280   -3.736330   -3.252520
  C     10.067250   -5.135180   -0.154940
  O     10.159200   -6.268630   -0.591170
  C     10.389040   -4.563990    1.134000
  C     10.107550   -3.176290    1.075180
  C     10.470690   -2.602710    2.352590
  O     10.473220   -1.451110    2.760680
  N     10.909900   -3.686550    3.116910
  C     11.301920   -3.522700    4.497510
  C     10.160030   -3.853790    5.453770
  C     10.863940   -4.867850    2.412660
  C     11.246170   -6.121230    2.946400
  C     11.247160   -7.238180    2.169580
  C     11.630540   -8.535660    2.603880
  C     11.734070   -9.647040    1.736100
  N     12.168270  -10.874810    2.137730
  C     12.475220  -11.143060    3.360220
  C     12.382570  -10.137170    4.355600
  C     11.969890   -8.813200    3.960300
  N     11.987150   -8.066390    5.048770
  O     12.378120   -8.866500    6.043400
  N     12.620870  -10.109440    5.650090
  C     11.408030   -9.564290    0.340280
  C     11.594290  -10.602920   -0.513540
  C     11.313750  -10.494170   -1.895440
  C     11.393950  -11.479490   -2.833030
  C     11.485480  -11.111000   -4.280020
  O     11.241140  -10.033270   -4.766260
  C     11.988110  -12.327320   -4.932570
  C     12.389970  -12.702900   -6.178900
  S     12.894150  -14.376920   -6.182930
  C     12.545260  -14.551420   -4.500640
  C     12.077480  -13.389730   -3.972900
  C     11.585710  -12.910250   -2.693110
  C     11.205470  -13.718910   -1.654920
  C     11.445760  -15.108680   -1.689430
  N     11.660030  -16.235830   -1.700620
  C     10.450600  -13.308460   -0.536360
  N      9.782690  -13.057770    0.362330
  Cl    12.435910  -11.766310   -7.590050
  H     13.003430    1.771250    6.049990
  H      8.330170    0.718540    2.677200
  H      7.600690    2.280850   -2.943430
  H      9.474770   -0.653170    1.128000
  H      8.749650   -1.569420   -1.698630
  H      8.238910   -3.683820   -2.449960
  H      9.007910   -5.287660   -2.425620
  H     10.471070   -2.680720   -3.103840
  H      9.920390   -3.885380   -4.275030
  H     11.171120   -4.302760   -3.102290
  H     11.586820   -2.473310    4.615230
  H     12.174810   -4.146660    4.703350
  H      9.297110   -3.227940    5.236840
  H     10.476000   -3.664720    6.475630
  H      9.867830   -4.897200    5.362440
  H     11.546970   -6.180360    3.981390
  H     10.948530   -7.131020    1.139700
  H     12.807490  -12.143100    3.595840
  H     10.982620   -8.649770   -0.044280
  H     12.013120  -11.518270   -0.123180
  H     11.095520   -9.502260   -2.278360
  H     12.719230  -15.494970   -4.022740

 Total Charge           Charge          ....    0
 Multiplicity           Mult            ....    1
 Number of Electrons    NEL             ....  508
 Basis Dimension        Dim             .... 1106

ORBITAL ENERGIES
----------------

  NO   OCC          E(Eh)            E(eV)
   0   2.0000    -101.621300     -2765.2562
   1   2.0000    -101.615790     -2765.1062
   2   2.0000     -88.998134     -2421.7623
   3   2.0000     -88.991115     -2421.5713
   4   2.0000     -19.374125      -527.1967
   5   2.0000     -19.368198      -527.0355
   6   2.0000     -19.228562      -523.2358
   7   2.0000     -19.216736      -522.9140
   8   2.0000     -19.205899      -522.6191
   9   2.0000     -19.204151      -522.5715
  10   2.0000     -14.503665      -394.6648
  11   2.0000     -14.497408      -394.4945
  12   2.0000     -14.495577      -394.4447
  13   2.0000     -14.487770      -394.2323
  14   2.0000     -14.465117      -393.6158
  15   2.0000     -14.463141      -393.5621
  16   2.0000     -14.437563      -392.8660
  17   2.0000     -14.437504      -392.8645
  18   2.0000     -14.427126      -392.5821
  19   2.0000     -14.421820      -392.4377
  20   2.0000     -14.419511      -392.3748
  21   2.0000     -14.414751      -392.2453
  22   2.0000     -10.386778      -282.6386
  23   2.0000     -10.385592      -282.6063
  24   2.0000     -10.383203      -282.5413
  25   2.0000     -10.380797      -282.4758
  26   2.0000     -10.374099      -282.2936
  27   2.0000     -10.373215      -282.2695
  28   2.0000     -10.352313      -281.7008
  29   2.0000     -10.350144      -281.6417
  30   2.0000     -10.349848      -281.6337
  31   2.0000     -10.349287      -281.6184
  32   2.0000     -10.348044      -281.5846
  33   2.0000     -10.347688      -281.5749
  34   2.0000     -10.346882      -281.5530
  35   2.0000     -10.346821      -281.5513
  36   2.0000     -10.345247      -281.5085
  37   2.0000     -10.344484      -281.4877
  38   2.0000     -10.341216      -281.3988
  39   2.0000     -10.338660      -281.3292
  40   2.0000     -10.338096      -281.3139
  41   2.0000     -10.334928      -281.2277
  42   2.0000     -10.333279      -281.1828
  43   2.0000     -10.328564      -281.0545
  44   2.0000     -10.327922      -281.0370
  45   2.0000     -10.327054      -281.0134
  46   2.0000     -10.325372      -280.9677
  47   2.0000     -10.324445      -280.9424
  48   2.0000     -10.324396      -280.9411
  49   2.0000     -10.321307      -280.8570
  50   2.0000     -10.317084      -280.7421
  51   2.0000     -10.316692      -280.7315
  52   2.0000     -10.315521      -280.6996
  53   2.0000     -10.314765      -280.6790
  54   2.0000     -10.314451      -280.6705
  55   2.0000     -10.311172      -280.5813
  56   2.0000     -10.310804      -280.5712
  57   2.0000     -10.304601      -280.4025
  58   2.0000     -10.302381      -280.3421
  59   2.0000     -10.300810      -280.2993
  60   2.0000     -10.300066      -280.2790
  61   2.0000     -10.299874      -280.2738
  62   2.0000     -10.298691      -280.2416
  63   2.0000     -10.298226      -280.2290
  64   2.0000     -10.295412      -280.1524
  65   2.0000     -10.293666      -280.1049
  66   2.0000     -10.272222      -279.5214
  67   2.0000     -10.271874      -279.5119
  68   2.0000     -10.269013      -279.4341
  69   2.0000     -10.258252      -279.1412
  70   2.0000      -9.576057      -260.5778
  71   2.0000      -9.570582      -260.4288
  72   2.0000      -8.093846      -220.2447
  73   2.0000      -8.086833      -220.0539
  74   2.0000      -7.346705      -199.9140
  75   2.0000      -7.341215      -199.7646
  76   2.0000      -7.336103      -199.6255
  77   2.0000      -7.335536      -199.6101
  78   2.0000      -7.330616      -199.4762
  79   2.0000      -7.330087      -199.4618
  80   2.0000      -6.063211      -164.9884
  81   2.0000      -6.058590      -164.8626
  82   2.0000      -6.056240      -164.7987
  83   2.0000      -6.056136      -164.7958
  84   2.0000      -6.051635      -164.6734
  85   2.0000      -6.049032      -164.6025
  86   2.0000      -1.327665       -36.1276
  87   2.0000      -1.322027       -35.9742
  88   2.0000      -1.145777       -31.1782
  89   2.0000      -1.145061       -31.1587
  90   2.0000      -1.139163       -30.9982
  91   2.0000      -1.133504       -30.8442
  92   2.0000      -1.075162       -29.2567
  93   2.0000      -1.074215       -29.2309
  94   2.0000      -1.072286       -29.1784
  95   2.0000      -1.066207       -29.0130
  96   2.0000      -1.042260       -28.3613
  97   2.0000      -1.036016       -28.1914
  98   2.0000      -1.030695       -28.0466
  99   2.0000      -1.023339       -27.8465
 100   2.0000      -1.021501       -27.7964
 101   2.0000      -1.014700       -27.6114
 102   2.0000      -1.002799       -27.2875
 103   2.0000      -0.995302       -27.0836
 104   2.0000      -0.992761       -27.0144
 105   2.0000      -0.986177       -26.8352
 106   2.0000      -0.985382       -26.8136
 107   2.0000      -0.978221       -26.6187
 108   2.0000      -0.960028       -26.1237
 109   2.0000      -0.953655       -25.9503
 110   2.0000      -0.943180       -25.6652
 111   2.0000      -0.940608       -25.5952
 112   2.0000      -0.934386       -25.4259
 113   2.0000      -0.919508       -25.0211
 114   2.0000      -0.912362       -24.8266
 115   2.0000      -0.904563       -24.6144
 116   2.0000      -0.902458       -24.5571
 117   2.0000      -0.888525       -24.1780
 118   2.0000      -0.875986       -23.8368
 119   2.0000      -0.864428       -23.5223
 120   2.0000      -0.855257       -23.2727
 121   2.0000      -0.837033       -22.7768
 122   2.0000      -0.830540       -22.6001
 123   2.0000      -0.825459       -22.4619
 124   2.0000      -0.824885       -22.4463
 125   2.0000      -0.816064       -22.2062
 126   2.0000      -0.798400       -21.7256
 127   2.0000      -0.791612       -21.5409
 128   2.0000      -0.788009       -21.4428
 129   2.0000      -0.784021       -21.3343
 130   2.0000      -0.765096       -20.8193
 131   2.0000      -0.763455       -20.7747
 132   2.0000      -0.758981       -20.6529
 133   2.0000      -0.758085       -20.6286
 134   2.0000      -0.747230       -20.3332
 135   2.0000      -0.730541       -19.8790
 136   2.0000      -0.720749       -19.6126
 137   2.0000      -0.714023       -19.4296
 138   2.0000      -0.711322       -19.3560
 139   2.0000      -0.698844       -19.0165
 140   2.0000      -0.693296       -18.8655
 141   2.0000      -0.692769       -18.8512
 142   2.0000      -0.681753       -18.5515
 143   2.0000      -0.680799       -18.5255
 144   2.0000      -0.673664       -18.3313
 145   2.0000      -0.669035       -18.2054
 146   2.0000      -0.661106       -17.9896
 147   2.0000      -0.658558       -17.9203
 148   2.0000      -0.650852       -17.7106
 149   2.0000      -0.648227       -17.6392
 150   2.0000      -0.638754       -17.3814
 151   2.0000      -0.630339       -17.1524
 152   2.0000      -0.624884       -17.0040
 153   2.0000      -0.622953       -16.9514
 154   2.0000      -0.620945       -16.8968
 155   2.0000      -0.619590       -16.8599
 156   2.0000      -0.617251       -16.7962
 157   2.0000      -0.616266       -16.7695
 158   2.0000      -0.612178       -16.6582
 159   2.0000      -0.605381       -16.4733
 160   2.0000      -0.598199       -16.2778
 161   2.0000      -0.593171       -16.1410
 162   2.0000      -0.583361       -15.8741
 163   2.0000      -0.579371       -15.7655
 164   2.0000      -0.575957       -15.6726
 165   2.0000      -0.574273       -15.6268
 166   2.0000      -0.568766       -15.4769
 167   2.0000      -0.565373       -15.3846
 168   2.0000      -0.557959       -15.1828
 169   2.0000      -0.553372       -15.0580
 170   2.0000      -0.552264       -15.0279
 171   2.0000      -0.545840       -14.8531
 172   2.0000      -0.545203       -14.8357
 173   2.0000      -0.544154       -14.8072
 174   2.0000      -0.539853       -14.6902
 175   2.0000      -0.538999       -14.6669
 176   2.0000      -0.537255       -14.6195
 177   2.0000      -0.533986       -14.5305
 178   2.0000      -0.530878       -14.4459
 179   2.0000      -0.529110       -14.3978
 180   2.0000      -0.527101       -14.3431
 181   2.0000      -0.526204       -14.3187
 182   2.0000      -0.524038       -14.2598
 183   2.0000      -0.521873       -14.2009
 184   2.0000      -0.518758       -14.1161
 185   2.0000      -0.515041       -14.0150
 186   2.0000      -0.513119       -13.9627
 187   2.0000      -0.511373       -13.9152
 188   2.0000      -0.506491       -13.7823
 189   2.0000      -0.502360       -13.6699
 190   2.0000      -0.501358       -13.6426
 191   2.0000      -0.500177       -13.6105
 192   2.0000      -0.496651       -13.5146
 193   2.0000      -0.495347       -13.4791
 194   2.0000      -0.491951       -13.3867
 195   2.0000      -0.490486       -13.3468
 196   2.0000      -0.485027       -13.1983
 197   2.0000      -0.480904       -13.0861
 198   2.0000      -0.475129       -12.9289
 199   2.0000      -0.473922       -12.8961
 200   2.0000      -0.470142       -12.7932
 201   2.0000      -0.465150       -12.6574
 202   2.0000      -0.461548       -12.5594
 203   2.0000      -0.460515       -12.5313
 204   2.0000      -0.458085       -12.4651
 205   2.0000      -0.456473       -12.4213
 206   2.0000      -0.455588       -12.3972
 207   2.0000      -0.454786       -12.3754
 208   2.0000      -0.452773       -12.3206
 209   2.0000      -0.449286       -12.2257
 210   2.0000      -0.448640       -12.2081
 211   2.0000      -0.448342       -12.2000
 212   2.0000      -0.445410       -12.1202
 213   2.0000      -0.444341       -12.0911
 214   2.0000      -0.442559       -12.0426
 215   2.0000      -0.439800       -11.9676
 216   2.0000      -0.438792       -11.9401
 217   2.0000      -0.437379       -11.9017
 218   2.0000      -0.434358       -11.8195
 219   2.0000      -0.430712       -11.7203
 220   2.0000      -0.429326       -11.6826
 221   2.0000      -0.426546       -11.6069
 222   2.0000      -0.426026       -11.5928
 223   2.0000      -0.425856       -11.5881
 224   2.0000      -0.421307       -11.4644
 225   2.0000      -0.419624       -11.4186
 226   2.0000      -0.416464       -11.3326
 227   2.0000      -0.411888       -11.2081
 228   2.0000      -0.410880       -11.1806
 229   2.0000      -0.408997       -11.1294
 230   2.0000      -0.407756       -11.0956
 231   2.0000      -0.406527       -11.0622
 232   2.0000      -0.405021       -11.0212
 233   2.0000      -0.404554       -11.0085
 234   2.0000      -0.401844       -10.9347
 235   2.0000      -0.385899       -10.5009
 236   2.0000      -0.378431       -10.2976
 237   2.0000      -0.370924       -10.0934
 238   2.0000      -0.365765        -9.9530
 239   2.0000      -0.362387        -9.8611
 240   2.0000      -0.359994        -9.7959
 241   2.0000      -0.354629        -9.6500
 242   2.0000      -0.347711        -9.4617
 243   2.0000      -0.346291        -9.4231
 244   2.0000      -0.341753        -9.2996
 245   2.0000      -0.340830        -9.2745
 246   2.0000      -0.337318        -9.1789
 247   2.0000      -0.330348        -8.9892
 248   2.0000      -0.324638        -8.8338
 249   2.0000      -0.316869        -8.6225
 250   2.0000      -0.312346        -8.4994
 251   2.0000      -0.308928        -8.4064
 252   2.0000      -0.291603        -7.9349
 253   2.0000      -0.246043        -6.6952
 254   0.0000      -0.118701        -3.2300
 255   0.0000      -0.097197        -2.6449
 256   0.0000      -0.085518        -2.3271
 257   0.0000      -0.073591        -2.0025
 258   0.0000      -0.058130        -1.5818

MULLIKEN ATOMIC CHARGES
-----------------------
   0 C :    0.025279
   1 C :   -0.130843
   2 S :    0.190484
   3 C :   -0.172837
   4 Cl:    0.002449
   5 C :    0.084455
   6 C :    0.156356
   7 O :   -0.128557
   8 C :   -0.037830
   9 C :    0.323377
  10 C :   -0.311220
  11 C :   -0.219071
  12 N :    0.159448
  13 C :   -0.147918
  14 N :    0.146136
  15 C :   -0.072572
  16 C :    0.001884
  17 C :    0.008064
  18 N :   -0.029136
  19 C :    0.013612
  20 C :   -0.043591
  21 C :    0.003928
  22 N :    0.060995
  23 O :   -0.093615
  24 N :    0.077809
  25 C :   -0.020566
  26 C :    0.007083
  27 C :    0.131105
  28 N :   -0.250543
  29 C :    0.100026
  30 C :    0.003872
  31 C :    0.177139
  32 O :   -0.221225
  33 C :   -0.065833
  34 C :   -0.058539
  35 C :    0.191335
  36 O :   -0.245514
  37 N :   -0.244598
  38 C :    0.096934
  39 C :    0.003513
  40 C :    0.138492
  41 C :   -0.013389
  42 C :   -0.031245
  43 C :    0.130051
  44 C :   -0.007612
  45 N :   -0.032530
  46 C :    0.018339
  47 C :   -0.039192
  48 C :   -0.050537
  49 N :    0.031789
  50 O :   -0.087321
  51 N :    0.084574
  52 C :   -0.029721
  53 C :    0.042477
  54 C :    0.026592
  55 C :   -0.112250
  56 C :    0.139422
  57 O :   -0.128247
  58 C :    0.084487
  59 C :   -0.174054
  60 S :    0.181724
  61 C :   -0.129680
  62 C :    0.022304
  63 C :    0.268684
  64 C :   -0.311007
  65 C :   -0.188607
  66 N :    0.149344
  67 C :   -0.209425
  68 N :    0.178472
  69 Cl:   -0.002887
  70 H :    0.053086
  71 H :    0.057012
  72 H :    0.016829
  73 H :    0.021032
  74 H :   -0.015319
  75 H :    0.027523
  76 H :    0.046248
  77 H :    0.019428
  78 H :    0.028214
  79 H :    0.028774
  80 H :    0.034419
  81 H :    0.028408
  82 H :    0.033316
  83 H :    0.032528
  84 H :    0.017374
  85 H :   -0.002097
  86 H :   -0.007292
  87 H :    0.021796
  88 H :    0.022506
  89 H :    0.034620
  90 H :    0.029321
  91 H :    0.051952
Sum of atomic charges:   -0.0000000

LOEWDIN ATOMIC CHARGES
----------------------
   0 C :   -0.054950
   1 C :   -0.150755
   2 S :    0.479883
   3 C :   -0.270671
   4 Cl:    0.194696
   5 C :   -0.116672
   6 C :    0.086575
   7 O :   -0.124134
   8 C :   -0.051554
   9 C :    0.076983
  10 C :   -0.113956
  11 C :   -0.012649
  12 N :   -0.052506
  13 C :   -0.014054
  14 N :   -0.051376
  15 C :    0.075135
  16 C :   -0.025374
  17 C :    0.006532
  18 N :   -0.047955
  19 C :    0.054977
  20 C :   -0.080429
  21 C :   -0.041966
  22 N :   -0.021552
  23 O :    0.089362
  24 N :   -0.003385
  25 C :    0.019605
  26 C :   -0.021234
  27 C :    0.080943
  28 N :    0.006826
  29 C :    0.038117
  30 C :   -0.059452
  31 C :    0.085670
  32 O :   -0.207043
  33 C :   -0.117405
  34 C :   -0.119096
  35 C :    0.089488
  36 O :   -0.211979
  37 N :    0.011389
  38 C :    0.038260
  39 C :   -0.060803
  40 C :    0.075645
  41 C :   -0.027084
  42 C :    0.018356
  43 C :   -0.033737
  44 C :    0.018418
  45 N :   -0.035603
  46 C :    0.056310
  47 C :   -0.082460
  48 C :   -0.036889
  49 N :   -0.027650
  50 O :    0.084106
  51 N :    0.004867
  52 C :    0.019723
  53 C :    0.001159
  54 C :    0.069415
  55 C :   -0.081730
  56 C :    0.079291
  57 O :   -0.133872
  58 C :   -0.117823
  59 C :   -0.273193
  60 S :    0.470917
  61 C :   -0.152499
  62 C :   -0.056783
  63 C :    0.068092
  64 C :   -0.131802
  65 C :   -0.015222
  66 N :   -0.051144
  67 C :   -0.027321
  68 N :   -0.039694
  69 Cl:    0.189414
  70 H :    0.037782
  71 H :    0.053446
  72 H :    0.034083
  73 H :    0.036406
  74 H :    0.034233
  75 H :    0.025978
  76 H :    0.038424
  77 H :    0.023749
  78 H :    0.033109
  79 H :    0.032013
  80 H :    0.032929
  81 H :    0.027313
  82 H :    0.031516
  83 H :    0.035096
  84 H :    0.024137
  85 H :    0.031290
  86 H :    0.034907
  87 H :    0.036534
  88 H :    0.040868
  89 H :    0.034933
  90 H :    0.049436
  91 H :    0.037119

  Mayer bond orders larger than 0.100000
B(  0-C ,  1-C ) :   1.5415 B(  0-C ,  5-C ) :   1.2257 B(  0-C ,  9-C ) :   1.0056
B(  1-C ,  2-S ) :   1.1627 B(  1-C , 70-H ) :   0.9549 B(  2-S ,  3-C ) :   1.1556
B(  3-C ,  4-Cl) :   1.1324 B(  3-C ,  5-C ) :   1.4678 B(  5-C ,  6-C ) :   0.9557
B(  6-C ,  7-O ) :   2.2288 B(  6-C ,  8-C ) :   0.9174 B(  8-C ,  9-C ) :   1.0238
B(  8-C , 15-C ) :   1.8125 B(  9-C , 10-C ) :   1.6969 B( 10-C , 11-C ) :   1.1558
B( 10-C , 13-C ) :   1.1481 B( 11-C , 12-N ) :   2.9698 B( 13-C , 14-N ) :   2.8903
B( 15-C , 16-C ) :   1.0060 B( 15-C , 71-H ) :   0.9088 B( 16-C , 17-C ) :   1.4734
B( 16-C , 21-C ) :   1.1726 B( 17-C , 18-N ) :   1.3401 B( 17-C , 25-C ) :   1.1238
B( 18-N , 19-C ) :   1.7887 B( 19-C , 20-C ) :   1.0967 B( 19-C , 72-H ) :   0.9898
B( 20-C , 21-C ) :   1.1719 B( 20-C , 24-N ) :   1.6024 B( 21-C , 22-N ) :   1.5978
B( 22-N , 23-O ) :   1.0579 B( 22-N , 24-N ) :   0.1846 B( 23-O , 24-N ) :   1.0917
B( 25-C , 26-C ) :   1.6044 B( 25-C , 73-H ) :   0.9331 B( 26-C , 27-C ) :   1.1105
B( 26-C , 74-H ) :   0.9871 B( 27-C , 28-N ) :   1.1675 B( 27-C , 34-C ) :   1.3239
B( 28-N , 29-C ) :   0.9387 B( 28-N , 31-C ) :   1.0695 B( 29-C , 30-C ) :   1.1228
B( 29-C , 75-H ) :   0.9493 B( 29-C , 76-H ) :   0.9297 B( 30-C , 77-H ) :   0.9689
B( 30-C , 78-H ) :   0.9681 B( 30-C , 79-H ) :   0.9633 B( 31-C , 32-O ) :   1.9857
B( 31-C , 33-C ) :   1.0001 B( 33-C , 34-C ) :   1.2638 B( 33-C , 40-C ) :   1.3275
B( 34-C , 35-C ) :   1.0006 B( 35-C , 36-O ) :   1.9171 B( 35-C , 37-N ) :   1.0888
B( 36-O , 73-H ) :   0.1178 B( 37-N , 38-C ) :   0.9314 B( 37-N , 40-C ) :   1.1626
B( 38-C , 39-C ) :   1.1254 B( 38-C , 80-H ) :   0.9300 B( 38-C , 81-H ) :   0.9462
B( 39-C , 82-H ) :   0.9579 B( 39-C , 83-H ) :   0.9661 B( 39-C , 84-H ) :   0.9646
B( 40-C , 41-C ) :   1.1379 B( 41-C , 42-C ) :   1.5783 B( 41-C , 85-H ) :   0.9556
B( 42-C , 43-C ) :   1.1648 B( 42-C , 86-H ) :   0.9459 B( 43-C , 44-C ) :   1.3601
B( 43-C , 48-C ) :   1.0966 B( 44-C , 45-N ) :   1.3406 B( 44-C , 52-C ) :   1.1144
B( 45-N , 46-C ) :   1.7850 B( 46-C , 47-C ) :   1.0870 B( 46-C , 87-H ) :   0.9933
B( 47-C , 48-C ) :   1.1706 B( 47-C , 51-N ) :   1.6129 B( 48-C , 49-N ) :   1.5941
B( 49-N , 50-O ) :   1.0461 B( 49-N , 51-N ) :   0.1768 B( 50-O , 51-N ) :   1.0918
B( 52-C , 53-C ) :   1.6652 B( 52-C , 88-H ) :   0.9764 B( 53-C , 54-C ) :   1.0914
B( 53-C , 89-H ) :   0.9556 B( 54-C , 55-C ) :   1.6165 B( 54-C , 90-H ) :   0.9625
B( 55-C , 56-C ) :   0.9366 B( 55-C , 63-C ) :   1.0402 B( 56-C , 57-O ) :   2.2770
B( 56-C , 58-C ) :   0.9269 B( 58-C , 59-C ) :   1.4854 B( 58-C , 62-C ) :   1.2211
B( 59-C , 60-S ) :   1.1510 B( 59-C , 69-Cl) :   1.1267 B( 60-S , 61-C ) :   1.1568
B( 61-C , 62-C ) :   1.5541 B( 61-C , 91-H ) :   0.9558 B( 62-C , 63-C ) :   1.0094
B( 63-C , 64-C ) :   1.6613 B( 64-C , 65-C ) :   1.1355 B( 64-C , 67-C ) :   1.1476
B( 65-C , 66-N ) :   2.9969 B( 67-C , 68-N ) :   3.0169

-----------------------------------------------------------------------------
         ABSORPTION SPECTRUM VIA TRANSITION ELECTRIC DIPOLE MOMENTS
-----------------------------------------------------------------------------
State   Energy  Wavelength   fosc         T2         TX        TY        TZ
        (cm-1)    (nm)                  (au**2)     (au)      (au)      (au)
-----------------------------------------------------------------------------
   0   12611.8    792.9   0.655527566  17.11161  -0.99514   4.01503   0.02945
   1   16663.6    600.1   0.004695962   0.09278   0.17627   0.04736   0.24385
   2   19939.5    501.5   0.172346604   2.84553  -0.68253   0.89844  -1.25399
   3   22299.6    448.4   0.710259251  10.48567   0.21151   2.25655   2.31278
   4   23007.8    434.6   0.012983490   0.18578  -0.09351   0.30664  -0.28810
   5   25310.2    395.1   0.016390026   0.21319   0.19593  -0.05261   0.41476
   6   25712.4    388.9   0.046379187   0.59382   0.28060   0.31892   0.64294
   7   26123.2    382.8   0.080396450   1.01318   0.46300   0.30489   0.84015
   8   26762.3    373.7   0.115318361   1.41857  -0.27540   0.84150   0.79662
   9   27232.9    367.2   0.097294230   1.17617   0.01618   0.57888   0.91696
  10   27892.4    358.5   0.010693491   0.12621   0.13936   0.10854   0.30824
  11   28002.1    357.1   0.013061695   0.15356   0.10332  -0.36732  -0.08924
  12   28698.4    348.5   0.023888034   0.27403   0.06361  -0.11434  -0.50686
  13   29092.2    343.7   0.014529440   0.16442  -0.20758  -0.34573  -0.04243
  14   29694.1    336.8   0.018927865   0.20985   0.05990  -0.41823  -0.17703
  15   29800.1    335.6   0.252451632   2.78892  -0.01818   1.66492   0.12898
  16   30273.1    330.3   0.079192464   0.86120   0.08674  -0.19906  -0.90225
  17   30452.0    328.4   0.007130943   0.07709  -0.09367   0.16653  -0.20146
  18   30777.5    324.9   0.061658989   0.65954  -0.32341   0.44469  -0.59766
  19   31168.1    320.8   0.041260928   0.43582  -0.48912   0.08028  -0.43605
  20   31439.6    318.1   0.039660302   0.41529  -0.14239   0.49501   0.38727
  21   31762.7    314.8   0.044501676   0.46125  -0.15440   0.12664  -0.64913
  22   31877.0    313.7   0.030444876   0.31442  -0.27008  -0.15426   0.46656
  23   32500.3    307.7   0.049273721   0.49912   0.01433  -0.31692   0.63125
  24   32707.3    305.7   0.220497645   2.21939  -0.07578   0.05009  -1.48699
  25   33370.9    299.7   0.045982840   0.45363  -0.51582  -0.42825   0.06448
  26   33558.2    298.0   0.015863651   0.15563   0.07818  -0.35676   0.14911
  27   33702.8    296.7   0.016824205   0.16434   0.03190   0.39764   0.07214
  28   34248.8    292.0   0.056781174   0.54580  -0.45218  -0.30107  -0.50069
  29   34504.7    289.8   0.026211416   0.25009  -0.05601   0.48159  -0.12255
  30   34773.3    287.6   0.010786829   0.10212  -0.22390  -0.21661  -0.07121
  31   34965.1    286.0   0.079527010   0.74878   0.18829   0.24573  -0.80805
  32   35069.3    285.1   0.015145276   0.14218   0.26888  -0.02836   0.26282
  33   35197.5    284.1   0.050256821   0.47007  -0.17363   0.05750   0.66077
  34   35606.2    280.9   0.040141862   0.37115   0.02885  -0.54033   0.27993
  35   35949.5    278.2   0.131111147   1.20067   0.41585   0.87758  -0.50753
  36   36258.5    275.8   0.415945003   3.77661   0.13852   0.36512  -1.90371
  37   36873.3    271.2   0.124004117   1.10713  -0.24788  -0.28205  -0.98292
  38   37080.7    269.7   0.071541468   0.63516   0.01968  -0.66191   0.44346
  39   37175.6    269.0   0.235356307   2.08422  -0.59058   0.62416   1.16011
  40   37473.8    266.9   0.378369528   3.32402   0.98056   1.10160  -1.07192
  41   37675.2    265.4   0.038582073   0.33714   0.04034  -0.23491  -0.52946
  42   37886.1    263.9   0.037722243   0.32779   0.43030  -0.28736  -0.24506
  43   38076.2    262.6   0.009438956   0.08161   0.17721   0.00168   0.22406
  44   38561.0    259.3   0.094675044   0.80828   0.64685  -0.39555   0.48313
  45   38710.9    258.3   0.053213052   0.45254   0.06596   0.64721   0.17122
  46   38817.2    257.6   0.147801588   1.25352   0.93755   0.59118  -0.15821
  47   39126.0    255.6   0.237273487   1.99645  -0.38078  -1.12469   0.76585
  48   39203.6    255.1   0.041218653   0.34613  -0.29298  -0.30840  -0.40643
  49   39576.3    252.7   0.031115872   0.25883   0.22540   0.09514  -0.44607
  50   39909.4    250.6   0.114560907   0.94501  -0.33123   0.43201   0.80540
  51   40105.1    249.3   0.188658383   1.54865   0.11284  -0.95427   0.79075
  52   40267.2    248.3   0.159852027   1.30690  -0.94333  -0.54920  -0.33972

FINAL SINGLE POINT ENERGY     -4663.010286956798

DIPOLE MOMENT
-------------
                                X             Y             Z
Electronic contribution:     17.81261       7.61401     -15.86953
Nuclear contribution   :    -15.99213      -6.52609      14.52201
                        -----------------------------------------
Total Dipole Moment    :      1.82048       1.08791      -1.34751
                        -----------------------------------------
Magnitude (a.u.)       :      2.51267
Magnitude (Debye)      :      6.38669

Rotational constants in cm-1:     0.001460     0.000354     0.000309
Rotational constants in MHz :    43.783981    10.608517     9.272332

                             ****ORCA TERMINATED NORMALLY****
TOTAL RUN TIME: 0 days 0 hours 9 minutes 16 seconds 32 msec
