                         Program Version 4.2.0 -  RELEASE  -
|  1> # ORCA input file
|  2> # SCF done       -140.743543876782          0.000450280752
|  3> ! CAM-B3LYP def2-SVP def2/J RIJCOSX Grid4 TightSCF
|  4> %maxcore 5000
|  5> %tddft
|  6>     Mode sTDDFT
|  7>     Ethresh 5.0
|  8>     maxcore 5000
|  9> end
| 10>
| 11> %pal
| 12>   nprocs 6
| 13>   end
| 14> * xyz 0 1
| 15>    C        1.30418         0.52631        -0.19259
| 16>    C        0.05448         0.99343        -0.45516
| 17>    S       -0.85566        -0.14696        -1.37842
| 18>    C        0.47858        -1.27584        -1.41823
| 19>   Cl        0.34825        -2.76570        -2.21421
| 20>    C        1.54928        -0.77219        -0.74211
| 21>    C        2.91754        -1.20128        -0.43183
| 22>    O        3.45698        -2.22049        -0.80356
| 23>    C        3.46736        -0.11794         0.43805
| 24>    C        2.50073         0.97216         0.49137
| 25>    C        2.67079         2.22594         1.01601
| 26>    C        1.62896         3.17700         0.98397
| 27>    N        0.78924         3.95870         0.97106
| 28>    C        3.85568         2.73307         1.58711
| 29>    N        4.78992         3.22451         2.03841
| 30>    C        4.57105        -0.17047         1.24728
| 31>    C        5.60532        -1.13318         1.34673
| 32>    C        6.00975        -1.99677         0.37368
| 33>    C        7.04982        -2.93363         0.57471
| 34>    N        7.46638        -3.81884        -0.39022
| 35>    C        6.95202        -3.92744        -1.73516
| 36>    C        7.56078        -2.87499        -2.65837
| 37>    C        8.51421        -4.64213         0.06202
| 38>    O        9.03772        -5.50875        -0.60477
| 39>    C        8.73630        -4.20280         1.42439
| 40>    C        7.82544        -3.17038         1.71630
| 41>    C        8.06144        -2.76381         3.08676
| 42>    O        7.52971        -1.92753         3.78728
| 43>    N        9.10991        -3.59441         3.53363
| 44>    C        9.66780        -3.39176         4.84946
| 45>    C       10.99286        -2.63593         4.79196
| 46>    C        9.53156        -4.45450         2.54601
| 47>    C       10.54694        -5.43571         2.52834
| 48>    C       11.37605        -5.88068         3.51452
| 49>    C       12.39158        -6.85184         3.31872
| 50>    C       12.73325        -7.41786         2.12632
| 51>    C       13.80186        -8.32642         1.98487
| 52>    C       14.35592        -8.75026         0.81113
| 53>    C       15.20492        -9.97976         0.79899
| 54>    O       15.65292       -10.55268         1.76353
| 55>    C       15.31149       -10.33484        -0.62174
| 56>    C       15.84329       -11.34432        -1.36606
| 57>    S       15.54857       -11.07245        -3.06788
| 58>    C       14.72070        -9.59022        -2.75219
| 59>    C       14.66982        -9.33019        -1.41935
| 60>    C       14.17915        -8.27689        -0.54716
| 61>    C       13.82340        -7.02442        -0.97811
| 62>    C       13.74834        -6.72146        -2.35433
| 63>    N       13.67454        -6.46345        -3.46982
| 64>    C       13.61648        -5.89751        -0.15748
| 65>    N       13.49080        -4.93160         0.45047
| 66>   Cl       16.68624       -12.71090        -0.82585
| 67>    H       -0.40089         1.92058        -0.16910
| 68>    H        4.64871         0.62250         1.98318
| 69>    H        6.14767        -1.12697         2.28459
| 70>    H        5.53669        -1.97898        -0.59420
| 71>    H        5.86235        -3.84694        -1.71487
| 72>    H        7.22910        -4.92528        -2.08642
| 73>    H        7.33338        -1.87045        -2.30836
| 74>    H        7.16246        -2.99387        -3.66195
| 75>    H        8.64104        -2.99327        -2.69703
| 76>    H        9.77419        -4.35402         5.35628
| 77>    H        8.93069        -2.79436         5.39468
| 78>    H       11.71923        -3.15994         4.17507
| 79>    H       11.39639        -2.52328         5.79443
| 80>    H       10.83396        -1.64679         4.36984
| 81>    H       10.63981        -5.87613         1.54460
| 82>    H       11.29700        -5.48596         4.51564
| 83>    H       12.97943        -7.11508         4.18919
| 84>    H       12.17134        -7.17256         1.23833
| 85>    H       14.20041        -8.78814         2.88220
| 86>    H       14.32386        -9.02494        -3.57183
| 87> *
| 88>
| 89>                          ****END OF INPUT****

CARTESIAN COORDINATES (ANGSTROEM)
---------------------------------
  C      1.304180    0.526310   -0.192590
  C      0.054480    0.993430   -0.455160
  S     -0.855660   -0.146960   -1.378420
  C      0.478580   -1.275840   -1.418230
  Cl     0.348250   -2.765700   -2.214210
  C      1.549280   -0.772190   -0.742110
  C      2.917540   -1.201280   -0.431830
  O      3.456980   -2.220490   -0.803560
  C      3.467360   -0.117940    0.438050
  C      2.500730    0.972160    0.491370
  C      2.670790    2.225940    1.016010
  C      1.628960    3.177000    0.983970
  N      0.789240    3.958700    0.971060
  C      3.855680    2.733070    1.587110
  N      4.789920    3.224510    2.038410
  C      4.571050   -0.170470    1.247280
  C      5.605320   -1.133180    1.346730
  C      6.009750   -1.996770    0.373680
  C      7.049820   -2.933630    0.574710
  N      7.466380   -3.818840   -0.390220
  C      6.952020   -3.927440   -1.735160
  C      7.560780   -2.874990   -2.658370
  C      8.514210   -4.642130    0.062020
  O      9.037720   -5.508750   -0.604770
  C      8.736300   -4.202800    1.424390
  C      7.825440   -3.170380    1.716300
  C      8.061440   -2.763810    3.086760
  O      7.529710   -1.927530    3.787280
  N      9.109910   -3.594410    3.533630
  C      9.667800   -3.391760    4.849460
  C     10.992860   -2.635930    4.791960
  C      9.531560   -4.454500    2.546010
  C     10.546940   -5.435710    2.528340
  C     11.376050   -5.880680    3.514520
  C     12.391580   -6.851840    3.318720
  C     12.733250   -7.417860    2.126320
  C     13.801860   -8.326420    1.984870
  C     14.355920   -8.750260    0.811130
  C     15.204920   -9.979760    0.798990
  O     15.652920  -10.552680    1.763530
  C     15.311490  -10.334840   -0.621740
  C     15.843290  -11.344320   -1.366060
  S     15.548570  -11.072450   -3.067880
  C     14.720700   -9.590220   -2.752190
  C     14.669820   -9.330190   -1.419350
  C     14.179150   -8.276890   -0.547160
  C     13.823400   -7.024420   -0.978110
  C     13.748340   -6.721460   -2.354330
  N     13.674540   -6.463450   -3.469820
  C     13.616480   -5.897510   -0.157480
  N     13.490800   -4.931600    0.450470
  Cl    16.686240  -12.710900   -0.825850
  H     -0.400890    1.920580   -0.169100
  H      4.648710    0.622500    1.983180
  H      6.147670   -1.126970    2.284590
  H      5.536690   -1.978980   -0.594200
  H      5.862350   -3.846940   -1.714870
  H      7.229100   -4.925280   -2.086420
  H      7.333380   -1.870450   -2.308360
  H      7.162460   -2.993870   -3.661950
  H      8.641040   -2.993270   -2.697030
  H      9.774190   -4.354020    5.356280
  H      8.930690   -2.794360    5.394680
  H     11.719230   -3.159940    4.175070
  H     11.396390   -2.523280    5.794430
  H     10.833960   -1.646790    4.369840
  H     10.639810   -5.876130    1.544600
  H     11.297000   -5.485960    4.515640
  H     12.979430   -7.115080    4.189190
  H     12.171340   -7.172560    1.238330
  H     14.200410   -8.788140    2.882200
  H     14.323860   -9.024940   -3.571830

 Total Charge           Charge          ....    0
 Multiplicity           Mult            ....    1
 Number of Electrons    NEL             ....  388
 Basis Dimension        Dim             ....  844

ORBITAL ENERGIES
----------------

  NO   OCC          E(Eh)            E(eV)
   0   2.0000    -101.620670     -2765.2390
   1   2.0000    -101.615108     -2765.0877
   2   2.0000     -88.996113     -2421.7073
   3   2.0000     -88.990515     -2421.5550
   4   2.0000     -19.228910      -523.2452
   5   2.0000     -19.216430      -522.9056
   6   2.0000     -19.205259      -522.6017
   7   2.0000     -19.200317      -522.4672
   8   2.0000     -14.464335      -393.5946
   9   2.0000     -14.461848      -393.5269
  10   2.0000     -14.421042      -392.4165
  11   2.0000     -14.420255      -392.3951
  12   2.0000     -14.417959      -392.3326
  13   2.0000     -14.417501      -392.3201
  14   2.0000     -10.387327      -282.6535
  15   2.0000     -10.385595      -282.6064
  16   2.0000     -10.383411      -282.5470
  17   2.0000     -10.379263      -282.4341
  18   2.0000     -10.373658      -282.2816
  19   2.0000     -10.372875      -282.2603
  20   2.0000     -10.351350      -281.6746
  21   2.0000     -10.350248      -281.6446
  22   2.0000     -10.349934      -281.6360
  23   2.0000     -10.349340      -281.6198
  24   2.0000     -10.347782      -281.5775
  25   2.0000     -10.347220      -281.5622
  26   2.0000     -10.331740      -281.1409
  27   2.0000     -10.326423      -280.9963
  28   2.0000     -10.323164      -280.9076
  29   2.0000     -10.323020      -280.9036
  30   2.0000     -10.322229      -280.8821
  31   2.0000     -10.320394      -280.8322
  32   2.0000     -10.320015      -280.8219
  33   2.0000     -10.318039      -280.7681
  34   2.0000     -10.314742      -280.6784
  35   2.0000     -10.314722      -280.6779
  36   2.0000     -10.313055      -280.6325
  37   2.0000     -10.310680      -280.5679
  38   2.0000     -10.310206      -280.5550
  39   2.0000     -10.309909      -280.5469
  40   2.0000     -10.307056      -280.4693
  41   2.0000     -10.306835      -280.4632
  42   2.0000     -10.305254      -280.4202
  43   2.0000     -10.303126      -280.3623
  44   2.0000     -10.302461      -280.3442
  45   2.0000     -10.299296      -280.2581
  46   2.0000     -10.299182      -280.2550
  47   2.0000     -10.297793      -280.2172
  48   2.0000     -10.277405      -279.6624
  49   2.0000     -10.276271      -279.6316
  50   2.0000     -10.267457      -279.3917
  51   2.0000     -10.264676      -279.3160
  52   2.0000      -9.575429      -260.5607
  53   2.0000      -9.569931      -260.4111
  54   2.0000      -8.091737      -220.1874
  55   2.0000      -8.086203      -220.0368
  56   2.0000      -7.346075      -199.8969
  57   2.0000      -7.340563      -199.7469
  58   2.0000      -7.335462      -199.6081
  59   2.0000      -7.334931      -199.5936
  60   2.0000      -7.329954      -199.4582
  61   2.0000      -7.329438      -199.4441
  62   2.0000      -6.061131      -164.9318
  63   2.0000      -6.056510      -164.8060
  64   2.0000      -6.055599      -164.7812
  65   2.0000      -6.054017      -164.7382
  66   2.0000      -6.051013      -164.6564
  67   2.0000      -6.048415      -164.5857
  68   2.0000      -1.145291       -31.1649
  69   2.0000      -1.145061       -31.1587
  70   2.0000      -1.137248       -30.9461
  71   2.0000      -1.133096       -30.8331
  72   2.0000      -1.074355       -29.2347
  73   2.0000      -1.065153       -28.9843
  74   2.0000      -1.041095       -28.3296
  75   2.0000      -1.035624       -28.1808
  76   2.0000      -1.018491       -27.7145
  77   2.0000      -1.015161       -27.6239
  78   2.0000      -0.999020       -27.1847
  79   2.0000      -0.996270       -27.1099
  80   2.0000      -0.990995       -26.9663
  81   2.0000      -0.986081       -26.8326
  82   2.0000      -0.958396       -26.0793
  83   2.0000      -0.954566       -25.9751
  84   2.0000      -0.941515       -25.6199
  85   2.0000      -0.938365       -25.5342
  86   2.0000      -0.928016       -25.2526
  87   2.0000      -0.908540       -24.7226
  88   2.0000      -0.907054       -24.6822
  89   2.0000      -0.897885       -24.4327
  90   2.0000      -0.882740       -24.0206
  91   2.0000      -0.869908       -23.6714
  92   2.0000      -0.855629       -23.2828
  93   2.0000      -0.835262       -22.7286
  94   2.0000      -0.830333       -22.5945
  95   2.0000      -0.826891       -22.5009
  96   2.0000      -0.819441       -22.2981
  97   2.0000      -0.809123       -22.0173
  98   2.0000      -0.773261       -21.0415
  99   2.0000      -0.766623       -20.8609
 100   2.0000      -0.761506       -20.7216
 101   2.0000      -0.757566       -20.6144
 102   2.0000      -0.749969       -20.4077
 103   2.0000      -0.725905       -19.7529
 104   2.0000      -0.717734       -19.5305
 105   2.0000      -0.711292       -19.3552
 106   2.0000      -0.694604       -18.9011
 107   2.0000      -0.693458       -18.8700
 108   2.0000      -0.683813       -18.6075
 109   2.0000      -0.679375       -18.4867
 110   2.0000      -0.673669       -18.3315
 111   2.0000      -0.665609       -18.1122
 112   2.0000      -0.657110       -17.8809
 113   2.0000      -0.646908       -17.6033
 114   2.0000      -0.638233       -17.3672
 115   2.0000      -0.621463       -16.9109
 116   2.0000      -0.618521       -16.8308
 117   2.0000      -0.613841       -16.7035
 118   2.0000      -0.609938       -16.5973
 119   2.0000      -0.607006       -16.5175
 120   2.0000      -0.596808       -16.2400
 121   2.0000      -0.592450       -16.1214
 122   2.0000      -0.587350       -15.9826
 123   2.0000      -0.576521       -15.6879
 124   2.0000      -0.565473       -15.3873
 125   2.0000      -0.558524       -15.1982
 126   2.0000      -0.556945       -15.1552
 127   2.0000      -0.555138       -15.1061
 128   2.0000      -0.553502       -15.0615
 129   2.0000      -0.547223       -14.8907
 130   2.0000      -0.545010       -14.8305
 131   2.0000      -0.539678       -14.6854
 132   2.0000      -0.534880       -14.5548
 133   2.0000      -0.531340       -14.4585
 134   2.0000      -0.528553       -14.3826
 135   2.0000      -0.527305       -14.3487
 136   2.0000      -0.521845       -14.2001
 137   2.0000      -0.521053       -14.1786
 138   2.0000      -0.519983       -14.1494
 139   2.0000      -0.516238       -14.0475
 140   2.0000      -0.513114       -13.9626
 141   2.0000      -0.507966       -13.8224
 142   2.0000      -0.505511       -13.7557
 143   2.0000      -0.503287       -13.6951
 144   2.0000      -0.500562       -13.6210
 145   2.0000      -0.494010       -13.4427
 146   2.0000      -0.493522       -13.4294
 147   2.0000      -0.491930       -13.3861
 148   2.0000      -0.485704       -13.2167
 149   2.0000      -0.481696       -13.1076
 150   2.0000      -0.476556       -12.9678
 151   2.0000      -0.472800       -12.8655
 152   2.0000      -0.470600       -12.8057
 153   2.0000      -0.467076       -12.7098
 154   2.0000      -0.461079       -12.5466
 155   2.0000      -0.459370       -12.5001
 156   2.0000      -0.456887       -12.4325
 157   2.0000      -0.453974       -12.3533
 158   2.0000      -0.453316       -12.3354
 159   2.0000      -0.453081       -12.3290
 160   2.0000      -0.451206       -12.2779
 161   2.0000      -0.448983       -12.2174
 162   2.0000      -0.448404       -12.2017
 163   2.0000      -0.446084       -12.1386
 164   2.0000      -0.445628       -12.1262
 165   2.0000      -0.444031       -12.0827
 166   2.0000      -0.441185       -12.0053
 167   2.0000      -0.437106       -11.8943
 168   2.0000      -0.433302       -11.7907
 169   2.0000      -0.432101       -11.7581
 170   2.0000      -0.430497       -11.7144
 171   2.0000      -0.428960       -11.6726
 172   2.0000      -0.426075       -11.5941
 173   2.0000      -0.425534       -11.5794
 174   2.0000      -0.418713       -11.3938
 175   2.0000      -0.414608       -11.2821
 176   2.0000      -0.410405       -11.1677
 177   2.0000      -0.406455       -11.0602
 178   2.0000      -0.402085       -10.9413
 179   2.0000      -0.399526       -10.8717
 180   2.0000      -0.387159       -10.5351
 181   2.0000      -0.367666       -10.0047
 182   2.0000      -0.359491        -9.7822
 183   2.0000      -0.351481        -9.5643
 184   2.0000      -0.342544        -9.3211
 185   2.0000      -0.341446        -9.2912
 186   2.0000      -0.340864        -9.2754
 187   2.0000      -0.332865        -9.0577
 188   2.0000      -0.328536        -8.9399
 189   2.0000      -0.326921        -8.8960
 190   2.0000      -0.315853        -8.5948
 191   2.0000      -0.308450        -8.3934
 192   2.0000      -0.298740        -8.1291
 193   2.0000      -0.246810        -6.7160
 194   0.0000      -0.127157        -3.4601
 195   0.0000      -0.095045        -2.5863
 196   0.0000      -0.064637        -1.7589
 197   0.0000      -0.054082        -1.4717
 198   0.0000      -0.043148        -1.1741

MULLIKEN ATOMIC CHARGES
-----------------------
   0 C :    0.034361
   1 C :   -0.128796
   2 S :    0.186865
   3 C :   -0.172298
   4 Cl:   -0.002284
   5 C :    0.082561
   6 C :    0.154904
   7 O :   -0.147034
   8 C :   -0.089594
   9 C :    0.273784
  10 C :   -0.326431
  11 C :   -0.190121
  12 N :    0.154630
  13 C :   -0.202348
  14 N :    0.174148
  15 C :   -0.006179
  16 C :    0.000720
  17 C :    0.040390
  18 C :    0.122014
  19 N :   -0.265483
  20 C :    0.089936
  21 C :    0.003788
  22 C :    0.163460
  23 O :   -0.187328
  24 C :   -0.046499
  25 C :   -0.054727
  26 C :    0.170480
  27 O :   -0.195337
  28 N :   -0.266718
  29 C :    0.096563
  30 C :   -0.003729
  31 C :    0.122751
  32 C :    0.015218
  33 C :    0.016975
  34 C :    0.020951
  35 C :    0.030383
  36 C :    0.029098
  37 C :   -0.130803
  38 C :    0.138059
  39 O :   -0.129640
  40 C :    0.085411
  41 C :   -0.173429
  42 S :    0.181872
  43 C :   -0.125177
  44 C :    0.016548
  45 C :    0.277597
  46 C :   -0.312355
  47 C :   -0.185924
  48 N :    0.149299
  49 C :   -0.212218
  50 N :    0.168787
  51 Cl:   -0.002570
  52 H :    0.055038
  53 H :    0.035878
  54 H :    0.026143
  55 H :    0.008829
  56 H :    0.043959
  57 H :    0.042163
  58 H :    0.014606
  59 H :    0.026584
  60 H :    0.034072
  61 H :    0.025061
  62 H :    0.047348
  63 H :    0.031279
  64 H :    0.023768
  65 H :    0.030867
  66 H :    0.008378
  67 H :   -0.011556
  68 H :    0.003707
  69 H :    0.038195
  70 H :    0.017830
  71 H :    0.053325
Sum of atomic charges:   -0.0000000

LOEWDIN ATOMIC CHARGES
----------------------
   0 C :   -0.058995
   1 C :   -0.148434
   2 S :    0.475717
   3 C :   -0.272203
   4 Cl:    0.190401
   5 C :   -0.116511
   6 C :    0.084357
   7 O :   -0.137757
   8 C :   -0.079032
   9 C :    0.071561
  10 C :   -0.133450
  11 C :   -0.014669
  12 N :   -0.050672
  13 C :   -0.029253
  14 N :   -0.039525
  15 C :    0.063398
  16 C :   -0.001204
  17 C :    0.017079
  18 C :    0.077336
  19 N :    0.003176
  20 C :    0.036805
  21 C :   -0.059691
  22 C :    0.080757
  23 O :   -0.187611
  24 C :   -0.096585
  25 C :   -0.108144
  26 C :    0.086001
  27 O :   -0.184073
  28 N :   -0.002062
  29 C :    0.035547
  30 C :   -0.061986
  31 C :    0.072293
  32 C :    0.007551
  33 C :   -0.016807
  34 C :    0.021556
  35 C :   -0.012751
  36 C :    0.065741
  37 C :   -0.086488
  38 C :    0.078148
  39 O :   -0.136402
  40 C :   -0.117762
  41 C :   -0.273062
  42 S :    0.470957
  43 C :   -0.151560
  44 C :   -0.056681
  45 C :    0.068868
  46 C :   -0.134628
  47 C :   -0.014380
  48 N :   -0.050866
  49 C :   -0.023667
  50 N :   -0.048768
  51 Cl:    0.189815
  52 H :    0.038076
  53 H :    0.052062
  54 H :    0.042243
  55 H :    0.033854
  56 H :    0.031299
  57 H :    0.037903
  58 H :    0.021881
  59 H :    0.032522
  60 H :    0.033587
  61 H :    0.020753
  62 H :    0.038607
  63 H :    0.025724
  64 H :    0.031382
  65 H :    0.033863
  66 H :    0.046949
  67 H :    0.031381
  68 H :    0.037064
  69 H :    0.036012
  70 H :    0.046028
  71 H :    0.037429

  Mayer bond orders larger than 0.100000
B(  0-C ,  1-C ) :   1.5481 B(  0-C ,  5-C ) :   1.2219 B(  0-C ,  9-C ) :   0.9964
B(  1-C ,  2-S ) :   1.1592 B(  1-C , 52-H ) :   0.9546 B(  2-S ,  3-C ) :   1.1522
B(  3-C ,  4-Cl) :   1.1248 B(  3-C ,  5-C ) :   1.4755 B(  5-C ,  6-C ) :   0.9631
B(  6-C ,  7-O ) :   2.1851 B(  6-C ,  8-C ) :   0.9368 B(  8-C ,  9-C ) :   1.0698
B(  8-C , 15-C ) :   1.5959 B(  9-C , 10-C ) :   1.6561 B( 10-C , 11-C ) :   1.1467
B( 10-C , 13-C ) :   1.1332 B( 11-C , 12-N ) :   2.9922 B( 13-C , 14-N ) :   3.0029
B( 15-C , 16-C ) :   1.2016 B( 15-C , 53-H ) :   0.9456 B( 16-C , 17-C ) :   1.5850
B( 16-C , 54-H ) :   0.9356 B( 17-C , 18-C ) :   1.1875 B( 17-C , 55-H ) :   0.9381
B( 18-C , 19-N ) :   1.1693 B( 18-C , 25-C ) :   1.3054 B( 19-N , 20-C ) :   0.9362
B( 19-N , 22-C ) :   1.0457 B( 20-C , 21-C ) :   1.1208 B( 20-C , 56-H ) :   0.9486
B( 20-C , 57-H ) :   0.9288 B( 21-C , 58-H ) :   0.9687 B( 21-C , 59-H ) :   0.9683
B( 21-C , 60-H ) :   0.9638 B( 22-C , 23-O ) :   2.1248 B( 22-C , 24-C ) :   0.9687
B( 24-C , 25-C ) :   1.2781 B( 24-C , 31-C ) :   1.3198 B( 25-C , 26-C ) :   0.9734
B( 26-C , 27-O ) :   2.0433 B( 26-C , 28-N ) :   1.0600 B( 27-O , 54-H ) :   0.1011
B( 28-N , 29-C ) :   0.9394 B( 28-N , 31-C ) :   1.1628 B( 29-C , 30-C ) :   1.1168
B( 29-C , 61-H ) :   0.9515 B( 29-C , 62-H ) :   0.9252 B( 30-C , 63-H ) :   0.9688
B( 30-C , 64-H ) :   0.9679 B( 30-C , 65-H ) :   0.9618 B( 31-C , 32-C ) :   1.2167
B( 32-C , 33-C ) :   1.5581 B( 32-C , 66-H ) :   0.9294 B( 33-C , 34-C ) :   1.1563
B( 33-C , 67-H ) :   0.9852 B( 34-C , 35-C ) :   1.6360 B( 34-C , 68-H ) :   0.9801
B( 35-C , 36-C ) :   1.1522 B( 35-C , 69-H ) :   0.9431 B( 36-C , 37-C ) :   1.6036
B( 36-C , 70-H ) :   0.9597 B( 37-C , 38-C ) :   0.9402 B( 37-C , 45-C ) :   1.0503
B( 38-C , 39-O ) :   2.2781 B( 38-C , 40-C ) :   0.9274 B( 40-C , 41-C ) :   1.4859
B( 40-C , 44-C ) :   1.2212 B( 41-C , 42-S ) :   1.1493 B( 41-C , 51-Cl) :   1.1267
B( 42-S , 43-C ) :   1.1559 B( 43-C , 44-C ) :   1.5568 B( 43-C , 71-H ) :   0.9543
B( 44-C , 45-C ) :   1.0078 B( 45-C , 46-C ) :   1.6453 B( 46-C , 47-C ) :   1.1380
B( 46-C , 49-C ) :   1.1526 B( 47-C , 48-N ) :   2.9947 B( 49-C , 50-N ) :   3.0089

-----------------------------------------------------------------------------
         ABSORPTION SPECTRUM VIA TRANSITION ELECTRIC DIPOLE MOMENTS
-----------------------------------------------------------------------------
State   Energy  Wavelength   fosc         T2         TX        TY        TZ
        (cm-1)    (nm)                  (au**2)     (au)      (au)      (au)
-----------------------------------------------------------------------------
   0   11102.8    900.7   0.833014103  24.69991  -4.04777   2.80128  -0.68431
   1   18162.8    550.6   0.065133767   1.18059   0.03945  -0.13390   1.07754
   2   22413.3    446.2   0.204663544   3.00614   0.95494  -0.49065  -1.36143
   3   23730.9    421.4   0.023092709   0.32036   0.35523  -0.39268   0.19992
   4   23966.1    417.3   0.132536797   1.82060   0.80127  -1.06925  -0.18782
   5   25175.0    397.2   0.209326048   2.73734  -0.41828   0.71335   1.43301
   6   25701.3    389.1   0.019124995   0.24497   0.12799  -0.37319  -0.29887
   7   26311.5    380.1   0.017628834   0.22057  -0.34439   0.24575   0.20390
   8   26571.0    376.3   0.013262714   0.16432   0.34225   0.09163   0.19695
   9   27112.4    368.8   0.230899967   2.80370  -0.87896   1.42438  -0.04779
  10   27485.5    363.8   0.000849962   0.01018  -0.00045  -0.00131  -0.10089
  11   28998.2    344.8   0.033896764   0.38482  -0.52761   0.27926  -0.16874
  12   29586.5    338.0   0.101539614   1.12984  -0.83329   0.63950  -0.16281
  13   30111.1    332.1   0.358823689   3.92310   1.31348  -1.25155  -0.79466
  14   30527.3    327.6   0.028832513   0.31093  -0.27482   0.21121   0.43681
  15   30848.4    324.2   0.224143206   2.39204  -0.90520   1.15970  -0.47724
  16   31321.8    319.3   0.154970403   1.62884  -1.16152  -0.17640  -0.49860
  17   33904.7    294.9   0.031826506   0.30903   0.16832   0.34600   0.40123
  18   34019.0    294.0   0.002350118   0.02274  -0.08594  -0.00181   0.12391
  19   34503.6    289.8   0.019905247   0.18992   0.26761   0.32147  -0.12236
  20   35125.2    284.7   0.059314272   0.55593   0.32913   0.13779   0.65469
  21   35216.9    284.0   0.089047221   0.83242   0.08238  -0.84449  -0.33536
  22   35367.0    282.7   0.032904540   0.30629  -0.36178   0.37381   0.18888
  23   36329.9    275.3   0.422082565   3.82480   0.73996  -1.67808  -0.67919
  24   36480.6    274.1   0.002530267   0.02283  -0.14947   0.01032  -0.01968
  25   37179.9    269.0   0.391481631   3.46640   1.38499   0.94553   0.80880
  26   37276.6    268.3   0.029245091   0.25828   0.01062   0.36549  -0.35297
  27   37972.1    263.4   0.028384575   0.24609  -0.07289   0.40361   0.27906
  28   38617.5    258.9   0.066711949   0.56871   0.05314   0.11534   0.74336
  29   39195.1    255.1   0.387686555   3.25630   0.72907  -1.64404  -0.14801
  30   39660.8    252.1   0.020820545   0.17282  -0.35445   0.17555   0.12795
  31   39859.6    250.9   0.078251102   0.64630  -0.11599   0.78330   0.13889
  32   40242.9    248.5   0.031914653   0.26108  -0.05525  -0.27014   0.43018

FINAL SINGLE POINT ENERGY     -3802.995044756502

DIPOLE MOMENT
-------------
                                X             Y             Z
Electronic contribution:    -10.60509     -22.37991     -25.88710
Nuclear contribution   :      9.83766      20.21004      25.88392
                        -----------------------------------------
Total Dipole Moment    :     -0.76744      -2.16988      -0.00318
                        -----------------------------------------
Magnitude (a.u.)       :      2.30159
Magnitude (Debye)      :      5.85018

Rotational constants in cm-1:     0.003314     0.000456     0.000421
Rotational constants in MHz :    99.345941    13.660241    12.616340

                             ****ORCA TERMINATED NORMALLY****
TOTAL RUN TIME: 0 days 0 hours 5 minutes 16 seconds 160 msec
