                         Program Version 4.2.0 -  RELEASE  -
|  1> # ORCA input file
|  2> # SCF done       -158.732361546212          0.005312181248
|  3> ! CAM-B3LYP def2-SVP def2/J RIJCOSX Grid4 TightSCF
|  4> %maxcore 5000
|  5> %tddft
|  6>     Mode sTDDFT
|  7>     Ethresh 5.0
|  8>     maxcore 5000
|  9> end
| 10>
| 11> %pal
| 12>   nprocs 6
| 13>   end
| 14> * xyz 0 1
| 15>    C        0.18343         1.20720        -1.27251
| 16>    C       -0.78752         0.98358        -0.33817
| 17>    C       -0.57433         0.25133         0.84904
| 18>    N       -0.44245        -0.33181         1.82838
| 19>    C       -2.13721         1.36058        -0.50951
| 20>    N       -3.25710         1.57211        -0.64192
| 21>    C        1.51165         0.60566        -1.29147
| 22>    C        2.02543         0.67259        -2.62158
| 23>    C        3.24603         0.15220        -2.94708
| 24>    C        4.02522        -0.45858        -1.93977
| 25>    C        3.52338        -0.51736        -0.60627
| 26>    C        2.25362         0.02306        -0.29878
| 27>    C        4.31567        -1.12337         0.39027
| 28>    C        5.54367        -1.64569         0.08706
| 29>    C        6.03691        -1.58665        -1.22546
| 30>    C        5.29337        -1.00717        -2.21749
| 31>    C        1.06541         1.37685        -3.48488
| 32>    O        1.12000         1.57295        -4.67489
| 33>    C        0.00760         1.87973        -2.54868
| 34>    C       -0.77300         2.91448        -2.93200
| 35>    C       -1.55383         3.76353        -2.09884
| 36>    S       -2.73786         4.87574        -2.76356
| 37>    C       -2.99132         5.39001        -1.10680
| 38>    N       -2.22253         4.75691        -0.26155
| 39>    N       -1.44395         3.87076        -0.80216
| 40>    C       -3.93290         6.40232        -0.76936
| 41>    C       -4.20729         6.72706         0.51349
| 42>    C       -5.11019         7.74532         0.92825
| 43>    S       -5.45464         7.92890         2.62252
| 44>    C       -6.50978         9.26729         2.32949
| 45>    C       -6.59324         9.56139         0.97564
| 46>    C       -5.80155         8.69409         0.17948
| 47>    C       -5.74540         8.83997        -1.21851
| 48>    N       -5.72149         8.99281        -2.35430
| 49>    C       -7.38374        10.59038         0.42519
| 50>    N       -8.01054        11.40058        -0.08649
| 51>    C       -7.18665         9.96971         3.36308
| 52>    S       -7.24218         9.45593         5.04162
| 53>    C       -8.22761        10.89866         5.29783
| 54>    N       -8.40693        11.57756         4.19996
| 55>    N       -7.84621        11.07392         3.14586
| 56>    C       -8.78808        11.28005         6.54474
| 57>    C       -8.71573        10.54728         7.68039
| 58>    C       -9.34303        10.98196         8.87830
| 59>    C       -9.39241        10.26615        10.03486
| 60>    C      -10.05872        10.65240        11.27027
| 61>    C      -10.60071        11.87600        11.56171
| 62>    C      -11.22617        12.19189        12.78811
| 63>    N      -11.74030        12.51559        13.76102
| 64>    C      -10.60126        13.00045        10.70810
| 65>    N      -10.63861        13.96123        10.07843
| 66>    C      -10.01549         9.50832        12.17244
| 67>    C       -9.27120         8.46282        11.55245
| 68>    C       -8.83435         8.89407        10.21596
| 69>    O       -8.16319         8.25995         9.42977
| 70>    C       -9.05735         7.26345        12.17059
| 71>    C       -9.59642         7.04660        13.45802
| 72>    C      -10.35075         8.08364        14.08154
| 73>    C      -10.54960         9.31700        13.42021
| 74>    C      -10.89136         7.85388        15.36340
| 75>    C      -10.69655         6.65840        16.00040
| 76>    C       -9.95226         5.63893        15.38653
| 77>    C       -9.41371         5.82867        14.14258
| 78>    H        3.61320         0.20812        -3.96120
| 79>    H        1.90128        -0.02436         0.71997
| 80>    H        3.93103        -1.16918         1.39855
| 81>    H        6.14261        -2.10788         0.85741
| 82>    H        7.00886        -2.00202        -1.44614
| 83>    H        5.66728        -0.95888        -3.22983
| 84>    H       -0.74114         3.17730        -3.98347
| 85>    H       -4.42303         6.89504        -1.59517
| 86>    H       -3.71075         6.17384         1.29933
| 87>    H       -9.32125        12.22209         6.52506
| 88>    H       -8.19227         9.60085         7.69335
| 89>    H       -9.83935        11.94361         8.83114
| 90>    H       -8.48897         6.48770        11.67885
| 91>    H      -11.12659        10.07982        13.91859
| 92>    H      -11.46335         8.64182        15.83201
| 93>    H      -11.11575         6.49132        16.98134
| 94>    H       -9.80811         4.70232        15.90425
| 95>    H       -8.83973         5.04746        13.66513
| 96> *
| 97>
| 98>                          ****END OF INPUT****

CARTESIAN COORDINATES (ANGSTROEM)
---------------------------------
  C      0.183430    1.207200   -1.272510
  C     -0.787520    0.983580   -0.338170
  C     -0.574330    0.251330    0.849040
  N     -0.442450   -0.331810    1.828380
  C     -2.137210    1.360580   -0.509510
  N     -3.257100    1.572110   -0.641920
  C      1.511650    0.605660   -1.291470
  C      2.025430    0.672590   -2.621580
  C      3.246030    0.152200   -2.947080
  C      4.025220   -0.458580   -1.939770
  C      3.523380   -0.517360   -0.606270
  C      2.253620    0.023060   -0.298780
  C      4.315670   -1.123370    0.390270
  C      5.543670   -1.645690    0.087060
  C      6.036910   -1.586650   -1.225460
  C      5.293370   -1.007170   -2.217490
  C      1.065410    1.376850   -3.484880
  O      1.120000    1.572950   -4.674890
  C      0.007600    1.879730   -2.548680
  C     -0.773000    2.914480   -2.932000
  C     -1.553830    3.763530   -2.098840
  S     -2.737860    4.875740   -2.763560
  C     -2.991320    5.390010   -1.106800
  N     -2.222530    4.756910   -0.261550
  N     -1.443950    3.870760   -0.802160
  C     -3.932900    6.402320   -0.769360
  C     -4.207290    6.727060    0.513490
  C     -5.110190    7.745320    0.928250
  S     -5.454640    7.928900    2.622520
  C     -6.509780    9.267290    2.329490
  C     -6.593240    9.561390    0.975640
  C     -5.801550    8.694090    0.179480
  C     -5.745400    8.839970   -1.218510
  N     -5.721490    8.992810   -2.354300
  C     -7.383740   10.590380    0.425190
  N     -8.010540   11.400580   -0.086490
  C     -7.186650    9.969710    3.363080
  S     -7.242180    9.455930    5.041620
  C     -8.227610   10.898660    5.297830
  N     -8.406930   11.577560    4.199960
  N     -7.846210   11.073920    3.145860
  C     -8.788080   11.280050    6.544740
  C     -8.715730   10.547280    7.680390
  C     -9.343030   10.981960    8.878300
  C     -9.392410   10.266150   10.034860
  C    -10.058720   10.652400   11.270270
  C    -10.600710   11.876000   11.561710
  C    -11.226170   12.191890   12.788110
  N    -11.740300   12.515590   13.761020
  C    -10.601260   13.000450   10.708100
  N    -10.638610   13.961230   10.078430
  C    -10.015490    9.508320   12.172440
  C     -9.271200    8.462820   11.552450
  C     -8.834350    8.894070   10.215960
  O     -8.163190    8.259950    9.429770
  C     -9.057350    7.263450   12.170590
  C     -9.596420    7.046600   13.458020
  C    -10.350750    8.083640   14.081540
  C    -10.549600    9.317000   13.420210
  C    -10.891360    7.853880   15.363400
  C    -10.696550    6.658400   16.000400
  C     -9.952260    5.638930   15.386530
  C     -9.413710    5.828670   14.142580
  H      3.613200    0.208120   -3.961200
  H      1.901280   -0.024360    0.719970
  H      3.931030   -1.169180    1.398550
  H      6.142610   -2.107880    0.857410
  H      7.008860   -2.002020   -1.446140
  H      5.667280   -0.958880   -3.229830
  H     -0.741140    3.177300   -3.983470
  H     -4.423030    6.895040   -1.595170
  H     -3.710750    6.173840    1.299330
  H     -9.321250   12.222090    6.525060
  H     -8.192270    9.600850    7.693350
  H     -9.839350   11.943610    8.831140
  H     -8.488970    6.487700   11.678850
  H    -11.126590   10.079820   13.918590
  H    -11.463350    8.641820   15.832010
  H    -11.115750    6.491320   16.981340
  H     -9.808110    4.702320   15.904250
  H     -8.839730    5.047460   13.665130

 Total Charge           Charge          ....    0
 Multiplicity           Mult            ....    1
 Number of Electrons    NEL             ....  440
 Basis Dimension        Dim             ....  984

ORBITAL ENERGIES
----------------

  NO   OCC          E(Eh)            E(eV)
   0   2.0000     -89.011494     -2422.1259
   1   2.0000     -88.997620     -2421.7484
   2   2.0000     -88.992768     -2421.6163
   3   2.0000     -19.227752      -523.2137
   4   2.0000     -19.225555      -523.1540
   5   2.0000     -14.460774      -393.4977
   6   2.0000     -14.460016      -393.4770
   7   2.0000     -14.459871      -393.4731
   8   2.0000     -14.456646      -393.3853
   9   2.0000     -14.430125      -392.6637
  10   2.0000     -14.424348      -392.5065
  11   2.0000     -14.421939      -392.4409
  12   2.0000     -14.421363      -392.4252
  13   2.0000     -14.416949      -392.3051
  14   2.0000     -14.413339      -392.2069
  15   2.0000     -10.378206      -282.4053
  16   2.0000     -10.376156      -282.3496
  17   2.0000     -10.373834      -282.2864
  18   2.0000     -10.363315      -282.0001
  19   2.0000     -10.362351      -281.9739
  20   2.0000     -10.361558      -281.9523
  21   2.0000     -10.360798      -281.9317
  22   2.0000     -10.360182      -281.9149
  23   2.0000     -10.351834      -281.6877
  24   2.0000     -10.351691      -281.6838
  25   2.0000     -10.350669      -281.6560
  26   2.0000     -10.349611      -281.6272
  27   2.0000     -10.348910      -281.6081
  28   2.0000     -10.345218      -281.5077
  29   2.0000     -10.330648      -281.1112
  30   2.0000     -10.329325      -281.0752
  31   2.0000     -10.326361      -280.9946
  32   2.0000     -10.325799      -280.9793
  33   2.0000     -10.324300      -280.9385
  34   2.0000     -10.323702      -280.9222
  35   2.0000     -10.322830      -280.8985
  36   2.0000     -10.321583      -280.8645
  37   2.0000     -10.319700      -280.8133
  38   2.0000     -10.319652      -280.8120
  39   2.0000     -10.316460      -280.7252
  40   2.0000     -10.312898      -280.6282
  41   2.0000     -10.312082      -280.6060
  42   2.0000     -10.310590      -280.5654
  43   2.0000     -10.310005      -280.5495
  44   2.0000     -10.307614      -280.4844
  45   2.0000     -10.304812      -280.4082
  46   2.0000     -10.304631      -280.4033
  47   2.0000     -10.304409      -280.3972
  48   2.0000     -10.303891      -280.3831
  49   2.0000     -10.303792      -280.3804
  50   2.0000     -10.303508      -280.3727
  51   2.0000     -10.302899      -280.3561
  52   2.0000     -10.301711      -280.3238
  53   2.0000     -10.296496      -280.1819
  54   2.0000     -10.296424      -280.1800
  55   2.0000     -10.292887      -280.0837
  56   2.0000     -10.292390      -280.0702
  57   2.0000     -10.292065      -280.0613
  58   2.0000     -10.291565      -280.0477
  59   2.0000     -10.291361      -280.0422
  60   2.0000     -10.290949      -280.0310
  61   2.0000     -10.290662      -280.0232
  62   2.0000     -10.289968      -280.0043
  63   2.0000      -8.106892      -220.5997
  64   2.0000      -8.093590      -220.2378
  65   2.0000      -8.089067      -220.1147
  66   2.0000      -6.076093      -165.3389
  67   2.0000      -6.071916      -165.2252
  68   2.0000      -6.069131      -165.1495
  69   2.0000      -6.062306      -164.9637
  70   2.0000      -6.058962      -164.8727
  71   2.0000      -6.057602      -164.8357
  72   2.0000      -6.055834      -164.7876
  73   2.0000      -6.054256      -164.7447
  74   2.0000      -6.051635      -164.6734
  75   2.0000      -1.167303       -31.7639
  76   2.0000      -1.163428       -31.6585
  77   2.0000      -1.142110       -31.0784
  78   2.0000      -1.141051       -31.0496
  79   2.0000      -1.049393       -28.5554
  80   2.0000      -1.025826       -27.9141
  81   2.0000      -1.023430       -27.8489
  82   2.0000      -1.010981       -27.5102
  83   2.0000      -1.005948       -27.3732
  84   2.0000      -1.003730       -27.3129
  85   2.0000      -1.001141       -27.2424
  86   2.0000      -0.997688       -27.1485
  87   2.0000      -0.994090       -27.0506
  88   2.0000      -0.979568       -26.6554
  89   2.0000      -0.979317       -26.6486
  90   2.0000      -0.970375       -26.4052
  91   2.0000      -0.963870       -26.2282
  92   2.0000      -0.951828       -25.9005
  93   2.0000      -0.944526       -25.7019
  94   2.0000      -0.933019       -25.3887
  95   2.0000      -0.926570       -25.2132
  96   2.0000      -0.920068       -25.0363
  97   2.0000      -0.914060       -24.8728
  98   2.0000      -0.902818       -24.5669
  99   2.0000      -0.899266       -24.4703
 100   2.0000      -0.894212       -24.3327
 101   2.0000      -0.887614       -24.1532
 102   2.0000      -0.886533       -24.1238
 103   2.0000      -0.870001       -23.6739
 104   2.0000      -0.859245       -23.3813
 105   2.0000      -0.849626       -23.1195
 106   2.0000      -0.835171       -22.7262
 107   2.0000      -0.833675       -22.6854
 108   2.0000      -0.807554       -21.9747
 109   2.0000      -0.805135       -21.9088
 110   2.0000      -0.783066       -21.3083
 111   2.0000      -0.775889       -21.1130
 112   2.0000      -0.769826       -20.9480
 113   2.0000      -0.767228       -20.8773
 114   2.0000      -0.745631       -20.2896
 115   2.0000      -0.739931       -20.1345
 116   2.0000      -0.727091       -19.7851
 117   2.0000      -0.719831       -19.5876
 118   2.0000      -0.713805       -19.4236
 119   2.0000      -0.710669       -19.3383
 120   2.0000      -0.707171       -19.2431
 121   2.0000      -0.703343       -19.1389
 122   2.0000      -0.698618       -19.0104
 123   2.0000      -0.687410       -18.7054
 124   2.0000      -0.681086       -18.5333
 125   2.0000      -0.677430       -18.4338
 126   2.0000      -0.668546       -18.1921
 127   2.0000      -0.662482       -18.0270
 128   2.0000      -0.655195       -17.8288
 129   2.0000      -0.643611       -17.5136
 130   2.0000      -0.638657       -17.3787
 131   2.0000      -0.628987       -17.1156
 132   2.0000      -0.625128       -17.0106
 133   2.0000      -0.613609       -16.6971
 134   2.0000      -0.612814       -16.6755
 135   2.0000      -0.605967       -16.4892
 136   2.0000      -0.600891       -16.3511
 137   2.0000      -0.595081       -16.1930
 138   2.0000      -0.585804       -15.9405
 139   2.0000      -0.576607       -15.6903
 140   2.0000      -0.571404       -15.5487
 141   2.0000      -0.570616       -15.5273
 142   2.0000      -0.566994       -15.4287
 143   2.0000      -0.563137       -15.3237
 144   2.0000      -0.554628       -15.0922
 145   2.0000      -0.553104       -15.0507
 146   2.0000      -0.551727       -15.0132
 147   2.0000      -0.549288       -14.9469
 148   2.0000      -0.546621       -14.8743
 149   2.0000      -0.545204       -14.8358
 150   2.0000      -0.544681       -14.8215
 151   2.0000      -0.541195       -14.7267
 152   2.0000      -0.539984       -14.6937
 153   2.0000      -0.532176       -14.4812
 154   2.0000      -0.528261       -14.3747
 155   2.0000      -0.526863       -14.3367
 156   2.0000      -0.525233       -14.2923
 157   2.0000      -0.523769       -14.2525
 158   2.0000      -0.520738       -14.1700
 159   2.0000      -0.517562       -14.0836
 160   2.0000      -0.516704       -14.0602
 161   2.0000      -0.510698       -13.8968
 162   2.0000      -0.504429       -13.7262
 163   2.0000      -0.503578       -13.7031
 164   2.0000      -0.502190       -13.6653
 165   2.0000      -0.500863       -13.6292
 166   2.0000      -0.498357       -13.5610
 167   2.0000      -0.494498       -13.4560
 168   2.0000      -0.494092       -13.4449
 169   2.0000      -0.490204       -13.3391
 170   2.0000      -0.484179       -13.1752
 171   2.0000      -0.480124       -13.0648
 172   2.0000      -0.471824       -12.8390
 173   2.0000      -0.471432       -12.8283
 174   2.0000      -0.470625       -12.8064
 175   2.0000      -0.461947       -12.5702
 176   2.0000      -0.455731       -12.4011
 177   2.0000      -0.455618       -12.3980
 178   2.0000      -0.453828       -12.3493
 179   2.0000      -0.451166       -12.2769
 180   2.0000      -0.449387       -12.2284
 181   2.0000      -0.448247       -12.1974
 182   2.0000      -0.446807       -12.1582
 183   2.0000      -0.445740       -12.1292
 184   2.0000      -0.444149       -12.0859
 185   2.0000      -0.440608       -11.9895
 186   2.0000      -0.440043       -11.9742
 187   2.0000      -0.439105       -11.9487
 188   2.0000      -0.437627       -11.9084
 189   2.0000      -0.435104       -11.8398
 190   2.0000      -0.433446       -11.7947
 191   2.0000      -0.432994       -11.7824
 192   2.0000      -0.428741       -11.6666
 193   2.0000      -0.428071       -11.6484
 194   2.0000      -0.426673       -11.6104
 195   2.0000      -0.423781       -11.5317
 196   2.0000      -0.420358       -11.4385
 197   2.0000      -0.413863       -11.2618
 198   2.0000      -0.412595       -11.2273
 199   2.0000      -0.407882       -11.0990
 200   2.0000      -0.405656       -11.0385
 201   2.0000      -0.402082       -10.9412
 202   2.0000      -0.395356       -10.7582
 203   2.0000      -0.391852       -10.6628
 204   2.0000      -0.387275       -10.5383
 205   2.0000      -0.381232       -10.3738
 206   2.0000      -0.375811       -10.2263
 207   2.0000      -0.364987        -9.9318
 208   2.0000      -0.355322        -9.6688
 209   2.0000      -0.347926        -9.4675
 210   2.0000      -0.346627        -9.4322
 211   2.0000      -0.344521        -9.3749
 212   2.0000      -0.340688        -9.2706
 213   2.0000      -0.336462        -9.1556
 214   2.0000      -0.325031        -8.8445
 215   2.0000      -0.320396        -8.7184
 216   2.0000      -0.312392        -8.5006
 217   2.0000      -0.300699        -8.1824
 218   2.0000      -0.297858        -8.1051
 219   2.0000      -0.285319        -7.7639
 220   0.0000      -0.119204        -3.2437
 221   0.0000      -0.106590        -2.9005
 222   0.0000      -0.083544        -2.2733
 223   0.0000      -0.067991        -1.8501
 224   0.0000      -0.060850        -1.6558

MULLIKEN ATOMIC CHARGES
-----------------------
   0 C :    0.272225
   1 C :   -0.282404
   2 C :   -0.184248
   3 N :    0.155243
   4 C :   -0.185490
   5 N :    0.163677
   6 C :    0.045601
   7 C :    0.006466
   8 C :   -0.078351
   9 C :    0.093599
  10 C :    0.097752
  11 C :   -0.082517
  12 C :   -0.018922
  13 C :    0.039300
  14 C :    0.037383
  15 C :   -0.014850
  16 C :    0.136346
  17 O :   -0.132204
  18 C :   -0.102118
  19 C :    0.096611
  20 C :   -0.108328
  21 S :    0.155068
  22 C :   -0.097490
  23 N :   -0.041511
  24 N :   -0.047593
  25 C :    0.059616
  26 C :    0.057225
  27 C :   -0.079649
  28 S :    0.216601
  29 C :   -0.047397
  30 C :   -0.021228
  31 C :   -0.028792
  32 C :   -0.254417
  33 N :    0.203884
  34 C :   -0.244800
  35 N :    0.254532
  36 C :   -0.108343
  37 S :    0.123629
  38 C :   -0.058038
  39 N :   -0.015676
  40 N :   -0.043425
  41 C :    0.066729
  42 C :   -0.003594
  43 C :   -0.047050
  44 C :   -0.051880
  45 C :    0.328258
  46 C :   -0.347792
  47 C :   -0.182506
  48 N :    0.157193
  49 C :   -0.192218
  50 N :    0.156913
  51 C :    0.047823
  52 C :   -0.001749
  53 C :    0.149589
  54 O :   -0.150829
  55 C :   -0.078594
  56 C :    0.099979
  57 C :    0.097193
  58 C :   -0.085979
  59 C :   -0.020129
  60 C :    0.038816
  61 C :    0.038883
  62 C :   -0.017490
  63 H :   -0.009572
  64 H :   -0.003399
  65 H :   -0.009359
  66 H :   -0.002557
  67 H :   -0.004001
  68 H :   -0.016060
  69 H :    0.025705
  70 H :    0.012918
  71 H :    0.023294
  72 H :    0.035166
  73 H :    0.034974
  74 H :    0.018537
  75 H :   -0.011157
  76 H :   -0.006022
  77 H :   -0.006648
  78 H :   -0.002631
  79 H :   -0.002648
  80 H :   -0.015070
Sum of atomic charges:   -0.0000000

LOEWDIN ATOMIC CHARGES
----------------------
   0 C :    0.066486
   1 C :   -0.107882
   2 C :   -0.015364
   3 N :   -0.044590
   4 C :   -0.016707
   5 N :   -0.049563
   6 C :   -0.020091
   7 C :   -0.060383
   8 C :    0.036312
   9 C :   -0.009240
  10 C :   -0.003193
  11 C :    0.016810
  12 C :   -0.006066
  13 C :   -0.010299
  14 C :   -0.011818
  15 C :   -0.007923
  16 C :    0.085044
  17 O :   -0.132637
  18 C :   -0.046061
  19 C :    0.022482
  20 C :   -0.155243
  21 S :    0.436249
  22 C :   -0.139423
  23 N :   -0.065950
  24 N :   -0.047330
  25 C :   -0.025111
  26 C :   -0.008772
  27 C :   -0.129367
  28 S :    0.501050
  29 C :   -0.177804
  30 C :   -0.050463
  31 C :   -0.079667
  32 C :   -0.027849
  33 N :   -0.027295
  34 C :   -0.036440
  35 N :   -0.008868
  36 C :   -0.162769
  37 S :    0.403586
  38 C :   -0.142034
  39 N :   -0.049160
  40 N :   -0.048046
  41 C :    0.003321
  42 C :   -0.014391
  43 C :    0.064173
  44 C :   -0.076415
  45 C :    0.073123
  46 C :   -0.130441
  47 C :   -0.017150
  48 N :   -0.046477
  49 C :   -0.021478
  50 N :   -0.044598
  51 C :   -0.025995
  52 C :   -0.057663
  53 C :    0.086656
  54 O :   -0.143339
  55 C :    0.034970
  56 C :   -0.007628
  57 C :   -0.004808
  58 C :    0.021002
  59 C :   -0.004663
  60 C :   -0.010540
  61 C :   -0.009914
  62 C :   -0.008718
  63 H :    0.040371
  64 H :    0.039653
  65 H :    0.034948
  66 H :    0.034029
  67 H :    0.033436
  68 H :    0.032530
  69 H :    0.049601
  70 H :    0.041637
  71 H :    0.044059
  72 H :    0.054432
  73 H :    0.030444
  74 H :    0.045180
  75 H :    0.039705
  76 H :    0.039726
  77 H :    0.035676
  78 H :    0.034296
  79 H :    0.033885
  80 H :    0.032754

  Mayer bond orders larger than 0.100000
B(  0-C ,  1-C ) :   1.7033 B(  0-C ,  6-C ) :   1.0015 B(  0-C , 18-C ) :   1.0095
B(  1-C ,  2-C ) :   1.1383 B(  1-C ,  4-C ) :   1.1494 B(  2-C ,  3-N ) :   2.9848
B(  4-C ,  5-N ) :   3.0097 B(  6-C ,  7-C ) :   1.2128 B(  6-C , 11-C ) :   1.4536
B(  7-C ,  8-C ) :   1.4652 B(  7-C , 16-C ) :   0.9246 B(  8-C ,  9-C ) :   1.1893
B(  8-C , 63-H ) :   1.0168 B(  9-C , 10-C ) :   1.2563 B(  9-C , 15-C ) :   1.2423
B( 10-C , 11-C ) :   1.2055 B( 10-C , 12-C ) :   1.2390 B( 11-C , 64-H ) :   0.9945
B( 12-C , 13-C ) :   1.4900 B( 12-C , 65-H ) :   0.9982 B( 13-C , 14-C ) :   1.2598
B( 13-C , 66-H ) :   0.9886 B( 14-C , 15-C ) :   1.4908 B( 14-C , 67-H ) :   0.9883
B( 15-C , 68-H ) :   0.9980 B( 16-C , 17-O ) :   2.2808 B( 16-C , 18-C ) :   0.9191
B( 18-C , 19-C ) :   1.7426 B( 19-C , 20-C ) :   1.0765 B( 19-C , 69-H ) :   0.9309
B( 20-C , 21-S ) :   1.1022 B( 20-C , 24-N ) :   1.6078 B( 21-S , 22-C ) :   1.1262
B( 21-S , 24-N ) :   0.1004 B( 22-C , 23-N ) :   1.6529 B( 22-C , 25-C ) :   1.1155
B( 23-N , 24-N ) :   1.2682 B( 25-C , 26-C ) :   1.7300 B( 25-C , 70-H ) :   0.9332
B( 26-C , 27-C ) :   1.1225 B( 26-C , 71-H ) :   0.9516 B( 27-C , 28-S ) :   1.1353
B( 27-C , 31-C ) :   1.4626 B( 28-S , 29-C ) :   1.1486 B( 29-C , 30-C ) :   1.5024
B( 29-C , 36-C ) :   1.0998 B( 30-C , 31-C ) :   1.3414 B( 30-C , 34-C ) :   1.1787
B( 31-C , 32-C ) :   1.1672 B( 32-C , 33-N ) :   2.9500 B( 34-C , 35-N ) :   3.0012
B( 36-C , 37-S ) :   1.1152 B( 36-C , 40-N ) :   1.6805 B( 37-S , 38-C ) :   1.0786
B( 38-C , 39-N ) :   1.6495 B( 38-C , 41-C ) :   1.1015 B( 39-N , 40-N ) :   1.2475
B( 41-C , 42-C ) :   1.5832 B( 41-C , 72-H ) :   0.9860 B( 42-C , 43-C ) :   1.1445
B( 42-C , 73-H ) :   0.9733 B( 43-C , 44-C ) :   1.5873 B( 43-C , 74-H ) :   0.9626
B( 44-C , 45-C ) :   1.0463 B( 44-C , 53-C ) :   0.9337 B( 45-C , 46-C ) :   1.6447
B( 45-C , 51-C ) :   0.9926 B( 46-C , 47-C ) :   1.1453 B( 46-C , 49-C ) :   1.1426
B( 47-C , 48-N ) :   2.9670 B( 49-C , 50-N ) :   2.9694 B( 51-C , 52-C ) :   1.2131
B( 51-C , 58-C ) :   1.4465 B( 52-C , 53-C ) :   0.9485 B( 52-C , 55-C ) :   1.4655
B( 53-C , 54-O ) :   2.2013 B( 55-C , 56-C ) :   1.1839 B( 55-C , 75-H ) :   1.0158
B( 56-C , 57-C ) :   1.2523 B( 56-C , 62-C ) :   1.2417 B( 57-C , 58-C ) :   1.2089
B( 57-C , 59-C ) :   1.2404 B( 58-C , 76-H ) :   0.9890 B( 59-C , 60-C ) :   1.4899
B( 59-C , 77-H ) :   0.9971 B( 60-C , 61-C ) :   1.2586 B( 60-C , 78-H ) :   0.9884
B( 61-C , 62-C ) :   1.4901 B( 61-C , 79-H ) :   0.9887 B( 62-C , 80-H ) :   0.9979

-----------------------------------------------------------------------------
         ABSORPTION SPECTRUM VIA TRANSITION ELECTRIC DIPOLE MOMENTS
-----------------------------------------------------------------------------
State   Energy  Wavelength   fosc         T2         TX        TY        TZ
        (cm-1)    (nm)                  (au**2)     (au)      (au)      (au)
-----------------------------------------------------------------------------
   0   21053.4    475.0   1.941282650  30.35581   2.85211  -2.45911  -4.02169
   1   23851.4    419.3   0.272150546   3.75639   0.18798   0.92569  -1.69238
   2   24724.0    404.5   0.111578764   1.48573  -1.02964   0.57235   0.31301
   3   25282.2    395.5   0.431833938   5.62311   0.61269  -1.53888   1.69693
   4   26133.2    382.7   0.002984063   0.03759  -0.05466   0.03696  -0.18231
   5   26174.4    382.1   0.004256158   0.05353  -0.21827  -0.07592   0.01136
   6   26907.5    371.6   0.000422848   0.00517   0.00067   0.03690  -0.06174
   7   27599.0    362.3   0.021152506   0.25232   0.39952  -0.00187  -0.30445
   8   28004.3    357.1   0.002937950   0.03454   0.11991   0.13932   0.02740
   9   28873.8    346.3   0.041801916   0.47661  -0.15118   0.58333  -0.33688
  10   29136.0    343.2   0.143972740   1.62677   0.59157  -0.80233   0.79566
  11   29475.6    339.3   0.111961817   1.25050  -0.67993   0.03032   0.88729
  12   31554.6    316.9   0.387554976   4.04339   1.09013  -1.59834   0.54800
  13   32334.2    309.3   0.461929520   4.70316   0.61944  -1.95796   0.69703
  14   32639.0    306.4   0.167008332   1.68452  -0.40563   0.86385  -0.87963
  15   33201.3    301.2   0.409684388   4.06228   1.40420   0.59070  -1.31969
  16   33335.2    300.0   0.382369426   3.77620  -1.76800   0.79259   0.14901
  17   33501.6    298.5   0.061172234   0.60113   0.74913   0.17589  -0.09486
  18   33847.2    295.4   0.046710221   0.45432   0.51938  -0.42138   0.08370
  19   34221.9    292.2   0.001654758   0.01592   0.05688  -0.06372   0.09286
  20   34716.9    288.0   0.010786919   0.10229   0.11526  -0.26303   0.14079
  21   34837.5    287.0   0.036780516   0.34757  -0.53294   0.16169  -0.19339
  22   35202.8    284.1   0.020229721   0.18919   0.28997   0.10423  -0.30699
  23   35575.1    281.1   0.026284211   0.24323  -0.21362  -0.24706   0.36955
  24   36035.3    277.5   0.016363016   0.14949  -0.16448   0.13832  -0.32141
  25   36174.5    276.4   0.050177739   0.45665   0.55824   0.29125   0.24534
  26   36615.0    273.1   0.066905221   0.60156   0.57456  -0.51540  -0.07617
  27   37265.3    268.3   0.259093081   2.28890   0.17306  -1.02127   1.10270
  28   37558.5    266.3   0.317143466   2.77986   1.20289  -1.09030  -0.37968
  29   37665.4    265.5   0.045502233   0.39771   0.20284   0.32807   0.49893
  30   38592.2    259.1   0.086273950   0.73596   0.17564   0.62871  -0.55663
  31   39019.6    256.3   0.090614997   0.76453  -0.40641   0.49018   0.59923
  32   39450.1    253.5   0.034761070   0.29008  -0.29937   0.34253   0.28833
  33   39931.8    250.4   0.219234165   1.80744   0.34939   0.38994  -1.23827
  34   40188.9    248.8   0.007290959   0.05972   0.18293  -0.16183  -0.00864

FINAL SINGLE POINT ENERGY     -3728.738267975283

DIPOLE MOMENT
-------------
                                X             Y             Z
Electronic contribution:    -13.21049      22.25458     -28.36248
Nuclear contribution   :     16.27399     -25.82400      30.31815
                        -----------------------------------------
Total Dipole Moment    :      3.06350      -3.56942       1.95568
                        -----------------------------------------
Magnitude (a.u.)       :      5.09416
Magnitude (Debye)      :     12.94832

Rotational constants in cm-1:     0.001564     0.000280     0.000243
Rotational constants in MHz :    46.901490     8.405999     7.281394

                             ****ORCA TERMINATED NORMALLY****
TOTAL RUN TIME: 0 days 0 hours 6 minutes 12 seconds 760 msec
