                         Program Version 4.2.0 -  RELEASE  -
|  1> # ORCA input file
|  2> # SCF done       -123.121077093280          0.000640104171
|  3> ! CAM-B3LYP def2-SVP def2/J RIJCOSX Grid4 TightSCF
|  4> %maxcore 5000
|  5> %tddft
|  6>     Mode sTDDFT
|  7>     Ethresh 5.0
|  8>     maxcore 5000
|  9> end
| 10>
| 11> %pal
| 12>   nprocs 6
| 13>   end
| 14> * xyz 0 1
| 15>    C       -3.48386         1.52820         2.52962
| 16>    C       -3.81206         1.21728         3.83308
| 17>    F       -3.92934        -0.07942         4.18019
| 18>    C       -4.02706         2.19239         4.79200
| 19>    C       -3.89817         3.52065         4.42039
| 20>    C       -3.57338         3.86171         3.12123
| 21>    C       -3.36907         2.86838         2.15948
| 22>    C       -3.03179         3.22522         0.79552
| 23>    S       -2.22938         2.10640        -0.25238
| 24>    C       -2.19840         3.25706        -1.55164
| 25>    C       -1.42190         2.93950        -2.72217
| 26>    O       -1.21388         3.67941        -3.65630
| 27>    C       -2.82105         4.44644        -1.18097
| 28>    C       -3.26308         4.41652         0.15679
| 29>    C       -2.96104         5.65859        -1.95686
| 30>    N       -3.41570         5.78731        -3.23784
| 31>    C       -4.01693         4.77335        -4.06943
| 32>    C       -5.26241         4.17039        -3.42754
| 33>    C       -3.39919         7.13752        -3.65481
| 34>    O       -3.78823         7.50088        -4.74778
| 35>    C       -2.88092         7.86235        -2.52091
| 36>    C       -2.65885         6.92022        -1.47734
| 37>    C       -2.15472         7.63104        -0.32561
| 38>    O       -1.87105         7.27078         0.79905
| 39>    N       -2.08904         8.97038        -0.75506
| 40>    C       -1.57071        10.00252         0.10883
| 41>    C       -0.11647        10.33828        -0.21349
| 42>    C       -2.51069         9.12016        -2.05913
| 43>    C       -2.54301        10.36673        -2.73774
| 44>    C       -2.96540        10.47770        -4.02181
| 45>    C       -3.01433        11.69389        -4.75608
| 46>    S       -3.54158        11.66546        -6.40660
| 47>    C       -3.32739        13.37927        -6.55978
| 48>    C       -3.53216        13.98425        -7.85454
| 49>    O       -3.38028        15.14954        -8.13647
| 50>    C       -2.87058        13.94024        -5.36832
| 51>    C       -2.69203        12.98142        -4.36522
| 52>    C       -2.59681        15.36596        -5.16854
| 53>    C       -1.39797        15.78314        -4.59508
| 54>    F       -0.47614        14.85904        -4.23790
| 55>    C       -1.10269        17.11632        -4.38917
| 56>    C       -2.03490        18.07266        -4.75093
| 57>    C       -3.24318        17.68546        -5.30729
| 58>    C       -3.52074        16.34798        -5.51541
| 59>    H       -3.32770         0.73771         1.81094
| 60>    H       -4.28235         1.90748         5.79995
| 61>    H       -4.04970         4.29665         5.15523
| 62>    H       -3.44942         4.89828         2.85153
| 63>    H       -0.98666         1.92239        -2.68650
| 64>    H       -3.75300         5.25414         0.61716
| 65>    H       -3.28228         4.00057        -4.30134
| 66>    H       -4.28484         5.28544        -4.99827
| 67>    H       -5.01692         3.64812        -2.50531
| 68>    H       -5.71783         3.46215        -4.11388
| 69>    H       -5.98697         4.95026        -3.20266
| 70>    H       -1.63705         9.60438         1.12560
| 71>    H       -2.20239        10.89268         0.03813
| 72>    H        0.50140         9.45119        -0.09860
| 73>    H        0.24484        11.10392         0.46749
| 74>    H       -0.01459        10.69973        -1.23430
| 75>    H       -2.21423        11.24183        -2.19749
| 76>    H       -3.28709         9.58926        -4.54925
| 77>    H       -3.84464        13.24570        -8.61969
| 78>    H       -2.34246        13.22841        -3.37915
| 79>    H       -0.15293        17.38640        -3.95482
| 80>    H       -1.81543        19.11806        -4.59788
| 81>    H       -3.97194        18.43057        -5.58610
| 82>    H       -4.46246        16.05120        -5.94852
| 83> *
| 84>
| 85>                          ****END OF INPUT****

CARTESIAN COORDINATES (ANGSTROEM)
---------------------------------
  C     -3.483860    1.528200    2.529620
  C     -3.812060    1.217280    3.833080
  F     -3.929340   -0.079420    4.180190
  C     -4.027060    2.192390    4.792000
  C     -3.898170    3.520650    4.420390
  C     -3.573380    3.861710    3.121230
  C     -3.369070    2.868380    2.159480
  C     -3.031790    3.225220    0.795520
  S     -2.229380    2.106400   -0.252380
  C     -2.198400    3.257060   -1.551640
  C     -1.421900    2.939500   -2.722170
  O     -1.213880    3.679410   -3.656300
  C     -2.821050    4.446440   -1.180970
  C     -3.263080    4.416520    0.156790
  C     -2.961040    5.658590   -1.956860
  N     -3.415700    5.787310   -3.237840
  C     -4.016930    4.773350   -4.069430
  C     -5.262410    4.170390   -3.427540
  C     -3.399190    7.137520   -3.654810
  O     -3.788230    7.500880   -4.747780
  C     -2.880920    7.862350   -2.520910
  C     -2.658850    6.920220   -1.477340
  C     -2.154720    7.631040   -0.325610
  O     -1.871050    7.270780    0.799050
  N     -2.089040    8.970380   -0.755060
  C     -1.570710   10.002520    0.108830
  C     -0.116470   10.338280   -0.213490
  C     -2.510690    9.120160   -2.059130
  C     -2.543010   10.366730   -2.737740
  C     -2.965400   10.477700   -4.021810
  C     -3.014330   11.693890   -4.756080
  S     -3.541580   11.665460   -6.406600
  C     -3.327390   13.379270   -6.559780
  C     -3.532160   13.984250   -7.854540
  O     -3.380280   15.149540   -8.136470
  C     -2.870580   13.940240   -5.368320
  C     -2.692030   12.981420   -4.365220
  C     -2.596810   15.365960   -5.168540
  C     -1.397970   15.783140   -4.595080
  F     -0.476140   14.859040   -4.237900
  C     -1.102690   17.116320   -4.389170
  C     -2.034900   18.072660   -4.750930
  C     -3.243180   17.685460   -5.307290
  C     -3.520740   16.347980   -5.515410
  H     -3.327700    0.737710    1.810940
  H     -4.282350    1.907480    5.799950
  H     -4.049700    4.296650    5.155230
  H     -3.449420    4.898280    2.851530
  H     -0.986660    1.922390   -2.686500
  H     -3.753000    5.254140    0.617160
  H     -3.282280    4.000570   -4.301340
  H     -4.284840    5.285440   -4.998270
  H     -5.016920    3.648120   -2.505310
  H     -5.717830    3.462150   -4.113880
  H     -5.986970    4.950260   -3.202660
  H     -1.637050    9.604380    1.125600
  H     -2.202390   10.892680    0.038130
  H      0.501400    9.451190   -0.098600
  H      0.244840   11.103920    0.467490
  H     -0.014590   10.699730   -1.234300
  H     -2.214230   11.241830   -2.197490
  H     -3.287090    9.589260   -4.549250
  H     -3.844640   13.245700   -8.619690
  H     -2.342460   13.228410   -3.379150
  H     -0.152930   17.386400   -3.954820
  H     -1.815430   19.118060   -4.597880
  H     -3.971940   18.430570   -5.586100
  H     -4.462460   16.051200   -5.948520

 Total Charge           Charge          ....    0
 Multiplicity           Mult            ....    1
 Number of Electrons    NEL             ....  324
 Basis Dimension        Dim             ....  744

ORBITAL ENERGIES
----------------

  NO   OCC          E(Eh)            E(eV)
   0   2.0000     -88.976252     -2421.1669
   1   2.0000     -88.968390     -2420.9530
   2   2.0000     -24.778562      -674.2589
   3   2.0000     -24.777227      -674.2226
   4   2.0000     -19.214561      -522.8548
   5   2.0000     -19.205807      -522.6166
   6   2.0000     -19.187744      -522.1251
   7   2.0000     -19.187587      -522.1208
   8   2.0000     -14.451316      -393.2403
   9   2.0000     -14.449518      -393.1914
  10   2.0000     -10.372679      -282.2549
  11   2.0000     -10.369269      -282.1622
  12   2.0000     -10.364911      -282.0436
  13   2.0000     -10.360724      -281.9296
  14   2.0000     -10.357047      -281.8296
  15   2.0000     -10.352193      -281.6975
  16   2.0000     -10.339630      -281.3556
  17   2.0000     -10.338426      -281.3229
  18   2.0000     -10.323339      -280.9123
  19   2.0000     -10.316959      -280.7387
  20   2.0000     -10.311309      -280.5850
  21   2.0000     -10.310852      -280.5725
  22   2.0000     -10.308324      -280.5038
  23   2.0000     -10.302972      -280.3581
  24   2.0000     -10.302328      -280.3406
  25   2.0000     -10.300257      -280.2842
  26   2.0000     -10.297452      -280.2079
  27   2.0000     -10.292998      -280.0867
  28   2.0000     -10.291241      -280.0389
  29   2.0000     -10.288222      -279.9568
  30   2.0000     -10.286433      -279.9081
  31   2.0000     -10.286070      -279.8982
  32   2.0000     -10.285362      -279.8789
  33   2.0000     -10.284292      -279.8498
  34   2.0000     -10.282880      -279.8114
  35   2.0000     -10.280655      -279.7508
  36   2.0000     -10.275423      -279.6085
  37   2.0000     -10.274129      -279.5733
  38   2.0000     -10.272123      -279.5187
  39   2.0000     -10.265827      -279.3474
  40   2.0000     -10.263385      -279.2809
  41   2.0000     -10.258143      -279.1383
  42   2.0000     -10.256844      -279.1029
  43   2.0000     -10.256782      -279.1012
  44   2.0000      -8.071708      -219.6424
  45   2.0000      -8.064096      -219.4352
  46   2.0000      -6.040708      -164.3760
  47   2.0000      -6.036699      -164.2669
  48   2.0000      -6.034309      -164.2019
  49   2.0000      -6.033028      -164.1670
  50   2.0000      -6.029076      -164.0595
  51   2.0000      -6.026682      -163.9944
  52   2.0000      -1.292980       -35.1838
  53   2.0000      -1.289218       -35.0814
  54   2.0000      -1.130578       -30.7646
  55   2.0000      -1.127827       -30.6897
  56   2.0000      -1.123040       -30.5595
  57   2.0000      -1.119154       -30.4537
  58   2.0000      -1.060887       -28.8682
  59   2.0000      -1.052516       -28.6404
  60   2.0000      -1.004739       -27.3404
  61   2.0000      -0.997694       -27.1486
  62   2.0000      -0.964856       -26.2551
  63   2.0000      -0.954325       -25.9685
  64   2.0000      -0.925598       -25.1868
  65   2.0000      -0.911627       -24.8066
  66   2.0000      -0.890206       -24.2237
  67   2.0000      -0.877220       -23.8704
  68   2.0000      -0.873036       -23.7565
  69   2.0000      -0.863594       -23.4996
  70   2.0000      -0.848848       -23.0983
  71   2.0000      -0.846176       -23.0256
  72   2.0000      -0.832008       -22.6401
  73   2.0000      -0.828587       -22.5470
  74   2.0000      -0.817543       -22.2465
  75   2.0000      -0.816303       -22.2127
  76   2.0000      -0.792324       -21.5602
  77   2.0000      -0.773777       -21.0556
  78   2.0000      -0.757228       -20.6052
  79   2.0000      -0.744905       -20.2699
  80   2.0000      -0.726280       -19.7631
  81   2.0000      -0.719559       -19.5802
  82   2.0000      -0.708832       -19.2883
  83   2.0000      -0.705571       -19.1996
  84   2.0000      -0.703805       -19.1515
  85   2.0000      -0.700820       -19.0703
  86   2.0000      -0.686822       -18.6894
  87   2.0000      -0.675717       -18.3872
  88   2.0000      -0.661449       -17.9989
  89   2.0000      -0.653547       -17.7839
  90   2.0000      -0.641173       -17.4472
  91   2.0000      -0.637493       -17.3471
  92   2.0000      -0.623512       -16.9666
  93   2.0000      -0.607492       -16.5307
  94   2.0000      -0.604385       -16.4461
  95   2.0000      -0.597626       -16.2622
  96   2.0000      -0.596496       -16.2315
  97   2.0000      -0.584571       -15.9070
  98   2.0000      -0.582736       -15.8571
  99   2.0000      -0.582178       -15.8419
 100   2.0000      -0.580096       -15.7852
 101   2.0000      -0.572484       -15.5781
 102   2.0000      -0.568207       -15.4617
 103   2.0000      -0.562147       -15.2968
 104   2.0000      -0.554002       -15.0752
 105   2.0000      -0.551070       -14.9954
 106   2.0000      -0.545522       -14.8444
 107   2.0000      -0.542291       -14.7565
 108   2.0000      -0.536276       -14.5928
 109   2.0000      -0.530517       -14.4361
 110   2.0000      -0.528089       -14.3700
 111   2.0000      -0.527651       -14.3581
 112   2.0000      -0.524028       -14.2595
 113   2.0000      -0.523891       -14.2558
 114   2.0000      -0.517357       -14.0780
 115   2.0000      -0.515605       -14.0303
 116   2.0000      -0.512139       -13.9360
 117   2.0000      -0.509851       -13.8738
 118   2.0000      -0.507468       -13.8089
 119   2.0000      -0.501861       -13.6563
 120   2.0000      -0.500476       -13.6186
 121   2.0000      -0.498479       -13.5643
 122   2.0000      -0.492166       -13.3925
 123   2.0000      -0.486274       -13.2322
 124   2.0000      -0.480021       -13.0620
 125   2.0000      -0.478588       -13.0230
 126   2.0000      -0.472460       -12.8563
 127   2.0000      -0.471384       -12.8270
 128   2.0000      -0.467936       -12.7332
 129   2.0000      -0.464638       -12.6435
 130   2.0000      -0.462907       -12.5963
 131   2.0000      -0.460927       -12.5424
 132   2.0000      -0.459107       -12.4929
 133   2.0000      -0.453845       -12.3497
 134   2.0000      -0.451190       -12.2775
 135   2.0000      -0.447077       -12.1656
 136   2.0000      -0.442851       -12.0506
 137   2.0000      -0.442530       -12.0419
 138   2.0000      -0.439814       -11.9679
 139   2.0000      -0.438778       -11.9397
 140   2.0000      -0.432685       -11.7740
 141   2.0000      -0.430721       -11.7205
 142   2.0000      -0.426334       -11.6011
 143   2.0000      -0.422459       -11.4957
 144   2.0000      -0.416990       -11.3469
 145   2.0000      -0.416371       -11.3300
 146   2.0000      -0.401232       -10.9181
 147   2.0000      -0.374218       -10.1830
 148   2.0000      -0.361776        -9.8444
 149   2.0000      -0.349925        -9.5219
 150   2.0000      -0.346349        -9.4246
 151   2.0000      -0.339893        -9.2489
 152   2.0000      -0.335741        -9.1360
 153   2.0000      -0.332595        -9.0504
 154   2.0000      -0.328080        -8.9275
 155   2.0000      -0.325964        -8.8699
 156   2.0000      -0.311480        -8.4758
 157   2.0000      -0.311280        -8.4704
 158   2.0000      -0.306886        -8.3508
 159   2.0000      -0.294561        -8.0154
 160   2.0000      -0.292512        -7.9597
 161   2.0000      -0.240343        -6.5401
 162   0.0000      -0.084475        -2.2987
 163   0.0000      -0.054117        -1.4726
 164   0.0000      -0.026415        -0.7188
 165   0.0000       0.001796         0.0489
 166   0.0000       0.021054         0.5729

MULLIKEN ATOMIC CHARGES
-----------------------
   0 C :   -0.104396
   1 C :    0.290382
   2 F :   -0.197620
   3 C :   -0.045919
   4 C :    0.034217
   5 C :   -0.023054
   6 C :    0.126799
   7 C :   -0.069870
   8 S :    0.146464
   9 C :   -0.176924
  10 C :    0.182722
  11 O :   -0.192261
  12 C :    0.029573
  13 C :    0.016088
  14 C :    0.090764
  15 N :   -0.231297
  16 C :    0.108107
  17 C :   -0.012531
  18 C :    0.170828
  19 O :   -0.209591
  20 C :   -0.079259
  21 C :   -0.030385
  22 C :    0.127768
  23 O :   -0.201405
  24 N :   -0.267721
  25 C :    0.100238
  26 C :    0.003409
  27 C :    0.145355
  28 C :   -0.028685
  29 C :    0.090126
  30 C :   -0.087699
  31 S :    0.175713
  32 C :   -0.207666
  33 C :    0.183968
  34 O :   -0.182284
  35 C :    0.117304
  36 C :   -0.007001
  37 C :   -0.046823
  38 C :    0.239894
  39 F :   -0.197647
  40 C :   -0.046992
  41 C :    0.035008
  42 C :    0.015818
  43 C :    0.057141
  44 H :   -0.005014
  45 H :   -0.000821
  46 H :   -0.000409
  47 H :    0.001805
  48 H :   -0.015430
  49 H :    0.001430
  50 H :    0.035977
  51 H :    0.040794
  52 H :    0.024157
  53 H :    0.022378
  54 H :    0.019020
  55 H :    0.040506
  56 H :    0.021160
  57 H :    0.031436
  58 H :    0.023350
  59 H :    0.017628
  60 H :   -0.027710
  61 H :    0.009072
  62 H :   -0.020600
  63 H :   -0.012360
  64 H :   -0.010557
  65 H :   -0.006208
  66 H :   -0.012314
  67 H :   -0.017944
Sum of atomic charges:   -0.0000000

LOEWDIN ATOMIC CHARGES
----------------------
   0 C :   -0.053305
   1 C :    0.090954
   2 F :   -0.071380
   3 C :   -0.046412
   4 C :   -0.003882
   5 C :   -0.018924
   6 C :   -0.030661
   7 C :   -0.139399
   8 S :    0.472791
   9 C :   -0.235928
  10 C :    0.082047
  11 O :   -0.140814
  12 C :   -0.027343
  13 C :   -0.025826
  14 C :    0.076126
  15 N :    0.016732
  16 C :    0.033982
  17 C :   -0.063856
  18 C :    0.083636
  19 O :   -0.198049
  20 C :   -0.126051
  21 C :   -0.119859
  22 C :    0.079851
  23 O :   -0.205100
  24 N :   -0.006032
  25 C :    0.035271
  26 C :   -0.061152
  27 C :    0.082533
  28 C :   -0.043235
  29 C :    0.014751
  30 C :   -0.160716
  31 S :    0.483147
  32 C :   -0.235475
  33 C :    0.079118
  34 O :   -0.138009
  35 C :   -0.010819
  36 C :   -0.034438
  37 C :   -0.057173
  38 C :    0.093136
  39 F :   -0.074303
  40 C :   -0.053465
  41 C :   -0.007278
  42 C :   -0.032324
  43 C :    0.018347
  44 H :    0.030822
  45 H :    0.038858
  46 H :    0.035372
  47 H :    0.036798
  48 H :   -0.004570
  49 H :    0.038188
  50 H :    0.022981
  51 H :    0.035603
  52 H :    0.021911
  53 H :    0.031085
  54 H :    0.026545
  55 H :    0.036718
  56 H :    0.021885
  57 H :    0.033085
  58 H :    0.030451
  59 H :    0.022767
  60 H :    0.028405
  61 H :    0.037401
  62 H :   -0.006578
  63 H :    0.030438
  64 H :    0.036522
  65 H :    0.031446
  66 H :    0.030556
  67 H :    0.032095

  Mayer bond orders larger than 0.100000
B(  0-C ,  1-C ) :   1.3736 B(  0-C ,  6-C ) :   1.3073 B(  0-C , 44-H ) :   0.9917
B(  1-C ,  2-F ) :   1.0844 B(  1-C ,  3-C ) :   1.3763 B(  3-C ,  4-C ) :   1.3532
B(  3-C , 45-H ) :   0.9950 B(  4-C ,  5-C ) :   1.3910 B(  4-C , 46-H ) :   0.9872
B(  5-C ,  6-C ) :   1.3786 B(  5-C , 47-H ) :   0.9955 B(  6-C ,  7-C ) :   1.0325
B(  7-C ,  8-S ) :   1.1654 B(  7-C , 13-C ) :   1.4970 B(  8-S ,  9-C ) :   1.0967
B(  9-C , 10-C ) :   1.0252 B(  9-C , 12-C ) :   1.4470 B( 10-C , 11-O ) :   2.0991
B( 10-C , 48-H ) :   0.9518 B( 12-C , 13-C ) :   1.2978 B( 12-C , 14-C ) :   0.9903
B( 13-C , 49-H ) :   0.9993 B( 14-C , 15-N ) :   1.2247 B( 14-C , 21-C ) :   1.4379
B( 15-N , 16-C ) :   0.9408 B( 15-N , 18-C ) :   1.0461 B( 16-C , 17-C ) :   1.1134
B( 16-C , 50-H ) :   0.9398 B( 16-C , 51-H ) :   0.9283 B( 17-C , 52-H ) :   0.9693
B( 17-C , 53-H ) :   0.9667 B( 17-C , 54-H ) :   0.9647 B( 18-C , 19-O ) :   2.0151
B( 18-C , 20-C ) :   1.0014 B( 19-O , 61-H ) :   0.1167 B( 20-C , 21-C ) :   1.2082
B( 20-C , 27-C ) :   1.3592 B( 21-C , 22-C ) :   0.9630 B( 22-C , 23-O ) :   2.1318
B( 22-C , 24-N ) :   1.0399 B( 24-N , 25-C ) :   0.9471 B( 24-N , 27-C ) :   1.1515
B( 25-C , 26-C ) :   1.1212 B( 25-C , 55-H ) :   0.9270 B( 25-C , 56-H ) :   0.9495
B( 26-C , 57-H ) :   0.9634 B( 26-C , 58-H ) :   0.9679 B( 26-C , 59-H ) :   0.9687
B( 27-C , 28-C ) :   1.1565 B( 28-C , 29-C ) :   1.6357 B( 28-C , 60-H ) :   0.9642
B( 29-C , 30-C ) :   1.1115 B( 29-C , 61-H ) :   0.9369 B( 30-C , 31-S ) :   1.1689
B( 30-C , 36-C ) :   1.4392 B( 31-S , 32-C ) :   1.1113 B( 32-C , 33-C ) :   1.0169
B( 32-C , 35-C ) :   1.4689 B( 33-C , 34-O ) :   2.1430 B( 33-C , 62-H ) :   0.9485
B( 35-C , 36-C ) :   1.3324 B( 35-C , 37-C ) :   0.9500 B( 36-C , 63-H ) :   0.9965
B( 37-C , 38-C ) :   1.3672 B( 37-C , 43-C ) :   1.3932 B( 38-C , 39-F ) :   1.1046
B( 38-C , 40-C ) :   1.3753 B( 40-C , 41-C ) :   1.3621 B( 40-C , 64-H ) :   0.9930
B( 41-C , 42-C ) :   1.3753 B( 41-C , 65-H ) :   0.9932 B( 42-C , 43-C ) :   1.3974
B( 42-C , 66-H ) :   0.9930 B( 43-C , 67-H ) :   0.9866

-----------------------------------------------------------------------------
         ABSORPTION SPECTRUM VIA TRANSITION ELECTRIC DIPOLE MOMENTS
-----------------------------------------------------------------------------
State   Energy  Wavelength   fosc         T2         TX        TY        TZ
        (cm-1)    (nm)                  (au**2)     (au)      (au)      (au)
-----------------------------------------------------------------------------
   0   17375.2    575.5   0.578205199  10.95542   0.15254   3.22845  -0.71360
   1   23231.0    430.5   0.038259943   0.54219  -0.16867  -0.50102   0.51256
   2   27114.2    368.8   0.050242929   0.61003  -0.02859  -0.57415   0.52875
   3   28432.1    351.7   0.065224289   0.75522  -0.14579   0.32094  -0.79433
   4   29491.6    339.1   0.037956902   0.42371  -0.09784   0.64158   0.05013
   5   29542.9    338.5   0.152295204   1.69711  -0.04621   1.23859  -0.40107
   6   30136.7    331.8   0.247946782   2.70856  -0.42560  -0.40866   1.53637
   7   30731.1    325.4   0.002687663   0.02879  -0.10082   0.06126   0.12196
   8   31552.3    316.9   0.522116234   5.44769   0.76716  -0.99248   1.96828
   9   32403.6    308.6   0.142492454   1.44769   0.26487   1.12644  -0.32966
  10   33419.6    299.2   0.011280363   0.11112  -0.18878   0.27106   0.04486
  11   35240.5    283.8   0.014805352   0.13831  -0.04469  -0.25390   0.26805
  12   36232.4    276.0   0.037572470   0.34139  -0.09128   0.41946   0.39637
  13   36391.3    274.8   0.594362376   5.37686   0.48930   0.39884  -2.23123
  14   36896.5    271.0   0.052299429   0.46665  -0.26946  -0.38349   0.49696
  15   38114.6    262.4   0.092817718   0.80171  -0.46868   0.06256   0.76035
  16   38910.4    257.0   0.033490789   0.28336  -0.13837   0.28764  -0.42600
  17   39027.6    256.2   0.128519806   1.08411   0.06059   1.03578  -0.08721
  18   40285.4    248.2   0.334621768   2.73453  -0.35524   0.85855  -1.36793

FINAL SINGLE POINT ENERGY     -2713.954236524482

DIPOLE MOMENT
-------------
                                X             Y             Z
Electronic contribution:      2.66546     -11.80397      -2.75301
Nuclear contribution   :     -3.31087      11.88958       4.50725
                        -----------------------------------------
Total Dipole Moment    :     -0.64541       0.08561       1.75423
                        -----------------------------------------
Magnitude (a.u.)       :      1.87115
Magnitude (Debye)      :      4.75610

Rotational constants in cm-1:     0.005473     0.000764     0.000704
Rotational constants in MHz :   164.069914    22.905703    21.104754

                             ****ORCA TERMINATED NORMALLY****
TOTAL RUN TIME: 0 days 0 hours 3 minutes 51 seconds 87 msec
