                         Program Version 4.2.0 -  RELEASE  -
|  1> # ORCA input file
|  2> # SCF done       -144.248451356343          0.000876813063
|  3> ! CAM-B3LYP def2-SVP def2/J RIJCOSX Grid4 TightSCF
|  4> %maxcore 5000
|  5> %tddft
|  6>     Mode sTDDFT
|  7>     Ethresh 5.0
|  8>     maxcore 5000
|  9> end
| 10>
| 11> %pal
| 12>   nprocs 6
| 13>   end
| 14> * xyz 0 1
| 15>    C        0.21795        -0.97133         2.69849
| 16>    N        0.12825        -0.07821         3.71896
| 17>    C        0.46737        -0.33540         5.09610
| 18>    C       -0.57598        -1.21608         5.77847
| 19>    C       -0.40874         1.15750         3.27982
| 20>    O       -0.58140         2.11115         4.01049
| 21>    C       -0.64039         0.94683         1.87170
| 22>    C       -0.23847        -0.38727         1.55016
| 23>    C       -0.46147        -0.57598         0.13382
| 24>    O       -0.27703        -1.51687        -0.60481
| 25>    N       -0.98082         0.66494        -0.30984
| 26>    C       -1.35495         0.80842        -1.69557
| 27>    C       -2.86171         0.66300        -1.90005
| 28>    C       -1.09283         1.57268         0.72179
| 29>    C       -1.54319         2.92814         0.71784
| 30>    C       -2.01495         3.67729        -0.29923
| 31>    C       -2.42778         5.05410        -0.19204
| 32>    C       -2.35743         5.85087         0.96262
| 33>    N       -2.74018         7.10755         0.98152
| 34>    C       -3.20934         7.63089        -0.14881
| 35>    N       -3.33083         6.97186        -1.29798
| 36>    C       -2.95022         5.71675        -1.31531
| 37>    C       -3.62151         9.04306        -0.13699
| 38>    N       -4.18783         9.51429        -1.24540
| 39>    C       -4.54470        10.78534        -1.23760
| 40>    C       -4.34848        11.60491        -0.13877
| 41>    C       -3.75137        11.01737         0.98518
| 42>    N       -3.39348         9.73335         0.96756
| 43>    C       -3.50625        11.78187         2.19131
| 44>    C       -2.94248        11.23857         3.28193
| 45>    C       -2.67935        11.92692         4.51983
| 46>    C       -2.27702        11.22304         5.66462
| 47>    N       -2.04581        11.80089         6.82172
| 48>    C       -2.20291        13.12668         6.89089
| 49>    N       -2.56889        13.89441         5.86179
| 50>    C       -2.79433        13.31563         4.70993
| 51>    C       -1.95505        13.82558         8.12957
| 52>    N       -1.78000        13.24226         9.35873
| 53>    C       -1.89461        11.84272         9.69271
| 54>    C       -3.35272        11.39668         9.74666
| 55>    C       -1.55649        14.20295        10.36059
| 56>    O       -1.38688        13.92109        11.53192
| 57>    C       -1.57820        15.46540         9.65998
| 58>    C       -1.83184        15.19579         8.28330
| 59>    C       -1.81326        16.45860         7.57126
| 60>    O       -1.94599        16.76620         6.41059
| 61>    N       -1.55610        17.41450         8.58822
| 62>    C       -1.52136        18.82294         8.28117
| 63>    C       -2.83086        19.51730         8.64900
| 64>    C       -1.41918        16.83342         9.82186
| 65>    C       -1.13888        17.57632        11.01881
| 66>    C       -1.02742        17.00207        12.21806
| 67>    H        0.60998        -1.95854         2.86079
| 68>    H        0.51443         0.63944         5.58877
| 69>    H        1.45303        -0.80859         5.14150
| 70>    H       -1.54968        -0.73326         5.74944
| 71>    H       -0.29903        -1.37981         6.81610
| 72>    H       -0.65073        -2.18048         5.28067
| 73>    H       -0.84311        -0.00299        -2.22300
| 74>    H       -0.98239         1.75981        -2.08331
| 75>    H       -3.17679        -0.33331        -1.59986
| 76>    H       -3.10660         0.80203        -2.94970
| 77>    H       -3.41460         1.38977        -1.30887
| 78>    H       -1.47009         3.36874         1.70388
| 79>    H       -2.11725         3.26966        -1.29355
| 80>    H       -1.97965         5.46528         1.90088
| 81>    H       -3.06112         5.20229        -2.26348
| 82>    H       -5.00308        11.15189        -2.14762
| 83>    H       -4.64037        12.64291        -0.14274
| 84>    H       -3.81434        12.81744         2.16425
| 85>    H       -2.67737        10.18976         3.24095
| 86>    H       -2.14693        10.14769         5.63940
| 87>    H       -3.07299        13.98302         3.90472
| 88>    H       -1.43610        11.73325        10.67954
| 89>    H       -1.34725        11.25324         8.95645
| 90>    H       -3.90547        11.99974        10.46344
| 91>    H       -3.40602        10.35537        10.05103
| 92>    H       -3.81554        11.49739         8.76819
| 93>    H       -1.36333        18.88986         7.20081
| 94>    H       -0.67469        19.29228         8.79021
| 95>    H       -3.65431        19.06472         8.10225
| 96>    H       -2.77661        20.57066         8.38758
| 97>    H       -3.03367        19.42970         9.71421
| 98>    H       -1.01276        18.64496        10.91156
| 99>    H       -1.14685        15.93920        12.34731
|100>    H       -0.81290        17.58566        13.09690
|101> *
|102>
|103>                          ****END OF INPUT****

CARTESIAN COORDINATES (ANGSTROEM)
---------------------------------
  C      0.217950   -0.971330    2.698490
  N      0.128250   -0.078210    3.718960
  C      0.467370   -0.335400    5.096100
  C     -0.575980   -1.216080    5.778470
  C     -0.408740    1.157500    3.279820
  O     -0.581400    2.111150    4.010490
  C     -0.640390    0.946830    1.871700
  C     -0.238470   -0.387270    1.550160
  C     -0.461470   -0.575980    0.133820
  O     -0.277030   -1.516870   -0.604810
  N     -0.980820    0.664940   -0.309840
  C     -1.354950    0.808420   -1.695570
  C     -2.861710    0.663000   -1.900050
  C     -1.092830    1.572680    0.721790
  C     -1.543190    2.928140    0.717840
  C     -2.014950    3.677290   -0.299230
  C     -2.427780    5.054100   -0.192040
  C     -2.357430    5.850870    0.962620
  N     -2.740180    7.107550    0.981520
  C     -3.209340    7.630890   -0.148810
  N     -3.330830    6.971860   -1.297980
  C     -2.950220    5.716750   -1.315310
  C     -3.621510    9.043060   -0.136990
  N     -4.187830    9.514290   -1.245400
  C     -4.544700   10.785340   -1.237600
  C     -4.348480   11.604910   -0.138770
  C     -3.751370   11.017370    0.985180
  N     -3.393480    9.733350    0.967560
  C     -3.506250   11.781870    2.191310
  C     -2.942480   11.238570    3.281930
  C     -2.679350   11.926920    4.519830
  C     -2.277020   11.223040    5.664620
  N     -2.045810   11.800890    6.821720
  C     -2.202910   13.126680    6.890890
  N     -2.568890   13.894410    5.861790
  C     -2.794330   13.315630    4.709930
  C     -1.955050   13.825580    8.129570
  N     -1.780000   13.242260    9.358730
  C     -1.894610   11.842720    9.692710
  C     -3.352720   11.396680    9.746660
  C     -1.556490   14.202950   10.360590
  O     -1.386880   13.921090   11.531920
  C     -1.578200   15.465400    9.659980
  C     -1.831840   15.195790    8.283300
  C     -1.813260   16.458600    7.571260
  O     -1.945990   16.766200    6.410590
  N     -1.556100   17.414500    8.588220
  C     -1.521360   18.822940    8.281170
  C     -2.830860   19.517300    8.649000
  C     -1.419180   16.833420    9.821860
  C     -1.138880   17.576320   11.018810
  C     -1.027420   17.002070   12.218060
  H      0.609980   -1.958540    2.860790
  H      0.514430    0.639440    5.588770
  H      1.453030   -0.808590    5.141500
  H     -1.549680   -0.733260    5.749440
  H     -0.299030   -1.379810    6.816100
  H     -0.650730   -2.180480    5.280670
  H     -0.843110   -0.002990   -2.223000
  H     -0.982390    1.759810   -2.083310
  H     -3.176790   -0.333310   -1.599860
  H     -3.106600    0.802030   -2.949700
  H     -3.414600    1.389770   -1.308870
  H     -1.470090    3.368740    1.703880
  H     -2.117250    3.269660   -1.293550
  H     -1.979650    5.465280    1.900880
  H     -3.061120    5.202290   -2.263480
  H     -5.003080   11.151890   -2.147620
  H     -4.640370   12.642910   -0.142740
  H     -3.814340   12.817440    2.164250
  H     -2.677370   10.189760    3.240950
  H     -2.146930   10.147690    5.639400
  H     -3.072990   13.983020    3.904720
  H     -1.436100   11.733250   10.679540
  H     -1.347250   11.253240    8.956450
  H     -3.905470   11.999740   10.463440
  H     -3.406020   10.355370   10.051030
  H     -3.815540   11.497390    8.768190
  H     -1.363330   18.889860    7.200810
  H     -0.674690   19.292280    8.790210
  H     -3.654310   19.064720    8.102250
  H     -2.776610   20.570660    8.387580
  H     -3.033670   19.429700    9.714210
  H     -1.012760   18.644960   10.911560
  H     -1.146850   15.939200   12.347310
  H     -0.812900   17.585660   13.096900

 Total Charge           Charge          ....    0
 Multiplicity           Mult            ....    1
 Number of Electrons    NEL             ....  364
 Basis Dimension        Dim             ....  898

ORBITAL ENERGIES
----------------

  NO   OCC          E(Eh)            E(eV)
   0   2.0000     -19.190210      -522.1922
   1   2.0000     -19.186105      -522.0805
   2   2.0000     -19.180972      -521.9408
   3   2.0000     -19.174850      -521.7742
   4   2.0000     -14.453862      -393.3096
   5   2.0000     -14.451574      -393.2473
   6   2.0000     -14.444256      -393.0482
   7   2.0000     -14.439240      -392.9117
   8   2.0000     -14.416893      -392.3036
   9   2.0000     -14.411752      -392.1637
  10   2.0000     -14.410589      -392.1321
  11   2.0000     -14.410016      -392.1165
  12   2.0000     -14.406343      -392.0165
  13   2.0000     -14.403375      -391.9358
  14   2.0000     -10.373157      -282.2680
  15   2.0000     -10.372180      -282.2414
  16   2.0000     -10.365071      -282.0479
  17   2.0000     -10.358711      -281.8748
  18   2.0000     -10.350021      -281.6384
  19   2.0000     -10.341413      -281.4042
  20   2.0000     -10.339987      -281.3654
  21   2.0000     -10.337930      -281.3094
  22   2.0000     -10.334710      -281.2217
  23   2.0000     -10.333281      -281.1829
  24   2.0000     -10.327058      -281.0135
  25   2.0000     -10.324435      -280.9422
  26   2.0000     -10.324025      -280.9310
  27   2.0000     -10.323238      -280.9096
  28   2.0000     -10.323187      -280.9082
  29   2.0000     -10.321777      -280.8698
  30   2.0000     -10.317776      -280.7610
  31   2.0000     -10.309250      -280.5290
  32   2.0000     -10.306826      -280.4630
  33   2.0000     -10.302279      -280.3393
  34   2.0000     -10.301692      -280.3233
  35   2.0000     -10.298841      -280.2457
  36   2.0000     -10.296438      -280.1803
  37   2.0000     -10.295481      -280.1543
  38   2.0000     -10.287930      -279.9488
  39   2.0000     -10.285391      -279.8797
  40   2.0000     -10.283405      -279.8257
  41   2.0000     -10.281607      -279.7768
  42   2.0000     -10.281042      -279.7614
  43   2.0000     -10.276117      -279.6274
  44   2.0000     -10.265666      -279.3430
  45   2.0000     -10.263983      -279.2972
  46   2.0000     -10.260132      -279.1924
  47   2.0000     -10.259370      -279.1717
  48   2.0000     -10.259129      -279.1651
  49   2.0000     -10.256008      -279.0802
  50   2.0000     -10.248274      -278.8697
  51   2.0000     -10.244076      -278.7555
  52   2.0000      -1.131143       -30.7800
  53   2.0000      -1.124402       -30.5965
  54   2.0000      -1.122874       -30.5549
  55   2.0000      -1.113827       -30.3088
  56   2.0000      -1.094283       -29.7770
  57   2.0000      -1.088647       -29.6236
  58   2.0000      -1.071108       -29.1463
  59   2.0000      -1.061839       -28.8941
  60   2.0000      -1.052714       -28.6458
  61   2.0000      -1.052250       -28.6332
  62   2.0000      -1.040294       -28.3078
  63   2.0000      -0.985132       -26.8068
  64   2.0000      -0.982271       -26.7290
  65   2.0000      -0.973633       -26.4939
  66   2.0000      -0.933614       -25.4049
  67   2.0000      -0.927098       -25.2276
  68   2.0000      -0.923966       -25.1424
  69   2.0000      -0.916138       -24.9294
  70   2.0000      -0.899093       -24.4656
  71   2.0000      -0.886492       -24.1227
  72   2.0000      -0.878705       -23.9108
  73   2.0000      -0.865856       -23.5611
  74   2.0000      -0.860136       -23.4055
  75   2.0000      -0.850925       -23.1549
  76   2.0000      -0.820531       -22.3278
  77   2.0000      -0.814348       -22.1595
  78   2.0000      -0.808309       -21.9952
  79   2.0000      -0.807960       -21.9857
  80   2.0000      -0.789686       -21.4885
  81   2.0000      -0.777136       -21.1469
  82   2.0000      -0.761291       -20.7158
  83   2.0000      -0.757470       -20.6118
  84   2.0000      -0.755348       -20.5541
  85   2.0000      -0.751679       -20.4542
  86   2.0000      -0.747333       -20.3360
  87   2.0000      -0.741261       -20.1707
  88   2.0000      -0.719691       -19.5838
  89   2.0000      -0.712944       -19.4002
  90   2.0000      -0.708448       -19.2778
  91   2.0000      -0.696587       -18.9551
  92   2.0000      -0.685233       -18.6461
  93   2.0000      -0.683495       -18.5988
  94   2.0000      -0.674225       -18.3466
  95   2.0000      -0.666099       -18.1255
  96   2.0000      -0.651336       -17.7238
  97   2.0000      -0.649393       -17.6709
  98   2.0000      -0.641599       -17.4588
  99   2.0000      -0.635009       -17.2795
 100   2.0000      -0.627347       -17.0710
 101   2.0000      -0.623190       -16.9579
 102   2.0000      -0.611285       -16.6339
 103   2.0000      -0.600808       -16.3488
 104   2.0000      -0.593824       -16.1588
 105   2.0000      -0.589025       -16.0282
 106   2.0000      -0.586213       -15.9517
 107   2.0000      -0.578755       -15.7487
 108   2.0000      -0.575008       -15.6468
 109   2.0000      -0.571242       -15.5443
 110   2.0000      -0.565836       -15.3972
 111   2.0000      -0.562340       -15.3020
 112   2.0000      -0.556853       -15.1528
 113   2.0000      -0.554590       -15.0912
 114   2.0000      -0.547668       -14.9028
 115   2.0000      -0.542901       -14.7731
 116   2.0000      -0.541112       -14.7244
 117   2.0000      -0.538750       -14.6601
 118   2.0000      -0.535602       -14.5745
 119   2.0000      -0.530486       -14.4353
 120   2.0000      -0.524559       -14.2740
 121   2.0000      -0.523600       -14.2479
 122   2.0000      -0.522045       -14.2056
 123   2.0000      -0.518994       -14.1225
 124   2.0000      -0.517405       -14.0793
 125   2.0000      -0.513801       -13.9812
 126   2.0000      -0.508065       -13.8251
 127   2.0000      -0.506713       -13.7883
 128   2.0000      -0.505666       -13.7599
 129   2.0000      -0.504149       -13.7186
 130   2.0000      -0.501277       -13.6404
 131   2.0000      -0.500313       -13.6142
 132   2.0000      -0.499512       -13.5924
 133   2.0000      -0.495880       -13.4936
 134   2.0000      -0.490867       -13.3572
 135   2.0000      -0.488630       -13.2963
 136   2.0000      -0.485495       -13.2110
 137   2.0000      -0.483722       -13.1627
 138   2.0000      -0.476595       -12.9688
 139   2.0000      -0.467402       -12.7187
 140   2.0000      -0.466035       -12.6815
 141   2.0000      -0.463371       -12.6090
 142   2.0000      -0.459099       -12.4927
 143   2.0000      -0.456416       -12.4197
 144   2.0000      -0.455139       -12.3849
 145   2.0000      -0.453047       -12.3280
 146   2.0000      -0.451333       -12.2814
 147   2.0000      -0.449595       -12.2341
 148   2.0000      -0.447849       -12.1866
 149   2.0000      -0.442376       -12.0377
 150   2.0000      -0.438674       -11.9369
 151   2.0000      -0.433326       -11.7914
 152   2.0000      -0.432260       -11.7624
 153   2.0000      -0.431045       -11.7293
 154   2.0000      -0.427470       -11.6321
 155   2.0000      -0.423612       -11.5271
 156   2.0000      -0.416560       -11.3352
 157   2.0000      -0.412755       -11.2316
 158   2.0000      -0.405272       -11.0280
 159   2.0000      -0.403918       -10.9912
 160   2.0000      -0.398952       -10.8560
 161   2.0000      -0.394462       -10.7339
 162   2.0000      -0.392911       -10.6917
 163   2.0000      -0.380769       -10.3612
 164   2.0000      -0.379060       -10.3147
 165   2.0000      -0.374583       -10.1929
 166   2.0000      -0.370552       -10.0832
 167   2.0000      -0.359594        -9.7850
 168   2.0000      -0.345741        -9.4081
 169   2.0000      -0.342410        -9.3175
 170   2.0000      -0.336210        -9.1487
 171   2.0000      -0.332577        -9.0499
 172   2.0000      -0.329211        -8.9583
 173   2.0000      -0.322767        -8.7829
 174   2.0000      -0.315698        -8.5906
 175   2.0000      -0.312640        -8.5074
 176   2.0000      -0.312485        -8.5032
 177   2.0000      -0.303430        -8.2567
 178   2.0000      -0.302637        -8.2352
 179   2.0000      -0.297691        -8.1006
 180   2.0000      -0.248916        -6.7734
 181   2.0000      -0.237086        -6.4514
 182   0.0000      -0.077715        -2.1147
 183   0.0000      -0.074192        -2.0189
 184   0.0000      -0.033476        -0.9109
 185   0.0000      -0.024196        -0.6584
 186   0.0000      -0.001115        -0.0303

MULLIKEN ATOMIC CHARGES
-----------------------
   0 C :    0.050135
   1 N :   -0.265640
   2 C :    0.112717
   3 C :   -0.001195
   4 C :    0.161811
   5 O :   -0.195541
   6 C :   -0.081632
   7 C :    0.009030
   8 C :    0.159814
   9 O :   -0.187376
  10 N :   -0.275505
  11 C :    0.098008
  12 C :    0.002673
  13 C :    0.131263
  14 C :   -0.013424
  15 C :    0.016521
  16 C :    0.020785
  17 C :    0.038007
  18 N :   -0.010410
  19 C :   -0.095362
  20 N :    0.001678
  21 C :    0.020338
  22 C :   -0.089503
  23 N :   -0.027575
  24 C :    0.083553
  25 C :   -0.042602
  26 C :    0.052058
  27 N :   -0.008186
  28 C :   -0.002674
  29 C :    0.040526
  30 C :    0.032078
  31 C :    0.040342
  32 N :   -0.053058
  33 C :   -0.191909
  34 N :    0.000129
  35 C :    0.039276
  36 C :    0.194367
  37 N :   -0.258599
  38 C :    0.136002
  39 C :    0.001429
  40 C :    0.161184
  41 O :   -0.215175
  42 C :   -0.075557
  43 C :   -0.052292
  44 C :    0.149940
  45 O :   -0.159958
  46 N :   -0.271797
  47 C :    0.098086
  48 C :    0.003316
  49 C :    0.120756
  50 C :   -0.042665
  51 C :    0.020273
  52 H :    0.016859
  53 H :    0.043601
  54 H :    0.017984
  55 H :    0.030080
  56 H :    0.024107
  57 H :    0.014117
  58 H :    0.044085
  59 H :    0.023089
  60 H :    0.028148
  61 H :    0.021376
  62 H :    0.019339
  63 H :    0.008389
  64 H :   -0.018049
  65 H :    0.018456
  66 H :    0.003316
  67 H :    0.005570
  68 H :   -0.005070
  69 H :   -0.019188
  70 H :    0.021181
  71 H :    0.009578
  72 H :    0.010678
  73 H :    0.029077
  74 H :    0.028752
  75 H :    0.018559
  76 H :    0.014453
  77 H :    0.010940
  78 H :    0.042520
  79 H :    0.022037
  80 H :    0.028970
  81 H :    0.021177
  82 H :    0.015409
  83 H :   -0.017658
  84 H :    0.060090
  85 H :    0.029568
Sum of atomic charges:    0.0000000

LOEWDIN ATOMIC CHARGES
----------------------
   0 C :    0.099480
   1 N :   -0.003488
   2 C :    0.038187
   3 C :   -0.060156
   4 C :    0.077394
   5 O :   -0.197536
   6 C :   -0.120288
   7 C :   -0.133000
   8 C :    0.083923
   9 O :   -0.189331
  10 N :   -0.011972
  11 C :    0.033430
  12 C :   -0.063644
  13 C :    0.077640
  14 C :   -0.022284
  15 C :   -0.003231
  16 C :   -0.070452
  17 C :    0.058924
  18 N :   -0.056039
  19 C :    0.013325
  20 N :   -0.051563
  21 C :    0.047545
  22 C :    0.009757
  23 N :   -0.067295
  24 C :    0.049355
  25 C :   -0.058071
  26 C :    0.033238
  27 N :   -0.062820
  28 C :   -0.035102
  29 C :    0.020754
  30 C :   -0.071868
  31 C :    0.054210
  32 N :   -0.071222
  33 C :    0.017801
  34 N :   -0.044101
  35 C :    0.063613
  36 C :    0.048662
  37 N :    0.009732
  38 C :    0.033791
  39 C :   -0.061260
  40 C :    0.077222
  41 O :   -0.207598
  42 C :   -0.132551
  43 C :   -0.095834
  44 C :    0.085620
  45 O :   -0.167802
  46 N :   -0.007265
  47 C :    0.034641
  48 C :   -0.061851
  49 C :    0.092207
  50 C :   -0.056579
  51 C :    0.031987
  52 H :    0.033576
  53 H :    0.036849
  54 H :    0.024502
  55 H :    0.031631
  56 H :    0.030736
  57 H :    0.022043
  58 H :    0.037926
  59 H :    0.019964
  60 H :    0.033118
  61 H :    0.030229
  62 H :    0.020881
  63 H :    0.045024
  64 H :    0.030285
  65 H :    0.028812
  66 H :    0.024244
  67 H :    0.026470
  68 H :    0.033239
  69 H :    0.026404
  70 H :    0.041255
  71 H :    0.028497
  72 H :    0.027355
  73 H :    0.029435
  74 H :    0.022528
  75 H :    0.025927
  76 H :    0.027948
  77 H :    0.018269
  78 H :    0.036603
  79 H :    0.021829
  80 H :    0.031977
  81 H :    0.029470
  82 H :    0.021816
  83 H :    0.029452
  84 H :    0.033901
  85 H :    0.029571

  Mayer bond orders larger than 0.100000
B(  0-C ,  1-N ) :   1.1977 B(  0-C ,  7-C ) :   1.4543 B(  0-C , 52-H ) :   0.9890
B(  1-N ,  2-C ) :   0.9407 B(  1-N ,  4-C ) :   1.0310 B(  2-C ,  3-C ) :   1.1192
B(  2-C , 53-H ) :   0.9344 B(  2-C , 54-H ) :   0.9540 B(  3-C , 55-H ) :   0.9674
B(  3-C , 56-H ) :   0.9686 B(  3-C , 57-H ) :   0.9690 B(  4-C ,  5-O ) :   2.1202
B(  4-C ,  6-C ) :   0.9900 B(  6-C ,  7-C ) :   1.1896 B(  6-C , 13-C ) :   1.3971
B(  7-C ,  8-C ) :   0.9539 B(  8-C ,  9-O ) :   2.1665 B(  8-C , 10-N ) :   1.0167
B( 10-N , 11-C ) :   0.9461 B( 10-N , 13-C ) :   1.1605 B( 11-C , 12-C ) :   1.1151
B( 11-C , 58-H ) :   0.9227 B( 11-C , 59-H ) :   0.9516 B( 12-C , 60-H ) :   0.9615
B( 12-C , 61-H ) :   0.9684 B( 12-C , 62-H ) :   0.9682 B( 13-C , 14-C ) :   1.1647
B( 14-C , 15-C ) :   1.6271 B( 14-C , 63-H ) :   0.9445 B( 15-C , 16-C ) :   1.0660
B( 15-C , 64-H ) :   0.9842 B( 16-C , 17-C ) :   1.3062 B( 16-C , 21-C ) :   1.2996
B( 17-C , 18-N ) :   1.5813 B( 17-C , 65-H ) :   0.9833 B( 18-N , 19-C ) :   1.5987
B( 19-C , 20-N ) :   1.6177 B( 19-C , 22-C ) :   0.8933 B( 20-N , 21-C ) :   1.5770
B( 21-C , 66-H ) :   0.9883 B( 22-C , 23-N ) :   1.6207 B( 22-C , 27-N ) :   1.6388
B( 23-N , 24-C ) :   1.5437 B( 24-C , 25-C ) :   1.3698 B( 24-C , 67-H ) :   0.9804
B( 25-C , 26-C ) :   1.3327 B( 25-C , 68-H ) :   0.9750 B( 26-C , 27-N ) :   1.5120
B( 26-C , 28-C ) :   1.0707 B( 28-C , 29-C ) :   1.7390 B( 28-C , 69-H ) :   0.9701
B( 29-C , 30-C ) :   1.0364 B( 29-C , 70-H ) :   0.9757 B( 30-C , 31-C ) :   1.3156
B( 30-C , 35-C ) :   1.2825 B( 31-C , 32-N ) :   1.5449 B( 31-C , 71-H ) :   0.9892
B( 32-N , 33-C ) :   1.5087 B( 33-C , 34-N ) :   1.6226 B( 33-C , 36-C ) :   0.9793
B( 34-N , 35-C ) :   1.6004 B( 34-N , 36-C ) :  -0.1214 B( 35-C , 72-H ) :   0.9852
B( 36-C , 37-N ) :   1.1979 B( 36-C , 43-C ) :   1.4187 B( 37-N , 38-C ) :   0.9419
B( 37-N , 40-C ) :   1.0630 B( 38-C , 39-C ) :   1.1225 B( 38-C , 73-H ) :   0.9264
B( 38-C , 74-H ) :   0.9337 B( 39-C , 75-H ) :   0.9663 B( 39-C , 76-H ) :   0.9686
B( 39-C , 77-H ) :   0.9674 B( 40-C , 41-O ) :   2.0334 B( 40-C , 42-C ) :   0.9892
B( 42-C , 43-C ) :   1.2264 B( 42-C , 49-C ) :   1.3596 B( 43-C , 44-C ) :   0.9478
B( 44-C , 45-O ) :   2.1799 B( 44-C , 46-N ) :   1.0082 B( 46-N , 47-C ) :   0.9490
B( 46-N , 49-C ) :   1.1854 B( 47-C , 48-C ) :   1.1190 B( 47-C , 78-H ) :   0.9269
B( 47-C , 79-H ) :   0.9509 B( 48-C , 80-H ) :   0.9640 B( 48-C , 81-H ) :   0.9681
B( 48-C , 82-H ) :   0.9689 B( 49-C , 50-C ) :   1.1224 B( 50-C , 51-C ) :   1.8898
B( 50-C , 83-H ) :   0.9543 B( 51-C , 84-H ) :   0.9238 B( 51-C , 85-H ) :   0.9439

-----------------------------------------------------------------------------
         ABSORPTION SPECTRUM VIA TRANSITION ELECTRIC DIPOLE MOMENTS
-----------------------------------------------------------------------------
State   Energy  Wavelength   fosc         T2         TX        TY        TZ
        (cm-1)    (nm)                  (au**2)     (au)      (au)      (au)
-----------------------------------------------------------------------------
   0   19091.4    523.8   0.598375685  10.31839  -0.46828  -2.73399  -1.62000
   1   21646.2    462.0   0.486486258   7.39885   1.00134  -1.75354   1.82243
   2   26523.8    377.0   0.006361469   0.07896   0.09179  -0.19091   0.18462
   3   27072.5    369.4   0.006107515   0.07427   0.01186  -0.00904   0.27212
   4   27123.3    368.7   0.001173598   0.01424   0.00302   0.00337   0.11927
   5   27522.5    363.3   0.006899876   0.08253   0.08674  -0.08034   0.26183
   6   28816.2    347.0   0.005968521   0.06819  -0.08064   0.12327  -0.21562
   7   29122.8    343.4   0.129893316   1.46835   0.13672  -0.18715   1.18938
   8   29379.9    340.4   0.001795292   0.02012   0.06053   0.06701   0.10938
   9   30099.2    332.2   0.004811473   0.05263  -0.05742  -0.04188  -0.21812
  10   30570.4    327.1   0.001598630   0.01722  -0.10466   0.07192  -0.03302
  11   30906.6    323.6   0.009060830   0.09651  -0.16584   0.08253   0.24940
  12   31707.2    315.4   0.008695484   0.09028   0.06689  -0.26055   0.13388
  13   32519.8    307.5   0.846784161   8.57237  -0.03961  -2.11964  -2.01939
  14   32799.8    304.9   0.131954595   1.32443   0.11657  -1.07730  -0.38764
  15   33026.0    302.8   0.493565322   4.92000   0.48486   0.45798   2.11546
  16   33737.4    296.4   0.002923104   0.02852  -0.07487   0.13444  -0.06960
  17   34260.4    291.9   0.504497967   4.84778  -0.93375   1.74405  -0.96652
  18   34574.7    289.2   0.142673589   1.35850  -0.47842   0.96661  -0.44191
  19   35562.9    281.2   0.188511609   1.74508   0.36482  -1.26436  -0.11572
  20   37137.2    269.3   0.018982814   0.16828   0.11170  -0.28934   0.26848
  21   37495.6    266.7   0.028566224   0.25081  -0.15582   0.34905  -0.32357
  22   37553.8    266.3   0.004245188   0.03722  -0.03182   0.14209   0.12654
  23   38504.6    259.7   0.006018769   0.05146   0.21732   0.04863  -0.04323
  24   38890.6    257.1   0.025368786   0.21475  -0.04386  -0.19556  -0.41783
  25   39636.8    252.3   0.003009034   0.02499  -0.13350  -0.01312   0.08366

FINAL SINGLE POINT ENERGY     -2314.061515682625

DIPOLE MOMENT
-------------
                                X             Y             Z
Electronic contribution:      2.54590       6.16210     -20.33517
Nuclear contribution   :     -2.77541      -6.04973      20.02290
                        -----------------------------------------
Total Dipole Moment    :     -0.22951       0.11237      -0.31228
                        -----------------------------------------
Magnitude (a.u.)       :      0.40351
Magnitude (Debye)      :      1.02563

Rotational constants in cm-1:     0.002612     0.000470     0.000403
Rotational constants in MHz :    78.299193    14.091362    12.095912

                             ****ORCA TERMINATED NORMALLY****
TOTAL RUN TIME: 0 days 0 hours 5 minutes 11 seconds 389 msec
