                         Program Version 4.2.0 -  RELEASE  -
|  1> # ORCA input file
|  2> # SCF done       -187.638258603630          0.000510635227
|  3> ! CAM-B3LYP def2-SVP def2/J RIJCOSX Grid4 TightSCF
|  4> %maxcore 5000
|  5> %tddft
|  6>     Mode sTDDFT
|  7>     Ethresh 5.0
|  8>     maxcore 5000
|  9> end
| 10>
| 11> %pal
| 12>   nprocs 6
| 13>   end
| 14> * xyz 0 1
| 15>    C        3.77134         5.55199        -5.55769
| 16>    C        3.34301         5.08458        -6.77357
| 17>    C        3.13117         3.70624        -6.99020
| 18>    N        2.96165         2.58748        -7.17779
| 19>    C        3.08172         5.88022        -7.90274
| 20>    N        2.85272         6.47267        -8.85992
| 21>    C        4.05419         6.90626        -5.15517
| 22>    C        4.49089         6.99668        -3.81756
| 23>    C        4.80610         8.24105        -3.27768
| 24>    C        4.68863         9.37104        -4.06174
| 25>    C        4.25960         9.27940        -5.38157
| 26>    C        3.94093         8.05543        -5.93504
| 27>    C        4.56298         5.72221        -3.14444
| 28>    S        4.05253         4.44046        -4.23859
| 29>    C        4.98376         5.52698        -1.86675
| 30>    C        5.09695         4.31798        -1.14411
| 31>    C        4.75204         3.01484        -1.47267
| 32>    C        5.06114         2.11772        -0.45354
| 33>    C        5.65063         2.73569         0.66728
| 34>    S        5.80928         4.41955         0.46823
| 35>    C        5.94724         1.74183         1.62715
| 36>    C        5.54927         0.49134         1.12131
| 37>    C        4.96611         0.68909        -0.19798
| 38>    C        4.42941        -0.26445        -1.01171
| 39>    C        4.39495        -1.62575        -0.64353
| 40>    N        4.36913        -2.73139        -0.34026
| 41>    C        3.86146         0.05046        -2.26516
| 42>    N        3.39128         0.30604        -3.27866
| 43>    C        5.81761        -0.55863         1.99642
| 44>    C        6.41508        -0.12229         3.16740
| 45>    S        6.64356         1.62606         3.18042
| 46>    C        6.84006        -0.90207         4.27955
| 47>    C        7.38712        -0.33391         5.40642
| 48>    C        7.83132        -1.03612         6.52081
| 49>    C        7.75537        -2.49684         6.57806
| 50>    C        7.24918        -3.26409         5.58741
| 51>    S        6.62568        -2.64071         4.11504
| 52>    C        8.30295        -2.84766         7.84300
| 53>    C        8.69185        -1.69752         8.53632
| 54>    C        9.24071        -2.01437         9.79942
| 55>    C        9.25258        -3.35485        10.02272
| 56>    S        8.60322        -4.29141         8.72221
| 57>    C        8.39883        -0.54630         7.71913
| 58>    C        8.59027         0.82293         7.98377
| 59>    C        9.11513         1.38975         9.10647
| 60>    C        9.24138         2.78674         9.27396
| 61>    C        8.87581         3.80397         8.39751
| 62>    C        9.14129         5.06488         8.91089
| 63>    C        9.71851         5.03413        10.19490
| 64>    S        9.92982         3.43128        10.76007
| 65>    C        9.93824         6.36230        10.61717
| 66>    C        9.50052         7.24133         9.60180
| 67>    C        8.98373         6.45386         8.49968
| 68>    C        8.45174         6.90313         7.32584
| 69>    C        8.32915         8.27763         7.03067
| 70>    N        8.22183         9.39269         6.78718
| 71>    C        7.98314         6.02047         6.33138
| 72>    N        7.60299         5.30212         5.52129
| 73>    C        9.67613         8.58429         9.92387
| 74>    C       10.24245         8.75517        11.17752
| 75>    S       10.55962         7.20143        11.96410
| 76>    C       10.58700         9.91872        11.89819
| 77>    C       10.47736        11.22089        11.52027
| 78>    C       10.84554        12.36149        12.32161
| 79>    C       10.63609        13.59845        11.67711
| 80>    C       10.09861        13.44998        10.34928
| 81>    C        9.77895        14.42053         9.43350
| 82>    C        9.91946        15.80414         9.63545
| 83>    N       10.00922        16.94509         9.73694
| 84>    C        9.26638        14.08308         8.16326
| 85>    N        8.85235        13.81972         7.12638
| 86>    S        9.86626        11.76310         9.95938
| 87>    C       10.94520        14.79055        12.32951
| 88>    C       11.45679        14.74497        13.61051
| 89>    C       11.66400        13.52611        14.24834
| 90>    C       11.36283        12.33783        13.61484
| 91>    H        5.13917         8.32685        -2.25541
| 92>    H        4.93286        10.33620        -3.64485
| 93>    H        4.17381        10.17234        -5.98088
| 94>    H        3.60863         7.99202        -6.95793
| 95>    H        5.29349         6.40822        -1.32020
| 96>    H        4.29473         2.73661        -2.40361
| 97>    H        5.59582        -1.59304         1.80459
| 98>    H        7.47046         0.74490         5.40556
| 99>    H        7.19850        -4.33950         5.65180
|100>    H        9.61238        -1.30693        10.51724
|101>    H        9.61108        -3.87007        10.89237
|102>    H        8.27137         1.48929         7.19488
|103>    H        9.45371         0.77221         9.92346
|104>    H        8.43597         3.62453         7.43468
|105>    H        9.40094         9.39792         9.27925
|106>    H       10.99483         9.73505        12.88372
|107>    H       10.78674        15.73787        11.84140
|108>    H       11.69731        15.66483        14.12037
|109>    H       12.06465        13.50912        15.25057
|110>    H       11.52778        11.39981        14.12139
|111> *
|112>
|113>                          ****END OF INPUT****

CARTESIAN COORDINATES (ANGSTROEM)
---------------------------------
  C      3.771340    5.551990   -5.557690
  C      3.343010    5.084580   -6.773570
  C      3.131170    3.706240   -6.990200
  N      2.961650    2.587480   -7.177790
  C      3.081720    5.880220   -7.902740
  N      2.852720    6.472670   -8.859920
  C      4.054190    6.906260   -5.155170
  C      4.490890    6.996680   -3.817560
  C      4.806100    8.241050   -3.277680
  C      4.688630    9.371040   -4.061740
  C      4.259600    9.279400   -5.381570
  C      3.940930    8.055430   -5.935040
  C      4.562980    5.722210   -3.144440
  S      4.052530    4.440460   -4.238590
  C      4.983760    5.526980   -1.866750
  C      5.096950    4.317980   -1.144110
  C      4.752040    3.014840   -1.472670
  C      5.061140    2.117720   -0.453540
  C      5.650630    2.735690    0.667280
  S      5.809280    4.419550    0.468230
  C      5.947240    1.741830    1.627150
  C      5.549270    0.491340    1.121310
  C      4.966110    0.689090   -0.197980
  C      4.429410   -0.264450   -1.011710
  C      4.394950   -1.625750   -0.643530
  N      4.369130   -2.731390   -0.340260
  C      3.861460    0.050460   -2.265160
  N      3.391280    0.306040   -3.278660
  C      5.817610   -0.558630    1.996420
  C      6.415080   -0.122290    3.167400
  S      6.643560    1.626060    3.180420
  C      6.840060   -0.902070    4.279550
  C      7.387120   -0.333910    5.406420
  C      7.831320   -1.036120    6.520810
  C      7.755370   -2.496840    6.578060
  C      7.249180   -3.264090    5.587410
  S      6.625680   -2.640710    4.115040
  C      8.302950   -2.847660    7.843000
  C      8.691850   -1.697520    8.536320
  C      9.240710   -2.014370    9.799420
  C      9.252580   -3.354850   10.022720
  S      8.603220   -4.291410    8.722210
  C      8.398830   -0.546300    7.719130
  C      8.590270    0.822930    7.983770
  C      9.115130    1.389750    9.106470
  C      9.241380    2.786740    9.273960
  C      8.875810    3.803970    8.397510
  C      9.141290    5.064880    8.910890
  C      9.718510    5.034130   10.194900
  S      9.929820    3.431280   10.760070
  C      9.938240    6.362300   10.617170
  C      9.500520    7.241330    9.601800
  C      8.983730    6.453860    8.499680
  C      8.451740    6.903130    7.325840
  C      8.329150    8.277630    7.030670
  N      8.221830    9.392690    6.787180
  C      7.983140    6.020470    6.331380
  N      7.602990    5.302120    5.521290
  C      9.676130    8.584290    9.923870
  C     10.242450    8.755170   11.177520
  S     10.559620    7.201430   11.964100
  C     10.587000    9.918720   11.898190
  C     10.477360   11.220890   11.520270
  C     10.845540   12.361490   12.321610
  C     10.636090   13.598450   11.677110
  C     10.098610   13.449980   10.349280
  C      9.778950   14.420530    9.433500
  C      9.919460   15.804140    9.635450
  N     10.009220   16.945090    9.736940
  C      9.266380   14.083080    8.163260
  N      8.852350   13.819720    7.126380
  S      9.866260   11.763100    9.959380
  C     10.945200   14.790550   12.329510
  C     11.456790   14.744970   13.610510
  C     11.664000   13.526110   14.248340
  C     11.362830   12.337830   13.614840
  H      5.139170    8.326850   -2.255410
  H      4.932860   10.336200   -3.644850
  H      4.173810   10.172340   -5.980880
  H      3.608630    7.992020   -6.957930
  H      5.293490    6.408220   -1.320200
  H      4.294730    2.736610   -2.403610
  H      5.595820   -1.593040    1.804590
  H      7.470460    0.744900    5.405560
  H      7.198500   -4.339500    5.651800
  H      9.612380   -1.306930   10.517240
  H      9.611080   -3.870070   10.892370
  H      8.271370    1.489290    7.194880
  H      9.453710    0.772210    9.923460
  H      8.435970    3.624530    7.434680
  H      9.400940    9.397920    9.279250
  H     10.994830    9.735050   12.883720
  H     10.786740   15.737870   11.841400
  H     11.697310   15.664830   14.120370
  H     12.064650   13.509120   15.250570
  H     11.527780   11.399810   14.121390

 Total Charge           Charge          ....    0
 Multiplicity           Mult            ....    1
 Number of Electrons    NEL             ....  564
 Basis Dimension        Dim             .... 1196

ORBITAL ENERGIES
----------------

  NO   OCC          E(Eh)            E(eV)
   0   2.0000     -88.995789     -2421.6985
   1   2.0000     -88.994246     -2421.6566
   2   2.0000     -88.993009     -2421.6229
   3   2.0000     -88.988940     -2421.5122
   4   2.0000     -88.987596     -2421.4756
   5   2.0000     -88.975210     -2421.1386
   6   2.0000     -88.975157     -2421.1371
   7   2.0000     -88.965921     -2420.8858
   8   2.0000     -14.437267      -392.8580
   9   2.0000     -14.434032      -392.7700
  10   2.0000     -14.431258      -392.6945
  11   2.0000     -14.430746      -392.6805
  12   2.0000     -14.410918      -392.1410
  13   2.0000     -14.410855      -392.1393
  14   2.0000     -14.405739      -392.0001
  15   2.0000     -14.405501      -391.9936
  16   2.0000     -10.369075      -282.1569
  17   2.0000     -10.367790      -282.1219
  18   2.0000     -10.358323      -281.8643
  19   2.0000     -10.358212      -281.8613
  20   2.0000     -10.355505      -281.7876
  21   2.0000     -10.355027      -281.7746
  22   2.0000     -10.340594      -281.3819
  23   2.0000     -10.340298      -281.3738
  24   2.0000     -10.339609      -281.3551
  25   2.0000     -10.338942      -281.3369
  26   2.0000     -10.338839      -281.3341
  27   2.0000     -10.338740      -281.3314
  28   2.0000     -10.338499      -281.3249
  29   2.0000     -10.337410      -281.2952
  30   2.0000     -10.334985      -281.2292
  31   2.0000     -10.334062      -281.2041
  32   2.0000     -10.331040      -281.1219
  33   2.0000     -10.330943      -281.1193
  34   2.0000     -10.330835      -281.1163
  35   2.0000     -10.330045      -281.0948
  36   2.0000     -10.329077      -281.0685
  37   2.0000     -10.327795      -281.0336
  38   2.0000     -10.327393      -281.0226
  39   2.0000     -10.326516      -280.9988
  40   2.0000     -10.315370      -280.6955
  41   2.0000     -10.314714      -280.6776
  42   2.0000     -10.314700      -280.6772
  43   2.0000     -10.314373      -280.6684
  44   2.0000     -10.312222      -280.6098
  45   2.0000     -10.311617      -280.5934
  46   2.0000     -10.309660      -280.5401
  47   2.0000     -10.309161      -280.5265
  48   2.0000     -10.308847      -280.5180
  49   2.0000     -10.308614      -280.5117
  50   2.0000     -10.308327      -280.5038
  51   2.0000     -10.308291      -280.5029
  52   2.0000     -10.308080      -280.4971
  53   2.0000     -10.307783      -280.4890
  54   2.0000     -10.307293      -280.4757
  55   2.0000     -10.306939      -280.4661
  56   2.0000     -10.306897      -280.4649
  57   2.0000     -10.306412      -280.4517
  58   2.0000     -10.305423      -280.4248
  59   2.0000     -10.305124      -280.4167
  60   2.0000     -10.298489      -280.2361
  61   2.0000     -10.298121      -280.2261
  62   2.0000     -10.298011      -280.2231
  63   2.0000     -10.297648      -280.2133
  64   2.0000     -10.297252      -280.2025
  65   2.0000     -10.297203      -280.2011
  66   2.0000     -10.296523      -280.1826
  67   2.0000     -10.296366      -280.1784
  68   2.0000     -10.295624      -280.1582
  69   2.0000     -10.293270      -280.0941
  70   2.0000     -10.291140      -280.0361
  71   2.0000     -10.290469      -280.0179
  72   2.0000     -10.290363      -280.0150
  73   2.0000     -10.286506      -279.9101
  74   2.0000     -10.285323      -279.8779
  75   2.0000     -10.284735      -279.8619
  76   2.0000      -8.090009      -220.1403
  77   2.0000      -8.089060      -220.1145
  78   2.0000      -8.087899      -220.0829
  79   2.0000      -8.083500      -219.9632
  80   2.0000      -8.082668      -219.9406
  81   2.0000      -8.070328      -219.6048
  82   2.0000      -8.070253      -219.6027
  83   2.0000      -8.061451      -219.3632
  84   2.0000      -6.059326      -164.8827
  85   2.0000      -6.058222      -164.8526
  86   2.0000      -6.057085      -164.8217
  87   2.0000      -6.055162      -164.7693
  88   2.0000      -6.054147      -164.7417
  89   2.0000      -6.053050      -164.7119
  90   2.0000      -6.052730      -164.7032
  91   2.0000      -6.052294      -164.6913
  92   2.0000      -6.052237      -164.6897
  93   2.0000      -6.051446      -164.6682
  94   2.0000      -6.050210      -164.6346
  95   2.0000      -6.048658      -164.5924
  96   2.0000      -6.047696      -164.5662
  97   2.0000      -6.045863      -164.5163
  98   2.0000      -6.044510      -164.4795
  99   2.0000      -6.040124      -164.3601
 100   2.0000      -6.040040      -164.3579
 101   2.0000      -6.035872      -164.2444
 102   2.0000      -6.035787      -164.2421
 103   2.0000      -6.031347      -164.1213
 104   2.0000      -6.031335      -164.1210
 105   2.0000      -6.030863      -164.1081
 106   2.0000      -6.026612      -163.9924
 107   2.0000      -6.023501      -163.9078
 108   2.0000      -1.050027       -28.5727
 109   2.0000      -1.046642       -28.4806
 110   2.0000      -1.026211       -27.9246
 111   2.0000      -1.025148       -27.8957
 112   2.0000      -1.024053       -27.8659
 113   2.0000      -1.023896       -27.8616
 114   2.0000      -1.017850       -27.6971
 115   2.0000      -1.011321       -27.5194
 116   2.0000      -1.009845       -27.4793
 117   2.0000      -1.005652       -27.3652
 118   2.0000      -1.001346       -27.2480
 119   2.0000      -0.999101       -27.1869
 120   2.0000      -0.997085       -27.1321
 121   2.0000      -0.985993       -26.8302
 122   2.0000      -0.985740       -26.8233
 123   2.0000      -0.981838       -26.7172
 124   2.0000      -0.963591       -26.2206
 125   2.0000      -0.962490       -26.1907
 126   2.0000      -0.952078       -25.9074
 127   2.0000      -0.951609       -25.8946
 128   2.0000      -0.939648       -25.5691
 129   2.0000      -0.933268       -25.3955
 130   2.0000      -0.932151       -25.3651
 131   2.0000      -0.919710       -25.0266
 132   2.0000      -0.914714       -24.8906
 133   2.0000      -0.898813       -24.4579
 134   2.0000      -0.889261       -24.1980
 135   2.0000      -0.878816       -23.9138
 136   2.0000      -0.877757       -23.8850
 137   2.0000      -0.870773       -23.6949
 138   2.0000      -0.867923       -23.6174
 139   2.0000      -0.862189       -23.4614
 140   2.0000      -0.858621       -23.3643
 141   2.0000      -0.856319       -23.3016
 142   2.0000      -0.854502       -23.2522
 143   2.0000      -0.849431       -23.1142
 144   2.0000      -0.849078       -23.1046
 145   2.0000      -0.843625       -22.9562
 146   2.0000      -0.825915       -22.4743
 147   2.0000      -0.812688       -22.1144
 148   2.0000      -0.795758       -21.6537
 149   2.0000      -0.790616       -21.5138
 150   2.0000      -0.785389       -21.3715
 151   2.0000      -0.776644       -21.1336
 152   2.0000      -0.766307       -20.8523
 153   2.0000      -0.757309       -20.6074
 154   2.0000      -0.739004       -20.1093
 155   2.0000      -0.733539       -19.9606
 156   2.0000      -0.727682       -19.8012
 157   2.0000      -0.726236       -19.7619
 158   2.0000      -0.709997       -19.3200
 159   2.0000      -0.709576       -19.3085
 160   2.0000      -0.706931       -19.2366
 161   2.0000      -0.703112       -19.1327
 162   2.0000      -0.702985       -19.1292
 163   2.0000      -0.691533       -18.8176
 164   2.0000      -0.687076       -18.6963
 165   2.0000      -0.684780       -18.6338
 166   2.0000      -0.679904       -18.5011
 167   2.0000      -0.667365       -18.1599
 168   2.0000      -0.665464       -18.1082
 169   2.0000      -0.659909       -17.9570
 170   2.0000      -0.652811       -17.7639
 171   2.0000      -0.643514       -17.5109
 172   2.0000      -0.638113       -17.3639
 173   2.0000      -0.636908       -17.3312
 174   2.0000      -0.636297       -17.3145
 175   2.0000      -0.635202       -17.2847
 176   2.0000      -0.631013       -17.1707
 177   2.0000      -0.621359       -16.9080
 178   2.0000      -0.618885       -16.8407
 179   2.0000      -0.611425       -16.6377
 180   2.0000      -0.608253       -16.5514
 181   2.0000      -0.599991       -16.3266
 182   2.0000      -0.586549       -15.9608
 183   2.0000      -0.584051       -15.8928
 184   2.0000      -0.580135       -15.7863
 185   2.0000      -0.577027       -15.7017
 186   2.0000      -0.571252       -15.5445
 187   2.0000      -0.569728       -15.5031
 188   2.0000      -0.565598       -15.3907
 189   2.0000      -0.560819       -15.2607
 190   2.0000      -0.555426       -15.1139
 191   2.0000      -0.552529       -15.0351
 192   2.0000      -0.549762       -14.9598
 193   2.0000      -0.548030       -14.9127
 194   2.0000      -0.540260       -14.7012
 195   2.0000      -0.537994       -14.6395
 196   2.0000      -0.535114       -14.5612
 197   2.0000      -0.532456       -14.4889
 198   2.0000      -0.530321       -14.4308
 199   2.0000      -0.530211       -14.4278
 200   2.0000      -0.527974       -14.3669
 201   2.0000      -0.524871       -14.2825
 202   2.0000      -0.523883       -14.2556
 203   2.0000      -0.521320       -14.1858
 204   2.0000      -0.517743       -14.0885
 205   2.0000      -0.511527       -13.9194
 206   2.0000      -0.509809       -13.8726
 207   2.0000      -0.508553       -13.8384
 208   2.0000      -0.508087       -13.8257
 209   2.0000      -0.501831       -13.6555
 210   2.0000      -0.500650       -13.6234
 211   2.0000      -0.499197       -13.5838
 212   2.0000      -0.495384       -13.4801
 213   2.0000      -0.493126       -13.4187
 214   2.0000      -0.490465       -13.3462
 215   2.0000      -0.485609       -13.2141
 216   2.0000      -0.485140       -13.2013
 217   2.0000      -0.482974       -13.1424
 218   2.0000      -0.477189       -12.9850
 219   2.0000      -0.475407       -12.9365
 220   2.0000      -0.469462       -12.7747
 221   2.0000      -0.468810       -12.7570
 222   2.0000      -0.463896       -12.6233
 223   2.0000      -0.463340       -12.6081
 224   2.0000      -0.460818       -12.5395
 225   2.0000      -0.458872       -12.4865
 226   2.0000      -0.458228       -12.4690
 227   2.0000      -0.457046       -12.4369
 228   2.0000      -0.455677       -12.3996
 229   2.0000      -0.455291       -12.3891
 230   2.0000      -0.452640       -12.3170
 231   2.0000      -0.450212       -12.2509
 232   2.0000      -0.448785       -12.2121
 233   2.0000      -0.447096       -12.1661
 234   2.0000      -0.446873       -12.1600
 235   2.0000      -0.444540       -12.0966
 236   2.0000      -0.444323       -12.0906
 237   2.0000      -0.444231       -12.0881
 238   2.0000      -0.443264       -12.0618
 239   2.0000      -0.441839       -12.0230
 240   2.0000      -0.441751       -12.0207
 241   2.0000      -0.441336       -12.0094
 242   2.0000      -0.439413       -11.9570
 243   2.0000      -0.439074       -11.9478
 244   2.0000      -0.437220       -11.8974
 245   2.0000      -0.437163       -11.8958
 246   2.0000      -0.433035       -11.7835
 247   2.0000      -0.431834       -11.7508
 248   2.0000      -0.431667       -11.7463
 249   2.0000      -0.430141       -11.7047
 250   2.0000      -0.428792       -11.6680
 251   2.0000      -0.426934       -11.6175
 252   2.0000      -0.425688       -11.5836
 253   2.0000      -0.421321       -11.4647
 254   2.0000      -0.420927       -11.4540
 255   2.0000      -0.418631       -11.3915
 256   2.0000      -0.417140       -11.3509
 257   2.0000      -0.414575       -11.2812
 258   2.0000      -0.414290       -11.2734
 259   2.0000      -0.403828       -10.9887
 260   2.0000      -0.403530       -10.9806
 261   2.0000      -0.403309       -10.9746
 262   2.0000      -0.402777       -10.9601
 263   2.0000      -0.401615       -10.9285
 264   2.0000      -0.391260       -10.6467
 265   2.0000      -0.369434       -10.0528
 266   2.0000      -0.364478        -9.9179
 267   2.0000      -0.355084        -9.6623
 268   2.0000      -0.352033        -9.5793
 269   2.0000      -0.343477        -9.3465
 270   2.0000      -0.341030        -9.2799
 271   2.0000      -0.340760        -9.2726
 272   2.0000      -0.332829        -9.0567
 273   2.0000      -0.327664        -8.9162
 274   2.0000      -0.325789        -8.8652
 275   2.0000      -0.324467        -8.8292
 276   2.0000      -0.310793        -8.4571
 277   2.0000      -0.304965        -8.2985
 278   2.0000      -0.287710        -7.8290
 279   2.0000      -0.269288        -7.3277
 280   2.0000      -0.253991        -6.9115
 281   2.0000      -0.225111        -6.1256
 282   0.0000      -0.113311        -3.0834
 283   0.0000      -0.108250        -2.9456
 284   0.0000      -0.084946        -2.3115
 285   0.0000      -0.081691        -2.2229
 286   0.0000      -0.068314        -1.8589

MULLIKEN ATOMIC CHARGES
-----------------------
   0 C :    0.095223
   1 C :   -0.285086
   2 C :   -0.210002
   3 N :    0.166293
   4 C :   -0.177168
   5 N :    0.154823
   6 C :    0.034335
   7 C :    0.147969
   8 C :   -0.054321
   9 C :    0.050155
  10 C :    0.029260
  11 C :   -0.019015
  12 C :   -0.035330
  13 S :    0.112464
  14 C :    0.014686
  15 C :   -0.106281
  16 C :   -0.035494
  17 C :   -0.010199
  18 C :   -0.091775
  19 S :    0.198234
  20 C :   -0.091626
  21 C :    0.021009
  22 C :    0.305257
  23 C :   -0.291736
  24 C :   -0.185108
  25 N :    0.170555
  26 C :   -0.188307
  27 N :    0.190431
  28 C :   -0.059096
  29 C :   -0.063647
  30 S :    0.182001
  31 C :   -0.016193
  32 C :   -0.103473
  33 C :    0.062432
  34 C :    0.064233
  35 C :   -0.121202
  36 S :    0.143355
  37 C :   -0.114176
  38 C :    0.052031
  39 C :   -0.004995
  40 C :   -0.067067
  41 S :    0.135385
  42 C :    0.102618
  43 C :   -0.015198
  44 C :    0.034778
  45 C :   -0.065408
  46 C :   -0.052331
  47 C :    0.016108
  48 C :   -0.114000
  49 S :    0.181842
  50 C :   -0.087999
  51 C :   -0.021934
  52 C :    0.315374
  53 C :   -0.300949
  54 C :   -0.192934
  55 N :    0.185076
  56 C :   -0.173398
  57 N :    0.148603
  58 C :   -0.028983
  59 C :   -0.110976
  60 S :    0.176123
  61 C :    0.021376
  62 C :   -0.043713
  63 C :    0.155196
  64 C :    0.035775
  65 C :    0.094018
  66 C :   -0.284266
  67 C :   -0.175752
  68 N :    0.147989
  69 C :   -0.207799
  70 N :    0.160396
  71 S :    0.109041
  72 C :   -0.022013
  73 C :    0.029105
  74 C :    0.053103
  75 C :   -0.062054
  76 H :   -0.014779
  77 H :    0.000320
  78 H :    0.001272
  79 H :    0.007732
  80 H :   -0.011074
  81 H :    0.028703
  82 H :    0.019797
  83 H :   -0.000038
  84 H :    0.042340
  85 H :   -0.015158
  86 H :    0.027006
  87 H :   -0.038678
  88 H :   -0.047689
  89 H :    0.000619
  90 H :    0.027390
  91 H :   -0.016882
  92 H :    0.005952
  93 H :   -0.001180
  94 H :   -0.002632
  95 H :   -0.018672
Sum of atomic charges:   -0.0000000

LOEWDIN ATOMIC CHARGES
----------------------
   0 C :   -0.063871
   1 C :   -0.163882
   2 C :   -0.041410
   3 N :   -0.033143
   4 C :   -0.022314
   5 N :   -0.052168
   6 C :   -0.050639
   7 C :   -0.015576
   8 C :   -0.012976
   9 C :    0.004294
  10 C :   -0.013021
  11 C :    0.011109
  12 C :   -0.146697
  13 S :    0.442360
  14 C :   -0.054080
  15 C :   -0.169004
  16 C :   -0.030089
  17 C :   -0.066411
  18 C :   -0.177381
  19 S :    0.485695
  20 C :   -0.178732
  21 C :   -0.064211
  22 C :    0.078755
  23 C :   -0.095004
  24 C :   -0.015123
  25 N :   -0.030530
  26 C :   -0.021896
  27 N :   -0.016103
  28 C :   -0.038229
  29 C :   -0.178361
  30 S :    0.489353
  31 C :   -0.177696
  32 C :   -0.033203
  33 C :   -0.011741
  34 C :   -0.049727
  35 C :   -0.136320
  36 S :    0.468169
  37 C :   -0.200133
  38 C :   -0.037057
  39 C :   -0.066564
  40 C :   -0.163892
  41 S :    0.429708
  42 C :   -0.052966
  43 C :    0.001322
  44 C :   -0.069466
  45 C :   -0.145372
  46 C :   -0.041510
  47 C :   -0.055987
  48 C :   -0.206101
  49 S :    0.466013
  50 C :   -0.163629
  51 C :   -0.079015
  52 C :    0.083627
  53 C :   -0.103455
  54 C :   -0.022809
  55 N :   -0.020624
  56 C :   -0.009134
  57 N :   -0.048278
  58 C :   -0.026676
  59 C :   -0.177720
  60 S :    0.468390
  61 C :   -0.050803
  62 C :   -0.154065
  63 C :   -0.014090
  64 C :   -0.051926
  65 C :   -0.064369
  66 C :   -0.167339
  67 C :   -0.022362
  68 N :   -0.055314
  69 C :   -0.041045
  70 N :   -0.036750
  71 S :    0.441639
  72 C :    0.010997
  73 C :   -0.015688
  74 C :    0.002672
  75 C :   -0.016163
  76 H :    0.031056
  77 H :    0.036032
  78 H :    0.036490
  79 H :    0.041830
  80 H :    0.035814
  81 H :    0.029357
  82 H :    0.035755
  83 H :    0.026408
  84 H :    0.039199
  85 H :    0.027991
  86 H :    0.024488
  87 H :    0.027922
  88 H :    0.024177
  89 H :    0.034730
  90 H :    0.028778
  91 H :    0.034285
  92 H :    0.041500
  93 H :    0.035608
  94 H :    0.034783
  95 H :    0.029529

  Mayer bond orders larger than 0.100000
B(  0-C ,  1-C ) :   1.6322 B(  0-C ,  6-C ) :   1.0790 B(  0-C , 13-S ) :   1.0993
B(  1-C ,  2-C ) :   1.1296 B(  1-C ,  4-C ) :   1.1695 B(  2-C ,  3-N ) :   3.0358
B(  4-C ,  5-N ) :   2.9691 B(  6-C ,  7-C ) :   1.3208 B(  6-C , 11-C ) :   1.3448
B(  7-C ,  8-C ) :   1.3478 B(  7-C , 12-C ) :   1.0633 B(  8-C ,  9-C ) :   1.4164
B(  8-C , 76-H ) :   0.9896 B(  9-C , 10-C ) :   1.3440 B(  9-C , 77-H ) :   0.9868
B( 10-C , 11-C ) :   1.4142 B( 10-C , 78-H ) :   0.9881 B( 11-C , 79-H ) :   0.9799
B( 12-C , 13-S ) :   0.9981 B( 12-C , 14-C ) :   1.7069 B( 14-C , 15-C ) :   1.1463
B( 14-C , 80-H ) :   0.9396 B( 15-C , 16-C ) :   1.4323 B( 15-C , 19-S ) :   1.0986
B( 16-C , 17-C ) :   1.3322 B( 16-C , 81-H ) :   0.9719 B( 17-C , 18-C ) :   1.4244
B( 17-C , 22-C ) :   0.9991 B( 18-C , 19-S ) :   1.1342 B( 18-C , 20-C ) :   1.1936
B( 20-C , 21-C ) :   1.4389 B( 20-C , 30-S ) :   1.1271 B( 21-C , 22-C ) :   0.9945
B( 21-C , 28-C ) :   1.3061 B( 22-C , 23-C ) :   1.7158 B( 23-C , 24-C ) :   1.1333
B( 23-C , 26-C ) :   1.1310 B( 24-C , 25-N ) :   2.9882 B( 26-C , 27-N ) :   2.9877
B( 28-C , 29-C ) :   1.4500 B( 28-C , 82-H ) :   0.9815 B( 29-C , 30-S ) :   1.1057
B( 29-C , 31-C ) :   1.1675 B( 31-C , 32-C ) :   1.5169 B( 31-C , 36-S ) :   1.0627
B( 32-C , 33-C ) :   1.2607 B( 32-C , 83-H ) :   0.9589 B( 33-C , 34-C ) :   1.0543
B( 33-C , 42-C ) :   1.3577 B( 34-C , 35-C ) :   1.6063 B( 34-C , 37-C ) :   1.1739
B( 35-C , 36-S ) :   1.1403 B( 35-C , 84-H ) :   0.9403 B( 37-C , 38-C ) :   1.4524
B( 37-C , 41-S ) :   1.0810 B( 38-C , 39-C ) :   1.2154 B( 38-C , 42-C ) :   1.0682
B( 39-C , 40-C ) :   1.5847 B( 39-C , 85-H ) :   1.0009 B( 40-C , 41-S ) :   1.1605
B( 40-C , 86-H ) :   0.9649 B( 42-C , 43-C ) :   1.2046 B( 43-C , 44-C ) :   1.6096
B( 43-C , 87-H ) :   0.9528 B( 44-C , 45-C ) :   1.1391 B( 44-C , 88-H ) :   0.9684
B( 45-C , 46-C ) :   1.4246 B( 45-C , 49-S ) :   1.1159 B( 46-C , 47-C ) :   1.3188
B( 46-C , 89-H ) :   0.9844 B( 47-C , 48-C ) :   1.4253 B( 47-C , 52-C ) :   0.9939
B( 48-C , 49-S ) :   1.0942 B( 48-C , 50-C ) :   1.2153 B( 50-C , 51-C ) :   1.4121
B( 50-C , 60-S ) :   1.1375 B( 51-C , 52-C ) :   1.0079 B( 51-C , 58-C ) :   1.3269
B( 52-C , 53-C ) :   1.7024 B( 53-C , 54-C ) :   1.1304 B( 53-C , 56-C ) :   1.1403
B( 54-C , 55-N ) :   2.9894 B( 56-C , 57-N ) :   2.9717 B( 58-C , 59-C ) :   1.4369
B( 58-C , 90-H ) :   0.9717 B( 59-C , 60-S ) :   1.0802 B( 59-C , 61-C ) :   1.1563
B( 61-C , 62-C ) :   1.6992 B( 61-C , 91-H ) :   0.9385 B( 62-C , 63-C ) :   1.0682
B( 62-C , 71-S ) :   0.9956 B( 63-C , 64-C ) :   1.3219 B( 63-C , 75-C ) :   1.3418
B( 64-C , 65-C ) :   1.0817 B( 64-C , 72-C ) :   1.3389 B( 65-C , 66-C ) :   1.6251
B( 65-C , 71-S ) :   1.1027 B( 66-C , 67-C ) :   1.1668 B( 66-C , 69-C ) :   1.1310
B( 67-C , 68-N ) :   2.9675 B( 69-C , 70-N ) :   3.0337 B( 72-C , 73-C ) :   1.4163
B( 72-C , 92-H ) :   0.9819 B( 73-C , 74-C ) :   1.3429 B( 73-C , 93-H ) :   0.9878
B( 74-C , 75-C ) :   1.4181 B( 74-C , 94-H ) :   0.9857 B( 75-C , 95-H ) :   0.9907

-----------------------------------------------------------------------------
         ABSORPTION SPECTRUM VIA TRANSITION ELECTRIC DIPOLE MOMENTS
-----------------------------------------------------------------------------
State   Energy  Wavelength   fosc         T2         TX        TY        TZ
        (cm-1)    (nm)                  (au**2)     (au)      (au)      (au)
-----------------------------------------------------------------------------
   0    8799.9   1136.4   0.245580709   9.18743  -0.85571  -2.20166  -1.89944
   1   10497.3    952.6   0.186636552   5.85319   0.72023  -1.04597   2.05922
   2   15746.3    635.1   0.186599735   3.90128   0.52930   1.60822   1.01723
   3   16474.9    607.0   0.749436406  14.97572  -1.32282  -1.87479  -3.11625
   4   18001.6    555.5   0.342064374   6.25566   0.67774   1.83005   1.56436
   5   19771.4    505.8   1.410054157  23.47864   0.60131  -4.21967   2.30466
   6   20833.6    480.0   0.242717388   3.83541   0.39148  -1.01710   1.62716
   7   22360.1    447.2   0.001261423   0.01857   0.06077   0.08053   0.09163
   8   22899.1    436.7   0.141126869   2.02893   0.02254   1.40886  -0.20863
   9   23560.4    424.4   0.064765603   0.90498   0.22423   0.92392  -0.03274
  10   24353.8    410.6   0.372894973   5.04075  -0.41195   1.62659  -1.49173
  11   25525.5    391.8   0.140007912   1.80574  -0.39849  -0.68688  -1.08404
  12   25733.6    388.6   0.157843875   2.01931   0.23213   1.26443   0.60551
  13   26452.6    378.0   0.035327452   0.43966   0.10598  -0.59693   0.26853
  14   26847.9    372.5   0.100154020   1.22810   0.11445   1.04388   0.35400
  15   28024.2    356.8   0.018237992   0.21425   0.11995  -0.05863   0.44320
  16   28538.8    350.4   0.067120649   0.77428  -0.33033  -0.07531  -0.81209
  17   28815.7    347.0   0.297284092   3.39639  -0.05979  -1.83917   0.10128
  18   29600.8    337.8   0.029794573   0.33137  -0.07177   0.44644  -0.35624
  19   30417.8    328.8   0.206425368   2.23414   0.11135  -1.33899   0.65487
  20   30702.4    325.7   0.122779600   1.31653  -0.50913   0.48313  -0.90769
  21   31378.0    318.7   0.373941571   3.92333   0.88765   0.14056   1.76512
  22   31516.1    317.3   0.222164201   2.32069   0.57659  -0.21637   1.39335
  23   31630.0    316.2   0.419282259   4.36398  -0.79177  -1.50434  -1.21410
  24   31784.6    314.6   0.234598830   2.42988  -0.02483  -1.55502   0.10575
  25   32151.0    311.0   0.025242533   0.25847  -0.04042   0.48143  -0.15833
  26   32634.8    306.4   0.111179550   1.12155   0.26630   0.79380   0.64848
  27   33076.3    302.3   0.288594280   2.87241  -0.54979   0.68063  -1.45151
  28   33235.7    300.9   0.115339556   1.14248  -0.31962  -0.90351  -0.47328
  29   33520.4    298.3   0.069963768   0.68713   0.13250   0.75987   0.30361
  30   33681.1    296.9   0.075601331   0.73896   0.32897  -0.15716   0.77848
  31   33989.8    294.2   0.091440502   0.88566   0.30485  -0.42294   0.78348
  32   34051.1    293.7   0.112954171   1.09206   0.39118   0.07614   0.96604
  33   34261.4    291.9   0.054985065   0.52834   0.24027  -0.46384   0.50544
  34   34460.8    290.2   0.134302575   1.28302  -0.47587  -0.05427  -1.02646
  35   35081.7    285.0   0.103215655   0.96859   0.37176  -0.07275   0.90835
  36   35260.2    283.6   0.360586687   3.36667  -0.14789  -1.82589  -0.10461
  37   35625.3    280.7   0.029516734   0.27276   0.17306  -0.03545   0.49148
  38   35882.8    278.7   0.049322448   0.45252   0.13861  -0.56211   0.34253
  39   36061.5    277.3   0.274190637   2.50314   0.62357  -0.05014   1.45320
  40   36267.4    275.7   0.193350556   1.75511   0.44206   1.05978   0.66073
  41   36565.8    273.5   0.240184417   2.16244   0.50776  -0.51856   1.27895
  42   36611.3    273.1   0.053908402   0.48475   0.29038   0.10885   0.62336
  43   37208.6    268.8   0.095754379   0.84721   0.37448   0.39462   0.74246
  44   37550.9    266.3   0.034558379   0.30298  -0.13995  -0.47270  -0.24484
  45   37773.3    264.7   0.097672162   0.85126   0.29704   0.66039   0.57177
  46   37916.2    263.7   0.038592874   0.33509  -0.20630   0.14665  -0.52060
  47   38079.1    262.6   0.021760012   0.18813  -0.16933  -0.24367  -0.31635
  48   38311.4    261.0   0.022085064   0.18978  -0.13152   0.03735  -0.41362
  49   38383.6    260.5   0.056005938   0.48036  -0.00014   0.68723  -0.08985
  50   38473.0    259.9   0.044413793   0.38005  -0.13923  -0.51879  -0.30253
  51   38638.7    258.8   0.000043862   0.00037  -0.00739  -0.01076   0.01426
  52   38735.6    258.2   0.020897517   0.17761   0.08759  -0.30216   0.28042
  53   38882.7    257.2   0.031531608   0.26697   0.05180   0.50947   0.06878
  54   39387.7    253.9   0.197728290   1.65266  -0.44020   0.48131  -1.10780
  55   39689.9    252.0   0.024625451   0.20426   0.14345  -0.23527   0.35823
  56   39838.2    251.0   0.014863798   0.12283  -0.07367   0.26869  -0.21263
  57   40179.9    248.9   0.001098948   0.00900   0.04717   0.03668   0.07371
  58   40226.2    248.6   0.008000431   0.06548   0.09040   0.10965   0.21279

FINAL SINGLE POINT ENERGY     -5917.269492237857

DIPOLE MOMENT
-------------
                                X             Y             Z
Electronic contribution:     -8.15292     -19.92068     -14.80349
Nuclear contribution   :     10.95484      18.33617      21.49440
                        -----------------------------------------
Total Dipole Moment    :      2.80192      -1.58450       6.69091
                        -----------------------------------------
Magnitude (a.u.)       :      7.42494
Magnitude (Debye)      :     18.87269

Rotational constants in cm-1:     0.000616     0.000299     0.000202
Rotational constants in MHz :    18.475784     8.959772     6.041036

                             ****ORCA TERMINATED NORMALLY****
TOTAL RUN TIME: 0 days 0 hours 11 minutes 3 seconds 789 msec
