                         Program Version 4.2.0 -  RELEASE  -
|  1> # ORCA input file
|  2> # SCF done       -199.052426055728          0.000927218267
|  3> ! CAM-B3LYP def2-SVP def2/J RIJCOSX Grid4 TightSCF
|  4> %maxcore 5000
|  5> %tddft
|  6>     Mode sTDDFT
|  7>     Ethresh 5.0
|  8>     maxcore 5000
|  9> end
| 10>
| 11> %pal
| 12>   nprocs 6
| 13>   end
| 14> * xyz 0 1
| 15>    C       12.71166        -2.79280       -12.49923
| 16>    C       13.00569        -2.41601       -13.77872
| 17>    F       13.92304        -3.11139       -14.48022
| 18>    C       12.37719        -1.33607       -14.41019
| 19>    C       11.41946        -0.63872       -13.72809
| 20>    C       11.06364        -0.99212       -12.41055
| 21>    C       11.73031        -2.08376       -11.78089
| 22>    C       11.39553        -2.45269       -10.45759
| 23>    C       10.41873        -1.76010        -9.79570
| 24>    C        9.75039        -0.67237       -10.43010
| 25>    C       10.06040        -0.29083       -11.70407
| 26>    C        8.76511        -0.09103        -9.49683
| 27>    O        7.96736         0.79335        -9.70554
| 28>    C        9.01141        -0.78430        -8.20024
| 29>    C        9.85468        -1.93171        -8.46233
| 30>    C        9.89049        -3.08590        -7.72387
| 31>    C        9.10398        -3.28186        -6.56984
| 32>    N        8.44455        -3.48055        -5.65129
| 33>    C       10.64751        -4.22019        -8.07625
| 34>    N       11.26163        -5.16132        -8.31055
| 35>    C        8.57544        -0.23125        -7.03564
| 36>    C        9.09846        -0.42364        -5.73377
| 37>    C        8.50192        -0.07394        -4.53526
| 38>    C        9.33241        -0.31311        -3.44334
| 39>    C       10.59037        -0.81582        -3.80450
| 40>    S       10.74007        -1.01744        -5.50141
| 41>    C       11.42009        -1.01461        -2.70483
| 42>    C       10.81053        -0.66900        -1.49351
| 43>    S        9.17956        -0.09599        -1.71821
| 44>    C       11.64098        -0.84464        -0.38241
| 45>    C       12.88439        -1.32499        -0.73745
| 46>    S       13.02858        -1.57204        -2.47510
| 47>    C       14.02122        -1.60620         0.07671
| 48>    C       15.18023        -2.09122        -0.47435
| 49>    C       16.35989        -2.34488         0.21543
| 50>    C       16.47214        -2.08637         1.65329
| 51>    C       15.44828        -1.63113         2.40885
| 52>    S       13.88059        -1.27172         1.79748
| 53>    C       17.82188        -2.40112         1.97487
| 54>    C       18.50705        -2.81364         0.82608
| 55>    C       19.85084        -3.14526         1.10666
| 56>    C       20.14576        -2.97515         2.42219
| 57>    S       18.81631        -2.41159         3.37561
| 58>    C       17.59674        -2.79043        -0.28773
| 59>    C       17.79270        -3.11645        -1.64902
| 60>    C       18.95176        -3.30047        -2.33100
| 61>    C       18.94567        -3.55447        -3.73020
| 62>    C       17.87570        -3.94029        -4.51727
| 63>    C       18.20253        -3.98134        -5.86811
| 64>    C       19.53141        -3.62909        -6.14591
| 65>    S       20.39227        -3.28021        -4.68960
| 66>    C       19.79399        -3.60888        -7.51646
| 67>    C       18.65905        -3.95149        -8.27445
| 68>    S       17.27120        -4.32789        -7.29534
| 69>    C       18.84742        -3.85820        -9.64386
| 70>    C       20.13010        -3.44555        -9.96945
| 71>    S       21.12342        -3.21836        -8.53325
| 72>    C       20.69467        -3.23699       -11.24342
| 73>    C       20.05172        -3.03931       -12.43181
| 74>    C       20.78393        -3.29515       -13.70245
| 75>    O       21.97732        -3.44922       -13.83118
| 76>    C       19.73968        -3.37430       -14.74247
| 77>    C       19.85700        -3.71488       -16.05885
| 78>    C       18.69557        -3.76874       -16.86290
| 79>    C       17.42842        -3.47470       -16.28062
| 80>    C       16.27186        -3.54866       -17.08037
| 81>    C       16.39073        -3.89076       -18.39841
| 82>    C       17.62718        -4.17733       -18.99250
| 83>    C       18.75908        -4.11646       -18.22767
| 84>    F       15.28782        -3.95844       -19.16827
| 85>    C       17.33806        -3.10992       -14.91705
| 86>    C       18.47800        -3.05390       -14.16350
| 87>    C       18.68940        -2.69195       -12.76460
| 88>    C       17.82770        -1.92860       -12.01673
| 89>    C       18.15759        -1.37035       -10.76578
| 90>    N       18.38543        -0.85805        -9.76389
| 91>    C       16.54403        -1.52996       -12.43751
| 92>    N       15.48292        -1.17470       -12.69811
| 93>    H       13.22075        -3.62652       -12.04177
| 94>    H       12.66032        -1.07658       -15.41797
| 95>    H       10.91869         0.19639       -14.19437
| 96>    H       11.92771        -3.26816        -9.99339
| 97>    H        9.54490         0.53571       -12.16994
| 98>    H        7.80585         0.52829        -7.13034
| 99>    H        7.50060         0.31017        -4.47052
|100>    H       11.35690        -0.63123         0.63165
|101>    H       15.16484        -2.26610        -1.54159
|102>    H       15.54014        -1.44938         3.46799
|103>    H       20.56569        -3.49753         0.38619
|104>    H       21.08406        -3.14937         2.91164
|105>    H       16.87972        -3.17326        -2.22530
|106>    H       19.91083        -3.17952        -1.85143
|107>    H       16.90425        -4.19155        -4.13593
|108>    H       18.10005        -4.11194       -10.37318
|109>    H       21.77591        -3.30480       -11.31023
|110>    H       20.82313        -3.94475       -16.48254
|111>    H       15.30570        -3.34017       -16.64979
|112>    H       17.65913        -4.44205       -20.03755
|113>    H       19.72242        -4.33670       -18.66262
|114>    H       16.36620        -2.90139       -14.50123
|115> *
|116>
|117>                          ****END OF INPUT****

CARTESIAN COORDINATES (ANGSTROEM)
---------------------------------
  C     12.711660   -2.792800  -12.499230
  C     13.005690   -2.416010  -13.778720
  F     13.923040   -3.111390  -14.480220
  C     12.377190   -1.336070  -14.410190
  C     11.419460   -0.638720  -13.728090
  C     11.063640   -0.992120  -12.410550
  C     11.730310   -2.083760  -11.780890
  C     11.395530   -2.452690  -10.457590
  C     10.418730   -1.760100   -9.795700
  C      9.750390   -0.672370  -10.430100
  C     10.060400   -0.290830  -11.704070
  C      8.765110   -0.091030   -9.496830
  O      7.967360    0.793350   -9.705540
  C      9.011410   -0.784300   -8.200240
  C      9.854680   -1.931710   -8.462330
  C      9.890490   -3.085900   -7.723870
  C      9.103980   -3.281860   -6.569840
  N      8.444550   -3.480550   -5.651290
  C     10.647510   -4.220190   -8.076250
  N     11.261630   -5.161320   -8.310550
  C      8.575440   -0.231250   -7.035640
  C      9.098460   -0.423640   -5.733770
  C      8.501920   -0.073940   -4.535260
  C      9.332410   -0.313110   -3.443340
  C     10.590370   -0.815820   -3.804500
  S     10.740070   -1.017440   -5.501410
  C     11.420090   -1.014610   -2.704830
  C     10.810530   -0.669000   -1.493510
  S      9.179560   -0.095990   -1.718210
  C     11.640980   -0.844640   -0.382410
  C     12.884390   -1.324990   -0.737450
  S     13.028580   -1.572040   -2.475100
  C     14.021220   -1.606200    0.076710
  C     15.180230   -2.091220   -0.474350
  C     16.359890   -2.344880    0.215430
  C     16.472140   -2.086370    1.653290
  C     15.448280   -1.631130    2.408850
  S     13.880590   -1.271720    1.797480
  C     17.821880   -2.401120    1.974870
  C     18.507050   -2.813640    0.826080
  C     19.850840   -3.145260    1.106660
  C     20.145760   -2.975150    2.422190
  S     18.816310   -2.411590    3.375610
  C     17.596740   -2.790430   -0.287730
  C     17.792700   -3.116450   -1.649020
  C     18.951760   -3.300470   -2.331000
  C     18.945670   -3.554470   -3.730200
  C     17.875700   -3.940290   -4.517270
  C     18.202530   -3.981340   -5.868110
  C     19.531410   -3.629090   -6.145910
  S     20.392270   -3.280210   -4.689600
  C     19.793990   -3.608880   -7.516460
  C     18.659050   -3.951490   -8.274450
  S     17.271200   -4.327890   -7.295340
  C     18.847420   -3.858200   -9.643860
  C     20.130100   -3.445550   -9.969450
  S     21.123420   -3.218360   -8.533250
  C     20.694670   -3.236990  -11.243420
  C     20.051720   -3.039310  -12.431810
  C     20.783930   -3.295150  -13.702450
  O     21.977320   -3.449220  -13.831180
  C     19.739680   -3.374300  -14.742470
  C     19.857000   -3.714880  -16.058850
  C     18.695570   -3.768740  -16.862900
  C     17.428420   -3.474700  -16.280620
  C     16.271860   -3.548660  -17.080370
  C     16.390730   -3.890760  -18.398410
  C     17.627180   -4.177330  -18.992500
  C     18.759080   -4.116460  -18.227670
  F     15.287820   -3.958440  -19.168270
  C     17.338060   -3.109920  -14.917050
  C     18.478000   -3.053900  -14.163500
  C     18.689400   -2.691950  -12.764600
  C     17.827700   -1.928600  -12.016730
  C     18.157590   -1.370350  -10.765780
  N     18.385430   -0.858050   -9.763890
  C     16.544030   -1.529960  -12.437510
  N     15.482920   -1.174700  -12.698110
  H     13.220750   -3.626520  -12.041770
  H     12.660320   -1.076580  -15.417970
  H     10.918690    0.196390  -14.194370
  H     11.927710   -3.268160   -9.993390
  H      9.544900    0.535710  -12.169940
  H      7.805850    0.528290   -7.130340
  H      7.500600    0.310170   -4.470520
  H     11.356900   -0.631230    0.631650
  H     15.164840   -2.266100   -1.541590
  H     15.540140   -1.449380    3.467990
  H     20.565690   -3.497530    0.386190
  H     21.084060   -3.149370    2.911640
  H     16.879720   -3.173260   -2.225300
  H     19.910830   -3.179520   -1.851430
  H     16.904250   -4.191550   -4.135930
  H     18.100050   -4.111940  -10.373180
  H     21.775910   -3.304800  -11.310230
  H     20.823130   -3.944750  -16.482540
  H     15.305700   -3.340170  -16.649790
  H     17.659130   -4.442050  -20.037550
  H     19.722420   -4.336700  -18.662620
  H     16.366200   -2.901390  -14.501230

 Total Charge           Charge          ....    0
 Multiplicity           Mult            ....    1
 Number of Electrons    NEL             ....  584
 Basis Dimension        Dim             .... 1234

ORBITAL ENERGIES
----------------

  NO   OCC          E(Eh)            E(eV)
   0   2.0000     -88.982922     -2421.3484
   1   2.0000     -88.975085     -2421.1351
   2   2.0000     -88.971851     -2421.0472
   3   2.0000     -88.970508     -2421.0106
   4   2.0000     -88.967779     -2420.9363
   5   2.0000     -88.963692     -2420.8251
   6   2.0000     -88.961303     -2420.7601
   7   2.0000     -88.960801     -2420.7465
   8   2.0000     -24.789847      -674.5660
   9   2.0000     -24.780959      -674.3242
  10   2.0000     -19.208092      -522.6787
  11   2.0000     -19.206081      -522.6240
  12   2.0000     -14.412830      -392.1930
  13   2.0000     -14.411671      -392.1615
  14   2.0000     -14.408667      -392.0798
  15   2.0000     -14.408278      -392.0692
  16   2.0000     -10.363919      -282.0166
  17   2.0000     -10.362243      -281.9710
  18   2.0000     -10.360838      -281.9327
  19   2.0000     -10.358219      -281.8615
  20   2.0000     -10.338086      -281.3136
  21   2.0000     -10.336651      -281.2746
  22   2.0000     -10.336157      -281.2611
  23   2.0000     -10.335673      -281.2479
  24   2.0000     -10.335016      -281.2301
  25   2.0000     -10.333636      -281.1925
  26   2.0000     -10.329927      -281.0916
  27   2.0000     -10.322672      -280.8942
  28   2.0000     -10.319887      -280.8184
  29   2.0000     -10.319726      -280.8140
  30   2.0000     -10.319614      -280.8110
  31   2.0000     -10.318742      -280.7872
  32   2.0000     -10.318060      -280.7687
  33   2.0000     -10.316839      -280.7355
  34   2.0000     -10.316608      -280.7292
  35   2.0000     -10.315223      -280.6915
  36   2.0000     -10.314333      -280.6673
  37   2.0000     -10.313823      -280.6534
  38   2.0000     -10.312840      -280.6267
  39   2.0000     -10.310378      -280.5596
  40   2.0000     -10.310218      -280.5553
  41   2.0000     -10.309868      -280.5458
  42   2.0000     -10.308460      -280.5075
  43   2.0000     -10.307192      -280.4730
  44   2.0000     -10.306211      -280.4463
  45   2.0000     -10.304130      -280.3896
  46   2.0000     -10.302676      -280.3501
  47   2.0000     -10.300722      -280.2969
  48   2.0000     -10.300629      -280.2944
  49   2.0000     -10.299901      -280.2746
  50   2.0000     -10.299714      -280.2695
  51   2.0000     -10.299482      -280.2632
  52   2.0000     -10.299300      -280.2582
  53   2.0000     -10.298154      -280.2270
  54   2.0000     -10.295559      -280.1564
  55   2.0000     -10.294031      -280.1148
  56   2.0000     -10.293475      -280.0997
  57   2.0000     -10.293161      -280.0912
  58   2.0000     -10.293112      -280.0898
  59   2.0000     -10.292896      -280.0839
  60   2.0000     -10.292627      -280.0766
  61   2.0000     -10.291688      -280.0511
  62   2.0000     -10.291198      -280.0377
  63   2.0000     -10.290768      -280.0260
  64   2.0000     -10.289590      -279.9940
  65   2.0000     -10.289356      -279.9876
  66   2.0000     -10.289020      -279.9785
  67   2.0000     -10.286215      -279.9021
  68   2.0000     -10.285190      -279.8743
  69   2.0000     -10.283870      -279.8383
  70   2.0000     -10.283666      -279.8328
  71   2.0000     -10.283398      -279.8255
  72   2.0000     -10.282575      -279.8031
  73   2.0000     -10.282109      -279.7904
  74   2.0000     -10.280819      -279.7553
  75   2.0000     -10.280747      -279.7533
  76   2.0000     -10.280102      -279.7358
  77   2.0000     -10.279120      -279.7091
  78   2.0000      -8.078045      -219.8148
  79   2.0000      -8.070028      -219.5966
  80   2.0000      -8.066669      -219.5052
  81   2.0000      -8.065475      -219.4727
  82   2.0000      -8.063045      -219.4066
  83   2.0000      -8.058907      -219.2940
  84   2.0000      -8.056720      -219.2345
  85   2.0000      -8.056275      -219.2224
  86   2.0000      -6.047686      -164.5659
  87   2.0000      -6.043134      -164.4420
  88   2.0000      -6.039835      -164.3523
  89   2.0000      -6.039672      -164.3478
  90   2.0000      -6.036270      -164.2553
  91   2.0000      -6.035586      -164.2366
  92   2.0000      -6.035278      -164.2283
  93   2.0000      -6.032568      -164.1545
  94   2.0000      -6.032125      -164.1425
  95   2.0000      -6.031422      -164.1233
  96   2.0000      -6.031351      -164.1214
  97   2.0000      -6.028517      -164.0443
  98   2.0000      -6.028477      -164.0432
  99   2.0000      -6.028179      -164.0351
 100   2.0000      -6.026404      -163.9868
 101   2.0000      -6.026167      -163.9804
 102   2.0000      -6.025995      -163.9757
 103   2.0000      -6.024598      -163.9377
 104   2.0000      -6.024415      -163.9327
 105   2.0000      -6.022183      -163.8719
 106   2.0000      -6.021873      -163.8635
 107   2.0000      -6.020433      -163.8243
 108   2.0000      -6.018780      -163.7793
 109   2.0000      -6.017147      -163.7349
 110   2.0000      -1.301852       -35.4252
 111   2.0000      -1.295451       -35.2510
 112   2.0000      -1.123630       -30.5755
 113   2.0000      -1.121502       -30.5176
 114   2.0000      -1.033375       -28.1196
 115   2.0000      -1.024075       -27.8665
 116   2.0000      -1.014555       -27.6075
 117   2.0000      -1.013489       -27.5784
 118   2.0000      -1.011819       -27.5330
 119   2.0000      -0.996869       -27.1262
 120   2.0000      -0.995356       -27.0850
 121   2.0000      -0.993953       -27.0468
 122   2.0000      -0.990142       -26.9431
 123   2.0000      -0.987994       -26.8847
 124   2.0000      -0.983201       -26.7543
 125   2.0000      -0.974950       -26.5297
 126   2.0000      -0.970186       -26.4001
 127   2.0000      -0.968871       -26.3643
 128   2.0000      -0.943299       -25.6685
 129   2.0000      -0.937756       -25.5176
 130   2.0000      -0.929049       -25.2807
 131   2.0000      -0.920196       -25.0398
 132   2.0000      -0.919875       -25.0311
 133   2.0000      -0.900620       -24.5071
 134   2.0000      -0.898292       -24.4438
 135   2.0000      -0.896233       -24.3877
 136   2.0000      -0.886789       -24.1308
 137   2.0000      -0.881785       -23.9946
 138   2.0000      -0.881584       -23.9891
 139   2.0000      -0.876664       -23.8552
 140   2.0000      -0.873733       -23.7755
 141   2.0000      -0.860425       -23.4133
 142   2.0000      -0.855874       -23.2895
 143   2.0000      -0.847528       -23.0624
 144   2.0000      -0.841014       -22.8852
 145   2.0000      -0.839243       -22.8370
 146   2.0000      -0.828819       -22.5533
 147   2.0000      -0.828367       -22.5410
 148   2.0000      -0.823567       -22.4104
 149   2.0000      -0.810575       -22.0569
 150   2.0000      -0.806300       -21.9405
 151   2.0000      -0.803884       -21.8748
 152   2.0000      -0.796427       -21.6719
 153   2.0000      -0.786034       -21.3891
 154   2.0000      -0.774541       -21.0763
 155   2.0000      -0.762869       -20.7587
 156   2.0000      -0.755878       -20.5685
 157   2.0000      -0.752657       -20.4808
 158   2.0000      -0.736548       -20.0425
 159   2.0000      -0.734405       -19.9842
 160   2.0000      -0.720220       -19.5982
 161   2.0000      -0.715713       -19.4756
 162   2.0000      -0.704576       -19.1725
 163   2.0000      -0.702314       -19.1109
 164   2.0000      -0.701332       -19.0842
 165   2.0000      -0.694291       -18.8926
 166   2.0000      -0.683191       -18.5906
 167   2.0000      -0.676355       -18.4046
 168   2.0000      -0.674835       -18.3632
 169   2.0000      -0.668816       -18.1994
 170   2.0000      -0.663096       -18.0438
 171   2.0000      -0.661175       -17.9915
 172   2.0000      -0.657376       -17.8881
 173   2.0000      -0.654147       -17.8002
 174   2.0000      -0.646029       -17.5793
 175   2.0000      -0.637002       -17.3337
 176   2.0000      -0.634809       -17.2740
 177   2.0000      -0.631885       -17.1945
 178   2.0000      -0.630202       -17.1487
 179   2.0000      -0.627643       -17.0790
 180   2.0000      -0.624880       -17.0039
 181   2.0000      -0.624074       -16.9819
 182   2.0000      -0.619785       -16.8652
 183   2.0000      -0.613236       -16.6870
 184   2.0000      -0.601650       -16.3717
 185   2.0000      -0.597543       -16.2600
 186   2.0000      -0.594651       -16.1813
 187   2.0000      -0.587800       -15.9949
 188   2.0000      -0.582244       -15.8437
 189   2.0000      -0.577912       -15.7258
 190   2.0000      -0.574345       -15.6287
 191   2.0000      -0.570165       -15.5150
 192   2.0000      -0.566441       -15.4136
 193   2.0000      -0.561914       -15.2905
 194   2.0000      -0.560922       -15.2635
 195   2.0000      -0.559092       -15.2137
 196   2.0000      -0.556207       -15.1352
 197   2.0000      -0.553278       -15.0554
 198   2.0000      -0.549761       -14.9598
 199   2.0000      -0.547818       -14.9069
 200   2.0000      -0.545301       -14.8384
 201   2.0000      -0.543204       -14.7813
 202   2.0000      -0.540164       -14.6986
 203   2.0000      -0.538776       -14.6608
 204   2.0000      -0.532450       -14.4887
 205   2.0000      -0.529315       -14.4034
 206   2.0000      -0.527944       -14.3661
 207   2.0000      -0.526361       -14.3230
 208   2.0000      -0.522901       -14.2289
 209   2.0000      -0.520299       -14.1580
 210   2.0000      -0.519329       -14.1316
 211   2.0000      -0.518993       -14.1225
 212   2.0000      -0.517650       -14.0860
 213   2.0000      -0.516451       -14.0534
 214   2.0000      -0.516147       -14.0451
 215   2.0000      -0.510992       -13.9048
 216   2.0000      -0.510533       -13.8923
 217   2.0000      -0.508650       -13.8411
 218   2.0000      -0.506980       -13.7956
 219   2.0000      -0.498726       -13.5710
 220   2.0000      -0.495033       -13.4705
 221   2.0000      -0.493661       -13.4332
 222   2.0000      -0.491600       -13.3771
 223   2.0000      -0.488976       -13.3057
 224   2.0000      -0.487575       -13.2676
 225   2.0000      -0.486377       -13.2350
 226   2.0000      -0.482882       -13.1399
 227   2.0000      -0.481909       -13.1134
 228   2.0000      -0.480811       -13.0835
 229   2.0000      -0.475962       -12.9516
 230   2.0000      -0.474924       -12.9233
 231   2.0000      -0.471140       -12.8204
 232   2.0000      -0.468567       -12.7503
 233   2.0000      -0.466802       -12.7023
 234   2.0000      -0.463691       -12.6177
 235   2.0000      -0.462589       -12.5877
 236   2.0000      -0.460964       -12.5435
 237   2.0000      -0.456015       -12.4088
 238   2.0000      -0.453903       -12.3513
 239   2.0000      -0.451948       -12.2981
 240   2.0000      -0.451627       -12.2894
 241   2.0000      -0.450094       -12.2477
 242   2.0000      -0.448068       -12.1925
 243   2.0000      -0.445010       -12.1093
 244   2.0000      -0.444318       -12.0905
 245   2.0000      -0.439874       -11.9696
 246   2.0000      -0.438732       -11.9385
 247   2.0000      -0.438095       -11.9212
 248   2.0000      -0.437101       -11.8941
 249   2.0000      -0.434239       -11.8163
 250   2.0000      -0.433933       -11.8079
 251   2.0000      -0.430413       -11.7121
 252   2.0000      -0.429110       -11.6767
 253   2.0000      -0.426158       -11.5963
 254   2.0000      -0.425356       -11.5745
 255   2.0000      -0.423463       -11.5230
 256   2.0000      -0.422864       -11.5067
 257   2.0000      -0.421238       -11.4625
 258   2.0000      -0.420417       -11.4401
 259   2.0000      -0.419554       -11.4167
 260   2.0000      -0.415980       -11.3194
 261   2.0000      -0.415012       -11.2930
 262   2.0000      -0.412937       -11.2366
 263   2.0000      -0.412764       -11.2319
 264   2.0000      -0.412246       -11.2178
 265   2.0000      -0.404355       -11.0030
 266   2.0000      -0.402200       -10.9444
 267   2.0000      -0.394637       -10.7386
 268   2.0000      -0.391230       -10.6459
 269   2.0000      -0.390137       -10.6162
 270   2.0000      -0.378995       -10.3130
 271   2.0000      -0.374510       -10.1909
 272   2.0000      -0.373420       -10.1613
 273   2.0000      -0.364497        -9.9185
 274   2.0000      -0.359579        -9.7846
 275   2.0000      -0.345140        -9.3917
 276   2.0000      -0.340859        -9.2752
 277   2.0000      -0.336699        -9.1620
 278   2.0000      -0.335192        -9.1210
 279   2.0000      -0.329212        -8.9583
 280   2.0000      -0.325728        -8.8635
 281   2.0000      -0.316611        -8.6154
 282   2.0000      -0.308244        -8.3877
 283   2.0000      -0.306351        -8.3362
 284   2.0000      -0.295435        -8.0392
 285   2.0000      -0.293603        -7.9893
 286   2.0000      -0.292381        -7.9561
 287   2.0000      -0.287852        -7.8329
 288   2.0000      -0.286496        -7.7960
 289   2.0000      -0.274538        -7.4706
 290   2.0000      -0.257320        -7.0020
 291   2.0000      -0.223821        -6.0905
 292   0.0000      -0.097967        -2.6658
 293   0.0000      -0.090551        -2.4640
 294   0.0000      -0.067045        -1.8244
 295   0.0000      -0.050305        -1.3689
 296   0.0000      -0.048568        -1.3216

MULLIKEN ATOMIC CHARGES
-----------------------
   0 C :   -0.081954
   1 C :    0.342568
   2 F :   -0.192360
   3 C :   -0.018371
   4 C :   -0.010644
   5 C :    0.102889
   6 C :    0.101901
   7 C :   -0.083866
   8 C :    0.041039
   9 C :    0.009205
  10 C :   -0.079958
  11 C :    0.142864
  12 O :   -0.144605
  13 C :   -0.141770
  14 C :    0.242907
  15 C :   -0.318292
  16 C :   -0.205214
  17 N :    0.168976
  18 C :   -0.175907
  19 N :    0.151039
  20 C :    0.060231
  21 C :   -0.101006
  22 C :    0.017526
  23 C :   -0.021633
  24 C :   -0.057066
  25 S :    0.165709
  26 C :   -0.057090
  27 C :   -0.015709
  28 S :    0.169623
  29 C :   -0.063442
  30 C :   -0.050224
  31 S :    0.123866
  32 C :   -0.013291
  33 C :   -0.099570
  34 C :    0.054291
  35 C :    0.066686
  36 C :   -0.126573
  37 S :    0.133988
  38 C :   -0.114101
  39 C :    0.053731
  40 C :   -0.001439
  41 C :   -0.066051
  42 S :    0.131512
  43 C :    0.105735
  44 C :   -0.030296
  45 C :    0.037395
  46 C :   -0.072990
  47 C :   -0.044034
  48 C :   -0.015878
  49 C :   -0.092339
  50 S :    0.156424
  51 C :   -0.051125
  52 C :   -0.044765
  53 S :    0.168530
  54 C :    0.014000
  55 C :   -0.122890
  56 S :    0.173346
  57 C :    0.091034
  58 C :   -0.146221
  59 C :    0.136516
  60 O :   -0.148651
  61 C :    0.014787
  62 C :   -0.082948
  63 C :    0.096705
  64 C :    0.100513
  65 C :   -0.095903
  66 C :    0.305499
  67 C :   -0.031753
  68 C :   -0.009921
  69 F :   -0.193763
  70 C :   -0.085909
  71 C :    0.039146
  72 C :    0.271358
  73 C :   -0.358576
  74 C :   -0.212757
  75 N :    0.178949
  76 C :   -0.167152
  77 N :    0.148052
  78 H :   -0.013082
  79 H :   -0.002008
  80 H :   -0.011444
  81 H :   -0.006580
  82 H :   -0.012665
  83 H :    0.027408
  84 H :   -0.000355
  85 H :   -0.000308
  86 H :    0.004283
  87 H :    0.038620
  88 H :   -0.015803
  89 H :    0.027249
  90 H :   -0.034600
  91 H :   -0.028065
  92 H :   -0.011118
  93 H :    0.005000
  94 H :    0.022317
  95 H :   -0.013531
  96 H :   -0.015909
  97 H :    0.001859
  98 H :   -0.011248
  99 H :   -0.020549
Sum of atomic charges:   -0.0000000

LOEWDIN ATOMIC CHARGES
----------------------
   0 C :   -0.034594
   1 C :    0.100133
   2 F :   -0.062652
   3 C :   -0.030153
   4 C :    0.005893
   5 C :   -0.015984
   6 C :    0.006328
   7 C :    0.011814
   8 C :   -0.018723
   9 C :   -0.060674
  10 C :    0.035223
  11 C :    0.083306
  12 O :   -0.146451
  13 C :   -0.098325
  14 C :    0.058419
  15 C :   -0.143741
  16 C :   -0.034969
  17 N :   -0.049748
  18 C :   -0.018580
  19 N :   -0.054800
  20 C :    0.050483
  21 C :   -0.171845
  22 C :   -0.015659
  23 C :   -0.193045
  24 C :   -0.194615
  25 S :    0.461853
  26 C :   -0.218693
  27 C :   -0.178368
  28 S :    0.415420
  29 C :   -0.072944
  30 C :   -0.161433
  31 S :    0.437691
  32 C :   -0.183907
  33 C :   -0.028800
  34 C :   -0.016671
  35 C :   -0.048995
  36 C :   -0.136676
  37 S :    0.451914
  38 C :   -0.200919
  39 C :   -0.036685
  40 C :   -0.064067
  41 C :   -0.163562
  42 S :    0.426088
  43 C :   -0.049623
  44 C :   -0.002049
  45 C :   -0.059747
  46 C :   -0.140841
  47 C :   -0.080367
  48 C :   -0.171357
  49 C :   -0.228288
  50 S :    0.426294
  51 C :   -0.188501
  52 C :   -0.192225
  53 S :    0.414263
  54 C :   -0.020403
  55 C :   -0.184043
  56 S :    0.447080
  57 C :    0.052386
  58 C :   -0.103846
  59 C :    0.081194
  60 O :   -0.149927
  61 C :   -0.058605
  62 C :    0.031908
  63 C :   -0.019261
  64 C :    0.003202
  65 C :   -0.041870
  66 C :    0.091368
  67 C :   -0.038480
  68 C :    0.003148
  69 F :   -0.068080
  70 C :    0.009828
  71 C :   -0.018752
  72 C :    0.067226
  73 C :   -0.149936
  74 C :   -0.020536
  75 N :   -0.044282
  76 C :   -0.014442
  77 N :   -0.060006
  78 H :    0.039752
  79 H :    0.040581
  80 H :    0.035040
  81 H :    0.038331
  82 H :    0.039320
  83 H :    0.051797
  84 H :    0.041384
  85 H :    0.032530
  86 H :    0.024401
  87 H :    0.037540
  88 H :    0.029944
  89 H :    0.024226
  90 H :    0.026990
  91 H :    0.025837
  92 H :    0.031633
  93 H :    0.038124
  94 H :    0.046085
  95 H :    0.038881
  96 H :    0.037751
  97 H :    0.041062
  98 H :    0.034931
  99 H :    0.033143

  Mayer bond orders larger than 0.100000
B(  0-C ,  1-C ) :   1.4453 B(  0-C ,  6-C ) :   1.2144 B(  0-C , 78-H ) :   1.0040
B(  1-C ,  2-F ) :   1.0155 B(  1-C ,  3-C ) :   1.2623 B(  3-C ,  4-C ) :   1.4652
B(  3-C , 79-H ) :   0.9911 B(  4-C ,  5-C ) :   1.2338 B(  4-C , 80-H ) :   0.9967
B(  5-C ,  6-C ) :   1.2584 B(  5-C , 10-C ) :   1.1929 B(  6-C ,  7-C ) :   1.2000
B(  7-C ,  8-C ) :   1.4621 B(  7-C , 81-H ) :   0.9957 B(  8-C ,  9-C ) :   1.2166
B(  8-C , 14-C ) :   1.0032 B(  9-C , 10-C ) :   1.4665 B(  9-C , 11-C ) :   0.9220
B( 10-C , 82-H ) :   1.0160 B( 11-C , 12-O ) :   2.2746 B( 11-C , 13-C ) :   0.9365
B( 13-C , 14-C ) :   1.0378 B( 13-C , 20-C ) :   1.6363 B( 14-C , 15-C ) :   1.6533
B( 15-C , 16-C ) :   1.1463 B( 15-C , 18-C ) :   1.1420 B( 16-C , 17-N ) :   3.0270
B( 18-C , 19-N ) :   2.9870 B( 20-C , 21-C ) :   1.1476 B( 20-C , 83-H ) :   0.9517
B( 21-C , 22-C ) :   1.4522 B( 21-C , 25-S ) :   1.0818 B( 22-C , 23-C ) :   1.2955
B( 22-C , 84-H ) :   1.0032 B( 23-C , 24-C ) :   1.4198 B( 23-C , 28-S ) :   1.0424
B( 24-C , 25-S ) :   1.0959 B( 24-C , 26-C ) :   1.3206 B( 26-C , 27-C ) :   1.4500
B( 26-C , 31-S ) :   1.0685 B( 27-C , 28-S ) :   1.0619 B( 27-C , 29-C ) :   1.2696
B( 29-C , 30-C ) :   1.5123 B( 29-C , 85-H ) :   0.9923 B( 30-C , 31-S ) :   1.1032
B( 30-C , 32-C ) :   1.1611 B( 32-C , 33-C ) :   1.5274 B( 32-C , 37-S ) :   1.0518
B( 33-C , 34-C ) :   1.2541 B( 33-C , 86-H ) :   0.9518 B( 34-C , 35-C ) :   1.0510
B( 34-C , 43-C ) :   1.3819 B( 35-C , 36-C ) :   1.6129 B( 35-C , 38-C ) :   1.1728
B( 36-C , 37-S ) :   1.1356 B( 36-C , 87-H ) :   0.9385 B( 38-C , 39-C ) :   1.4455
B( 38-C , 42-S ) :   1.0791 B( 39-C , 40-C ) :   1.2215 B( 39-C , 43-C ) :   1.0750
B( 40-C , 41-C ) :   1.5802 B( 40-C , 88-H ) :   1.0011 B( 41-C , 42-S ) :   1.1578
B( 41-C , 89-H ) :   0.9657 B( 43-C , 44-C ) :   1.1767 B( 44-C , 45-C ) :   1.6443
B( 44-C , 90-H ) :   0.9513 B( 45-C , 46-C ) :   1.1146 B( 45-C , 91-H ) :   0.9734
B( 46-C , 47-C ) :   1.4991 B( 46-C , 50-S ) :   1.0986 B( 47-C , 48-C ) :   1.2807
B( 47-C , 92-H ) :   0.9938 B( 48-C , 49-C ) :   1.4429 B( 48-C , 53-S ) :   1.0589
B( 49-C , 50-S ) :   1.0588 B( 49-C , 51-C ) :   1.3328 B( 51-C , 52-C ) :   1.4135
B( 51-C , 56-S ) :   1.1003 B( 52-C , 53-S ) :   1.0393 B( 52-C , 54-C ) :   1.3597
B( 54-C , 55-C ) :   1.4292 B( 54-C , 93-H ) :   0.9878 B( 55-C , 56-S ) :   1.0672
B( 55-C , 57-C ) :   1.1708 B( 57-C , 58-C ) :   1.6208 B( 57-C , 94-H ) :   0.9327
B( 58-C , 59-C ) :   0.9490 B( 58-C , 72-C ) :   1.0561 B( 59-C , 60-O ) :   2.2666
B( 59-C , 61-C ) :   0.9183 B( 61-C , 62-C ) :   1.4736 B( 61-C , 71-C ) :   1.2174
B( 62-C , 63-C ) :   1.1891 B( 62-C , 95-H ) :   1.0156 B( 63-C , 64-C ) :   1.2533
B( 63-C , 68-C ) :   1.2350 B( 64-C , 65-C ) :   1.2081 B( 64-C , 70-C ) :   1.2065
B( 65-C , 66-C ) :   1.4344 B( 65-C , 96-H ) :   1.0033 B( 66-C , 67-C ) :   1.2552
B( 66-C , 69-F ) :   1.0851 B( 67-C , 68-C ) :   1.4594 B( 67-C , 97-H ) :   0.9925
B( 68-C , 98-H ) :   0.9974 B( 70-C , 71-C ) :   1.4554 B( 70-C , 99-H ) :   0.9911
B( 71-C , 72-C ) :   0.9947 B( 72-C , 73-C ) :   1.6262 B( 73-C , 74-C ) :   1.1691
B( 73-C , 76-C ) :   1.1392 B( 74-C , 75-N ) :   3.0114 B( 76-C , 77-N ) :   2.9746

-----------------------------------------------------------------------------
         ABSORPTION SPECTRUM VIA TRANSITION ELECTRIC DIPOLE MOMENTS
-----------------------------------------------------------------------------
State   Energy  Wavelength   fosc         T2         TX        TY        TZ
        (cm-1)    (nm)                  (au**2)     (au)      (au)      (au)
-----------------------------------------------------------------------------
   0   13882.8    720.3   0.406930983   9.64984  -2.58524   0.27777   1.69977
   1   16642.0    600.9   1.080675335  21.37792   1.06786  -0.21414   4.49352
   2   19996.7    500.1   0.317322558   5.22418  -1.97329   0.73670  -0.88745
   3   20880.6    478.9   0.662288828  10.44190  -0.26659   0.92201   3.08557
   4   22763.2    439.3   0.214694127   3.10500   1.41483  -1.00835  -0.29409
   5   23210.2    430.8   0.069052194   0.97943   0.50971   0.06166  -0.84606
   6   25332.7    394.7   0.275346984   3.57828  -0.37815  -0.07681   1.85186
   7   25492.4    392.3   0.303599285   3.92072  -0.68630   0.08373  -1.85545
   8   25668.0    389.6   0.027187226   0.34870  -0.36246  -0.19988   0.42115
   9   26122.7    382.8   0.047602007   0.59991   0.01382  -0.06391   0.77177
  10   26779.9    373.4   0.174370472   2.14358   0.15016   0.35210   1.41317
  11   27069.8    369.4   0.041859553   0.50908   0.47983  -0.08566   0.52106
  12   27422.2    364.7   0.062724398   0.75302  -0.45803   0.41374   0.60996
  13   27459.8    364.2   0.029592878   0.35479   0.05127   0.19403   0.56081
  14   28017.1    356.9   0.187628480   2.20471  -0.25334  -0.31125   1.42956
  15   28586.2    349.8   0.055097309   0.63453  -0.37610   0.55924   0.42464
  16   28921.5    345.8   0.104151150   1.18555   0.04781  -0.04873  -1.08669
  17   29352.4    340.7   0.003225954   0.03618   0.17313   0.05255  -0.05869
  18   29486.1    339.1   0.062284907   0.69541   0.47587  -0.00138  -0.68481
  19   30036.0    332.9   0.262965244   2.88225   0.09775  -0.35817  -1.65663
  20   30170.8    331.4   0.102079912   1.11386   0.03065   0.00507   1.05494
  21   30256.7    330.5   0.021902753   0.23832   0.24332   0.02477   0.42249
  22   30377.0    329.2   0.071985883   0.78015   0.39180   0.12367   0.78189
  23   30911.0    323.5   0.286542299   3.05176  -0.97669   1.03142  -1.01686
  24   32189.6    310.7   0.284712714   2.91184   0.34240   0.02541  -1.67151
  25   32571.2    307.0   0.022035847   0.22273  -0.29859   0.13049  -0.34139
  26   33109.3    302.0   0.119762497   1.19082  -0.93198   0.38378   0.41828
  27   33252.5    300.7   0.326512238   3.23259  -0.16505   0.01413  -1.79029
  28   33522.3    298.3   0.200065978   1.96479  -0.30893   0.31811   1.32972
  29   33595.9    297.7   0.110732104   1.08508   0.83429   0.54060  -0.31113
  30   33695.1    296.8   0.011077474   0.10823  -0.05295   0.30861   0.10092
  31   33821.5    295.7   0.027127587   0.26405   0.23716   0.14309  -0.43282
  32   34197.3    292.4   0.192363475   1.85185  -1.08825  -0.05601   0.81513
  33   34266.5    291.8   0.056766194   0.54538  -0.14713   0.21343  -0.69150
  34   34363.1    291.0   0.042360056   0.40583   0.44285  -0.22554   0.39855
  35   34469.4    290.1   0.045404782   0.43365  -0.64087  -0.00642  -0.15134
  36   34742.6    287.8   0.257709345   2.44199   1.01261  -0.23872  -1.16603
  37   35124.8    284.7   0.128999593   1.20907   0.16502  -0.61248  -0.89817
  38   35340.0    283.0   0.197598556   1.84074  -0.37461  -0.51277  -1.19895
  39   35585.3    281.0   0.254931459   2.35846   1.40636  -0.50226  -0.35825
  40   35959.2    278.1   0.011165720   0.10222  -0.15216   0.05228   0.27629
  41   36373.6    274.9   0.093225076   0.84377   0.27485  -0.14236  -0.86485
  42   36471.0    274.2   0.060273747   0.54407  -0.64787   0.22004   0.27555
  43   36621.8    273.1   0.014390476   0.12936   0.22961   0.15417  -0.22995
  44   36774.6    271.9   0.175114553   1.56765   0.91132  -0.25956   0.81840
  45   37154.6    269.1   0.062870768   0.55707   0.69548  -0.21971  -0.15847
  46   37375.0    267.6   0.068074071   0.59962  -0.34677  -0.23953  -0.64961
  47   37618.5    265.8   0.037695284   0.32988   0.31236  -0.23523  -0.42069
  48   37850.0    264.2   0.027402441   0.23834  -0.41725  -0.02731  -0.25199
  49   37948.9    263.5   0.015542345   0.13483   0.00286   0.13199  -0.34264
  50   38101.0    262.5   0.030482686   0.26339  -0.39276  -0.26703   0.19448
  51   38656.4    258.7   0.196012610   1.66931  -0.91760   0.90877   0.03838
  52   38880.8    257.2   0.153363499   1.29856  -0.09003  -0.50228   1.01891
  53   39074.0    255.9   0.030128111   0.25384   0.19550   0.33093  -0.32574
  54   39262.8    254.7   0.207182099   1.73719  -1.20320   0.53806  -0.00008
  55   39359.4    254.1   0.001530164   0.01280  -0.07714  -0.08255  -0.00585
  56   39555.0    252.8   0.094307207   0.78491   0.52641  -0.62171   0.34825
  57   40170.3    248.9   0.079261058   0.64958  -0.75066  -0.04089   0.29055
  58   40185.2    248.8   0.023129085   0.18948   0.18808   0.36647   0.14072

FINAL SINGLE POINT ENERGY     -6125.749375671086

DIPOLE MOMENT
-------------
                                X             Y             Z
Electronic contribution:     -7.58557       0.57407       6.75806
Nuclear contribution   :      8.41504      -0.11416      -4.95888
                        -----------------------------------------
Total Dipole Moment    :      0.82947       0.45991       1.79918
                        -----------------------------------------
Magnitude (a.u.)       :      2.03386
Magnitude (Debye)      :      5.16966

Rotational constants in cm-1:     0.000797     0.000386     0.000268
Rotational constants in MHz :    23.884176    11.559634     8.045347

                             ****ORCA TERMINATED NORMALLY****
TOTAL RUN TIME: 0 days 0 hours 11 minutes 13 seconds 577 msec
