                         Program Version 4.2.0 -  RELEASE  -
|  1> # ORCA input file
|  2> # SCF done       -209.479803563322          0.000572932470
|  3> ! CAM-B3LYP def2-SVP def2/J RIJCOSX Grid4 TightSCF
|  4> %maxcore 5000
|  5> %tddft
|  6>     Mode sTDDFT
|  7>     Ethresh 5.0
|  8>     maxcore 5000
|  9> end
| 10>
| 11> %pal
| 12>   nprocs 6
| 13>   end
| 14> * xyz 0 1
| 15>    C       10.16874        -1.43145         8.52732
| 16>    C       10.40616        -0.79792         9.71556
| 17>    F       11.08116        -1.44005        10.68532
| 18>    C        9.97043         0.50955         9.97021
| 19>    C        9.28417         1.17982         8.99603
| 20>    C        9.01317         0.57553         7.75128
| 21>    C        9.46075        -0.75720         7.51406
| 22>    C        9.19002        -1.38953         6.27772
| 23>    C        8.50244        -0.70492         5.31415
| 24>    C        8.07785         0.63615         5.54591
| 25>    C        8.31538         1.26507         6.73393
| 26>    C        7.41403         1.15402         4.33401
| 27>    O        6.87882         2.22694         4.17227
| 28>    C        7.60107         0.09038         3.30891
| 29>    C        8.05897        -1.10230         3.98152
| 30>    C        7.83996        -2.39300         3.57131
| 31>    C        7.14029        -2.71241         2.39062
| 32>    N        6.54044        -2.99784         1.45385
| 33>    C        8.18745        -3.52622         4.33305
| 34>    N        8.45504        -4.47933         4.91386
| 35>    C        7.42842         0.38653         1.98654
| 36>    C        7.96086        -0.26128         0.86050
| 37>    S        9.33646        -1.33837         0.92675
| 38>    C        9.38227        -1.55890        -0.80358
| 39>    C        8.36244        -0.81487        -1.38750
| 40>    C        7.57728        -0.07100        -0.47310
| 41>    C        6.56464         0.66753        -1.12580
| 42>    C        6.59768         0.48667        -2.47761
| 43>    C        5.73283         1.07031        -3.50921
| 44>    O        5.85297         0.84729        -4.68865
| 45>    O        4.80363         1.87606        -2.98342
| 46>    C        3.91696         2.48327        -3.91398
| 47>    S        7.85633        -0.59598        -3.02411
| 48>    C       10.33645        -2.36701        -1.43489
| 49>    S       10.32393        -2.54674        -3.16985
| 50>    C       11.72999        -3.58820        -3.16823
| 51>    C       12.15752        -3.77867        -1.85938
| 52>    C       11.39141        -3.10097        -0.87759
| 53>    C       11.89912        -3.31513         0.42373
| 54>    C       13.00109        -4.11870         0.41462
| 55>    C       13.78728        -4.52453         1.58505
| 56>    O       13.55521        -4.17301         2.71426
| 57>    O       14.79492        -5.32655         1.22745
| 58>    C       15.64596        -5.77172         2.27364
| 59>    S       13.47616        -4.66136        -1.17721
| 60>    C       12.30562        -4.07184        -4.35000
| 61>    S       13.70313        -5.10450        -4.29025
| 62>    C       13.86108        -5.16150        -6.03660
| 63>    C       12.81531        -4.44247        -6.60521
| 64>    C       11.94582        -3.81298        -5.67795
| 65>    C       10.93153        -3.07107        -6.32212
| 66>    C       11.03685        -3.14191        -7.68030
| 67>    C       10.16775        -2.50991        -8.68024
| 68>    O       10.31149        -2.61815        -9.87213
| 69>    O        9.19595        -1.79980        -8.09441
| 70>    C        8.29093        -1.13969        -8.96924
| 71>    S       12.38082        -4.11055        -8.24113
| 72>    C       14.84068        -5.90362        -6.71663
| 73>    C       15.98951        -6.46396        -6.23520
| 74>    C       16.61427        -7.59796        -6.96897
| 75>    O       16.37054        -7.95349        -8.09897
| 76>    C       17.53604        -8.22122        -5.99792
| 77>    C       18.27579        -9.36115        -6.12427
| 78>    C       19.08051        -9.78459        -5.04231
| 79>    C       19.09520        -9.01820        -3.84051
| 80>    C       19.89453        -9.44988        -2.76443
| 81>    C       20.64095       -10.58760        -2.89651
| 82>    C       20.64253       -11.35318        -4.07028
| 83>    C       19.86971       -10.95008        -5.12371
| 84>    F       21.40676       -10.99956        -1.86965
| 85>    C       18.32357        -7.83686        -3.73987
| 86>    C       17.56318        -7.44085        -4.80566
| 87>    C       16.72730        -6.26098        -5.01050
| 88>    C       16.85161        -5.07915        -4.32381
| 89>    C       16.28896        -3.86632        -4.77006
| 90>    N       15.89117        -2.85265        -5.13464
| 91>    C       17.62675        -4.92589        -3.15844
| 92>    N       18.22052        -4.75775        -2.19022
| 93>    H       10.51644        -2.43979         8.36638
| 94>    H       10.18646         0.95784        10.92696
| 95>    H        8.93956         2.18820         9.16883
| 96>    H        9.54556        -2.39524         6.11753
| 97>    H        7.97758         2.27751         6.89682
| 98>    H        6.87761         1.30022         1.78439
| 99>    H        5.84730         1.29823        -0.63482
|100>    H        3.23944         3.09838        -3.32810
|101>    H        3.36482         1.71911        -4.46458
|102>    H        4.47533         3.09485        -4.62551
|103>    H       11.49158        -2.90721         1.32999
|104>    H       16.40741        -6.38652         1.80175
|105>    H       15.07650        -6.35151         3.00292
|106>    H       16.10030        -4.91761         2.77944
|107>    H       10.15956        -2.51157        -5.82779
|108>    H        7.58930        -0.61069        -8.32957
|109>    H        7.77044        -1.86728        -9.59522
|110>    H        8.82841        -0.44193        -9.61444
|111>    H       14.60945        -6.12836        -7.75419
|112>    H       18.25059        -9.93296        -7.03971
|113>    H       19.92139        -8.88234        -1.84737
|114>    H       21.25226       -12.24146        -4.11695
|115>    H       19.85456       -11.52348        -6.03830
|116>    H       18.34668        -7.27739        -2.81802
|117> *
|118>
|119>                          ****END OF INPUT****

CARTESIAN COORDINATES (ANGSTROEM)
---------------------------------
  C     10.168740   -1.431450    8.527320
  C     10.406160   -0.797920    9.715560
  F     11.081160   -1.440050   10.685320
  C      9.970430    0.509550    9.970210
  C      9.284170    1.179820    8.996030
  C      9.013170    0.575530    7.751280
  C      9.460750   -0.757200    7.514060
  C      9.190020   -1.389530    6.277720
  C      8.502440   -0.704920    5.314150
  C      8.077850    0.636150    5.545910
  C      8.315380    1.265070    6.733930
  C      7.414030    1.154020    4.334010
  O      6.878820    2.226940    4.172270
  C      7.601070    0.090380    3.308910
  C      8.058970   -1.102300    3.981520
  C      7.839960   -2.393000    3.571310
  C      7.140290   -2.712410    2.390620
  N      6.540440   -2.997840    1.453850
  C      8.187450   -3.526220    4.333050
  N      8.455040   -4.479330    4.913860
  C      7.428420    0.386530    1.986540
  C      7.960860   -0.261280    0.860500
  S      9.336460   -1.338370    0.926750
  C      9.382270   -1.558900   -0.803580
  C      8.362440   -0.814870   -1.387500
  C      7.577280   -0.071000   -0.473100
  C      6.564640    0.667530   -1.125800
  C      6.597680    0.486670   -2.477610
  C      5.732830    1.070310   -3.509210
  O      5.852970    0.847290   -4.688650
  O      4.803630    1.876060   -2.983420
  C      3.916960    2.483270   -3.913980
  S      7.856330   -0.595980   -3.024110
  C     10.336450   -2.367010   -1.434890
  S     10.323930   -2.546740   -3.169850
  C     11.729990   -3.588200   -3.168230
  C     12.157520   -3.778670   -1.859380
  C     11.391410   -3.100970   -0.877590
  C     11.899120   -3.315130    0.423730
  C     13.001090   -4.118700    0.414620
  C     13.787280   -4.524530    1.585050
  O     13.555210   -4.173010    2.714260
  O     14.794920   -5.326550    1.227450
  C     15.645960   -5.771720    2.273640
  S     13.476160   -4.661360   -1.177210
  C     12.305620   -4.071840   -4.350000
  S     13.703130   -5.104500   -4.290250
  C     13.861080   -5.161500   -6.036600
  C     12.815310   -4.442470   -6.605210
  C     11.945820   -3.812980   -5.677950
  C     10.931530   -3.071070   -6.322120
  C     11.036850   -3.141910   -7.680300
  C     10.167750   -2.509910   -8.680240
  O     10.311490   -2.618150   -9.872130
  O      9.195950   -1.799800   -8.094410
  C      8.290930   -1.139690   -8.969240
  S     12.380820   -4.110550   -8.241130
  C     14.840680   -5.903620   -6.716630
  C     15.989510   -6.463960   -6.235200
  C     16.614270   -7.597960   -6.968970
  O     16.370540   -7.953490   -8.098970
  C     17.536040   -8.221220   -5.997920
  C     18.275790   -9.361150   -6.124270
  C     19.080510   -9.784590   -5.042310
  C     19.095200   -9.018200   -3.840510
  C     19.894530   -9.449880   -2.764430
  C     20.640950  -10.587600   -2.896510
  C     20.642530  -11.353180   -4.070280
  C     19.869710  -10.950080   -5.123710
  F     21.406760  -10.999560   -1.869650
  C     18.323570   -7.836860   -3.739870
  C     17.563180   -7.440850   -4.805660
  C     16.727300   -6.260980   -5.010500
  C     16.851610   -5.079150   -4.323810
  C     16.288960   -3.866320   -4.770060
  N     15.891170   -2.852650   -5.134640
  C     17.626750   -4.925890   -3.158440
  N     18.220520   -4.757750   -2.190220
  H     10.516440   -2.439790    8.366380
  H     10.186460    0.957840   10.926960
  H      8.939560    2.188200    9.168830
  H      9.545560   -2.395240    6.117530
  H      7.977580    2.277510    6.896820
  H      6.877610    1.300220    1.784390
  H      5.847300    1.298230   -0.634820
  H      3.239440    3.098380   -3.328100
  H      3.364820    1.719110   -4.464580
  H      4.475330    3.094850   -4.625510
  H     11.491580   -2.907210    1.329990
  H     16.407410   -6.386520    1.801750
  H     15.076500   -6.351510    3.002920
  H     16.100300   -4.917610    2.779440
  H     10.159560   -2.511570   -5.827790
  H      7.589300   -0.610690   -8.329570
  H      7.770440   -1.867280   -9.595220
  H      8.828410   -0.441930   -9.614440
  H     14.609450   -6.128360   -7.754190
  H     18.250590   -9.932960   -7.039710
  H     19.921390   -8.882340   -1.847370
  H     21.252260  -12.241460   -4.116950
  H     19.854560  -11.523480   -6.038300
  H     18.346680   -7.277390   -2.818020

 Total Charge           Charge          ....    0
 Multiplicity           Mult            ....    1
 Number of Electrons    NEL             ....  578
 Basis Dimension        Dim             .... 1236

ORBITAL ENERGIES
----------------

  NO   OCC          E(Eh)            E(eV)
   0   2.0000     -88.995152     -2421.6812
   1   2.0000     -88.991751     -2421.5887
   2   2.0000     -88.984758     -2421.3984
   3   2.0000     -88.980697     -2421.2879
   4   2.0000     -88.978577     -2421.2302
   5   2.0000     -88.971441     -2421.0360
   6   2.0000     -24.786064      -674.4631
   7   2.0000     -24.783876      -674.4035
   8   2.0000     -19.276352      -524.5362
   9   2.0000     -19.271605      -524.4070
  10   2.0000     -19.264260      -524.2072
  11   2.0000     -19.221519      -523.0441
  12   2.0000     -19.215554      -522.8818
  13   2.0000     -19.213652      -522.8300
  14   2.0000     -19.209027      -522.7042
  15   2.0000     -19.207915      -522.6740
  16   2.0000     -14.416602      -392.2957
  17   2.0000     -14.416446      -392.2914
  18   2.0000     -14.412301      -392.1787
  19   2.0000     -14.408994      -392.0887
  20   2.0000     -10.421283      -283.5775
  21   2.0000     -10.414408      -283.3904
  22   2.0000     -10.409133      -283.2469
  23   2.0000     -10.369912      -282.1796
  24   2.0000     -10.367840      -282.1233
  25   2.0000     -10.367012      -282.1007
  26   2.0000     -10.360248      -281.9167
  27   2.0000     -10.349640      -281.6280
  28   2.0000     -10.347041      -281.5573
  29   2.0000     -10.346403      -281.5399
  30   2.0000     -10.345355      -281.5114
  31   2.0000     -10.343433      -281.4591
  32   2.0000     -10.341770      -281.4139
  33   2.0000     -10.338150      -281.3154
  34   2.0000     -10.337389      -281.2947
  35   2.0000     -10.334763      -281.2232
  36   2.0000     -10.334296      -281.2105
  37   2.0000     -10.331866      -281.1444
  38   2.0000     -10.330148      -281.0976
  39   2.0000     -10.329422      -281.0779
  40   2.0000     -10.327899      -281.0364
  41   2.0000     -10.327347      -281.0214
  42   2.0000     -10.326862      -281.0082
  43   2.0000     -10.325731      -280.9774
  44   2.0000     -10.324504      -280.9440
  45   2.0000     -10.323481      -280.9162
  46   2.0000     -10.320212      -280.8272
  47   2.0000     -10.318856      -280.7903
  48   2.0000     -10.318779      -280.7883
  49   2.0000     -10.318456      -280.7795
  50   2.0000     -10.316966      -280.7389
  51   2.0000     -10.315427      -280.6970
  52   2.0000     -10.314308      -280.6666
  53   2.0000     -10.311728      -280.5964
  54   2.0000     -10.311553      -280.5916
  55   2.0000     -10.308416      -280.5063
  56   2.0000     -10.307092      -280.4702
  57   2.0000     -10.306762      -280.4613
  58   2.0000     -10.304832      -280.4087
  59   2.0000     -10.303128      -280.3624
  60   2.0000     -10.303072      -280.3608
  61   2.0000     -10.302533      -280.3462
  62   2.0000     -10.301804      -280.3263
  63   2.0000     -10.301654      -280.3223
  64   2.0000     -10.301051      -280.3059
  65   2.0000     -10.298960      -280.2490
  66   2.0000     -10.298145      -280.2268
  67   2.0000     -10.297889      -280.2198
  68   2.0000     -10.296086      -280.1707
  69   2.0000     -10.295001      -280.1412
  70   2.0000     -10.294798      -280.1357
  71   2.0000     -10.294666      -280.1321
  72   2.0000     -10.291806      -280.0543
  73   2.0000     -10.291768      -280.0532
  74   2.0000     -10.291444      -280.0444
  75   2.0000     -10.289211      -279.9837
  76   2.0000     -10.286675      -279.9147
  77   2.0000     -10.286070      -279.8982
  78   2.0000      -8.089300      -220.1210
  79   2.0000      -8.085701      -220.0231
  80   2.0000      -8.078813      -219.8357
  81   2.0000      -8.075602      -219.7483
  82   2.0000      -8.073390      -219.6881
  83   2.0000      -8.066660      -219.5050
  84   2.0000      -6.058864      -164.8701
  85   2.0000      -6.055234      -164.7713
  86   2.0000      -6.054540      -164.7524
  87   2.0000      -6.051197      -164.6615
  88   2.0000      -6.050880      -164.6528
  89   2.0000      -6.048332      -164.5835
  90   2.0000      -6.047687      -164.5659
  91   2.0000      -6.045405      -164.5038
  92   2.0000      -6.044050      -164.4670
  93   2.0000      -6.043144      -164.4423
  94   2.0000      -6.040993      -164.3838
  95   2.0000      -6.040727      -164.3765
  96   2.0000      -6.038699      -164.3214
  97   2.0000      -6.036882      -164.2719
  98   2.0000      -6.036348      -164.2574
  99   2.0000      -6.034801      -164.2153
 100   2.0000      -6.032049      -164.1404
 101   2.0000      -6.028025      -164.0309
 102   2.0000      -1.301190       -35.4072
 103   2.0000      -1.298736       -35.3404
 104   2.0000      -1.208288       -32.8792
 105   2.0000      -1.202927       -32.7333
 106   2.0000      -1.196061       -32.5465
 107   2.0000      -1.130864       -30.7724
 108   2.0000      -1.123595       -30.5746
 109   2.0000      -1.115139       -30.3445
 110   2.0000      -1.108008       -30.1504
 111   2.0000      -1.103155       -30.0184
 112   2.0000      -1.045631       -28.4531
 113   2.0000      -1.034466       -28.1493
 114   2.0000      -1.024114       -27.8676
 115   2.0000      -1.019764       -27.7492
 116   2.0000      -1.013884       -27.5892
 117   2.0000      -1.001535       -27.2531
 118   2.0000      -0.996607       -27.1191
 119   2.0000      -0.995054       -27.0768
 120   2.0000      -0.989544       -26.9268
 121   2.0000      -0.979856       -26.6632
 122   2.0000      -0.977169       -26.5901
 123   2.0000      -0.973780       -26.4979
 124   2.0000      -0.971811       -26.4443
 125   2.0000      -0.964070       -26.2337
 126   2.0000      -0.935029       -25.4434
 127   2.0000      -0.927464       -25.2376
 128   2.0000      -0.920671       -25.0527
 129   2.0000      -0.909568       -24.7506
 130   2.0000      -0.897277       -24.4162
 131   2.0000      -0.890559       -24.2334
 132   2.0000      -0.886359       -24.1190
 133   2.0000      -0.882887       -24.0246
 134   2.0000      -0.877009       -23.8646
 135   2.0000      -0.869486       -23.6599
 136   2.0000      -0.864548       -23.5256
 137   2.0000      -0.862591       -23.4723
 138   2.0000      -0.860809       -23.4238
 139   2.0000      -0.850184       -23.1347
 140   2.0000      -0.836979       -22.7754
 141   2.0000      -0.835355       -22.7312
 142   2.0000      -0.831896       -22.6371
 143   2.0000      -0.825458       -22.4618
 144   2.0000      -0.819710       -22.3055
 145   2.0000      -0.813410       -22.1340
 146   2.0000      -0.812484       -22.1088
 147   2.0000      -0.803942       -21.8764
 148   2.0000      -0.793518       -21.5927
 149   2.0000      -0.768812       -20.9204
 150   2.0000      -0.761337       -20.7170
 151   2.0000      -0.755295       -20.5526
 152   2.0000      -0.743772       -20.2391
 153   2.0000      -0.736363       -20.0375
 154   2.0000      -0.731763       -19.9123
 155   2.0000      -0.725386       -19.7388
 156   2.0000      -0.722035       -19.6476
 157   2.0000      -0.714789       -19.4504
 158   2.0000      -0.710054       -19.3216
 159   2.0000      -0.706004       -19.2113
 160   2.0000      -0.704584       -19.1727
 161   2.0000      -0.688565       -18.7368
 162   2.0000      -0.682904       -18.5828
 163   2.0000      -0.677086       -18.4244
 164   2.0000      -0.674748       -18.3608
 165   2.0000      -0.663698       -18.0601
 166   2.0000      -0.655313       -17.8320
 167   2.0000      -0.648642       -17.6504
 168   2.0000      -0.646637       -17.5959
 169   2.0000      -0.641088       -17.4449
 170   2.0000      -0.640205       -17.4209
 171   2.0000      -0.637388       -17.3442
 172   2.0000      -0.633206       -17.2304
 173   2.0000      -0.630165       -17.1477
 174   2.0000      -0.629298       -17.1241
 175   2.0000      -0.626243       -17.0409
 176   2.0000      -0.623199       -16.9581
 177   2.0000      -0.620360       -16.8808
 178   2.0000      -0.615786       -16.7564
 179   2.0000      -0.599450       -16.3119
 180   2.0000      -0.597092       -16.2477
 181   2.0000      -0.591237       -16.0884
 182   2.0000      -0.586300       -15.9540
 183   2.0000      -0.585210       -15.9244
 184   2.0000      -0.584753       -15.9119
 185   2.0000      -0.581093       -15.8123
 186   2.0000      -0.580795       -15.8042
 187   2.0000      -0.574924       -15.6445
 188   2.0000      -0.574531       -15.6338
 189   2.0000      -0.570275       -15.5180
 190   2.0000      -0.566585       -15.4176
 191   2.0000      -0.565119       -15.3777
 192   2.0000      -0.562518       -15.3069
 193   2.0000      -0.559587       -15.2271
 194   2.0000      -0.558619       -15.2008
 195   2.0000      -0.557334       -15.1658
 196   2.0000      -0.556263       -15.1367
 197   2.0000      -0.551303       -15.0017
 198   2.0000      -0.548336       -14.9210
 199   2.0000      -0.547820       -14.9069
 200   2.0000      -0.545583       -14.8461
 201   2.0000      -0.540901       -14.7187
 202   2.0000      -0.536696       -14.6042
 203   2.0000      -0.533632       -14.5209
 204   2.0000      -0.533552       -14.5187
 205   2.0000      -0.530992       -14.4490
 206   2.0000      -0.526663       -14.3312
 207   2.0000      -0.524006       -14.2589
 208   2.0000      -0.522245       -14.2110
 209   2.0000      -0.521155       -14.1813
 210   2.0000      -0.520709       -14.1692
 211   2.0000      -0.518249       -14.1023
 212   2.0000      -0.517504       -14.0820
 213   2.0000      -0.515582       -14.0297
 214   2.0000      -0.513184       -13.9644
 215   2.0000      -0.511574       -13.9206
 216   2.0000      -0.509004       -13.8507
 217   2.0000      -0.505124       -13.7451
 218   2.0000      -0.501938       -13.6584
 219   2.0000      -0.500649       -13.6233
 220   2.0000      -0.496718       -13.5164
 221   2.0000      -0.495934       -13.4950
 222   2.0000      -0.494511       -13.4563
 223   2.0000      -0.491561       -13.3760
 224   2.0000      -0.490686       -13.3522
 225   2.0000      -0.488327       -13.2881
 226   2.0000      -0.485860       -13.2209
 227   2.0000      -0.484863       -13.1938
 228   2.0000      -0.482473       -13.1287
 229   2.0000      -0.479912       -13.0591
 230   2.0000      -0.477988       -13.0067
 231   2.0000      -0.476144       -12.9565
 232   2.0000      -0.470153       -12.7935
 233   2.0000      -0.463600       -12.6152
 234   2.0000      -0.459624       -12.5070
 235   2.0000      -0.458240       -12.4693
 236   2.0000      -0.457044       -12.4368
 237   2.0000      -0.454074       -12.3560
 238   2.0000      -0.452487       -12.3128
 239   2.0000      -0.449184       -12.2229
 240   2.0000      -0.448217       -12.1966
 241   2.0000      -0.447675       -12.1819
 242   2.0000      -0.446263       -12.1434
 243   2.0000      -0.445239       -12.1156
 244   2.0000      -0.442846       -12.0504
 245   2.0000      -0.440974       -11.9995
 246   2.0000      -0.440418       -11.9844
 247   2.0000      -0.439091       -11.9483
 248   2.0000      -0.438197       -11.9239
 249   2.0000      -0.437279       -11.8990
 250   2.0000      -0.436917       -11.8891
 251   2.0000      -0.435649       -11.8546
 252   2.0000      -0.433621       -11.7994
 253   2.0000      -0.428960       -11.6726
 254   2.0000      -0.428297       -11.6545
 255   2.0000      -0.425990       -11.5918
 256   2.0000      -0.424041       -11.5388
 257   2.0000      -0.423539       -11.5251
 258   2.0000      -0.419956       -11.4276
 259   2.0000      -0.417862       -11.3706
 260   2.0000      -0.414448       -11.2777
 261   2.0000      -0.409399       -11.1403
 262   2.0000      -0.403715       -10.9857
 263   2.0000      -0.397632       -10.8201
 264   2.0000      -0.393922       -10.7192
 265   2.0000      -0.388233       -10.5643
 266   2.0000      -0.385687       -10.4951
 267   2.0000      -0.382395       -10.4055
 268   2.0000      -0.381156       -10.3718
 269   2.0000      -0.377913       -10.2835
 270   2.0000      -0.375137       -10.2080
 271   2.0000      -0.373515       -10.1639
 272   2.0000      -0.366485        -9.9726
 273   2.0000      -0.362949        -9.8763
 274   2.0000      -0.362668        -9.8687
 275   2.0000      -0.349421        -9.5082
 276   2.0000      -0.341296        -9.2871
 277   2.0000      -0.336557        -9.1582
 278   2.0000      -0.333121        -9.0647
 279   2.0000      -0.331529        -9.0214
 280   2.0000      -0.328934        -8.9507
 281   2.0000      -0.323510        -8.8031
 282   2.0000      -0.316192        -8.6040
 283   2.0000      -0.313180        -8.5221
 284   2.0000      -0.309216        -8.4142
 285   2.0000      -0.299708        -8.1555
 286   2.0000      -0.295813        -8.0495
 287   2.0000      -0.280537        -7.6338
 288   2.0000      -0.240766        -6.5516
 289   0.0000      -0.124764        -3.3950
 290   0.0000      -0.092555        -2.5185
 291   0.0000      -0.067926        -1.8484
 292   0.0000      -0.056718        -1.5434
 293   0.0000      -0.049123        -1.3367

MULLIKEN ATOMIC CHARGES
-----------------------
   0 C :   -0.094241
   1 C :    0.300630
   2 F :   -0.189919
   3 C :   -0.027715
   4 C :   -0.008751
   5 C :    0.099342
   6 C :    0.100842
   7 C :   -0.080222
   8 C :    0.037064
   9 C :    0.011807
  10 C :   -0.080115
  11 C :    0.142251
  12 O :   -0.145394
  13 C :   -0.140773
  14 C :    0.248759
  15 C :   -0.322995
  16 C :   -0.208757
  17 N :    0.171178
  18 C :   -0.173478
  19 N :    0.157545
  20 C :    0.021609
  21 C :   -0.110008
  22 S :    0.164529
  23 C :   -0.095079
  24 C :   -0.062009
  25 C :    0.171159
  26 C :    0.017868
  27 C :   -0.134326
  28 C :    0.211505
  29 O :   -0.199041
  30 O :   -0.297277
  31 C :    0.187314
  32 S :    0.180958
  33 C :   -0.077975
  34 S :    0.142463
  35 C :   -0.108643
  36 C :   -0.061049
  37 C :    0.102268
  38 C :   -0.014762
  39 C :   -0.115704
  40 C :    0.206114
  41 O :   -0.190102
  42 O :   -0.305965
  43 C :    0.187564
  44 S :    0.192438
  45 C :   -0.060826
  46 S :    0.158399
  47 C :   -0.146002
  48 C :    0.020270
  49 C :    0.083604
  50 C :    0.006168
  51 C :   -0.157984
  52 C :    0.208630
  53 O :   -0.196071
  54 O :   -0.301570
  55 C :    0.185372
  56 S :    0.204526
  57 C :    0.026230
  58 C :   -0.143709
  59 C :    0.138561
  60 O :   -0.144463
  61 C :    0.009953
  62 C :   -0.082520
  63 C :    0.101095
  64 C :    0.103130
  65 C :   -0.098780
  66 C :    0.303769
  67 C :   -0.032090
  68 C :   -0.009888
  69 F :   -0.191727
  70 C :   -0.087888
  71 C :    0.042870
  72 C :    0.251231
  73 C :   -0.331462
  74 C :   -0.212544
  75 N :    0.171788
  76 C :   -0.167811
  77 N :    0.142799
  78 H :   -0.001824
  79 H :    0.003522
  80 H :   -0.009186
  81 H :   -0.000582
  82 H :   -0.011901
  83 H :    0.022248
  84 H :    0.010877
  85 H :    0.040820
  86 H :    0.038460
  87 H :    0.037711
  88 H :    0.018414
  89 H :    0.043440
  90 H :    0.038429
  91 H :    0.039642
  92 H :    0.016548
  93 H :    0.045972
  94 H :    0.035133
  95 H :    0.035966
  96 H :    0.024152
  97 H :   -0.011699
  98 H :   -0.006031
  99 H :    0.002886
 100 H :   -0.008918
 101 H :   -0.008046
Sum of atomic charges:   -0.0000000

LOEWDIN ATOMIC CHARGES
----------------------
   0 C :   -0.041193
   1 C :    0.093636
   2 F :   -0.063953
   3 C :   -0.036578
   4 C :    0.004750
   5 C :   -0.018781
   6 C :    0.004145
   7 C :    0.012010
   8 C :   -0.016746
   9 C :   -0.059642
  10 C :    0.034686
  11 C :    0.081927
  12 O :   -0.147219
  13 C :   -0.094983
  14 C :    0.057269
  15 C :   -0.143731
  16 C :   -0.036099
  17 N :   -0.049671
  18 C :   -0.021300
  19 N :   -0.048052
  20 C :    0.041239
  21 C :   -0.172649
  22 S :    0.505057
  23 C :   -0.177055
  24 C :   -0.191433
  25 C :   -0.042515
  26 C :   -0.010671
  27 C :   -0.183845
  28 C :    0.064263
  29 O :   -0.174168
  30 O :   -0.087426
  31 C :    0.085057
  32 S :    0.446445
  33 C :   -0.171429
  34 S :    0.480798
  35 C :   -0.203101
  36 C :   -0.179691
  37 C :   -0.071997
  38 C :   -0.015061
  39 C :   -0.188524
  40 C :    0.066458
  41 O :   -0.167370
  42 O :   -0.094225
  43 C :    0.086375
  44 S :    0.448301
  45 C :   -0.147122
  46 S :    0.494234
  47 C :   -0.206810
  48 C :   -0.148444
  49 C :   -0.087382
  50 C :   -0.021830
  51 C :   -0.194525
  52 C :    0.063185
  53 O :   -0.173333
  54 O :   -0.090003
  55 C :    0.084250
  56 S :    0.463195
  57 C :    0.046570
  58 C :   -0.106355
  59 C :    0.080816
  60 O :   -0.147512
  61 C :   -0.058059
  62 C :    0.032966
  63 C :   -0.019229
  64 C :    0.003095
  65 C :   -0.043884
  66 C :    0.092298
  67 C :   -0.038451
  68 C :    0.004665
  69 F :   -0.066141
  70 C :    0.007232
  71 C :   -0.015259
  72 C :    0.059531
  73 C :   -0.151049
  74 C :   -0.040454
  75 N :   -0.052253
  76 C :   -0.018356
  77 N :   -0.059685
  78 H :    0.043637
  79 H :    0.041950
  80 H :    0.035680
  81 H :    0.040308
  82 H :    0.039714
  83 H :    0.050923
  84 H :    0.043037
  85 H :    0.028907
  86 H :    0.026274
  87 H :    0.025746
  88 H :    0.034081
  89 H :    0.030319
  90 H :    0.026067
  91 H :    0.027196
  92 H :    0.030293
  93 H :    0.030631
  94 H :    0.024764
  95 H :    0.024976
  96 H :    0.050114
  97 H :    0.039551
  98 H :    0.041654
  99 H :    0.041520
 100 H :    0.035668
 101 H :    0.037783

  Mayer bond orders larger than 0.100000
B(  0-C ,  1-C ) :   1.4391 B(  0-C ,  6-C ) :   1.2050 B(  0-C , 78-H ) :   1.0061
B(  1-C ,  2-F ) :   1.0890 B(  1-C ,  3-C ) :   1.2568 B(  3-C ,  4-C ) :   1.4611
B(  3-C , 79-H ) :   0.9924 B(  4-C ,  5-C ) :   1.2351 B(  4-C , 80-H ) :   0.9966
B(  5-C ,  6-C ) :   1.2581 B(  5-C , 10-C ) :   1.1922 B(  6-C ,  7-C ) :   1.2011
B(  7-C ,  8-C ) :   1.4677 B(  7-C , 81-H ) :   0.9955 B(  8-C ,  9-C ) :   1.2191
B(  8-C , 14-C ) :   0.9962 B(  9-C , 10-C ) :   1.4726 B(  9-C , 11-C ) :   0.9206
B( 10-C , 82-H ) :   1.0147 B( 11-C , 12-O ) :   2.2656 B( 11-C , 13-C ) :   0.9440
B( 13-C , 14-C ) :   1.0496 B( 13-C , 20-C ) :   1.6037 B( 14-C , 15-C ) :   1.6426
B( 15-C , 16-C ) :   1.1560 B( 15-C , 18-C ) :   1.1381 B( 16-C , 17-N ) :   3.0213
B( 18-C , 19-N ) :   2.9914 B( 20-C , 21-C ) :   1.1930 B( 20-C , 83-H ) :   0.9418
B( 21-C , 22-S ) :   1.1041 B( 21-C , 25-C ) :   1.3125 B( 22-S , 23-C ) :   1.1511
B( 23-C , 24-C ) :   1.4129 B( 23-C , 33-C ) :   1.2567 B( 24-C , 25-C ) :   1.2848
B( 24-C , 32-S ) :   1.0598 B( 25-C , 26-C ) :   1.1553 B( 26-C , 27-C ) :   1.6034
B( 26-C , 84-H ) :   0.9997 B( 27-C , 28-C ) :   0.9548 B( 27-C , 32-S ) :   1.0839
B( 28-C , 29-O ) :   2.1396 B( 28-C , 30-O ) :   1.2588 B( 30-O , 31-C ) :   0.9141
B( 31-C , 85-H ) :   0.9812 B( 31-C , 86-H ) :   0.9765 B( 31-C , 87-H ) :   0.9762
B( 33-C , 34-S ) :   1.1259 B( 33-C , 37-C ) :   1.3303 B( 34-S , 35-C ) :   1.1186
B( 35-C , 36-C ) :   1.4247 B( 35-C , 45-C ) :   1.2607 B( 36-C , 37-C ) :   1.2764
B( 36-C , 44-S ) :   1.0720 B( 37-C , 38-C ) :   1.1427 B( 38-C , 39-C ) :   1.6348
B( 38-C , 88-H ) :   0.9960 B( 39-C , 40-C ) :   0.9477 B( 39-C , 44-S ) :   1.0671
B( 40-C , 41-O ) :   2.1474 B( 40-C , 42-O ) :   1.2438 B( 42-O , 43-C ) :   0.9112
B( 43-C , 89-H ) :   0.9812 B( 43-C , 90-H ) :   0.9772 B( 43-C , 91-H ) :   0.9770
B( 45-C , 46-S ) :   1.1584 B( 45-C , 49-C ) :   1.3211 B( 46-S , 47-C ) :   1.0859
B( 47-C , 48-C ) :   1.4087 B( 47-C , 57-C ) :   1.2020 B( 48-C , 49-C ) :   1.2769
B( 48-C , 56-S ) :   1.0932 B( 49-C , 50-C ) :   1.1416 B( 50-C , 51-C ) :   1.6176
B( 50-C , 92-H ) :   0.9899 B( 51-C , 52-C ) :   0.9608 B( 51-C , 56-S ) :   1.0756
B( 52-C , 53-O ) :   2.1460 B( 52-C , 54-O ) :   1.2462 B( 54-O , 55-C ) :   0.9150
B( 55-C , 93-H ) :   0.9811 B( 55-C , 94-H ) :   0.9765 B( 55-C , 95-H ) :   0.9762
B( 57-C , 58-C ) :   1.5909 B( 57-C , 96-H ) :   0.9443 B( 58-C , 59-C ) :   0.9485
B( 58-C , 72-C ) :   1.0554 B( 59-C , 60-O ) :   2.2708 B( 59-C , 61-C ) :   0.9186
B( 61-C , 62-C ) :   1.4753 B( 61-C , 71-C ) :   1.2178 B( 62-C , 63-C ) :   1.1899
B( 62-C , 97-H ) :   1.0152 B( 63-C , 64-C ) :   1.2569 B( 63-C , 68-C ) :   1.2353
B( 64-C , 65-C ) :   1.2046 B( 64-C , 70-C ) :   1.1999 B( 65-C , 66-C ) :   1.4399
B( 65-C , 98-H ) :   1.0060 B( 66-C , 67-C ) :   1.2561 B( 66-C , 69-F ) :   1.0874
B( 67-C , 68-C ) :   1.4595 B( 67-C , 99-H ) :   0.9931 B( 68-C ,100-H ) :   0.9968
B( 70-C , 71-C ) :   1.4671 B( 70-C ,101-H ) :   0.9940 B( 71-C , 72-C ) :   1.0024
B( 72-C , 73-C ) :   1.6304 B( 73-C , 74-C ) :   1.1537 B( 73-C , 76-C ) :   1.1397
B( 74-C , 75-N ) :   3.0275 B( 76-C , 77-N ) :   2.9811

-----------------------------------------------------------------------------
         ABSORPTION SPECTRUM VIA TRANSITION ELECTRIC DIPOLE MOMENTS
-----------------------------------------------------------------------------
State   Energy  Wavelength   fosc         T2         TX        TY        TZ
        (cm-1)    (nm)                  (au**2)     (au)      (au)      (au)
-----------------------------------------------------------------------------
   0   10873.6    919.7   1.108684992  33.56692   3.53713  -2.24149  -4.00391
   1   17074.8    585.7   0.190748116   3.67774  -1.39502   0.71756  -1.10307
   2   19279.6    518.7   0.037608596   0.64219   0.02506   0.07476  -0.79748
   3   22591.4    442.6   0.043998040   0.64116  -0.18054   0.56671   0.53610
   4   23670.7    422.5   0.091592841   1.27387   0.12206   0.75956   0.82586
   5   24353.8    410.6   0.073713211   0.99645  -0.18010   0.97904  -0.07412
   6   25038.6    399.4   0.011204272   0.14732   0.07544   0.25945   0.27260
   7   25386.6    393.9   0.031080803   0.40305   0.10165   0.34322   0.52433
   8   26064.2    383.7   0.020740910   0.26197  -0.04998  -0.49394  -0.12449
   9   26559.8    376.5   0.001613875   0.02000   0.11910   0.04871   0.05870
  10   26972.9    370.7   0.081316625   0.99249  -0.40916   0.77583   0.47240
  11   27395.5    365.0   0.030991657   0.37243   0.34171  -0.46681  -0.19430
  12   27496.8    363.7   0.003098060   0.03709   0.04725  -0.04007   0.18236
  13   27546.4    363.0   0.126073519   1.50673  -0.15194  -0.65500  -1.02694
  14   28302.6    353.3   0.166488637   1.93657  -0.89014   0.98219  -0.42370
  15   28507.1    350.8   0.033440900   0.38619  -0.19815  -0.05815  -0.58613
  16   28814.9    347.0   0.016691869   0.19071  -0.36552   0.16450   0.17332
  17   29823.4    335.3   0.260036757   2.87047  -0.77231   0.44354  -1.44128
  18   30054.2    332.7   0.586119163   6.42031  -1.31076   0.90929  -1.96861
  19   31375.6    318.7   0.077332887   0.81142  -0.51510   0.72555   0.14024
  20   31546.0    317.0   0.012947157   0.13512  -0.10039  -0.25870   0.24106
  21   31777.6    314.7   0.034970092   0.36229   0.44509   0.12345   0.38592
  22   32012.6    312.4   0.216272045   2.22411   0.82006  -1.21063   0.29324
  23   32599.4    306.8   0.662889025   6.69432   1.10930  -0.08438   2.33595
  24   33067.3    302.4   0.030169751   0.30036  -0.40297   0.29194   0.22967
  25   33588.1    297.7   0.060779115   0.59572   0.22310   0.34069   0.65565
  26   33807.9    295.8   0.132246724   1.28778  -0.58615   0.94381  -0.23117
  27   34227.0    292.2   0.019121139   0.18392   0.24542   0.21500   0.27832
  28   34290.0    291.6   0.172701958   1.65808   0.77675  -0.98091   0.30422
  29   34405.3    290.7   0.054232939   0.51894  -0.27145   0.19857  -0.63704
  30   34663.3    288.5   0.085197616   0.80916   0.61913   0.10517   0.64403
  31   35041.3    285.4   0.125171592   1.17598   0.32996  -0.97944  -0.32833
  32   35434.3    282.2   0.029733072   0.27624  -0.31762   0.03261  -0.41749
  33   35505.7    281.6   0.015750023   0.14604  -0.06036   0.36182   0.10713
  34   35785.2    279.4   0.370863012   3.41182   1.00351  -1.40183   0.66308
  35   36127.5    276.8   0.177084133   1.61368  -0.63028   1.04626   0.34896
  36   36193.4    276.3   0.000388640   0.00354  -0.00740  -0.01261   0.05763
  37   36257.8    275.8   0.247184912   2.24438  -0.41871  -0.11796  -1.43358
  38   36800.9    271.7   0.023927643   0.21405  -0.20272  -0.21937  -0.35332
  39   36945.3    270.7   0.101404552   0.90360   0.53196  -0.40887   0.67337
  40   37167.3    269.1   0.313549396   2.77729  -0.54878  -1.01795  -1.19997
  41   37496.3    266.7   0.088839295   0.78000  -0.51744   0.70644  -0.11490
  42   37558.1    266.3   0.027572533   0.24168  -0.05109  -0.40397  -0.27547
  43   37635.0    265.7   0.000695550   0.00608   0.06886   0.02019   0.03058
  44   37664.7    265.5   0.000409304   0.00358   0.05099  -0.02270  -0.02151
  45   38034.5    262.9   0.002689628   0.02328  -0.13799   0.00082  -0.06511
  46   38458.2    260.0   0.027069924   0.23173  -0.12225  -0.20062  -0.42016
  47   38596.3    259.1   0.068715764   0.58612  -0.12391   0.71486   0.24443
  48   38844.4    257.4   0.007833136   0.06639  -0.12111   0.18122   0.13740
  49   39157.1    255.4   0.136108507   1.14433   0.37412  -0.97586   0.22818
  50   39389.0    253.9   0.092812155   0.77572   0.00473  -0.62343  -0.62212
  51   39736.8    251.7   0.018232003   0.15105  -0.13401   0.13311   0.33966
  52   39852.2    250.9   0.093907941   0.77576   0.55063  -0.07420   0.68342
  53   40046.3    249.7   0.011737583   0.09649   0.12609  -0.25006   0.13440
  54   40289.4    248.2   0.076268543   0.62320  -0.02892   0.62667   0.47923

FINAL SINGLE POINT ENERGY     -5629.512518589467

DIPOLE MOMENT
-------------
                                X             Y             Z
Electronic contribution:     14.21291     -12.73824       4.03832
Nuclear contribution   :    -15.31560      13.71731      -3.08394
                        -----------------------------------------
Total Dipole Moment    :     -1.10269       0.97906       0.95438
                        -----------------------------------------
Magnitude (a.u.)       :      1.75651
Magnitude (Debye)      :      4.46469

Rotational constants in cm-1:     0.000844     0.000387     0.000275
Rotational constants in MHz :    25.306030    11.607241     8.242459

                             ****ORCA TERMINATED NORMALLY****
TOTAL RUN TIME: 0 days 0 hours 11 minutes 6 seconds 681 msec
