                         Program Version 4.2.0 -  RELEASE  -
|  1> # ORCA input file
|  2> # SCF done       -206.737051423312          0.000693144197
|  3> ! CAM-B3LYP def2-SVP def2/J RIJCOSX Grid4 TightSCF
|  4> %maxcore 5000
|  5> %tddft
|  6>     Mode sTDDFT
|  7>     Ethresh 5.0
|  8>     maxcore 5000
|  9> end
| 10>
| 11> %pal
| 12>   nprocs 6
| 13>   end
| 14> * xyz 0 1
| 15>    C        1.69978        -2.60392         0.43147
| 16>    C        2.79466        -1.94065         0.89299
| 17>    C        2.61536        -0.54486         0.82515
| 18>    C        1.36530        -0.19141         0.30325
| 19>    S        0.42305        -1.55622        -0.09844
| 20>    C        1.26886         1.22982         0.27417
| 21>    C        2.46031         1.76320         0.78011
| 22>    C        3.34921         0.66479         1.14021
| 23>    C        4.60741         0.76819         1.66062
| 24>    C        5.20693         2.01827         1.91540
| 25>    N        5.69171         3.03759         2.12110
| 26>    C        5.38827        -0.36295         1.97484
| 27>    N        6.02808        -1.27896         2.23337
| 28>    C        2.46779         3.15928         0.80266
| 29>    C        1.28867         3.68902         0.31548
| 30>    S        0.15669         2.44324        -0.17930
| 31>    C        0.94044         5.06465         0.19755
| 32>    C        1.66685         6.14320         0.61280
| 33>    C        1.05362         7.39982         0.36737
| 34>    C       -0.21962         7.24153        -0.27456
| 35>    S       -0.56636         5.53987        -0.53759
| 36>    C       -1.04121         8.30284        -0.61468
| 37>    O       -2.25453         8.29643        -1.22095
| 38>    C       -2.87684         7.09337        -1.60301
| 39>    C       -0.56763         9.59218        -0.28660
| 40>    C        0.67725         9.74686         0.34593
| 41>    C        1.51799         8.69114         0.67868
| 42>    O        2.67203         9.08479         1.27945
| 43>    C        3.74269         8.20832         1.52808
| 44>    S        1.03343        11.41731         0.66252
| 45>    C       -0.49079        11.90199        -0.06021
| 46>    C       -1.21108        10.83012        -0.51315
| 47>    C       -0.86151        13.27618        -0.11035
| 48>    C       -1.94542        13.83216        -0.76195
| 49>    C       -2.01769        15.21385        -0.57180
| 50>    C       -0.98117        15.70897         0.23452
| 51>    S        0.08740        14.47898         0.74530
| 52>    C       -1.16144        17.10852         0.38990
| 53>    C       -2.30517        17.49797        -0.32242
| 54>    C       -2.87853        16.32165        -0.95733
| 55>    C       -3.98975        16.26705        -1.74677
| 56>    C       -4.75295        17.41213        -2.05711
| 57>    N       -5.37993        18.33641        -2.31614
| 58>    C       -4.45153        15.05901        -2.30945
| 59>    N       -4.83194        14.07904        -2.76811
| 60>    C       -2.57899        18.86401        -0.20843
| 61>    C       -1.65911        19.51206         0.58843
| 62>    S       -0.42383        18.41842         1.19989
| 63>    C       -1.64159        20.88699         0.95420
| 64>    C       -0.76152        21.50171         1.80073
| 65>    C       -1.02053        22.88364         1.99794
| 66>    C       -2.15158        23.28947         1.24290
| 67>    S       -2.85135        21.98466         0.32930
| 68>    C       -2.69426        24.56770         1.20171
| 69>    O       -3.77787        24.67222         0.38943
| 70>    C       -4.43083        25.89876         0.17765
| 71>    C       -2.06563        25.54648         1.99331
| 72>    C       -0.93383        25.14004         2.74723
| 73>    C       -0.38593        23.86513         2.78100
| 74>    O        0.70389        23.76081         3.58949
| 75>    C        1.37737        22.54042         3.76361
| 76>    S       -0.25948        26.43859         3.68661
| 77>    C       -1.48710        27.53002         3.08670
| 78>    C       -2.34793        26.92025         2.21570
| 79>    C       -1.52451        28.88930         3.51414
| 80>    C       -2.41065        29.87304         3.12031
| 81>    C       -2.15563        31.09067         3.75551
| 82>    C       -1.06941        31.03019         4.63654
| 83>    S       -0.35888        29.47854         4.68411
| 84>    C       -0.90200        32.31545         5.23027
| 85>    C       -1.88127        33.17577         4.72079
| 86>    C       -2.70221        32.44188         3.77700
| 87>    C       -3.76377        32.90753         3.05574
| 88>    C       -4.21367        34.24042         3.15176
| 89>    N       -4.58486        35.32306         3.22579
| 90>    C       -4.47971        32.08195         2.16506
| 91>    N       -5.06244        31.40897         1.44139
| 92>    C       -1.79043        34.47416         5.25989
| 93>    C       -0.76503        34.57052         6.14945
| 94>    S        0.11727        33.09167         6.35700
| 95>    H        1.55145        -3.66299         0.36486
| 96>    H        3.67825        -2.42928         1.26098
| 97>    H        3.28696         3.76044         1.15035
| 98>    H        2.61353         6.01280         1.09690
| 99>    H       -3.81872         7.39468        -2.05998
|100>    H       -3.08509         6.45198        -0.74261
|101>    H       -2.28263         6.54247        -2.33667
|102>    H        4.56540         8.85079         1.84179
|103>    H        4.03867         7.66328         0.62779
|104>    H        3.51343         7.51026         2.33870
|105>    H       -2.17389        10.90326        -0.98218
|106>    H       -2.63848        13.25536        -1.34527
|107>    H       -3.40546        19.37524        -0.66804
|108>    H        0.03517        20.94649         2.25851
|109>    H       -5.20966        25.68254        -0.55282
|110>    H       -3.75203        26.65035        -0.23433
|111>    H       -4.89601        26.27025         1.09507
|112>    H        2.18779        22.76000         4.45816
|113>    H        1.80120        22.17670         2.82307
|114>    H        0.72552        21.78023         4.20361
|115>    H       -3.15740        27.46018         1.76606
|116>    H       -3.19812        29.70960         2.40871
|117>    H       -2.44211        35.29086         5.00845
|118>    H       -0.45990        35.43034         6.71129
|119> *
|120>
|121>                          ****END OF INPUT****

CARTESIAN COORDINATES (ANGSTROEM)
---------------------------------
  C      1.699780   -2.603920    0.431470
  C      2.794660   -1.940650    0.892990
  C      2.615360   -0.544860    0.825150
  C      1.365300   -0.191410    0.303250
  S      0.423050   -1.556220   -0.098440
  C      1.268860    1.229820    0.274170
  C      2.460310    1.763200    0.780110
  C      3.349210    0.664790    1.140210
  C      4.607410    0.768190    1.660620
  C      5.206930    2.018270    1.915400
  N      5.691710    3.037590    2.121100
  C      5.388270   -0.362950    1.974840
  N      6.028080   -1.278960    2.233370
  C      2.467790    3.159280    0.802660
  C      1.288670    3.689020    0.315480
  S      0.156690    2.443240   -0.179300
  C      0.940440    5.064650    0.197550
  C      1.666850    6.143200    0.612800
  C      1.053620    7.399820    0.367370
  C     -0.219620    7.241530   -0.274560
  S     -0.566360    5.539870   -0.537590
  C     -1.041210    8.302840   -0.614680
  O     -2.254530    8.296430   -1.220950
  C     -2.876840    7.093370   -1.603010
  C     -0.567630    9.592180   -0.286600
  C      0.677250    9.746860    0.345930
  C      1.517990    8.691140    0.678680
  O      2.672030    9.084790    1.279450
  C      3.742690    8.208320    1.528080
  S      1.033430   11.417310    0.662520
  C     -0.490790   11.901990   -0.060210
  C     -1.211080   10.830120   -0.513150
  C     -0.861510   13.276180   -0.110350
  C     -1.945420   13.832160   -0.761950
  C     -2.017690   15.213850   -0.571800
  C     -0.981170   15.708970    0.234520
  S      0.087400   14.478980    0.745300
  C     -1.161440   17.108520    0.389900
  C     -2.305170   17.497970   -0.322420
  C     -2.878530   16.321650   -0.957330
  C     -3.989750   16.267050   -1.746770
  C     -4.752950   17.412130   -2.057110
  N     -5.379930   18.336410   -2.316140
  C     -4.451530   15.059010   -2.309450
  N     -4.831940   14.079040   -2.768110
  C     -2.578990   18.864010   -0.208430
  C     -1.659110   19.512060    0.588430
  S     -0.423830   18.418420    1.199890
  C     -1.641590   20.886990    0.954200
  C     -0.761520   21.501710    1.800730
  C     -1.020530   22.883640    1.997940
  C     -2.151580   23.289470    1.242900
  S     -2.851350   21.984660    0.329300
  C     -2.694260   24.567700    1.201710
  O     -3.777870   24.672220    0.389430
  C     -4.430830   25.898760    0.177650
  C     -2.065630   25.546480    1.993310
  C     -0.933830   25.140040    2.747230
  C     -0.385930   23.865130    2.781000
  O      0.703890   23.760810    3.589490
  C      1.377370   22.540420    3.763610
  S     -0.259480   26.438590    3.686610
  C     -1.487100   27.530020    3.086700
  C     -2.347930   26.920250    2.215700
  C     -1.524510   28.889300    3.514140
  C     -2.410650   29.873040    3.120310
  C     -2.155630   31.090670    3.755510
  C     -1.069410   31.030190    4.636540
  S     -0.358880   29.478540    4.684110
  C     -0.902000   32.315450    5.230270
  C     -1.881270   33.175770    4.720790
  C     -2.702210   32.441880    3.777000
  C     -3.763770   32.907530    3.055740
  C     -4.213670   34.240420    3.151760
  N     -4.584860   35.323060    3.225790
  C     -4.479710   32.081950    2.165060
  N     -5.062440   31.408970    1.441390
  C     -1.790430   34.474160    5.259890
  C     -0.765030   34.570520    6.149450
  S      0.117270   33.091670    6.357000
  H      1.551450   -3.662990    0.364860
  H      3.678250   -2.429280    1.260980
  H      3.286960    3.760440    1.150350
  H      2.613530    6.012800    1.096900
  H     -3.818720    7.394680   -2.059980
  H     -3.085090    6.451980   -0.742610
  H     -2.282630    6.542470   -2.336670
  H      4.565400    8.850790    1.841790
  H      4.038670    7.663280    0.627790
  H      3.513430    7.510260    2.338700
  H     -2.173890   10.903260   -0.982180
  H     -2.638480   13.255360   -1.345270
  H     -3.405460   19.375240   -0.668040
  H      0.035170   20.946490    2.258510
  H     -5.209660   25.682540   -0.552820
  H     -3.752030   26.650350   -0.234330
  H     -4.896010   26.270250    1.095070
  H      2.187790   22.760000    4.458160
  H      1.801200   22.176700    2.823070
  H      0.725520   21.780230    4.203610
  H     -3.157400   27.460180    1.766060
  H     -3.198120   29.709600    2.408710
  H     -2.442110   35.290860    5.008450
  H     -0.459900   35.430340    6.711290

 Total Charge           Charge          ....    0
 Multiplicity           Mult            ....    1
 Number of Electrons    NEL             ....  618
 Basis Dimension        Dim             .... 1280

ORBITAL ENERGIES
----------------

  NO   OCC          E(Eh)            E(eV)
   0   2.0000     -88.988499     -2421.5002
   1   2.0000     -88.985899     -2421.4294
   2   2.0000     -88.983726     -2421.3703
   3   2.0000     -88.983487     -2421.3638
   4   2.0000     -88.983279     -2421.3581
   5   2.0000     -88.982574     -2421.3389
   6   2.0000     -88.957051     -2420.6444
   7   2.0000     -88.950843     -2420.4755
   8   2.0000     -88.948710     -2420.4175
   9   2.0000     -88.947099     -2420.3736
  10   2.0000     -19.252246      -523.8802
  11   2.0000     -19.251082      -523.8486
  12   2.0000     -19.250886      -523.8433
  13   2.0000     -19.248488      -523.7780
  14   2.0000     -14.430055      -392.6618
  15   2.0000     -14.428022      -392.6064
  16   2.0000     -14.426035      -392.5524
  17   2.0000     -14.424986      -392.5238
  18   2.0000     -14.424591      -392.5131
  19   2.0000     -14.424024      -392.4977
  20   2.0000     -10.361648      -281.9548
  21   2.0000     -10.358183      -281.8605
  22   2.0000     -10.357755      -281.8488
  23   2.0000     -10.349894      -281.6349
  24   2.0000     -10.346166      -281.5335
  25   2.0000     -10.345717      -281.5213
  26   2.0000     -10.340904      -281.3903
  27   2.0000     -10.340699      -281.3847
  28   2.0000     -10.337016      -281.2845
  29   2.0000     -10.336578      -281.2726
  30   2.0000     -10.331071      -281.1227
  31   2.0000     -10.329110      -281.0694
  32   2.0000     -10.328685      -281.0578
  33   2.0000     -10.328550      -281.0541
  34   2.0000     -10.328530      -281.0536
  35   2.0000     -10.327238      -281.0184
  36   2.0000     -10.327073      -281.0139
  37   2.0000     -10.326305      -280.9930
  38   2.0000     -10.326023      -280.9854
  39   2.0000     -10.325535      -280.9721
  40   2.0000     -10.325303      -280.9658
  41   2.0000     -10.325209      -280.9632
  42   2.0000     -10.325000      -280.9575
  43   2.0000     -10.324360      -280.9401
  44   2.0000     -10.323864      -280.9266
  45   2.0000     -10.323376      -280.9133
  46   2.0000     -10.322908      -280.9006
  47   2.0000     -10.320132      -280.8251
  48   2.0000     -10.319567      -280.8097
  49   2.0000     -10.318808      -280.7890
  50   2.0000     -10.315779      -280.7066
  51   2.0000     -10.310034      -280.5503
  52   2.0000     -10.309839      -280.5450
  53   2.0000     -10.309822      -280.5445
  54   2.0000     -10.309701      -280.5412
  55   2.0000     -10.309113      -280.5252
  56   2.0000     -10.306201      -280.4460
  57   2.0000     -10.300044      -280.2784
  58   2.0000     -10.298399      -280.2337
  59   2.0000     -10.296866      -280.1920
  60   2.0000     -10.296137      -280.1721
  61   2.0000     -10.295981      -280.1679
  62   2.0000     -10.295838      -280.1640
  63   2.0000     -10.295703      -280.1603
  64   2.0000     -10.295193      -280.1465
  65   2.0000     -10.295193      -280.1464
  66   2.0000     -10.294540      -280.1287
  67   2.0000     -10.294068      -280.1158
  68   2.0000     -10.293654      -280.1046
  69   2.0000     -10.293437      -280.0987
  70   2.0000     -10.293237      -280.0932
  71   2.0000     -10.292861      -280.0830
  72   2.0000     -10.292673      -280.0779
  73   2.0000     -10.289126      -279.9813
  74   2.0000     -10.288445      -279.9628
  75   2.0000     -10.284854      -279.8651
  76   2.0000     -10.280082      -279.7352
  77   2.0000     -10.279911      -279.7306
  78   2.0000     -10.279372      -279.7159
  79   2.0000     -10.274549      -279.5847
  80   2.0000      -8.083257      -219.9566
  81   2.0000      -8.081033      -219.8961
  82   2.0000      -8.078421      -219.8250
  83   2.0000      -8.078026      -219.8142
  84   2.0000      -8.077963      -219.8125
  85   2.0000      -8.077617      -219.8031
  86   2.0000      -8.052318      -219.1147
  87   2.0000      -8.046000      -218.9428
  88   2.0000      -8.044144      -218.8923
  89   2.0000      -8.042170      -218.8386
  90   2.0000      -6.052530      -164.6977
  91   2.0000      -6.050292      -164.6368
  92   2.0000      -6.048289      -164.5823
  93   2.0000      -6.047674      -164.5656
  94   2.0000      -6.047270      -164.5546
  95   2.0000      -6.047232      -164.5535
  96   2.0000      -6.046888      -164.5442
  97   2.0000      -6.045836      -164.5156
  98   2.0000      -6.045613      -164.5095
  99   2.0000      -6.043606      -164.4549
 100   2.0000      -6.043445      -164.4505
 101   2.0000      -6.043156      -164.4426
 102   2.0000      -6.043031      -164.4392
 103   2.0000      -6.042421      -164.4226
 104   2.0000      -6.040817      -164.3790
 105   2.0000      -6.040373      -164.3669
 106   2.0000      -6.040300      -164.3649
 107   2.0000      -6.040220      -164.3628
 108   2.0000      -6.022281      -163.8746
 109   2.0000      -6.017958      -163.7570
 110   2.0000      -6.015718      -163.6960
 111   2.0000      -6.013870      -163.6457
 112   2.0000      -6.013252      -163.6289
 113   2.0000      -6.011902      -163.5922
 114   2.0000      -6.011567      -163.5831
 115   2.0000      -6.009728      -163.5330
 116   2.0000      -6.007774      -163.4798
 117   2.0000      -6.007297      -163.4669
 118   2.0000      -6.005330      -163.4133
 119   2.0000      -6.003346      -163.3593
 120   2.0000      -1.155941       -31.4548
 121   2.0000      -1.154744       -31.4222
 122   2.0000      -1.154695       -31.4208
 123   2.0000      -1.152270       -31.3549
 124   2.0000      -1.041337       -28.3362
 125   2.0000      -1.037752       -28.2387
 126   2.0000      -1.037310       -28.2266
 127   2.0000      -1.020508       -27.7694
 128   2.0000      -1.016699       -27.6658
 129   2.0000      -1.016286       -27.6545
 130   2.0000      -1.006717       -27.3942
 131   2.0000      -1.003512       -27.3070
 132   2.0000      -1.003014       -27.2934
 133   2.0000      -1.002088       -27.2682
 134   2.0000      -1.000194       -27.2166
 135   2.0000      -0.996622       -27.1195
 136   2.0000      -0.990781       -26.9605
 137   2.0000      -0.985409       -26.8144
 138   2.0000      -0.977130       -26.5891
 139   2.0000      -0.970766       -26.4159
 140   2.0000      -0.954417       -25.9710
 141   2.0000      -0.951393       -25.8887
 142   2.0000      -0.949088       -25.8260
 143   2.0000      -0.920024       -25.0351
 144   2.0000      -0.914800       -24.8930
 145   2.0000      -0.905300       -24.6345
 146   2.0000      -0.897694       -24.4275
 147   2.0000      -0.889901       -24.2154
 148   2.0000      -0.878302       -23.8998
 149   2.0000      -0.876422       -23.8486
 150   2.0000      -0.865914       -23.5627
 151   2.0000      -0.863694       -23.5023
 152   2.0000      -0.860076       -23.4039
 153   2.0000      -0.852065       -23.1859
 154   2.0000      -0.850513       -23.1436
 155   2.0000      -0.847767       -23.0689
 156   2.0000      -0.843110       -22.9422
 157   2.0000      -0.840983       -22.8843
 158   2.0000      -0.839166       -22.8349
 159   2.0000      -0.831227       -22.6188
 160   2.0000      -0.815992       -22.2043
 161   2.0000      -0.810376       -22.0515
 162   2.0000      -0.807109       -21.9625
 163   2.0000      -0.804075       -21.8800
 164   2.0000      -0.794221       -21.6119
 165   2.0000      -0.783115       -21.3096
 166   2.0000      -0.775288       -21.0967
 167   2.0000      -0.771120       -20.9832
 168   2.0000      -0.769548       -20.9405
 169   2.0000      -0.765190       -20.8219
 170   2.0000      -0.747350       -20.3364
 171   2.0000      -0.743399       -20.2289
 172   2.0000      -0.741633       -20.1809
 173   2.0000      -0.724093       -19.7036
 174   2.0000      -0.707235       -19.2448
 175   2.0000      -0.701865       -19.0987
 176   2.0000      -0.698704       -19.0127
 177   2.0000      -0.698055       -18.9950
 178   2.0000      -0.685210       -18.6455
 179   2.0000      -0.680189       -18.5089
 180   2.0000      -0.677939       -18.4477
 181   2.0000      -0.673386       -18.3238
 182   2.0000      -0.670538       -18.2463
 183   2.0000      -0.668470       -18.1900
 184   2.0000      -0.667195       -18.1553
 185   2.0000      -0.663022       -18.0417
 186   2.0000      -0.655881       -17.8474
 187   2.0000      -0.650618       -17.7042
 188   2.0000      -0.635254       -17.2861
 189   2.0000      -0.633341       -17.2341
 190   2.0000      -0.627005       -17.0617
 191   2.0000      -0.623128       -16.9562
 192   2.0000      -0.620536       -16.8856
 193   2.0000      -0.615698       -16.7540
 194   2.0000      -0.614152       -16.7119
 195   2.0000      -0.612242       -16.6600
 196   2.0000      -0.609925       -16.5969
 197   2.0000      -0.607929       -16.5426
 198   2.0000      -0.607655       -16.5351
 199   2.0000      -0.605746       -16.4832
 200   2.0000      -0.594036       -16.1646
 201   2.0000      -0.591808       -16.1039
 202   2.0000      -0.586518       -15.9600
 203   2.0000      -0.585273       -15.9261
 204   2.0000      -0.566839       -15.4245
 205   2.0000      -0.564692       -15.3661
 206   2.0000      -0.563303       -15.3283
 207   2.0000      -0.559985       -15.2380
 208   2.0000      -0.557628       -15.1738
 209   2.0000      -0.555673       -15.1206
 210   2.0000      -0.553185       -15.0529
 211   2.0000      -0.549544       -14.9538
 212   2.0000      -0.544146       -14.8070
 213   2.0000      -0.543745       -14.7961
 214   2.0000      -0.542057       -14.7501
 215   2.0000      -0.540633       -14.7114
 216   2.0000      -0.539808       -14.6889
 217   2.0000      -0.533990       -14.5306
 218   2.0000      -0.532869       -14.5001
 219   2.0000      -0.531241       -14.4558
 220   2.0000      -0.526373       -14.3233
 221   2.0000      -0.515467       -14.0266
 222   2.0000      -0.511889       -13.9292
 223   2.0000      -0.508004       -13.8235
 224   2.0000      -0.507061       -13.7978
 225   2.0000      -0.505647       -13.7594
 226   2.0000      -0.503388       -13.6979
 227   2.0000      -0.502586       -13.6761
 228   2.0000      -0.500052       -13.6071
 229   2.0000      -0.497771       -13.5450
 230   2.0000      -0.496934       -13.5223
 231   2.0000      -0.496155       -13.5011
 232   2.0000      -0.494200       -13.4479
 233   2.0000      -0.493518       -13.4293
 234   2.0000      -0.492145       -13.3920
 235   2.0000      -0.490611       -13.3502
 236   2.0000      -0.488843       -13.3021
 237   2.0000      -0.486654       -13.2425
 238   2.0000      -0.484210       -13.1760
 239   2.0000      -0.479253       -13.0411
 240   2.0000      -0.477672       -12.9981
 241   2.0000      -0.473515       -12.8850
 242   2.0000      -0.471462       -12.8291
 243   2.0000      -0.468162       -12.7393
 244   2.0000      -0.466588       -12.6965
 245   2.0000      -0.464008       -12.6263
 246   2.0000      -0.462678       -12.5901
 247   2.0000      -0.461255       -12.5514
 248   2.0000      -0.460098       -12.5199
 249   2.0000      -0.458631       -12.4800
 250   2.0000      -0.457318       -12.4442
 251   2.0000      -0.456830       -12.4310
 252   2.0000      -0.456047       -12.4097
 253   2.0000      -0.455243       -12.3878
 254   2.0000      -0.453837       -12.3495
 255   2.0000      -0.453043       -12.3279
 256   2.0000      -0.452670       -12.3178
 257   2.0000      -0.449540       -12.2326
 258   2.0000      -0.447554       -12.1786
 259   2.0000      -0.445680       -12.1276
 260   2.0000      -0.441619       -12.0171
 261   2.0000      -0.439938       -11.9713
 262   2.0000      -0.439531       -11.9603
 263   2.0000      -0.439285       -11.9536
 264   2.0000      -0.438184       -11.9236
 265   2.0000      -0.437576       -11.9070
 266   2.0000      -0.437343       -11.9007
 267   2.0000      -0.436093       -11.8667
 268   2.0000      -0.434916       -11.8347
 269   2.0000      -0.434045       -11.8110
 270   2.0000      -0.433727       -11.8023
 271   2.0000      -0.433063       -11.7842
 272   2.0000      -0.427987       -11.6461
 273   2.0000      -0.425529       -11.5792
 274   2.0000      -0.424715       -11.5571
 275   2.0000      -0.422727       -11.5030
 276   2.0000      -0.422165       -11.4877
 277   2.0000      -0.420716       -11.4483
 278   2.0000      -0.419040       -11.4027
 279   2.0000      -0.417967       -11.3735
 280   2.0000      -0.408093       -11.1048
 281   2.0000      -0.403974       -10.9927
 282   2.0000      -0.403645       -10.9837
 283   2.0000      -0.403094       -10.9688
 284   2.0000      -0.400640       -10.9020
 285   2.0000      -0.398819       -10.8524
 286   2.0000      -0.395764       -10.7693
 287   2.0000      -0.380430       -10.3520
 288   2.0000      -0.377607       -10.2752
 289   2.0000      -0.373349       -10.1593
 290   2.0000      -0.354706        -9.6521
 291   2.0000      -0.348051        -9.4710
 292   2.0000      -0.344303        -9.3690
 293   2.0000      -0.342968        -9.3326
 294   2.0000      -0.341842        -9.3020
 295   2.0000      -0.339735        -9.2447
 296   2.0000      -0.335881        -9.1398
 297   2.0000      -0.328439        -8.9373
 298   2.0000      -0.321214        -8.7407
 299   2.0000      -0.320060        -8.7093
 300   2.0000      -0.317723        -8.6457
 301   2.0000      -0.316035        -8.5997
 302   2.0000      -0.313825        -8.5396
 303   2.0000      -0.293283        -7.9806
 304   2.0000      -0.267136        -7.2692
 305   2.0000      -0.260907        -7.0996
 306   2.0000      -0.252961        -6.8834
 307   2.0000      -0.233163        -6.3447
 308   2.0000      -0.224147        -6.0993
 309   0.0000      -0.101225        -2.7545
 310   0.0000      -0.098214        -2.6725
 311   0.0000      -0.096307        -2.6206
 312   0.0000      -0.049644        -1.3509
 313   0.0000      -0.038919        -1.0590

MULLIKEN ATOMIC CHARGES
-----------------------
   0 C :   -0.083823
   1 C :    0.036925
   2 C :   -0.035931
   3 C :   -0.116491
   4 S :    0.179416
   5 C :   -0.103722
   6 C :    0.005305
   7 C :    0.303387
   8 C :   -0.299753
   9 C :   -0.178633
  10 N :    0.158128
  11 C :   -0.191475
  12 N :    0.173250
  13 C :   -0.051798
  14 C :   -0.046726
  15 S :    0.187494
  16 C :    0.001316
  17 C :   -0.096886
  18 C :    0.066034
  19 C :   -0.134993
  20 S :    0.062353
  21 C :    0.122012
  22 O :   -0.308419
  23 C :    0.168774
  24 C :    0.062578
  25 C :   -0.113823
  26 C :    0.128437
  27 O :   -0.314949
  28 C :    0.186620
  29 S :    0.130694
  30 C :   -0.023342
  31 C :   -0.071563
  32 C :   -0.042314
  33 C :   -0.048691
  34 C :    0.007302
  35 C :   -0.104272
  36 S :    0.189023
  37 C :   -0.097667
  38 C :    0.016383
  39 C :    0.303545
  40 C :   -0.299883
  41 C :   -0.190521
  42 N :    0.173388
  43 C :   -0.187255
  44 N :    0.170794
  45 C :   -0.064655
  46 C :   -0.044048
  47 S :    0.168399
  48 C :   -0.000494
  49 C :   -0.139691
  50 C :    0.083070
  51 C :   -0.148782
  52 S :    0.150477
  53 C :    0.137392
  54 O :   -0.311668
  55 C :    0.184296
  56 C :    0.078832
  57 C :   -0.143860
  58 C :    0.132612
  59 O :   -0.314782
  60 C :    0.184952
  61 S :    0.133853
  62 C :   -0.005855
  63 C :   -0.121756
  64 C :   -0.046566
  65 C :   -0.053808
  66 C :    0.010034
  67 C :   -0.104657
  68 S :    0.190507
  69 C :   -0.118071
  70 C :   -0.035889
  71 C :    0.301324
  72 C :   -0.299120
  73 C :   -0.191425
  74 N :    0.171943
  75 C :   -0.183089
  76 N :    0.160348
  77 C :    0.037690
  78 C :   -0.083300
  79 S :    0.178156
  80 H :    0.036413
  81 H :    0.011290
  82 H :   -0.000134
  83 H :   -0.039172
  84 H :    0.042326
  85 H :    0.035328
  86 H :    0.036787
  87 H :    0.037894
  88 H :    0.031876
  89 H :    0.036321
  90 H :   -0.012398
  91 H :    0.006009
  92 H :    0.014450
  93 H :   -0.034899
  94 H :    0.041571
  95 H :    0.032466
  96 H :    0.032832
  97 H :    0.037775
  98 H :    0.029546
  99 H :    0.030375
 100 H :   -0.035052
 101 H :    0.000370
 102 H :    0.011211
 103 H :    0.034216
Sum of atomic charges:   -0.0000000

LOEWDIN ATOMIC CHARGES
----------------------
   0 C :   -0.179951
   1 C :   -0.033735
   2 C :   -0.080922
   3 C :   -0.180665
   4 S :    0.475495
   5 C :   -0.187177
   6 C :   -0.069227
   7 C :    0.085978
   8 C :   -0.107229
   9 C :   -0.013113
  10 N :   -0.042672
  11 C :   -0.017474
  12 N :   -0.034312
  13 C :   -0.029058
  14 C :   -0.178091
  15 S :    0.472330
  16 C :   -0.180354
  17 C :   -0.054061
  18 C :   -0.071558
  19 C :   -0.183286
  20 S :    0.384611
  21 C :    0.027201
  22 O :   -0.101310
  23 C :    0.064579
  24 C :   -0.059094
  25 C :   -0.171623
  26 C :    0.025631
  27 O :   -0.107773
  28 C :    0.079875
  29 S :    0.403418
  30 C :   -0.175078
  31 C :   -0.039436
  32 C :   -0.176710
  33 C :   -0.026452
  34 C :   -0.069085
  35 C :   -0.187321
  36 S :    0.472240
  37 C :   -0.176987
  38 C :   -0.073605
  39 C :    0.084351
  40 C :   -0.103600
  41 C :   -0.017527
  42 N :   -0.032264
  43 C :   -0.015602
  44 N :   -0.036554
  45 C :   -0.033743
  46 C :   -0.175876
  47 S :    0.468365
  48 C :   -0.171839
  49 C :   -0.076091
  50 C :   -0.071528
  51 C :   -0.171756
  52 S :    0.425708
  53 C :    0.023102
  54 O :   -0.106263
  55 C :    0.080052
  56 C :   -0.072277
  57 C :   -0.171465
  58 C :    0.020306
  59 O :   -0.109329
  60 C :    0.078736
  61 S :    0.403290
  62 C :   -0.176925
  63 C :   -0.058902
  64 C :   -0.177420
  65 C :   -0.029814
  66 C :   -0.069697
  67 C :   -0.187701
  68 S :    0.475507
  69 C :   -0.180279
  70 C :   -0.081319
  71 C :    0.086132
  72 C :   -0.107985
  73 C :   -0.017250
  74 N :   -0.035670
  75 C :   -0.013762
  76 N :   -0.042266
  77 C :   -0.034015
  78 C :   -0.181109
  79 S :    0.474864
  80 H :    0.027359
  81 H :    0.042379
  82 H :    0.037608
  83 H :    0.027483
  84 H :    0.032699
  85 H :    0.012349
  86 H :    0.012564
  87 H :    0.031920
  88 H :    0.018649
  89 H :    0.017481
  90 H :    0.034122
  91 H :    0.040142
  92 H :    0.037902
  93 H :    0.016977
  94 H :    0.033062
  95 H :    0.018116
  96 H :    0.017571
  97 H :    0.031087
  98 H :    0.016442
  99 H :    0.016687
 100 H :    0.026336
 101 H :    0.037574
 102 H :    0.042208
 103 H :    0.026703

  Mayer bond orders larger than 0.100000
B(  0-C ,  1-C ) :   1.5545 B(  0-C ,  4-S ) :   1.1443 B(  0-C , 80-H ) :   0.9646
B(  1-C ,  2-C ) :   1.2731 B(  1-C , 81-H ) :   0.9957 B(  2-C ,  3-C ) :   1.4566
B(  2-C ,  7-C ) :   1.0200 B(  3-C ,  4-S ) :   1.1397 B(  3-C ,  5-C ) :   1.1801
B(  5-C ,  6-C ) :   1.4616 B(  5-C , 15-S ) :   1.1216 B(  6-C ,  7-C ) :   0.9938
B(  6-C , 13-C ) :   1.2849 B(  7-C ,  8-C ) :   1.7044 B(  8-C ,  9-C ) :   1.1346
B(  8-C , 11-C ) :   1.1307 B(  9-C , 10-N ) :   2.9813 B( 11-C , 12-N ) :   3.0029
B( 13-C , 14-C ) :   1.4960 B( 13-C , 82-H ) :   0.9916 B( 14-C , 15-S ) :   1.1065
B( 14-C , 16-C ) :   1.1006 B( 16-C , 17-C ) :   1.6114 B( 16-C , 20-S ) :   1.0450
B( 17-C , 18-C ) :   1.1503 B( 17-C , 83-H ) :   0.9922 B( 18-C , 19-C ) :   1.2612
B( 18-C , 26-C ) :   1.2344 B( 19-C , 20-S ) :   1.0032 B( 19-C , 21-C ) :   1.4024
B( 21-C , 22-O ) :   1.2272 B( 21-C , 24-C ) :   1.2626 B( 22-O , 23-C ) :   0.9448
B( 23-C , 84-H ) :   0.9752 B( 23-C , 85-H ) :   0.9669 B( 23-C , 86-H ) :   0.9666
B( 24-C , 25-C ) :   1.3797 B( 24-C , 31-C ) :   1.1760 B( 25-C , 26-C ) :   1.3899
B( 25-C , 29-S ) :   1.0410 B( 26-C , 27-O ) :   1.2573 B( 27-O , 28-C ) :   0.9472
B( 28-C , 87-H ) :   0.9731 B( 28-C , 88-H ) :   0.9678 B( 28-C , 89-H ) :   0.9678
B( 29-S , 30-C ) :   1.0590 B( 30-C , 31-C ) :   1.5693 B( 30-C , 32-C ) :   1.1007
B( 31-C , 90-H ) :   1.0070 B( 32-C , 33-C ) :   1.4959 B( 32-C , 36-S ) :   1.1052
B( 33-C , 34-C ) :   1.2825 B( 33-C , 91-H ) :   0.9960 B( 34-C , 35-C ) :   1.4481
B( 34-C , 39-C ) :   0.9933 B( 35-C , 36-S ) :   1.1186 B( 35-C , 37-C ) :   1.1820
B( 37-C , 38-C ) :   1.4536 B( 37-C , 47-S ) :   1.1222 B( 38-C , 39-C ) :   0.9966
B( 38-C , 45-C ) :   1.2752 B( 39-C , 40-C ) :   1.7116 B( 40-C , 41-C ) :   1.1332
B( 40-C , 43-C ) :   1.1335 B( 41-C , 42-N ) :   2.9945 B( 43-C , 44-N ) :   2.9917
B( 45-C , 46-C ) :   1.4783 B( 45-C , 92-H ) :   0.9929 B( 46-C , 47-S ) :   1.0971
B( 46-C , 48-C ) :   1.1461 B( 48-C , 49-C ) :   1.5750 B( 48-C , 52-S ) :   1.0697
B( 49-C , 50-C ) :   1.1568 B( 49-C , 93-H ) :   0.9901 B( 50-C , 51-C ) :   1.3258
B( 50-C , 58-C ) :   1.2065 B( 51-C , 52-S ) :   1.0384 B( 51-C , 53-C ) :   1.4121
B( 53-C , 54-O ) :   1.2602 B( 53-C , 56-C ) :   1.2053 B( 54-O , 55-C ) :   0.9472
B( 55-C , 94-H ) :   0.9736 B( 55-C , 95-H ) :   0.9685 B( 55-C , 96-H ) :   0.9689
B( 56-C , 57-C ) :   1.3262 B( 56-C , 63-C ) :   1.1455 B( 57-C , 58-C ) :   1.4180
B( 57-C , 61-S ) :   1.0399 B( 58-C , 59-O ) :   1.2516 B( 59-O , 60-C ) :   0.9530
B( 60-C , 97-H ) :   0.9741 B( 60-C , 98-H ) :   0.9688 B( 60-C , 99-H ) :   0.9686
B( 61-S , 62-C ) :   1.0543 B( 62-C , 63-C ) :   1.6090 B( 62-C , 64-C ) :   1.0977
B( 63-C ,100-H ) :   0.9961 B( 64-C , 65-C ) :   1.4979 B( 64-C , 68-S ) :   1.1084
B( 65-C , 66-C ) :   1.2815 B( 65-C ,101-H ) :   0.9934 B( 66-C , 67-C ) :   1.4610
B( 66-C , 71-C ) :   0.9943 B( 67-C , 68-S ) :   1.1227 B( 67-C , 69-C ) :   1.1794
B( 69-C , 70-C ) :   1.4599 B( 69-C , 79-S ) :   1.1399 B( 70-C , 71-C ) :   1.0184
B( 70-C , 77-C ) :   1.2746 B( 71-C , 72-C ) :   1.7038 B( 72-C , 73-C ) :   1.1289
B( 72-C , 75-C ) :   1.1366 B( 73-C , 74-N ) :   3.0035 B( 75-C , 76-N ) :   2.9835
B( 77-C , 78-C ) :   1.5530 B( 77-C ,102-H ) :   0.9956 B( 78-C , 79-S ) :   1.1443
B( 78-C ,103-H ) :   0.9643

-----------------------------------------------------------------------------
         ABSORPTION SPECTRUM VIA TRANSITION ELECTRIC DIPOLE MOMENTS
-----------------------------------------------------------------------------
State   Energy  Wavelength   fosc         T2         TX        TY        TZ
        (cm-1)    (nm)                  (au**2)     (au)      (au)      (au)
-----------------------------------------------------------------------------
   0   11262.6    887.9   0.263112401   7.69093  -0.28306   2.73918   0.32817
   1   12755.6    784.0   0.113589922   2.93167   0.28216  -1.68703   0.07737
   2   13261.1    754.1   0.108564356   2.69515   0.12481   1.52024   0.60699
   3   16806.7    595.0   0.012557425   0.24598  -0.18135   0.42710  -0.17515
   4   18472.4    541.3   0.117732003   2.09820   0.01613   1.42982   0.23145
   5   18652.9    536.1   0.012509602   0.22079   0.12303   0.39514   0.22252
   6   18934.8    528.1   0.003010771   0.05235   0.00134  -0.22765   0.02280
   7   22273.9    449.0   0.344889599   5.09751   0.24917  -2.22914  -0.25762
   8   22760.0    439.4   0.440170575   6.36685   0.11500  -2.48537  -0.42020
   9   23567.2    424.3   2.077556941  29.02153  -0.24085   5.32454   0.78278
  10   24298.7    411.5   0.121769473   1.64980   0.06394   1.24799   0.29703
  11   25122.7    398.0   0.196279611   2.57208  -0.71910  -0.75196  -1.22047
  12   25600.2    390.6   0.016936133   0.21779  -0.20897   0.41723  -0.00690
  13   26413.7    378.6   0.093947083   1.17093   0.39670  -1.00654   0.02070
  14   26564.0    376.4   0.025389811   0.31466  -0.37463   0.35451  -0.22053
  15   28366.6    352.5   0.357754990   4.15197   0.69732  -1.91416  -0.04124
  16   29036.2    344.4   0.024205751   0.27444  -0.11763  -0.44883  -0.24323
  17   29558.4    338.3   0.090042308   1.00286  -0.72984   0.33000  -0.60108
  18   29884.9    334.6   0.001355003   0.01493  -0.09394  -0.07371  -0.02586
  19   30314.8    329.9   0.349613846   3.79672  -0.72527   1.80845  -0.01444
  20   30441.9    328.5   0.207344450   2.24232  -0.20042   1.44418   0.34131
  21   31128.2    321.3   0.284244950   3.00617   1.31471  -0.78016   0.81796
  22   31331.3    319.2   0.088009605   0.92476  -0.67781  -0.18540  -0.65647
  23   32194.2    310.6   0.179902553   1.83965   0.75228  -0.81368   0.78208
  24   32311.5    309.5   1.013620893  10.32746   2.75203  -0.99067   1.33130
  25   32418.9    308.5   0.046320512   0.47038  -0.31889  -0.10303  -0.59839
  26   32683.4    306.0   1.008204015  10.15539  -2.09563  -2.00467  -1.32099
  27   32865.5    304.3   0.012383892   0.12405  -0.28896   0.19023  -0.06605
  28   33148.2    301.7   0.201508513   2.00128   1.10468  -0.16833   0.86755
  29   33301.0    300.3   0.151365548   1.49639  -0.57348  -0.79801  -0.72849
  30   34180.6    292.6   0.253078018   2.43753  -0.64038   1.39878  -0.26619
  31   34413.9    290.6   0.161779819   1.54762   0.07149  -1.19513  -0.33791
  32   34546.0    289.5   0.037316573   0.35561  -0.03577  -0.55851  -0.20592
  33   35104.3    284.9   0.021483001   0.20147   0.37265  -0.01737   0.24960
  34   35523.5    281.5   0.093605341   0.86748   0.83103   0.23367   0.34966
  35   35591.9    281.0   0.006792238   0.06283   0.21024  -0.11006   0.08069
  36   35742.5    279.8   0.141283997   1.30132   0.82045  -0.68558   0.39771
  37   35890.4    278.6   0.013228440   0.12134   0.21403  -0.09037   0.25955
  38   36727.7    272.3   0.028569964   0.25609  -0.06277  -0.47971  -0.14840
  39   37225.0    268.6   0.008536271   0.07549   0.18295  -0.04396   0.20022
  40   37660.7    265.5   0.009184263   0.08028  -0.17411   0.22292   0.01667
  41   38075.9    262.6   0.016808223   0.14533  -0.03482  -0.33712  -0.17454
  42   38161.8    262.0   0.036867648   0.31805  -0.02914   0.55775   0.07815
  43   38341.8    260.8   0.060082521   0.51588  -0.00310   0.69075   0.19683
  44   38850.1    257.4   0.137213648   1.16273  -0.68628   0.82120  -0.13186
  45   39093.7    255.8   0.213009585   1.79378   0.25059  -1.31543  -0.02506
  46   39807.6    251.2   0.070378899   0.58204  -0.21057   0.73275  -0.02789
  47   39915.6    250.5   0.042990383   0.35457  -0.26623  -0.40057  -0.35105
  48   39964.4    250.2   0.018410469   0.15166   0.23356   0.22270   0.21798
  49   40168.2    249.0   0.053511245   0.43857  -0.18965  -0.55410  -0.30916

FINAL SINGLE POINT ENERGY     -6907.059218127503

DIPOLE MOMENT
-------------
                                X             Y             Z
Electronic contribution:      0.11728       4.05921       2.73021
Nuclear contribution   :      1.32548      -5.94657      -1.37119
                        -----------------------------------------
Total Dipole Moment    :      1.44276      -1.88736       1.35902
                        -----------------------------------------
Magnitude (a.u.)       :      2.73690
Magnitude (Debye)      :      6.95665

Rotational constants in cm-1:     0.002200     0.000105     0.000101
Rotational constants in MHz :    65.965345     3.160589     3.027849

                             ****ORCA TERMINATED NORMALLY****
TOTAL RUN TIME: 0 days 0 hours 10 minutes 16 seconds 848 msec
