                         Program Version 4.2.0 -  RELEASE  -
|  1> # ORCA input file
|  2> # SCF done       -171.869873259450          0.000637389635
|  3> ! CAM-B3LYP def2-SVP def2/J RIJCOSX Grid4 TightSCF
|  4> %maxcore 5000
|  5> %tddft
|  6>     Mode sTDDFT
|  7>     Ethresh 5.0
|  8>     maxcore 5000
|  9> end
| 10>
| 11> %pal
| 12>   nprocs 6
| 13>   end
| 14> * xyz 0 1
| 15>    C       -0.86541         0.93291         0.74186
| 16>    C       -2.17998         1.30764         0.86029
| 17>    C       -3.10233         0.67239         1.71686
| 18>    N       -3.89640         0.18817         2.38937
| 19>    C       -2.78738         2.30334         0.07257
| 20>    N       -3.32949         3.09051        -0.56453
| 21>    C       -0.27369        -0.23833         1.38083
| 22>    C        0.90307        -0.60073         0.66286
| 23>    C        1.65476        -1.68248         1.01994
| 24>    C        1.26407        -2.45398         2.13826
| 25>    C        0.09974        -2.08383         2.87128
| 26>    C       -0.66527        -0.96313         2.47302
| 27>    C       -0.27182        -2.85469         3.99115
| 28>    C        0.46788        -3.94201         4.36929
| 29>    C        1.61332        -4.30677         3.64654
| 30>    C        2.00255        -3.57897         2.55478
| 31>    C        1.12752         0.37204        -0.42149
| 32>    O        1.98987         0.36147        -1.27102
| 33>    C        0.09534         1.42783        -0.21906
| 34>    C        0.25193         2.62979        -0.84484
| 35>    C       -0.31951         3.87166        -0.50278
| 36>    C       -0.88818         4.26272         0.70142
| 37>    C       -1.30565         5.58516         0.68415
| 38>    C       -1.05608         6.22670        -0.54906
| 39>    S       -0.28586         5.19822        -1.66494
| 40>    C       -1.53608         7.55352        -0.46363
| 41>    C       -2.08820         7.75478         0.81420
| 42>    C       -1.96729         6.51916         1.57412
| 43>    C       -2.40123         6.27389         2.84408
| 44>    C       -3.04058         7.25729         3.62695
| 45>    N       -3.55518         8.05537         4.26951
| 46>    C       -2.22615         5.01188         3.44991
| 47>    N       -2.06975         3.98536         3.93679
| 48>    C       -2.58719         9.04098         0.99863
| 49>    C       -2.42217         9.82910        -0.12862
| 50>    S       -1.63858         8.95805        -1.43777
| 51>    C       -2.80046        11.18346        -0.28747
| 52>    C       -2.65346        11.97557        -1.40980
| 53>    C       -3.13527        13.26634        -1.19253
| 54>    C       -3.65538        13.46261         0.10897
| 55>    S       -3.54585        12.03421         1.06423
| 56>    C       -4.08682        14.78460         0.17037
| 57>    C       -3.81996        15.35991        -1.09251
| 58>    N       -3.23297        14.43017        -1.90847
| 59>    C       -2.85092        14.61401        -3.28073
| 60>    C       -4.19985        16.70175        -1.18408
| 61>    C       -4.75155        17.15516        -0.00484
| 62>    S       -4.81212        15.91873         1.24739
| 63>    C       -5.24563        18.45560         0.27437
| 64>    C       -5.80061        18.90109         1.45432
| 65>    C       -6.17744        20.24452         1.37153
| 66>    C       -5.90665        20.83128         0.11475
| 67>    S       -5.17909        19.70255        -0.96849
| 68>    C       -6.33564        22.15408         0.19154
| 69>    C       -6.85721        22.33561         1.49556
| 70>    N       -6.75203        21.16683         2.20093
| 71>    C       -7.17401        20.93697         3.55484
| 72>    C       -7.33610        23.62378         1.73348
| 73>    C       -7.18641        24.43073         0.62656
| 74>    S       -6.44173        23.59657        -0.74006
| 75>    C       -7.55011        25.79562         0.47488
| 76>    C       -8.15129        26.70117         1.35653
| 77>    O       -8.28289        27.89298         0.71558
| 78>    N       -7.79743        27.79649        -0.52775
| 79>    C       -7.36295        26.58514        -0.69807
| 80>    C       -8.63815        26.65945         2.71349
| 81>    O       -8.61936        25.70791         3.46221
| 82>    H        2.53977        -1.94575         0.45990
| 83>    H       -1.53496        -0.69509         3.05234
| 84>    H       -1.15608        -2.57071         4.54247
| 85>    H        0.17413        -4.52719         5.22787
| 86>    H        2.18635        -5.16689         3.95932
| 87>    H        2.88421        -3.85511         1.99492
| 88>    H        0.97054         2.63443        -1.65852
| 89>    H       -0.94480         3.61602         1.55788
| 90>    H       -3.04979         9.40684         1.89757
| 91>    H       -2.22045        11.61211        -2.32426
| 92>    H       -2.67501        15.67200        -3.46663
| 93>    H       -3.63359        14.26059        -3.95867
| 94>    H       -1.93441        14.05972        -3.48322
| 95>    H       -4.09262        17.32956        -2.04990
| 96>    H       -5.91769        18.27010         2.31640
| 97>    H       -7.55643        21.86644         3.97013
| 98>    H       -6.33331        20.59315         4.16147
| 99>    H       -7.96179        20.18045         3.58746
|100>    H       -7.77350        23.97932         2.64799
|101>    H       -6.92842        26.28199        -1.62930
|102>    H       -9.05873        27.63101         3.02673
|103> *
|104>
|105>                          ****END OF INPUT****

CARTESIAN COORDINATES (ANGSTROEM)
---------------------------------
  C     -0.865410    0.932910    0.741860
  C     -2.179980    1.307640    0.860290
  C     -3.102330    0.672390    1.716860
  N     -3.896400    0.188170    2.389370
  C     -2.787380    2.303340    0.072570
  N     -3.329490    3.090510   -0.564530
  C     -0.273690   -0.238330    1.380830
  C      0.903070   -0.600730    0.662860
  C      1.654760   -1.682480    1.019940
  C      1.264070   -2.453980    2.138260
  C      0.099740   -2.083830    2.871280
  C     -0.665270   -0.963130    2.473020
  C     -0.271820   -2.854690    3.991150
  C      0.467880   -3.942010    4.369290
  C      1.613320   -4.306770    3.646540
  C      2.002550   -3.578970    2.554780
  C      1.127520    0.372040   -0.421490
  O      1.989870    0.361470   -1.271020
  C      0.095340    1.427830   -0.219060
  C      0.251930    2.629790   -0.844840
  C     -0.319510    3.871660   -0.502780
  C     -0.888180    4.262720    0.701420
  C     -1.305650    5.585160    0.684150
  C     -1.056080    6.226700   -0.549060
  S     -0.285860    5.198220   -1.664940
  C     -1.536080    7.553520   -0.463630
  C     -2.088200    7.754780    0.814200
  C     -1.967290    6.519160    1.574120
  C     -2.401230    6.273890    2.844080
  C     -3.040580    7.257290    3.626950
  N     -3.555180    8.055370    4.269510
  C     -2.226150    5.011880    3.449910
  N     -2.069750    3.985360    3.936790
  C     -2.587190    9.040980    0.998630
  C     -2.422170    9.829100   -0.128620
  S     -1.638580    8.958050   -1.437770
  C     -2.800460   11.183460   -0.287470
  C     -2.653460   11.975570   -1.409800
  C     -3.135270   13.266340   -1.192530
  C     -3.655380   13.462610    0.108970
  S     -3.545850   12.034210    1.064230
  C     -4.086820   14.784600    0.170370
  C     -3.819960   15.359910   -1.092510
  N     -3.232970   14.430170   -1.908470
  C     -2.850920   14.614010   -3.280730
  C     -4.199850   16.701750   -1.184080
  C     -4.751550   17.155160   -0.004840
  S     -4.812120   15.918730    1.247390
  C     -5.245630   18.455600    0.274370
  C     -5.800610   18.901090    1.454320
  C     -6.177440   20.244520    1.371530
  C     -5.906650   20.831280    0.114750
  S     -5.179090   19.702550   -0.968490
  C     -6.335640   22.154080    0.191540
  C     -6.857210   22.335610    1.495560
  N     -6.752030   21.166830    2.200930
  C     -7.174010   20.936970    3.554840
  C     -7.336100   23.623780    1.733480
  C     -7.186410   24.430730    0.626560
  S     -6.441730   23.596570   -0.740060
  C     -7.550110   25.795620    0.474880
  C     -8.151290   26.701170    1.356530
  O     -8.282890   27.892980    0.715580
  N     -7.797430   27.796490   -0.527750
  C     -7.362950   26.585140   -0.698070
  C     -8.638150   26.659450    2.713490
  O     -8.619360   25.707910    3.462210
  H      2.539770   -1.945750    0.459900
  H     -1.534960   -0.695090    3.052340
  H     -1.156080   -2.570710    4.542470
  H      0.174130   -4.527190    5.227870
  H      2.186350   -5.166890    3.959320
  H      2.884210   -3.855110    1.994920
  H      0.970540    2.634430   -1.658520
  H     -0.944800    3.616020    1.557880
  H     -3.049790    9.406840    1.897570
  H     -2.220450   11.612110   -2.324260
  H     -2.675010   15.672000   -3.466630
  H     -3.633590   14.260590   -3.958670
  H     -1.934410   14.059720   -3.483220
  H     -4.092620   17.329560   -2.049900
  H     -5.917690   18.270100    2.316400
  H     -7.556430   21.866440    3.970130
  H     -6.333310   20.593150    4.161470
  H     -7.961790   20.180450    3.587460
  H     -7.773500   23.979320    2.647990
  H     -6.928420   26.281990   -1.629300
  H     -9.058730   27.631010    3.026730

 Total Charge           Charge          ....    0
 Multiplicity           Mult            ....    1
 Number of Electrons    NEL             ....  496
 Basis Dimension        Dim             .... 1067

ORBITAL ENERGIES
----------------

  NO   OCC          E(Eh)            E(eV)
   0   2.0000     -88.991183     -2421.5732
   1   2.0000     -88.989709     -2421.5331
   2   2.0000     -88.964372     -2420.8436
   3   2.0000     -88.960137     -2420.7284
   4   2.0000     -88.959446     -2420.7096
   5   2.0000     -88.958877     -2420.6941
   6   2.0000     -19.319013      -525.6971
   7   2.0000     -19.225489      -523.1521
   8   2.0000     -19.207886      -522.6732
   9   2.0000     -14.473796      -393.8520
  10   2.0000     -14.472393      -393.8138
  11   2.0000     -14.468824      -393.7167
  12   2.0000     -14.429796      -392.6547
  13   2.0000     -14.428839      -392.6287
  14   2.0000     -14.411086      -392.1456
  15   2.0000     -14.406395      -392.0180
  16   2.0000     -10.371798      -282.2310
  17   2.0000     -10.363991      -282.0185
  18   2.0000     -10.359646      -281.9003
  19   2.0000     -10.350925      -281.6630
  20   2.0000     -10.341514      -281.4069
  21   2.0000     -10.340422      -281.3772
  22   2.0000     -10.335736      -281.2497
  23   2.0000     -10.335153      -281.2338
  24   2.0000     -10.331610      -281.1374
  25   2.0000     -10.329975      -281.0929
  26   2.0000     -10.328980      -281.0658
  27   2.0000     -10.328964      -281.0654
  28   2.0000     -10.328466      -281.0518
  29   2.0000     -10.321350      -280.8582
  30   2.0000     -10.321175      -280.8535
  31   2.0000     -10.319383      -280.8047
  32   2.0000     -10.317409      -280.7510
  33   2.0000     -10.315310      -280.6939
  34   2.0000     -10.314607      -280.6747
  35   2.0000     -10.314443      -280.6703
  36   2.0000     -10.314317      -280.6668
  37   2.0000     -10.313934      -280.6564
  38   2.0000     -10.313110      -280.6340
  39   2.0000     -10.312577      -280.6195
  40   2.0000     -10.310522      -280.5636
  41   2.0000     -10.309241      -280.5287
  42   2.0000     -10.309229      -280.5284
  43   2.0000     -10.307989      -280.4946
  44   2.0000     -10.307817      -280.4900
  45   2.0000     -10.307222      -280.4738
  46   2.0000     -10.302028      -280.3324
  47   2.0000     -10.301475      -280.3174
  48   2.0000     -10.298701      -280.2419
  49   2.0000     -10.298286      -280.2306
  50   2.0000     -10.297529      -280.2100
  51   2.0000     -10.296697      -280.1874
  52   2.0000     -10.295800      -280.1630
  53   2.0000     -10.294630      -280.1311
  54   2.0000     -10.292510      -280.0734
  55   2.0000     -10.291849      -280.0554
  56   2.0000     -10.291597      -280.0486
  57   2.0000     -10.291167      -280.0369
  58   2.0000     -10.290080      -280.0073
  59   2.0000     -10.286119      -279.8995
  60   2.0000     -10.284680      -279.8604
  61   2.0000     -10.283276      -279.8222
  62   2.0000     -10.281240      -279.7668
  63   2.0000     -10.280758      -279.7537
  64   2.0000     -10.280337      -279.7422
  65   2.0000     -10.280129      -279.7365
  66   2.0000     -10.279613      -279.7225
  67   2.0000      -8.085803      -220.0259
  68   2.0000      -8.084196      -219.9822
  69   2.0000      -8.058930      -219.2946
  70   2.0000      -8.054773      -219.1815
  71   2.0000      -8.054022      -219.1611
  72   2.0000      -8.053618      -219.1501
  73   2.0000      -6.054985      -164.7645
  74   2.0000      -6.053504      -164.7242
  75   2.0000      -6.050837      -164.6516
  76   2.0000      -6.049413      -164.6129
  77   2.0000      -6.048277      -164.5820
  78   2.0000      -6.046390      -164.5306
  79   2.0000      -6.028660      -164.0482
  80   2.0000      -6.024610      -163.9380
  81   2.0000      -6.024542      -163.9361
  82   2.0000      -6.023799      -163.9159
  83   2.0000      -6.023344      -163.9035
  84   2.0000      -6.020470      -163.8253
  85   2.0000      -6.020201      -163.8180
  86   2.0000      -6.019738      -163.8054
  87   2.0000      -6.019288      -163.7931
  88   2.0000      -6.016025      -163.7044
  89   2.0000      -6.015271      -163.6838
  90   2.0000      -6.014944      -163.6750
  91   2.0000      -1.260129       -34.2899
  92   2.0000      -1.136230       -30.9184
  93   2.0000      -1.122936       -30.5566
  94   2.0000      -1.100233       -29.9389
  95   2.0000      -1.095785       -29.8178
  96   2.0000      -1.045447       -28.4481
  97   2.0000      -1.021167       -27.7874
  98   2.0000      -1.012905       -27.5625
  99   2.0000      -1.006853       -27.3979
 100   2.0000      -1.001755       -27.2592
 101   2.0000      -0.992585       -27.0096
 102   2.0000      -0.989847       -26.9351
 103   2.0000      -0.986480       -26.8435
 104   2.0000      -0.981349       -26.7039
 105   2.0000      -0.979852       -26.6631
 106   2.0000      -0.966272       -26.2936
 107   2.0000      -0.965673       -26.2773
 108   2.0000      -0.964124       -26.2351
 109   2.0000      -0.956244       -26.0207
 110   2.0000      -0.923049       -25.1174
 111   2.0000      -0.917980       -24.9795
 112   2.0000      -0.913856       -24.8673
 113   2.0000      -0.898854       -24.4590
 114   2.0000      -0.891253       -24.2522
 115   2.0000      -0.878221       -23.8976
 116   2.0000      -0.875607       -23.8265
 117   2.0000      -0.873094       -23.7581
 118   2.0000      -0.861627       -23.4461
 119   2.0000      -0.858584       -23.3633
 120   2.0000      -0.848086       -23.0776
 121   2.0000      -0.844543       -22.9812
 122   2.0000      -0.840052       -22.8590
 123   2.0000      -0.835605       -22.7380
 124   2.0000      -0.825353       -22.4590
 125   2.0000      -0.822441       -22.3798
 126   2.0000      -0.812222       -22.1017
 127   2.0000      -0.799236       -21.7483
 128   2.0000      -0.788082       -21.4448
 129   2.0000      -0.777399       -21.1541
 130   2.0000      -0.769236       -20.9320
 131   2.0000      -0.762210       -20.7408
 132   2.0000      -0.757108       -20.6020
 133   2.0000      -0.752625       -20.4800
 134   2.0000      -0.735005       -20.0005
 135   2.0000      -0.722300       -19.6548
 136   2.0000      -0.711386       -19.3578
 137   2.0000      -0.702670       -19.1206
 138   2.0000      -0.701600       -19.0915
 139   2.0000      -0.696200       -18.9446
 140   2.0000      -0.693809       -18.8795
 141   2.0000      -0.685387       -18.6503
 142   2.0000      -0.679722       -18.4962
 143   2.0000      -0.669169       -18.2090
 144   2.0000      -0.657670       -17.8961
 145   2.0000      -0.652421       -17.7533
 146   2.0000      -0.651215       -17.7205
 147   2.0000      -0.646348       -17.5880
 148   2.0000      -0.642240       -17.4762
 149   2.0000      -0.633779       -17.2460
 150   2.0000      -0.630418       -17.1546
 151   2.0000      -0.625255       -17.0140
 152   2.0000      -0.621279       -16.9059
 153   2.0000      -0.616786       -16.7836
 154   2.0000      -0.612318       -16.6620
 155   2.0000      -0.604940       -16.4613
 156   2.0000      -0.601514       -16.3680
 157   2.0000      -0.597071       -16.2471
 158   2.0000      -0.594518       -16.1777
 159   2.0000      -0.590828       -16.0772
 160   2.0000      -0.585606       -15.9352
 161   2.0000      -0.582577       -15.8527
 162   2.0000      -0.573358       -15.6019
 163   2.0000      -0.572649       -15.5826
 164   2.0000      -0.567009       -15.4291
 165   2.0000      -0.564564       -15.3626
 166   2.0000      -0.559423       -15.2227
 167   2.0000      -0.550597       -14.9825
 168   2.0000      -0.547430       -14.8963
 169   2.0000      -0.542851       -14.7717
 170   2.0000      -0.540437       -14.7060
 171   2.0000      -0.539465       -14.6796
 172   2.0000      -0.531718       -14.4688
 173   2.0000      -0.530533       -14.4365
 174   2.0000      -0.526423       -14.3247
 175   2.0000      -0.523661       -14.2495
 176   2.0000      -0.522651       -14.2221
 177   2.0000      -0.518074       -14.0975
 178   2.0000      -0.512608       -13.9488
 179   2.0000      -0.511734       -13.9250
 180   2.0000      -0.510316       -13.8864
 181   2.0000      -0.506931       -13.7943
 182   2.0000      -0.505085       -13.7441
 183   2.0000      -0.504225       -13.7207
 184   2.0000      -0.502787       -13.6815
 185   2.0000      -0.501836       -13.6556
 186   2.0000      -0.500473       -13.6186
 187   2.0000      -0.496129       -13.5003
 188   2.0000      -0.495452       -13.4819
 189   2.0000      -0.492588       -13.4040
 190   2.0000      -0.488963       -13.3054
 191   2.0000      -0.486728       -13.2445
 192   2.0000      -0.484760       -13.1910
 193   2.0000      -0.482129       -13.1194
 194   2.0000      -0.480240       -13.0680
 195   2.0000      -0.478813       -13.0292
 196   2.0000      -0.476901       -12.9771
 197   2.0000      -0.476429       -12.9643
 198   2.0000      -0.471873       -12.8403
 199   2.0000      -0.469621       -12.7790
 200   2.0000      -0.466408       -12.6916
 201   2.0000      -0.460205       -12.5228
 202   2.0000      -0.459291       -12.4979
 203   2.0000      -0.457067       -12.4374
 204   2.0000      -0.456738       -12.4285
 205   2.0000      -0.454830       -12.3766
 206   2.0000      -0.446921       -12.1613
 207   2.0000      -0.444548       -12.0968
 208   2.0000      -0.441414       -12.0115
 209   2.0000      -0.439539       -11.9605
 210   2.0000      -0.439054       -11.9473
 211   2.0000      -0.437628       -11.9085
 212   2.0000      -0.435719       -11.8565
 213   2.0000      -0.433156       -11.7868
 214   2.0000      -0.432122       -11.7586
 215   2.0000      -0.427378       -11.6295
 216   2.0000      -0.426095       -11.5946
 217   2.0000      -0.425558       -11.5800
 218   2.0000      -0.422038       -11.4842
 219   2.0000      -0.419459       -11.4140
 220   2.0000      -0.419120       -11.4048
 221   2.0000      -0.417443       -11.3592
 222   2.0000      -0.412871       -11.2348
 223   2.0000      -0.412278       -11.2187
 224   2.0000      -0.406924       -11.0730
 225   2.0000      -0.403754       -10.9867
 226   2.0000      -0.396841       -10.7986
 227   2.0000      -0.390109       -10.6154
 228   2.0000      -0.385146       -10.4804
 229   2.0000      -0.380631       -10.3575
 230   2.0000      -0.373143       -10.1537
 231   2.0000      -0.367245        -9.9932
 232   2.0000      -0.359608        -9.7854
 233   2.0000      -0.348655        -9.4874
 234   2.0000      -0.346561        -9.4304
 235   2.0000      -0.342587        -9.3223
 236   2.0000      -0.336496        -9.1565
 237   2.0000      -0.331073        -9.0089
 238   2.0000      -0.330231        -8.9861
 239   2.0000      -0.323555        -8.8044
 240   2.0000      -0.318340        -8.6625
 241   2.0000      -0.310264        -8.4427
 242   2.0000      -0.290595        -7.9075
 243   2.0000      -0.283388        -7.7114
 244   2.0000      -0.280893        -7.6435
 245   2.0000      -0.275623        -7.5001
 246   2.0000      -0.253853        -6.9077
 247   2.0000      -0.221633        -6.0309
 248   0.0000      -0.108782        -2.9601
 249   0.0000      -0.084888        -2.3099
 250   0.0000      -0.063113        -1.7174
 251   0.0000      -0.050533        -1.3751
 252   0.0000      -0.039882        -1.0852

MULLIKEN ATOMIC CHARGES
-----------------------
   0 C :    0.270901
   1 C :   -0.336517
   2 C :   -0.172112
   3 N :    0.156229
   4 C :   -0.203877
   5 N :    0.164843
   6 C :    0.025277
   7 C :    0.020410
   8 C :   -0.083287
   9 C :    0.092934
  10 C :    0.091870
  11 C :   -0.074621
  12 C :   -0.015708
  13 C :    0.035310
  14 C :    0.034957
  15 C :   -0.014920
  16 C :    0.131565
  17 O :   -0.147661
  18 C :   -0.142363
  19 C :    0.082902
  20 C :   -0.114208
  21 C :   -0.000956
  22 C :   -0.010917
  23 C :   -0.064417
  24 S :    0.207147
  25 C :   -0.113218
  26 C :    0.029869
  27 C :    0.305817
  28 C :   -0.292919
  29 C :   -0.188618
  30 N :    0.177650
  31 C :   -0.184294
  32 N :    0.171164
  33 C :   -0.072582
  34 C :   -0.034032
  35 S :    0.178515
  36 C :   -0.060940
  37 C :   -0.111172
  38 C :    0.155581
  39 C :   -0.108599
  40 S :    0.145409
  41 C :   -0.117740
  42 C :    0.160115
  43 N :   -0.163994
  44 C :    0.126719
  45 C :   -0.120312
  46 C :   -0.042090
  47 S :    0.130051
  48 C :   -0.042005
  49 C :   -0.118784
  50 C :    0.159046
  51 C :   -0.114995
  52 S :    0.124522
  53 C :   -0.108152
  54 C :    0.146590
  55 N :   -0.160380
  56 C :    0.123477
  57 C :   -0.097802
  58 C :   -0.065367
  59 S :    0.114893
  60 C :    0.017842
  61 C :    0.051172
  62 O :   -0.177512
  63 N :    0.045248
  64 C :   -0.011115
  65 C :    0.157805
  66 O :   -0.180869
  67 H :   -0.014534
  68 H :   -0.001652
  69 H :   -0.009944
  70 H :   -0.006052
  71 H :   -0.007250
  72 H :   -0.020012
  73 H :    0.019521
  74 H :    0.027083
  75 H :    0.015945
  76 H :   -0.020240
  77 H :    0.041516
  78 H :    0.045095
  79 H :    0.038618
  80 H :   -0.017628
  81 H :   -0.016496
  82 H :    0.051043
  83 H :    0.041172
  84 H :    0.042729
  85 H :   -0.009020
  86 H :    0.025243
  87 H :    0.008092
Sum of atomic charges:    0.0000000

LOEWDIN ATOMIC CHARGES
----------------------
   0 C :    0.065964
   1 C :   -0.141537
   2 C :   -0.018708
   3 N :   -0.051412
   4 C :   -0.016161
   5 N :   -0.051023
   6 C :   -0.022483
   7 C :   -0.056743
   8 C :    0.030712
   9 C :   -0.009637
  10 C :   -0.005629
  11 C :    0.018450
  12 C :   -0.005461
  13 C :   -0.014099
  14 C :   -0.014421
  15 C :   -0.010098
  16 C :    0.082149
  17 O :   -0.149385
  18 C :   -0.096225
  19 C :    0.043350
  20 C :   -0.185565
  21 C :    0.011707
  22 C :   -0.072967
  23 C :   -0.151562
  24 S :    0.492117
  25 C :   -0.196937
  26 C :   -0.050172
  27 C :    0.083091
  28 C :   -0.097999
  29 C :   -0.016983
  30 N :   -0.029777
  31 C :   -0.013162
  32 N :   -0.032068
  33 C :   -0.045076
  34 C :   -0.158853
  35 S :    0.469951
  36 C :   -0.185565
  37 C :   -0.073897
  38 C :   -0.020546
  39 C :   -0.213667
  40 S :    0.426793
  41 C :   -0.225430
  42 C :   -0.011900
  43 N :    0.028734
  44 C :    0.040733
  45 C :   -0.085869
  46 C :   -0.165942
  47 S :    0.413481
  48 C :   -0.168920
  49 C :   -0.082610
  50 C :   -0.013190
  51 C :   -0.223813
  52 S :    0.408488
  53 C :   -0.215206
  54 C :   -0.022008
  55 N :    0.032067
  56 C :    0.040758
  57 C :   -0.047764
  58 C :   -0.173621
  59 S :    0.403753
  60 C :   -0.054281
  61 C :   -0.035434
  62 O :    0.026348
  63 N :   -0.000653
  64 C :   -0.032187
  65 C :    0.097556
  66 O :   -0.137557
  67 H :    0.038274
  68 H :    0.040197
  69 H :    0.034703
  70 H :    0.032567
  71 H :    0.031888
  72 H :    0.030909
  73 H :    0.044914
  74 H :    0.042960
  75 H :    0.036802
  76 H :    0.025858
  77 H :    0.036173
  78 H :    0.030308
  79 H :    0.033272
  80 H :    0.025926
  81 H :    0.027191
  82 H :    0.041251
  83 H :    0.031719
  84 H :    0.031433
  85 H :    0.029677
  86 H :    0.030926
  87 H :    0.011055

  Mayer bond orders larger than 0.100000
B(  0-C ,  1-C ) :   1.6405 B(  0-C ,  6-C ) :   0.9957 B(  0-C , 18-C ) :   1.0449
B(  1-C ,  2-C ) :   1.1320 B(  1-C ,  4-C ) :   1.1715 B(  2-C ,  3-N ) :   2.9919
B(  4-C ,  5-N ) :   2.9988 B(  6-C ,  7-C ) :   1.2155 B(  6-C , 11-C ) :   1.4621
B(  7-C ,  8-C ) :   1.4760 B(  7-C , 16-C ) :   0.9195 B(  8-C ,  9-C ) :   1.1821
B(  8-C , 67-H ) :   1.0160 B(  9-C , 10-C ) :   1.2587 B(  9-C , 15-C ) :   1.2470
B( 10-C , 11-C ) :   1.2045 B( 10-C , 12-C ) :   1.2408 B( 11-C , 68-H ) :   0.9939
B( 12-C , 13-C ) :   1.4884 B( 12-C , 69-H ) :   0.9980 B( 13-C , 14-C ) :   1.2609
B( 13-C , 70-H ) :   0.9891 B( 14-C , 15-C ) :   1.4886 B( 14-C , 71-H ) :   0.9890
B( 15-C , 72-H ) :   0.9972 B( 16-C , 17-O ) :   2.2668 B( 16-C , 18-C ) :   0.9458
B( 18-C , 19-C ) :   1.6453 B( 19-C , 20-C ) :   1.1531 B( 19-C , 73-H ) :   0.9311
B( 20-C , 21-C ) :   1.3899 B( 20-C , 24-S ) :   1.0757 B( 21-C , 22-C ) :   1.3668
B( 21-C , 74-H ) :   0.9786 B( 22-C , 23-C ) :   1.3925 B( 22-C , 27-C ) :   1.0028
B( 23-C , 24-S ) :   1.1572 B( 23-C , 25-C ) :   1.2113 B( 25-C , 26-C ) :   1.4390
B( 25-C , 35-S ) :   1.0937 B( 26-C , 27-C ) :   0.9876 B( 26-C , 33-C ) :   1.3099
B( 27-C , 28-C ) :   1.7187 B( 28-C , 29-C ) :   1.1336 B( 28-C , 31-C ) :   1.1349
B( 29-C , 30-N ) :   2.9928 B( 31-C , 32-N ) :   2.9823 B( 33-C , 34-C ) :   1.4371
B( 33-C , 75-H ) :   0.9884 B( 34-C , 35-S ) :   1.1179 B( 34-C , 36-C ) :   1.1903
B( 36-C , 37-C ) :   1.4599 B( 36-C , 40-S ) :   1.0929 B( 37-C , 38-C ) :   1.2483
B( 37-C , 76-H ) :   1.0028 B( 38-C , 39-C ) :   1.3839 B( 38-C , 43-N ) :   1.1484
B( 39-C , 40-S ) :   1.0357 B( 39-C , 41-C ) :   1.3966 B( 41-C , 42-C ) :   1.3968
B( 41-C , 47-S ) :   1.0237 B( 42-C , 43-N ) :   1.1512 B( 42-C , 45-C ) :   1.2210
B( 43-N , 44-C ) :   0.9685 B( 44-C , 77-H ) :   0.9727 B( 44-C , 78-H ) :   0.9736
B( 44-C , 79-H ) :   0.9716 B( 45-C , 46-C ) :   1.4871 B( 45-C , 80-H ) :   1.0045
B( 46-C , 47-S ) :   1.0986 B( 46-C , 48-C ) :   1.1788 B( 48-C , 49-C ) :   1.4828
B( 48-C , 52-S ) :   1.0959 B( 49-C , 50-C ) :   1.2211 B( 49-C , 81-H ) :   1.0066
B( 50-C , 51-C ) :   1.3954 B( 50-C , 55-N ) :   1.1641 B( 51-C , 52-S ) :   1.0230
B( 51-C , 53-C ) :   1.3964 B( 53-C , 54-C ) :   1.3788 B( 53-C , 59-S ) :   1.0369
B( 54-C , 55-N ) :   1.1441 B( 54-C , 57-C ) :   1.2052 B( 55-N , 56-C ) :   0.9653
B( 56-C , 82-H ) :   0.9738 B( 56-C , 83-H ) :   0.9716 B( 56-C , 84-H ) :   0.9720
B( 57-C , 58-C ) :   1.4939 B( 57-C , 85-H ) :   0.9856 B( 58-C , 59-S ) :   1.0714
B( 58-C , 60-C ) :   1.1424 B( 60-C , 61-C ) :   1.4379 B( 60-C , 64-C ) :   1.1886
B( 61-C , 62-O ) :   1.0951 B( 61-C , 65-C ) :   1.0452 B( 62-O , 63-N ) :   1.0520
B( 63-N , 64-C ) :   1.7318 B( 64-C , 86-H ) :   0.9837 B( 65-C , 66-O ) :   2.0929
B( 65-C , 87-H ) :   0.9468 B( 66-O , 85-H ) :   0.1049

-----------------------------------------------------------------------------
         ABSORPTION SPECTRUM VIA TRANSITION ELECTRIC DIPOLE MOMENTS
-----------------------------------------------------------------------------
State   Energy  Wavelength   fosc         T2         TX        TY        TZ
        (cm-1)    (nm)                  (au**2)     (au)      (au)      (au)
-----------------------------------------------------------------------------
   0   10336.5    967.4   0.470388065  14.98154   1.02120  -3.73220   0.09674
   1   16925.9    590.8   1.338505355  26.03421   1.18707  -4.96233   0.01965
   2   18729.2    533.9   0.138576772   2.43583   0.04296   1.54192  -0.23763
   3   20926.9    477.9   1.290290051  20.29821  -1.70097   4.13089   0.58365
   4   23653.9    422.8   0.019300524   0.26862  -0.24772   0.42253   0.16948
   5   24460.6    408.8   0.013852739   0.18644   0.22244   0.37007   0.00343
   6   24989.5    400.2   0.031767117   0.41850   0.31766   0.53869   0.16554
   7   25466.1    392.7   0.169691322   2.19368  -0.51992   1.33554  -0.37376
   8   26122.7    382.8   0.224222696   2.82577  -0.35766   1.57049  -0.48105
   9   27487.3    363.8   0.014837176   0.17770  -0.27751   0.14359   0.28297
  10   27992.8    357.2   0.031368513   0.36891  -0.27349   0.14003   0.52393
  11   28406.4    352.0   0.026831129   0.31096  -0.13776   0.17097   0.51259
  12   28803.7    347.2   0.056715068   0.64823   0.62722  -0.48054   0.15458
  13   29541.2    338.5   0.041885280   0.46678  -0.19207   0.57947   0.30675
  14   29770.9    335.9   0.057883733   0.64009   0.55264  -0.52331  -0.24662
  15   29963.7    333.7   0.058599668   0.64384   0.03010  -0.39366   0.69854
  16   30418.6    328.7   0.280869053   3.03977  -0.56923   0.11873   1.64367
  17   31120.7    321.3   0.040397986   0.42735   0.36829   0.11744  -0.52718
  18   31325.3    319.2   0.130276859   1.36914   0.41136   0.56843  -0.93638
  19   31720.9    315.2   0.110533434   1.14716   0.37908  -0.93973   0.34693
  20   32195.4    310.6   0.077114275   0.78853  -0.22212   0.35957   0.78096
  21   32335.0    309.3   0.000099071   0.00101   0.00124   0.00925  -0.03036
  22   32415.8    308.5   0.244310863   2.48120  -0.22888   1.01799  -1.18005
  23   33194.6    301.3   0.261881765   2.59725  -0.83585   1.37391  -0.10474
  24   33833.6    295.6   0.006881272   0.06696  -0.06663  -0.19807  -0.15260
  25   34073.0    293.5   0.279283643   2.69843  -1.05902   1.20358  -0.35817
  26   34194.7    292.4   0.144480196   1.39099  -0.80680   0.84452  -0.16388
  27   34722.3    288.0   0.185939597   1.76295  -0.65806   1.09473  -0.36260
  28   34819.7    287.2   0.170745610   1.61436   0.41261   0.23009  -1.17948
  29   35148.5    284.5   0.069677965   0.65263   0.30198  -0.53562  -0.52397
  30   35365.3    282.8   0.060556707   0.56372   0.18525   0.09519  -0.72134
  31   35798.7    279.3   0.033624409   0.30922   0.44030  -0.07665   0.33087
  32   36085.9    277.1   0.028994346   0.26452  -0.32962   0.39113  -0.05366
  33   36233.5    276.0   0.070778509   0.64308   0.00878   0.42394  -0.68065
  34   36683.4    272.6   0.017197962   0.15434   0.10337   0.07551  -0.37142
  35   37548.2    266.3   0.018030436   0.15809   0.09210   0.04005  -0.38471
  36   38548.4    259.4   0.021141498   0.18055  -0.31525   0.28421  -0.01998
  37   38850.1    257.4   0.034463236   0.29204  -0.41042   0.34534   0.06581
  38   39040.6    256.1   0.009801113   0.08265   0.05782  -0.14699  -0.24021
  39   39666.2    252.1   0.064060897   0.53168   0.35136  -0.63337   0.08407
  40   40006.9    250.0   0.053968938   0.44410   0.16486   0.46217  -0.45091

FINAL SINGLE POINT ENERGY     -4950.044552732770

DIPOLE MOMENT
-------------
                                X             Y             Z
Electronic contribution:     -2.17149       6.46861      -9.87740
Nuclear contribution   :      4.05697      -5.56760       8.67366
                        -----------------------------------------
Total Dipole Moment    :      1.88548       0.90102      -1.20374
                        -----------------------------------------
Magnitude (a.u.)       :      2.41161
Magnitude (Debye)      :      6.12983

Rotational constants in cm-1:     0.004438     0.000176     0.000171
Rotational constants in MHz :   133.047167     5.271290     5.121752

                             ****ORCA TERMINATED NORMALLY****
TOTAL RUN TIME: 0 days 0 hours 8 minutes 20 seconds 898 msec
