                         Program Version 4.2.0 -  RELEASE  -
|  1> # ORCA input file
|  2> # SCF done       -188.112835100040          0.000688612055
|  3> ! CAM-B3LYP def2-SVP def2/J RIJCOSX Grid4 TightSCF
|  4> %maxcore 5000
|  5> %tddft
|  6>     Mode sTDDFT
|  7>     Ethresh 5.0
|  8>     maxcore 5000
|  9> end
| 10>
| 11> %pal
| 12>   nprocs 6
| 13>   end
| 14> * xyz 0 1
| 15>    C        1.03712         4.88143         8.56391
| 16>    C       -0.22934         4.83773         9.08574
| 17>    C       -0.64347         3.91434        10.06873
| 18>    N       -1.04902         3.17221        10.84497
| 19>    C       -1.25314         5.76194         8.79924
| 20>    N       -2.11340         6.51203         8.67589
| 21>    C        2.18684         4.13145         9.06175
| 22>    C        3.37527         4.68658         8.50144
| 23>    C        4.61307         4.20738         8.82033
| 24>    C        4.72264         3.12777         9.72526
| 25>    C        3.53932         2.56154        10.28173
| 26>    C        2.27055         3.08046         9.93569
| 27>    C        3.66080         1.48372        11.18219
| 28>    C        4.89109         0.98826        11.51877
| 29>    C        6.05544         1.54569        10.96950
| 30>    C        5.97312         2.59282        10.09207
| 31>    C        3.01545         5.77294         7.57550
| 32>    O        3.75079         6.48974         6.93489
| 33>    C        1.52548         5.77996         7.54024
| 34>    C        0.89312         6.43989         6.53153
| 35>    C       -0.42863         6.34240         6.15422
| 36>    C       -1.57736         6.23851         5.76234
| 37>    C       -2.88601         6.13370         5.33986
| 38>    S       -3.48314         7.10491         4.02333
| 39>    C       -5.05880         6.37573         4.17416
| 40>    C       -5.08880         5.43780         5.19383
| 41>    C       -3.87280         5.30614         5.85050
| 42>    C       -6.09304         6.75107         3.34025
| 43>    C       -6.98611         7.10224         2.59017
| 44>    C       -7.99800         7.48823         1.73356
| 45>    C       -7.89770         8.56296         0.90475
| 46>    C       -8.95948         8.92916         0.03994
| 47>    N      -10.13275         8.30436         0.09847
| 48>    C      -10.94807         8.95712        -0.74551
| 49>    C      -10.25618        10.08638        -1.38391
| 50>    C      -11.15981        10.80681        -2.29610
| 51>    O      -10.92516        11.78080        -2.97657
| 52>    C      -12.41524        10.04163        -2.16495
| 53>    C      -12.24168         8.92517        -1.21221
| 54>    N      -13.38636         8.20976        -1.09862
| 55>    C      -14.23730         8.79656        -1.90666
| 56>    C      -13.69566         9.94181        -2.60728
| 57>    C       -8.96577        10.06006        -0.92488
| 58>    C       -7.91480        10.94510        -1.30850
| 59>    C       -6.58848        10.68948        -1.24731
| 60>    C       -5.63109        11.61770        -1.63920
| 61>    C       -4.76646        12.41464        -1.94580
| 62>    C       -3.79950        13.34293        -2.28923
| 63>    S       -4.22884        14.85463        -3.03897
| 64>    C       -2.55155        15.33407        -3.07677
| 65>    C       -1.73374        14.35886        -2.53274
| 66>    C       -2.43329        13.24034        -2.09498
| 67>    C       -2.16875        16.55041        -3.60560
| 68>    C       -1.85009        17.62746        -4.07544
| 69>    C       -1.44906        18.83855        -4.60674
| 70>    C       -2.28824        19.68354        -5.26647
| 71>    C       -1.82396        20.90716        -5.79605
| 72>    C       -2.58149        21.79484        -6.50867
| 73>    C       -2.13878        23.05685        -7.06982
| 74>    C       -0.90169        23.63492        -6.93290
| 75>    C       -0.53886        24.87377        -7.50116
| 76>    N       -0.17317        25.87244        -7.93429
| 77>    C        0.18354        23.10061        -6.20883
| 78>    N        1.11426        22.73959        -5.63990
| 79>    C       -3.25788        23.63189        -7.80932
| 80>    C       -4.37895        22.76256        -7.68859
| 81>    C       -4.00955        21.59613        -6.86707
| 82>    O       -4.73280        20.67075        -6.56109
| 83>    C       -5.57594        23.03971        -8.28257
| 84>    C       -5.71044        24.22308        -9.04274
| 85>    C       -4.59401        25.09879        -9.16925
| 86>    C       -3.36697        24.78512        -8.54087
| 87>    C       -4.73785        26.27634        -9.93101
| 88>    C       -5.92611        26.57556       -10.53981
| 89>    C       -7.02461        25.71199       -10.41511
| 90>    C       -6.91914        24.56103        -9.68221
| 91>    H        5.49928         4.64709         8.38728
| 92>    H        1.39273         2.62613        10.36754
| 93>    H        2.76154         1.05928        11.60397
| 94>    H        4.97382         0.16373        12.21085
| 95>    H        7.01790         1.14144        11.24515
| 96>    H        6.86622         3.02625         9.66627
| 97>    H        1.52603         7.06140         5.90340
| 98>    H       -5.97757         4.88555         5.44103
| 99>    H       -3.69359         4.64399         6.67811
|100>    H       -8.90843         6.90290         1.72013
|101>    H       -7.00762         9.17376         0.92458
|102>    H      -15.24142         8.42092        -2.00229
|103>    H      -14.22705        10.55167        -3.31084
|104>    H       -8.24504        11.88280        -1.73854
|105>    H       -6.20686         9.73281        -0.91450
|106>    H       -0.66636        14.47287        -2.46812
|107>    H       -1.97843        12.37629        -1.64440
|108>    H       -0.40371        19.09959        -4.48025
|109>    H       -3.32695        19.42001        -5.39952
|110>    H       -0.78039        21.13875        -5.62181
|111>    H       -6.41018        22.36234        -8.17494
|112>    H       -2.54139        25.46866        -8.65887
|113>    H       -3.88909        26.93804       -10.02396
|114>    H       -6.02618        27.47982       -11.12137
|115>    H       -7.95472        25.96325       -10.90276
|116>    H       -7.76153        23.89212        -9.58257
|117> *
|118>
|119>                          ****END OF INPUT****

CARTESIAN COORDINATES (ANGSTROEM)
---------------------------------
  C      1.037120    4.881430    8.563910
  C     -0.229340    4.837730    9.085740
  C     -0.643470    3.914340   10.068730
  N     -1.049020    3.172210   10.844970
  C     -1.253140    5.761940    8.799240
  N     -2.113400    6.512030    8.675890
  C      2.186840    4.131450    9.061750
  C      3.375270    4.686580    8.501440
  C      4.613070    4.207380    8.820330
  C      4.722640    3.127770    9.725260
  C      3.539320    2.561540   10.281730
  C      2.270550    3.080460    9.935690
  C      3.660800    1.483720   11.182190
  C      4.891090    0.988260   11.518770
  C      6.055440    1.545690   10.969500
  C      5.973120    2.592820   10.092070
  C      3.015450    5.772940    7.575500
  O      3.750790    6.489740    6.934890
  C      1.525480    5.779960    7.540240
  C      0.893120    6.439890    6.531530
  C     -0.428630    6.342400    6.154220
  C     -1.577360    6.238510    5.762340
  C     -2.886010    6.133700    5.339860
  S     -3.483140    7.104910    4.023330
  C     -5.058800    6.375730    4.174160
  C     -5.088800    5.437800    5.193830
  C     -3.872800    5.306140    5.850500
  C     -6.093040    6.751070    3.340250
  C     -6.986110    7.102240    2.590170
  C     -7.998000    7.488230    1.733560
  C     -7.897700    8.562960    0.904750
  C     -8.959480    8.929160    0.039940
  N    -10.132750    8.304360    0.098470
  C    -10.948070    8.957120   -0.745510
  C    -10.256180   10.086380   -1.383910
  C    -11.159810   10.806810   -2.296100
  O    -10.925160   11.780800   -2.976570
  C    -12.415240   10.041630   -2.164950
  C    -12.241680    8.925170   -1.212210
  N    -13.386360    8.209760   -1.098620
  C    -14.237300    8.796560   -1.906660
  C    -13.695660    9.941810   -2.607280
  C     -8.965770   10.060060   -0.924880
  C     -7.914800   10.945100   -1.308500
  C     -6.588480   10.689480   -1.247310
  C     -5.631090   11.617700   -1.639200
  C     -4.766460   12.414640   -1.945800
  C     -3.799500   13.342930   -2.289230
  S     -4.228840   14.854630   -3.038970
  C     -2.551550   15.334070   -3.076770
  C     -1.733740   14.358860   -2.532740
  C     -2.433290   13.240340   -2.094980
  C     -2.168750   16.550410   -3.605600
  C     -1.850090   17.627460   -4.075440
  C     -1.449060   18.838550   -4.606740
  C     -2.288240   19.683540   -5.266470
  C     -1.823960   20.907160   -5.796050
  C     -2.581490   21.794840   -6.508670
  C     -2.138780   23.056850   -7.069820
  C     -0.901690   23.634920   -6.932900
  C     -0.538860   24.873770   -7.501160
  N     -0.173170   25.872440   -7.934290
  C      0.183540   23.100610   -6.208830
  N      1.114260   22.739590   -5.639900
  C     -3.257880   23.631890   -7.809320
  C     -4.378950   22.762560   -7.688590
  C     -4.009550   21.596130   -6.867070
  O     -4.732800   20.670750   -6.561090
  C     -5.575940   23.039710   -8.282570
  C     -5.710440   24.223080   -9.042740
  C     -4.594010   25.098790   -9.169250
  C     -3.366970   24.785120   -8.540870
  C     -4.737850   26.276340   -9.931010
  C     -5.926110   26.575560  -10.539810
  C     -7.024610   25.711990  -10.415110
  C     -6.919140   24.561030   -9.682210
  H      5.499280    4.647090    8.387280
  H      1.392730    2.626130   10.367540
  H      2.761540    1.059280   11.603970
  H      4.973820    0.163730   12.210850
  H      7.017900    1.141440   11.245150
  H      6.866220    3.026250    9.666270
  H      1.526030    7.061400    5.903400
  H     -5.977570    4.885550    5.441030
  H     -3.693590    4.643990    6.678110
  H     -8.908430    6.902900    1.720130
  H     -7.007620    9.173760    0.924580
  H    -15.241420    8.420920   -2.002290
  H    -14.227050   10.551670   -3.310840
  H     -8.245040   11.882800   -1.738540
  H     -6.206860    9.732810   -0.914500
  H     -0.666360   14.472870   -2.468120
  H     -1.978430   12.376290   -1.644400
  H     -0.403710   19.099590   -4.480250
  H     -3.326950   19.420010   -5.399520
  H     -0.780390   21.138750   -5.621810
  H     -6.410180   22.362340   -8.174940
  H     -2.541390   25.468660   -8.658870
  H     -3.889090   26.938040  -10.023960
  H     -6.026180   27.479820  -11.121370
  H     -7.954720   25.963250  -10.902760
  H     -7.761530   23.892120   -9.582570

 Total Charge           Charge          ....    0
 Multiplicity           Mult            ....    1
 Number of Electrons    NEL             ....  514
 Basis Dimension        Dim             .... 1202

ORBITAL ENERGIES
----------------

  NO   OCC          E(Eh)            E(eV)
   0   2.0000     -88.984198     -2421.3831
   1   2.0000     -88.972317     -2421.0598
   2   2.0000     -19.220357      -523.0125
   3   2.0000     -19.211797      -522.7796
   4   2.0000     -19.208033      -522.6771
   5   2.0000     -14.421529      -392.4298
   6   2.0000     -14.416798      -392.3010
   7   2.0000     -14.413173      -392.2024
   8   2.0000     -14.410432      -392.1278
   9   2.0000     -14.410312      -392.1245
  10   2.0000     -14.403468      -391.9383
  11   2.0000     -10.370609      -282.1986
  12   2.0000     -10.369208      -282.1605
  13   2.0000     -10.362516      -281.9784
  14   2.0000     -10.349728      -281.6304
  15   2.0000     -10.346675      -281.5473
  16   2.0000     -10.346144      -281.5329
  17   2.0000     -10.341008      -281.3931
  18   2.0000     -10.338279      -281.3189
  19   2.0000     -10.337561      -281.2993
  20   2.0000     -10.336541      -281.2716
  21   2.0000     -10.334411      -281.2136
  22   2.0000     -10.332321      -281.1567
  23   2.0000     -10.329295      -281.0744
  24   2.0000     -10.326893      -281.0090
  25   2.0000     -10.323668      -280.9213
  26   2.0000     -10.323393      -280.9138
  27   2.0000     -10.322901      -280.9004
  28   2.0000     -10.322523      -280.8901
  29   2.0000     -10.319510      -280.8081
  30   2.0000     -10.316118      -280.7158
  31   2.0000     -10.315777      -280.7066
  32   2.0000     -10.313600      -280.6473
  33   2.0000     -10.311235      -280.5830
  34   2.0000     -10.310863      -280.5728
  35   2.0000     -10.309180      -280.5270
  36   2.0000     -10.307990      -280.4947
  37   2.0000     -10.307935      -280.4932
  38   2.0000     -10.307727      -280.4875
  39   2.0000     -10.306896      -280.4649
  40   2.0000     -10.303688      -280.3776
  41   2.0000     -10.303227      -280.3650
  42   2.0000     -10.302212      -280.3374
  43   2.0000     -10.301664      -280.3225
  44   2.0000     -10.301430      -280.3162
  45   2.0000     -10.301132      -280.3080
  46   2.0000     -10.301070      -280.3064
  47   2.0000     -10.300876      -280.3011
  48   2.0000     -10.300551      -280.2923
  49   2.0000     -10.299901      -280.2746
  50   2.0000     -10.298720      -280.2424
  51   2.0000     -10.295708      -280.1605
  52   2.0000     -10.294662      -280.1320
  53   2.0000     -10.294159      -280.1183
  54   2.0000     -10.293875      -280.1106
  55   2.0000     -10.293769      -280.1077
  56   2.0000     -10.293497      -280.1003
  57   2.0000     -10.292782      -280.0808
  58   2.0000     -10.292440      -280.0715
  59   2.0000     -10.292301      -280.0678
  60   2.0000     -10.291301      -280.0405
  61   2.0000     -10.290015      -280.0056
  62   2.0000     -10.289593      -279.9941
  63   2.0000     -10.289353      -279.9875
  64   2.0000     -10.289167      -279.9825
  65   2.0000     -10.288877      -279.9746
  66   2.0000     -10.288606      -279.9672
  67   2.0000     -10.287684      -279.9421
  68   2.0000     -10.287278      -279.9311
  69   2.0000     -10.286933      -279.9217
  70   2.0000     -10.286343      -279.9056
  71   2.0000     -10.284055      -279.8434
  72   2.0000     -10.283559      -279.8299
  73   2.0000     -10.282931      -279.8128
  74   2.0000     -10.282687      -279.8061
  75   2.0000     -10.282195      -279.7928
  76   2.0000      -8.079743      -219.8610
  77   2.0000      -8.067825      -219.5367
  78   2.0000      -6.049039      -164.6027
  79   2.0000      -6.044805      -164.4875
  80   2.0000      -6.041812      -164.4061
  81   2.0000      -6.037123      -164.2785
  82   2.0000      -6.032922      -164.1642
  83   2.0000      -6.029859      -164.0808
  84   2.0000      -1.134821       -30.8801
  85   2.0000      -1.125917       -30.6378
  86   2.0000      -1.122480       -30.5442
  87   2.0000      -1.078378       -29.3442
  88   2.0000      -1.058079       -28.7918
  89   2.0000      -1.022879       -27.8340
  90   2.0000      -1.014284       -27.6001
  91   2.0000      -1.010830       -27.5061
  92   2.0000      -1.002762       -27.2865
  93   2.0000      -0.999109       -27.1871
  94   2.0000      -0.997465       -27.1424
  95   2.0000      -0.994802       -27.0699
  96   2.0000      -0.989937       -26.9375
  97   2.0000      -0.976131       -26.5619
  98   2.0000      -0.967930       -26.3387
  99   2.0000      -0.943501       -25.6740
 100   2.0000      -0.932664       -25.3791
 101   2.0000      -0.932486       -25.3742
 102   2.0000      -0.930267       -25.3139
 103   2.0000      -0.922240       -25.0954
 104   2.0000      -0.917396       -24.9636
 105   2.0000      -0.917064       -24.9546
 106   2.0000      -0.901088       -24.5198
 107   2.0000      -0.898332       -24.4449
 108   2.0000      -0.888546       -24.1786
 109   2.0000      -0.886085       -24.1116
 110   2.0000      -0.883468       -24.0404
 111   2.0000      -0.877565       -23.8798
 112   2.0000      -0.873232       -23.7618
 113   2.0000      -0.864726       -23.5304
 114   2.0000      -0.858714       -23.3668
 115   2.0000      -0.857542       -23.3349
 116   2.0000      -0.848027       -23.0760
 117   2.0000      -0.847342       -23.0574
 118   2.0000      -0.832300       -22.6480
 119   2.0000      -0.829954       -22.5842
 120   2.0000      -0.828280       -22.5387
 121   2.0000      -0.824597       -22.4384
 122   2.0000      -0.807753       -21.9801
 123   2.0000      -0.801633       -21.8136
 124   2.0000      -0.785205       -21.3665
 125   2.0000      -0.781150       -21.2562
 126   2.0000      -0.766222       -20.8500
 127   2.0000      -0.760979       -20.7073
 128   2.0000      -0.757798       -20.6207
 129   2.0000      -0.739963       -20.1354
 130   2.0000      -0.736654       -20.0454
 131   2.0000      -0.729805       -19.8590
 132   2.0000      -0.720319       -19.6009
 133   2.0000      -0.714764       -19.4497
 134   2.0000      -0.707178       -19.2433
 135   2.0000      -0.701785       -19.0965
 136   2.0000      -0.700407       -19.0591
 137   2.0000      -0.699016       -19.0212
 138   2.0000      -0.691771       -18.8241
 139   2.0000      -0.684070       -18.6145
 140   2.0000      -0.679760       -18.4972
 141   2.0000      -0.679564       -18.4919
 142   2.0000      -0.671386       -18.2693
 143   2.0000      -0.664958       -18.0944
 144   2.0000      -0.661347       -17.9962
 145   2.0000      -0.657539       -17.8925
 146   2.0000      -0.647499       -17.6193
 147   2.0000      -0.639100       -17.3908
 148   2.0000      -0.635585       -17.2951
 149   2.0000      -0.632531       -17.2121
 150   2.0000      -0.627581       -17.0773
 151   2.0000      -0.625622       -17.0240
 152   2.0000      -0.622160       -16.9298
 153   2.0000      -0.611184       -16.6312
 154   2.0000      -0.607655       -16.5351
 155   2.0000      -0.607408       -16.5284
 156   2.0000      -0.603032       -16.4093
 157   2.0000      -0.602720       -16.4009
 158   2.0000      -0.592043       -16.1103
 159   2.0000      -0.588537       -16.0149
 160   2.0000      -0.580761       -15.8033
 161   2.0000      -0.575144       -15.6505
 162   2.0000      -0.569719       -15.5028
 163   2.0000      -0.561408       -15.2767
 164   2.0000      -0.557666       -15.1749
 165   2.0000      -0.555627       -15.1194
 166   2.0000      -0.552801       -15.0425
 167   2.0000      -0.550451       -14.9785
 168   2.0000      -0.546034       -14.8584
 169   2.0000      -0.544231       -14.8093
 170   2.0000      -0.543114       -14.7789
 171   2.0000      -0.542920       -14.7736
 172   2.0000      -0.538462       -14.6523
 173   2.0000      -0.536220       -14.5913
 174   2.0000      -0.532824       -14.4989
 175   2.0000      -0.529236       -14.4013
 176   2.0000      -0.528046       -14.3689
 177   2.0000      -0.523965       -14.2578
 178   2.0000      -0.523026       -14.2323
 179   2.0000      -0.522399       -14.2152
 180   2.0000      -0.516640       -14.0585
 181   2.0000      -0.516365       -14.0510
 182   2.0000      -0.515506       -14.0276
 183   2.0000      -0.512276       -13.9398
 184   2.0000      -0.511725       -13.9248
 185   2.0000      -0.510435       -13.8896
 186   2.0000      -0.510108       -13.8807
 187   2.0000      -0.505366       -13.7517
 188   2.0000      -0.502268       -13.6674
 189   2.0000      -0.501148       -13.6369
 190   2.0000      -0.500504       -13.6194
 191   2.0000      -0.499575       -13.5941
 192   2.0000      -0.494451       -13.4547
 193   2.0000      -0.493788       -13.4367
 194   2.0000      -0.493066       -13.4170
 195   2.0000      -0.490852       -13.3568
 196   2.0000      -0.489790       -13.3279
 197   2.0000      -0.488040       -13.2803
 198   2.0000      -0.482798       -13.1376
 199   2.0000      -0.482587       -13.1319
 200   2.0000      -0.474347       -12.9076
 201   2.0000      -0.470996       -12.8165
 202   2.0000      -0.470424       -12.8009
 203   2.0000      -0.465080       -12.6555
 204   2.0000      -0.463282       -12.6065
 205   2.0000      -0.460084       -12.5195
 206   2.0000      -0.459825       -12.5125
 207   2.0000      -0.454792       -12.3755
 208   2.0000      -0.453870       -12.3504
 209   2.0000      -0.451980       -12.2990
 210   2.0000      -0.447284       -12.1712
 211   2.0000      -0.445751       -12.1295
 212   2.0000      -0.444936       -12.1073
 213   2.0000      -0.441759       -12.0209
 214   2.0000      -0.441045       -12.0014
 215   2.0000      -0.440328       -11.9819
 216   2.0000      -0.437371       -11.9015
 217   2.0000      -0.436749       -11.8845
 218   2.0000      -0.436268       -11.8715
 219   2.0000      -0.433862       -11.8060
 220   2.0000      -0.431938       -11.7536
 221   2.0000      -0.430263       -11.7081
 222   2.0000      -0.428710       -11.6658
 223   2.0000      -0.422905       -11.5078
 224   2.0000      -0.422377       -11.4935
 225   2.0000      -0.415878       -11.3166
 226   2.0000      -0.412728       -11.2309
 227   2.0000      -0.409971       -11.1559
 228   2.0000      -0.402316       -10.9476
 229   2.0000      -0.400858       -10.9079
 230   2.0000      -0.388870       -10.5817
 231   2.0000      -0.385305       -10.4847
 232   2.0000      -0.376479       -10.2445
 233   2.0000      -0.374080       -10.1792
 234   2.0000      -0.371328       -10.1043
 235   2.0000      -0.364309        -9.9133
 236   2.0000      -0.362563        -9.8658
 237   2.0000      -0.360491        -9.8094
 238   2.0000      -0.355572        -9.6756
 239   2.0000      -0.351992        -9.5782
 240   2.0000      -0.351775        -9.5723
 241   2.0000      -0.349261        -9.5039
 242   2.0000      -0.346491        -9.4285
 243   2.0000      -0.339963        -9.2509
 244   2.0000      -0.338413        -9.2087
 245   2.0000      -0.334026        -9.0893
 246   2.0000      -0.330967        -9.0061
 247   2.0000      -0.329024        -8.9532
 248   2.0000      -0.327486        -8.9114
 249   2.0000      -0.321064        -8.7366
 250   2.0000      -0.313604        -8.5336
 251   2.0000      -0.310147        -8.4395
 252   2.0000      -0.298405        -8.1200
 253   2.0000      -0.296233        -8.0609
 254   2.0000      -0.287667        -7.8278
 255   2.0000      -0.270938        -7.3726
 256   2.0000      -0.255008        -6.9391
 257   0.0000      -0.124335        -3.3833
 258   0.0000      -0.102858        -2.7989
 259   0.0000      -0.098689        -2.6855
 260   0.0000      -0.067873        -1.8469
 261   0.0000      -0.061384        -1.6704

MULLIKEN ATOMIC CHARGES
-----------------------
   0 C :    0.299455
   1 C :   -0.328381
   2 C :   -0.182794
   3 N :    0.146012
   4 C :   -0.211983
   5 N :    0.180069
   6 C :    0.039176
   7 C :    0.002117
   8 C :   -0.073543
   9 C :    0.091568
  10 C :    0.094196
  11 C :   -0.079483
  12 C :   -0.015956
  13 C :    0.033455
  14 C :    0.036766
  15 C :   -0.012833
  16 C :    0.134776
  17 O :   -0.138571
  18 C :   -0.115609
  19 C :   -0.045959
  20 C :    0.003778
  21 C :    0.112219
  22 C :   -0.167628
  23 S :    0.214279
  24 C :   -0.149393
  25 C :    0.059272
  26 C :    0.075817
  27 C :    0.075065
  28 C :    0.015439
  29 C :   -0.030666
  30 C :   -0.048476
  31 C :    0.033161
  32 N :   -0.052745
  33 C :    0.067181
  34 C :   -0.121887
  35 C :    0.204231
  36 O :   -0.128304
  37 C :   -0.043488
  38 C :   -0.019561
  39 N :   -0.060285
  40 C :    0.090817
  41 C :   -0.091926
  42 C :    0.030594
  43 C :   -0.012793
  44 C :   -0.089765
  45 C :   -0.016770
  46 C :    0.061438
  47 C :   -0.143221
  48 S :    0.214548
  49 C :   -0.160594
  50 C :    0.058096
  51 C :    0.050213
  52 C :    0.081048
  53 C :    0.003394
  54 C :   -0.064437
  55 C :    0.012240
  56 C :   -0.044528
  57 C :   -0.064557
  58 C :    0.339381
  59 C :   -0.357003
  60 C :   -0.183547
  61 N :    0.148455
  62 C :   -0.190628
  63 N :    0.142595
  64 C :    0.046909
  65 C :   -0.000935
  66 C :    0.148226
  67 O :   -0.151013
  68 C :   -0.084400
  69 C :    0.100595
  70 C :    0.098923
  71 C :   -0.089104
  72 C :   -0.021882
  73 C :    0.036632
  74 C :    0.038093
  75 C :   -0.019849
  76 H :   -0.011566
  77 H :   -0.007856
  78 H :   -0.009577
  79 H :   -0.002270
  80 H :   -0.004255
  81 H :   -0.016506
  82 H :    0.052387
  83 H :    0.007045
  84 H :    0.010834
  85 H :    0.064690
  86 H :    0.006524
  87 H :    0.008046
  88 H :   -0.005410
  89 H :    0.029198
  90 H :    0.034649
  91 H :    0.001537
  92 H :   -0.002470
  93 H :    0.048415
  94 H :    0.040557
  95 H :    0.010177
  96 H :   -0.013351
  97 H :   -0.008782
  98 H :   -0.008767
  99 H :   -0.005525
 100 H :   -0.006374
 101 H :   -0.017084
Sum of atomic charges:   -0.0000000

LOEWDIN ATOMIC CHARGES
----------------------
   0 C :    0.068927
   1 C :   -0.128701
   2 C :   -0.017398
   3 N :   -0.049908
   4 C :   -0.018659
   5 N :   -0.044563
   6 C :   -0.023526
   7 C :   -0.058428
   8 C :    0.034856
   9 C :   -0.009008
  10 C :   -0.005188
  11 C :    0.016806
  12 C :   -0.005603
  13 C :   -0.012038
  14 C :   -0.011654
  15 C :   -0.008440
  16 C :    0.082189
  17 O :   -0.139609
  18 C :   -0.069832
  19 C :    0.046604
  20 C :   -0.029315
  21 C :    0.000126
  22 C :   -0.182827
  23 S :    0.486618
  24 C :   -0.178834
  25 C :   -0.020203
  26 C :   -0.006199
  27 C :   -0.030300
  28 C :   -0.018119
  29 C :    0.039041
  30 C :   -0.033182
  31 C :    0.070631
  32 N :   -0.106801
  33 C :    0.042042
  34 C :   -0.034322
  35 C :    0.063308
  36 O :   -0.140146
  37 C :   -0.041990
  38 C :    0.022937
  39 N :   -0.099066
  40 C :    0.074017
  41 C :   -0.038512
  42 C :   -0.034005
  43 C :    0.010770
  44 C :   -0.037901
  45 C :   -0.016841
  46 C :   -0.051803
  47 C :   -0.176955
  48 S :    0.482999
  49 C :   -0.190063
  50 C :   -0.023071
  51 C :   -0.035062
  52 C :   -0.027269
  53 C :   -0.025730
  54 C :    0.011056
  55 C :   -0.010284
  56 C :    0.064610
  57 C :   -0.090026
  58 C :    0.075848
  59 C :   -0.140879
  60 C :   -0.017013
  61 N :   -0.056142
  62 C :   -0.019850
  63 N :   -0.055747
  64 C :   -0.025632
  65 C :   -0.054718
  66 C :    0.084225
  67 O :   -0.144590
  68 C :    0.031134
  69 C :   -0.008058
  70 C :   -0.006445
  71 C :    0.018676
  72 C :   -0.005648
  73 C :   -0.014377
  74 C :   -0.012722
  75 C :   -0.010139
  76 H :    0.039850
  77 H :    0.038711
  78 H :    0.034692
  79 H :    0.033878
  80 H :    0.033212
  81 H :    0.032273
  82 H :    0.063135
  83 H :    0.042295
  84 H :    0.043383
  85 H :    0.059218
  86 H :    0.035937
  87 H :    0.023259
  88 H :    0.034201
  89 H :    0.048781
  90 H :    0.042336
  91 H :    0.039187
  92 H :    0.037728
  93 H :    0.051911
  94 H :    0.040731
  95 H :    0.041933
  96 H :    0.038760
  97 H :    0.038770
  98 H :    0.034661
  99 H :    0.032891
 100 H :    0.032378
 101 H :    0.031810

  Mayer bond orders larger than 0.100000
B(  0-C ,  1-C ) :   1.6409 B(  0-C ,  6-C ) :   1.0075 B(  0-C , 18-C ) :   1.0334
B(  1-C ,  2-C ) :   1.1289 B(  1-C ,  4-C ) :   1.1740 B(  2-C ,  3-N ) :   2.9733
B(  4-C ,  5-N ) :   2.9850 B(  6-C ,  7-C ) :   1.2114 B(  6-C , 11-C ) :   1.4564
B(  7-C ,  8-C ) :   1.4737 B(  7-C , 16-C ) :   0.9255 B(  8-C ,  9-C ) :   1.1858
B(  8-C , 76-H ) :   1.0161 B(  9-C , 10-C ) :   1.2566 B(  9-C , 15-C ) :   1.2440
B( 10-C , 11-C ) :   1.2054 B( 10-C , 12-C ) :   1.2409 B( 11-C , 77-H ) :   0.9903
B( 12-C , 13-C ) :   1.4890 B( 12-C , 78-H ) :   0.9977 B( 13-C , 14-C ) :   1.2588
B( 13-C , 79-H ) :   0.9896 B( 14-C , 15-C ) :   1.4897 B( 14-C , 80-H ) :   0.9895
B( 15-C , 81-H ) :   0.9979 B( 16-C , 17-O ) :   2.2726 B( 16-C , 18-C ) :   0.9366
B( 18-C , 19-C ) :   1.6751 B( 19-C , 20-C ) :   0.9695 B( 19-C , 82-H ) :   0.9453
B( 20-C , 21-C ) :   2.1760 B( 21-C , 22-C ) :   0.9994 B( 22-C , 23-S ) :   1.1134
B( 22-C , 24-C ) :   0.1051 B( 22-C , 26-C ) :   1.4591 B( 23-S , 24-C ) :   1.1211
B( 24-C , 25-C ) :   1.4533 B( 24-C , 27-C ) :   0.9942 B( 25-C , 26-C ) :   1.3044
B( 25-C , 83-H ) :   1.0013 B( 26-C , 84-H ) :   0.9997 B( 27-C , 28-C ) :   2.2416
B( 28-C , 29-C ) :   0.9781 B( 29-C , 30-C ) :   1.6509 B( 29-C , 85-H ) :   0.9563
B( 30-C , 31-C ) :   1.1511 B( 30-C , 86-H ) :   0.9662 B( 31-C , 32-N ) :   1.5823
B( 31-C , 33-C ) :   0.1021 B( 31-C , 42-C ) :   0.9976 B( 32-N , 33-C ) :   1.3675
B( 33-C , 34-C ) :   1.0480 B( 33-C , 38-C ) :   1.3991 B( 34-C , 35-C ) :   0.8904
B( 34-C , 42-C ) :   1.5733 B( 35-C , 36-O ) :   2.2862 B( 35-C , 37-C ) :   0.9026
B( 37-C , 38-C ) :   1.0567 B( 37-C , 41-C ) :   1.6069 B( 38-C , 39-N ) :   1.3196
B( 39-N , 40-C ) :   1.6463 B( 40-C , 41-C ) :   1.0790 B( 40-C , 87-H ) :   0.9892
B( 41-C , 88-H ) :   1.0107 B( 42-C , 43-C ) :   1.1208 B( 43-C , 44-C ) :   1.6795
B( 43-C , 89-H ) :   0.9682 B( 44-C , 45-C ) :   1.0231 B( 44-C , 90-H ) :   0.9490
B( 45-C , 46-C ) :   2.2802 B( 46-C , 47-C ) :   0.9758 B( 47-C , 48-S ) :   1.1252
B( 47-C , 49-C ) :   0.1055 B( 47-C , 51-C ) :   1.4751 B( 48-S , 49-C ) :   1.1072
B( 49-C , 50-C ) :   1.4697 B( 49-C , 52-C ) :   0.9968 B( 50-C , 51-C ) :   1.2920
B( 50-C , 91-H ) :   1.0005 B( 51-C , 92-H ) :   1.0000 B( 52-C , 53-C ) :   2.2402
B( 53-C , 54-C ) :   0.9871 B( 54-C , 55-C ) :   1.5878 B( 54-C , 93-H ) :   0.9636
B( 55-C , 56-C ) :   1.1688 B( 55-C , 94-H ) :   0.9839 B( 56-C , 57-C ) :   1.5477
B( 56-C , 95-H ) :   0.9560 B( 57-C , 58-C ) :   1.0692 B( 57-C , 66-C ) :   0.9425
B( 58-C , 59-C ) :   1.6188 B( 58-C , 64-C ) :   0.9863 B( 59-C , 60-C ) :   1.1496
B( 59-C , 62-C ) :   1.1486 B( 60-C , 61-N ) :   2.9615 B( 62-C , 63-N ) :   2.9583
B( 64-C , 65-C ) :   1.2161 B( 64-C , 71-C ) :   1.4497 B( 65-C , 66-C ) :   0.9414
B( 65-C , 68-C ) :   1.4723 B( 66-C , 67-O ) :   2.2069 B( 68-C , 69-C ) :   1.1787
B( 68-C , 96-H ) :   1.0157 B( 69-C , 70-C ) :   1.2560 B( 69-C , 75-C ) :   1.2438
B( 70-C , 71-C ) :   1.2058 B( 70-C , 72-C ) :   1.2403 B( 71-C , 97-H ) :   0.9884
B( 72-C , 73-C ) :   1.4895 B( 72-C , 98-H ) :   0.9968 B( 73-C , 74-C ) :   1.2600
B( 73-C , 99-H ) :   0.9880 B( 74-C , 75-C ) :   1.4902 B( 74-C ,100-H ) :   0.9880
B( 75-C ,101-H ) :   0.9971

-----------------------------------------------------------------------------
         ABSORPTION SPECTRUM VIA TRANSITION ELECTRIC DIPOLE MOMENTS
-----------------------------------------------------------------------------
State   Energy  Wavelength   fosc         T2         TX        TY        TZ
        (cm-1)    (nm)                  (au**2)     (au)      (au)      (au)
-----------------------------------------------------------------------------
   0   15530.5    643.9   0.189072990   4.00792  -1.13167  -1.48169   0.72928
   1   17651.5    566.5   2.212144085  41.25802  -4.47975   2.31659  -3.97785
   2   19455.8    514.0   1.610191090  27.24612  -1.86904  -4.48610   1.90466
   3   21293.1    469.6   0.000595487   0.00921  -0.03895  -0.04573  -0.07482
   4   22626.0    442.0   0.043170753   0.62814   0.37727  -0.09388   0.69065
   5   23913.2    418.2   0.017811353   0.24521   0.34881  -0.24672   0.25033
   6   24784.6    403.5   0.030425595   0.40414   0.61829   0.01443   0.14715
   7   25127.7    398.0   0.064963208   0.85112   0.88851   0.23409   0.08292
   8   25270.5    395.7   0.022665450   0.29528  -0.44079   0.27110  -0.16577
   9   25384.6    393.9   0.086381293   1.12028  -0.95545   0.38859  -0.23748
  10   25738.0    388.5   0.035283844   0.45131  -0.17722   0.46875  -0.44741
  11   26669.4    375.0   0.008609001   0.10627  -0.30090   0.12542   0.00091
  12   26825.3    372.8   0.000233631   0.00287  -0.05094   0.00649  -0.01517
  13   27498.1    363.7   0.054861843   0.65681   0.75866   0.22622  -0.17339
  14   27605.8    362.2   0.082266301   0.98106  -0.91542  -0.34456   0.15603
  15   28142.2    355.3   0.024337144   0.28470   0.49175   0.06340   0.19714
  16   28321.9    353.1   0.051659582   0.60049   0.68013   0.37101  -0.01611
  17   28778.3    347.5   0.236865944   2.70965   1.61063  -0.01466   0.33955
  18   29074.2    343.9   0.031901643   0.36123  -0.59627   0.04862  -0.05767
  19   29478.1    339.2   0.134899707   1.50656   0.99552   0.70120  -0.15433
  20   30363.9    329.3   0.187861895   2.03684   1.37562  -0.18605   0.33152
  21   30622.3    326.6   0.760500908   8.17594   2.47362  -0.98532   1.04226
  22   30815.8    324.5   0.127500233   1.36211  -0.81730   0.46740  -0.68969
  23   31030.0    322.3   0.010353006   0.10984  -0.27768   0.13019  -0.12562
  24   31963.3    312.9   0.011570145   0.11917  -0.03758   0.34223  -0.02520
  25   32038.5    312.1   0.066847875   0.68690   0.73454  -0.26586   0.27687
  26   32313.8    309.5   0.064762790   0.65980  -0.70204   0.37328  -0.16611
  27   32621.1    306.6   0.021872035   0.22073   0.43383  -0.16716  -0.06766
  28   32891.2    304.0   0.109087583   1.09187   1.00749  -0.15815   0.22766
  29   32997.8    303.1   0.002016543   0.02012   0.11576  -0.01495   0.08059
  30   33215.9    301.1   0.031401497   0.31123   0.12963   0.26523   0.47337
  31   33490.8    298.6   0.983509103   9.66781  -2.51742   1.20088  -1.37416
  32   33606.9    297.6   0.056554824   0.55401  -0.55893   0.09425  -0.48241
  33   33901.8    295.0   0.162111697   1.57423   1.16128  -0.25456   0.40108
  34   34167.9    292.7   0.139601256   1.34508   0.72654  -0.65727   0.62066
  35   34542.4    289.5   0.032947863   0.31401  -0.55790   0.02620  -0.04552
  36   34603.4    289.0   0.056542989   0.53794   0.03972   0.63590  -0.36331
  37   34843.2    287.0   0.050275886   0.47503  -0.30881  -0.47234   0.39567
  38   35013.4    285.6   0.027931481   0.26262  -0.43499  -0.22461   0.15151
  39   35269.0    283.5   0.072745501   0.67903   0.73659   0.29700  -0.21966
  40   35620.8    280.7   0.043885959   0.40560  -0.41239   0.24511  -0.41887
  41   35918.1    278.4   0.021179812   0.19413  -0.12909   0.33023  -0.26155
  42   35979.5    277.9   0.000756382   0.00692   0.04422   0.05941  -0.03790
  43   36141.6    276.7   0.060387788   0.55007   0.54449  -0.46135   0.20186
  44   36675.3    272.7   0.011778742   0.10573   0.02697   0.27992  -0.16323
  45   36840.0    271.4   0.133292153   1.19113   0.99029  -0.45483   0.05987
  46   36989.2    270.3   0.088738209   0.78979   0.77738  -0.35157   0.24875
  47   37163.6    269.1   0.017543730   0.15541  -0.24750  -0.12886   0.27848
  48   37380.6    267.5   0.229969875   2.02535  -1.35875   0.11509  -0.40733
  49   37723.6    265.1   0.147517072   1.28737  -1.10453  -0.08383  -0.24567
  50   38219.0    261.6   0.000168477   0.00145  -0.03599  -0.01166  -0.00449
  51   38284.8    261.2   0.005183701   0.04457  -0.10274  -0.00081  -0.18444
  52   38400.4    260.4   0.043675862   0.37444  -0.16191   0.49475  -0.32163
  53   38673.7    258.6   0.032008313   0.27247   0.32598   0.18630  -0.36263
  54   38992.9    256.5   0.022773289   0.19227  -0.33194   0.13686  -0.25170
  55   39127.9    255.6   0.028237501   0.23758  -0.48269  -0.05442  -0.04038
  56   39265.9    254.7   0.002045009   0.01715   0.09454  -0.05167   0.07442
  57   39415.4    253.7   0.006272396   0.05239  -0.19185   0.10201   0.07194
  58   39528.6    253.0   0.041414824   0.34492  -0.31400  -0.39091   0.30580
  59   39712.1    251.8   0.024551987   0.20353  -0.13152   0.34665  -0.25704
  60   39845.3    251.0   0.070105959   0.57923  -0.12995  -0.69960   0.27001
  61   39927.4    250.5   0.025402048   0.20945   0.15202   0.39934  -0.16389
  62   40269.7    248.3   0.004153305   0.03395   0.03746   0.03874   0.17621

FINAL SINGLE POINT ENERGY     -3838.598223700051

DIPOLE MOMENT
-------------
                                X             Y             Z
Electronic contribution:     -6.65537      -8.58042       7.77832
Nuclear contribution   :      6.99399       5.69195      -7.42866
                        -----------------------------------------
Total Dipole Moment    :      0.33861      -2.88846       0.34966
                        -----------------------------------------
Magnitude (a.u.)       :      2.92919
Magnitude (Debye)      :      7.44540

Rotational constants in cm-1:     0.000721     0.000160     0.000132
Rotational constants in MHz :    21.610371     4.797843     3.961502

                             ****ORCA TERMINATED NORMALLY****
TOTAL RUN TIME: 0 days 0 hours 12 minutes 4 seconds 709 msec
