                         Program Version 4.2.0 -  RELEASE  -
|  1> # ORCA input file
|  2> # SCF done       -235.431249506868          0.000531079260
|  3> ! CAM-B3LYP def2-SVP def2/J RIJCOSX Grid4 TightSCF
|  4> %maxcore 5000
|  5> %tddft
|  6>     Mode sTDDFT
|  7>     Ethresh 5.0
|  8>     maxcore 5000
|  9> end
| 10>
| 11> %pal
| 12>   nprocs 6
| 13>   end
| 14> * xyz 0 1
| 15>    C        2.47519        -1.54332         1.28525
| 16>    C        1.30168        -0.91951         0.68691
| 17>    C        0.91862        -1.27130        -0.60927
| 18>    C       -0.19620        -0.71656        -1.22569
| 19>    C       -0.97555         0.20650        -0.53418
| 20>    C       -0.63437         0.55169         0.77137
| 21>    C        0.48599        -0.01197         1.36684
| 22>    F        0.75581         0.30338         2.63678
| 23>    F       -1.38949         1.41688         1.44913
| 24>    F       -2.04643         0.74689        -1.11121
| 25>    F       -0.52345        -1.06688        -2.46930
| 26>    F        1.65873        -2.15650        -1.28194
| 27>    C        3.41758        -0.90214         2.00226
| 28>    C        4.51767        -1.64332         2.64476
| 29>    C        5.84076        -1.20781         2.54862
| 30>    C        6.88321        -1.88949         3.16613
| 31>    C        6.61564        -3.03799         3.90649
| 32>    C        5.30493        -3.49580         4.01309
| 33>    C        4.27703        -2.80353         3.38213
| 34>    F        3.02849        -3.25778         3.51146
| 35>    F        5.03864        -4.59451         4.71730
| 36>    F        7.60522        -3.69529         4.50377
| 37>    F        8.13429        -1.44867         3.04864
| 38>    F        6.12996        -0.12400         1.82536
| 39>    C        3.43039         0.53927         2.15372
| 40>    S        3.96114         1.33623         3.61918
| 41>    C        3.56207         2.83162         2.78539
| 42>    N        3.10691         2.62401         1.58156
| 43>    N        3.03058         1.36967         1.23874
| 44>    C        3.72606         4.09865         3.40700
| 45>    C        3.50669         5.26017         2.74517
| 46>    C        3.65105         6.52707         3.36912
| 47>    N        3.47594         7.72639         2.71999
| 48>    C        3.10077         7.91262         1.33842
| 49>    C        1.60171         7.71946         1.12479
| 50>    C        3.66846         8.82194         3.57718
| 51>    O        3.57506         9.98016         3.22071
| 52>    C        3.99205         8.22542         4.85527
| 53>    C        3.97967         6.81624         4.69103
| 54>    C        4.30110         6.21797         5.96755
| 55>    O        4.41364         5.06078         6.32134
| 56>    N        4.47530         7.31310         6.83078
| 57>    C        4.86146         7.12043         8.20793
| 58>    C        6.35310         7.36660         8.42053
| 59>    C        4.29973         8.51307         6.18199
| 60>    C        4.40802         9.77754         6.82375
| 61>    C        4.27545        10.94293         6.15091
| 62>    C        4.38382        12.24941         6.73693
| 63>    C        4.36782        12.52870         8.11277
| 64>    N        4.51395        13.74230         8.59190
| 65>    C        4.69188        14.73822         7.72430
| 66>    N        4.63936        14.60154         6.40003
| 67>    C        4.48873        13.38964         5.92055
| 68>    C        4.87412        16.07504         8.29267
| 69>    C        4.66565        16.15429         9.75793
| 70>    C        3.60713        16.87689        10.29877
| 71>    C        3.37879        16.91916        11.67096
| 72>    C        4.22615        16.22598        12.53001
| 73>    C        5.29685        15.50448        12.00915
| 74>    C        5.50702        15.47311        10.63430
| 75>    F        6.55831        14.80612        10.16144
| 76>    F        6.11665        14.84728        12.83076
| 77>    F        4.01622        16.25578        13.84492
| 78>    F        2.35349        17.61512        12.16316
| 79>    F        2.77874        17.53636         9.48521
| 80>    C        5.14657        17.18735         7.59227
| 81>    C        5.45824        17.25002         6.16608
| 82>    C        4.80298        18.16712         5.34525
| 83>    C        5.07538        18.26085         3.98437
| 84>    C        6.04264        17.43601         3.41939
| 85>    C        6.73493        16.53516         4.22601
| 86>    C        6.44312        16.45187         5.58098
| 87>    F        7.15663        15.61652         6.33802
| 88>    F        7.67871        15.75672         3.69256
| 89>    F        6.31413        17.51372         2.11773
| 90>    F        4.41828        19.13739         3.22378
| 91>    F        3.87461        18.96584         5.87671
| 92>    H        2.58254        -2.60138         1.09042
| 93>    H        4.03317         4.10048         4.44365
| 94>    H        3.21431         5.21842         1.70645
| 95>    H        3.67528         7.22717         0.71002
| 96>    H        3.37732         8.94019         1.08604
| 97>    H        1.29249         6.71496         1.40434
| 98>    H        1.35746         7.88197         0.07887
| 99>    H        1.04541         8.43424         1.72620
|100>    H        4.62520         6.07885         8.44316
|101>    H        4.26161         7.76950         8.85208
|102>    H        6.93271         6.68227         7.80603
|103>    H        6.60836         7.19755         9.46287
|104>    H        6.62558         8.38540         8.15355
|105>    H        4.61592         9.77798         7.88382
|106>    H        4.09809        10.91955         5.08325
|107>    H        4.21162        11.75553         8.85363
|108>    H        4.45205        13.30270         4.84181
|109>    H        5.13610        18.14289         8.10119
|110> *
|111>
|112>                          ****END OF INPUT****

CARTESIAN COORDINATES (ANGSTROEM)
---------------------------------
  C      2.475190   -1.543320    1.285250
  C      1.301680   -0.919510    0.686910
  C      0.918620   -1.271300   -0.609270
  C     -0.196200   -0.716560   -1.225690
  C     -0.975550    0.206500   -0.534180
  C     -0.634370    0.551690    0.771370
  C      0.485990   -0.011970    1.366840
  F      0.755810    0.303380    2.636780
  F     -1.389490    1.416880    1.449130
  F     -2.046430    0.746890   -1.111210
  F     -0.523450   -1.066880   -2.469300
  F      1.658730   -2.156500   -1.281940
  C      3.417580   -0.902140    2.002260
  C      4.517670   -1.643320    2.644760
  C      5.840760   -1.207810    2.548620
  C      6.883210   -1.889490    3.166130
  C      6.615640   -3.037990    3.906490
  C      5.304930   -3.495800    4.013090
  C      4.277030   -2.803530    3.382130
  F      3.028490   -3.257780    3.511460
  F      5.038640   -4.594510    4.717300
  F      7.605220   -3.695290    4.503770
  F      8.134290   -1.448670    3.048640
  F      6.129960   -0.124000    1.825360
  C      3.430390    0.539270    2.153720
  S      3.961140    1.336230    3.619180
  C      3.562070    2.831620    2.785390
  N      3.106910    2.624010    1.581560
  N      3.030580    1.369670    1.238740
  C      3.726060    4.098650    3.407000
  C      3.506690    5.260170    2.745170
  C      3.651050    6.527070    3.369120
  N      3.475940    7.726390    2.719990
  C      3.100770    7.912620    1.338420
  C      1.601710    7.719460    1.124790
  C      3.668460    8.821940    3.577180
  O      3.575060    9.980160    3.220710
  C      3.992050    8.225420    4.855270
  C      3.979670    6.816240    4.691030
  C      4.301100    6.217970    5.967550
  O      4.413640    5.060780    6.321340
  N      4.475300    7.313100    6.830780
  C      4.861460    7.120430    8.207930
  C      6.353100    7.366600    8.420530
  C      4.299730    8.513070    6.181990
  C      4.408020    9.777540    6.823750
  C      4.275450   10.942930    6.150910
  C      4.383820   12.249410    6.736930
  C      4.367820   12.528700    8.112770
  N      4.513950   13.742300    8.591900
  C      4.691880   14.738220    7.724300
  N      4.639360   14.601540    6.400030
  C      4.488730   13.389640    5.920550
  C      4.874120   16.075040    8.292670
  C      4.665650   16.154290    9.757930
  C      3.607130   16.876890   10.298770
  C      3.378790   16.919160   11.670960
  C      4.226150   16.225980   12.530010
  C      5.296850   15.504480   12.009150
  C      5.507020   15.473110   10.634300
  F      6.558310   14.806120   10.161440
  F      6.116650   14.847280   12.830760
  F      4.016220   16.255780   13.844920
  F      2.353490   17.615120   12.163160
  F      2.778740   17.536360    9.485210
  C      5.146570   17.187350    7.592270
  C      5.458240   17.250020    6.166080
  C      4.802980   18.167120    5.345250
  C      5.075380   18.260850    3.984370
  C      6.042640   17.436010    3.419390
  C      6.734930   16.535160    4.226010
  C      6.443120   16.451870    5.580980
  F      7.156630   15.616520    6.338020
  F      7.678710   15.756720    3.692560
  F      6.314130   17.513720    2.117730
  F      4.418280   19.137390    3.223780
  F      3.874610   18.965840    5.876710
  H      2.582540   -2.601380    1.090420
  H      4.033170    4.100480    4.443650
  H      3.214310    5.218420    1.706450
  H      3.675280    7.227170    0.710020
  H      3.377320    8.940190    1.086040
  H      1.292490    6.714960    1.404340
  H      1.357460    7.881970    0.078870
  H      1.045410    8.434240    1.726200
  H      4.625200    6.078850    8.443160
  H      4.261610    7.769500    8.852080
  H      6.932710    6.682270    7.806030
  H      6.608360    7.197550    9.462870
  H      6.625580    8.385400    8.153550
  H      4.615920    9.777980    7.883820
  H      4.098090   10.919550    5.083250
  H      4.211620   11.755530    8.853630
  H      4.452050   13.302700    4.841810
  H      5.136100   18.142890    8.101190

 Total Charge           Charge          ....    0
 Multiplicity           Mult            ....    1
 Number of Electrons    NEL             ....  560
 Basis Dimension        Dim             .... 1172

ORBITAL ENERGIES
----------------

  NO   OCC          E(Eh)            E(eV)
   0   2.0000     -88.981131     -2421.2997
   1   2.0000     -24.819731      -675.3792
   2   2.0000     -24.817988      -675.3318
   3   2.0000     -24.817614      -675.3216
   4   2.0000     -24.814962      -675.2495
   5   2.0000     -24.814643      -675.2408
   6   2.0000     -24.809833      -675.1099
   7   2.0000     -24.809235      -675.0936
   8   2.0000     -24.808932      -675.0854
   9   2.0000     -24.807106      -675.0357
  10   2.0000     -24.806352      -675.0151
  11   2.0000     -24.805139      -674.9822
  12   2.0000     -24.804655      -674.9690
  13   2.0000     -24.804369      -674.9612
  14   2.0000     -24.803930      -674.9492
  15   2.0000     -24.803054      -674.9254
  16   2.0000     -24.801930      -674.8948
  17   2.0000     -24.801854      -674.8928
  18   2.0000     -24.801540      -674.8842
  19   2.0000     -24.801394      -674.8803
  20   2.0000     -24.800766      -674.8632
  21   2.0000     -19.200517      -522.4726
  22   2.0000     -19.198236      -522.4106
  23   2.0000     -14.462077      -393.5331
  24   2.0000     -14.460070      -393.4785
  25   2.0000     -14.445908      -393.0931
  26   2.0000     -14.443981      -393.0407
  27   2.0000     -14.428149      -392.6099
  28   2.0000     -14.427142      -392.5825
  29   2.0000     -10.403212      -283.0858
  30   2.0000     -10.400198      -283.0038
  31   2.0000     -10.399865      -282.9947
  32   2.0000     -10.396823      -282.9119
  33   2.0000     -10.396476      -282.9025
  34   2.0000     -10.391690      -282.7723
  35   2.0000     -10.388525      -282.6861
  36   2.0000     -10.388093      -282.6744
  37   2.0000     -10.388023      -282.6725
  38   2.0000     -10.387450      -282.6569
  39   2.0000     -10.385494      -282.6037
  40   2.0000     -10.384623      -282.5800
  41   2.0000     -10.384341      -282.5723
  42   2.0000     -10.384114      -282.5661
  43   2.0000     -10.384019      -282.5635
  44   2.0000     -10.382777      -282.5297
  45   2.0000     -10.382391      -282.5192
  46   2.0000     -10.381513      -282.4953
  47   2.0000     -10.381354      -282.4910
  48   2.0000     -10.380857      -282.4775
  49   2.0000     -10.380434      -282.4660
  50   2.0000     -10.380373      -282.4643
  51   2.0000     -10.362275      -281.9718
  52   2.0000     -10.351492      -281.6784
  53   2.0000     -10.348370      -281.5935
  54   2.0000     -10.347685      -281.5748
  55   2.0000     -10.345211      -281.5075
  56   2.0000     -10.339286      -281.3463
  57   2.0000     -10.336924      -281.2820
  58   2.0000     -10.331333      -281.1299
  59   2.0000     -10.327040      -281.0130
  60   2.0000     -10.319449      -280.8065
  61   2.0000     -10.317494      -280.7533
  62   2.0000     -10.316935      -280.7381
  63   2.0000     -10.313903      -280.6556
  64   2.0000     -10.312913      -280.6286
  65   2.0000     -10.312138      -280.6076
  66   2.0000     -10.312099      -280.6065
  67   2.0000     -10.311279      -280.5842
  68   2.0000     -10.308640      -280.5124
  69   2.0000     -10.303292      -280.3668
  70   2.0000     -10.302638      -280.3490
  71   2.0000     -10.301323      -280.3133
  72   2.0000     -10.300674      -280.2956
  73   2.0000     -10.271513      -279.5021
  74   2.0000     -10.268832      -279.4291
  75   2.0000     -10.268227      -279.4127
  76   2.0000     -10.265838      -279.3477
  77   2.0000      -8.077329      -219.7953
  78   2.0000      -6.045938      -164.5183
  79   2.0000      -6.042559      -164.4264
  80   2.0000      -6.039793      -164.3511
  81   2.0000      -1.347774       -36.6748
  82   2.0000      -1.341152       -36.4946
  83   2.0000      -1.337382       -36.3920
  84   2.0000      -1.335919       -36.3522
  85   2.0000      -1.333935       -36.2982
  86   2.0000      -1.333483       -36.2859
  87   2.0000      -1.331219       -36.2243
  88   2.0000      -1.327085       -36.1118
  89   2.0000      -1.326177       -36.0871
  90   2.0000      -1.326098       -36.0850
  91   2.0000      -1.325515       -36.0691
  92   2.0000      -1.322119       -35.9767
  93   2.0000      -1.321027       -35.9470
  94   2.0000      -1.320665       -35.9371
  95   2.0000      -1.315579       -35.7987
  96   2.0000      -1.311782       -35.6954
  97   2.0000      -1.311060       -35.6758
  98   2.0000      -1.310782       -35.6682
  99   2.0000      -1.307345       -35.5747
 100   2.0000      -1.306897       -35.5625
 101   2.0000      -1.150555       -31.3082
 102   2.0000      -1.141938       -31.0737
 103   2.0000      -1.135052       -30.8863
 104   2.0000      -1.102946       -30.0127
 105   2.0000      -1.071909       -29.1681
 106   2.0000      -1.063347       -28.9351
 107   2.0000      -1.010756       -27.5041
 108   2.0000      -0.998279       -27.1646
 109   2.0000      -0.996703       -27.1217
 110   2.0000      -0.995188       -27.0804
 111   2.0000      -0.989008       -26.9123
 112   2.0000      -0.965128       -26.2625
 113   2.0000      -0.950094       -25.8534
 114   2.0000      -0.943496       -25.6738
 115   2.0000      -0.934921       -25.4405
 116   2.0000      -0.926238       -25.2042
 117   2.0000      -0.908391       -24.7186
 118   2.0000      -0.894888       -24.3511
 119   2.0000      -0.893736       -24.3198
 120   2.0000      -0.887938       -24.1620
 121   2.0000      -0.879814       -23.9409
 122   2.0000      -0.874290       -23.7906
 123   2.0000      -0.873266       -23.7628
 124   2.0000      -0.863338       -23.4926
 125   2.0000      -0.859367       -23.3846
 126   2.0000      -0.858721       -23.3670
 127   2.0000      -0.845269       -23.0009
 128   2.0000      -0.840522       -22.8718
 129   2.0000      -0.826624       -22.4936
 130   2.0000      -0.812240       -22.1022
 131   2.0000      -0.800010       -21.7694
 132   2.0000      -0.786295       -21.3962
 133   2.0000      -0.777647       -21.1609
 134   2.0000      -0.766793       -20.8655
 135   2.0000      -0.761690       -20.7266
 136   2.0000      -0.759310       -20.6619
 137   2.0000      -0.755131       -20.5482
 138   2.0000      -0.752588       -20.4790
 139   2.0000      -0.746994       -20.3267
 140   2.0000      -0.743751       -20.2385
 141   2.0000      -0.743101       -20.2208
 142   2.0000      -0.736221       -20.0336
 143   2.0000      -0.732481       -19.9318
 144   2.0000      -0.727261       -19.7898
 145   2.0000      -0.715240       -19.4627
 146   2.0000      -0.706851       -19.2344
 147   2.0000      -0.694880       -18.9086
 148   2.0000      -0.694463       -18.8973
 149   2.0000      -0.691582       -18.8189
 150   2.0000      -0.686767       -18.6879
 151   2.0000      -0.682805       -18.5801
 152   2.0000      -0.681591       -18.5470
 153   2.0000      -0.680182       -18.5087
 154   2.0000      -0.676413       -18.4061
 155   2.0000      -0.674472       -18.3533
 156   2.0000      -0.669884       -18.2285
 157   2.0000      -0.669246       -18.2111
 158   2.0000      -0.662102       -18.0167
 159   2.0000      -0.658110       -17.9081
 160   2.0000      -0.655992       -17.8504
 161   2.0000      -0.652780       -17.7630
 162   2.0000      -0.651437       -17.7265
 163   2.0000      -0.638759       -17.3815
 164   2.0000      -0.638425       -17.3724
 165   2.0000      -0.635561       -17.2945
 166   2.0000      -0.629300       -17.1241
 167   2.0000      -0.628112       -17.0918
 168   2.0000      -0.625110       -17.0101
 169   2.0000      -0.624644       -16.9974
 170   2.0000      -0.624546       -16.9948
 171   2.0000      -0.623214       -16.9585
 172   2.0000      -0.621185       -16.9033
 173   2.0000      -0.619837       -16.8666
 174   2.0000      -0.618778       -16.8378
 175   2.0000      -0.615090       -16.7375
 176   2.0000      -0.611736       -16.6462
 177   2.0000      -0.610799       -16.6207
 178   2.0000      -0.609465       -16.5844
 179   2.0000      -0.607801       -16.5391
 180   2.0000      -0.604311       -16.4441
 181   2.0000      -0.603055       -16.4100
 182   2.0000      -0.597841       -16.2681
 183   2.0000      -0.594883       -16.1876
 184   2.0000      -0.593734       -16.1563
 185   2.0000      -0.589302       -16.0357
 186   2.0000      -0.586884       -15.9699
 187   2.0000      -0.585186       -15.9237
 188   2.0000      -0.580951       -15.8085
 189   2.0000      -0.580768       -15.8035
 190   2.0000      -0.578947       -15.7540
 191   2.0000      -0.578457       -15.7406
 192   2.0000      -0.574535       -15.6339
 193   2.0000      -0.573305       -15.6004
 194   2.0000      -0.571913       -15.5626
 195   2.0000      -0.568115       -15.4592
 196   2.0000      -0.562724       -15.3125
 197   2.0000      -0.561231       -15.2719
 198   2.0000      -0.559116       -15.2143
 199   2.0000      -0.556123       -15.1329
 200   2.0000      -0.554705       -15.0943
 201   2.0000      -0.551175       -14.9982
 202   2.0000      -0.547750       -14.9050
 203   2.0000      -0.546489       -14.8707
 204   2.0000      -0.545935       -14.8556
 205   2.0000      -0.542828       -14.7711
 206   2.0000      -0.541807       -14.7433
 207   2.0000      -0.541233       -14.7277
 208   2.0000      -0.540330       -14.7031
 209   2.0000      -0.538594       -14.6559
 210   2.0000      -0.537511       -14.6264
 211   2.0000      -0.535817       -14.5803
 212   2.0000      -0.535541       -14.5728
 213   2.0000      -0.531392       -14.4599
 214   2.0000      -0.530737       -14.4421
 215   2.0000      -0.529985       -14.4216
 216   2.0000      -0.527475       -14.3533
 217   2.0000      -0.524993       -14.2858
 218   2.0000      -0.522630       -14.2215
 219   2.0000      -0.521748       -14.1975
 220   2.0000      -0.520306       -14.1583
 221   2.0000      -0.518032       -14.0964
 222   2.0000      -0.517417       -14.0796
 223   2.0000      -0.516961       -14.0672
 224   2.0000      -0.515478       -14.0269
 225   2.0000      -0.512564       -13.9476
 226   2.0000      -0.508246       -13.8301
 227   2.0000      -0.505924       -13.7669
 228   2.0000      -0.502302       -13.6683
 229   2.0000      -0.496968       -13.5232
 230   2.0000      -0.493414       -13.4265
 231   2.0000      -0.492371       -13.3981
 232   2.0000      -0.490890       -13.3578
 233   2.0000      -0.490245       -13.3402
 234   2.0000      -0.486512       -13.2387
 235   2.0000      -0.480682       -13.0800
 236   2.0000      -0.477877       -13.0037
 237   2.0000      -0.475143       -12.9293
 238   2.0000      -0.474389       -12.9088
 239   2.0000      -0.472552       -12.8588
 240   2.0000      -0.467428       -12.7194
 241   2.0000      -0.464574       -12.6417
 242   2.0000      -0.462777       -12.5928
 243   2.0000      -0.462278       -12.5792
 244   2.0000      -0.461027       -12.5452
 245   2.0000      -0.459095       -12.4926
 246   2.0000      -0.456930       -12.4337
 247   2.0000      -0.455813       -12.4033
 248   2.0000      -0.454236       -12.3604
 249   2.0000      -0.450390       -12.2557
 250   2.0000      -0.444885       -12.1059
 251   2.0000      -0.442349       -12.0369
 252   2.0000      -0.442159       -12.0318
 253   2.0000      -0.434075       -11.8118
 254   2.0000      -0.432175       -11.7601
 255   2.0000      -0.430165       -11.7054
 256   2.0000      -0.415044       -11.2939
 257   2.0000      -0.412389       -11.2217
 258   2.0000      -0.408441       -11.1142
 259   2.0000      -0.398437       -10.8420
 260   2.0000      -0.398321       -10.8389
 261   2.0000      -0.390614       -10.6291
 262   2.0000      -0.377871       -10.2824
 263   2.0000      -0.370881       -10.0922
 264   2.0000      -0.357779        -9.7357
 265   2.0000      -0.354327        -9.6417
 266   2.0000      -0.350375        -9.5342
 267   2.0000      -0.340135        -9.2556
 268   2.0000      -0.336523        -9.1573
 269   2.0000      -0.334580        -9.1044
 270   2.0000      -0.331463        -9.0196
 271   2.0000      -0.329035        -8.9535
 272   2.0000      -0.326163        -8.8754
 273   2.0000      -0.323220        -8.7953
 274   2.0000      -0.322585        -8.7780
 275   2.0000      -0.320079        -8.7098
 276   2.0000      -0.315220        -8.5776
 277   2.0000      -0.304910        -8.2970
 278   2.0000      -0.300268        -8.1707
 279   2.0000      -0.246204        -6.6996
 280   0.0000      -0.098921        -2.6918
 281   0.0000      -0.064136        -1.7452
 282   0.0000      -0.048124        -1.3095
 283   0.0000      -0.024457        -0.6655
 284   0.0000      -0.015428        -0.4198

MULLIKEN ATOMIC CHARGES
-----------------------
   0 C :    0.020177
   1 C :   -0.065654
   2 C :    0.169096
   3 C :    0.174698
   4 C :    0.129449
   5 C :    0.180274
   6 C :    0.202348
   7 F :   -0.163078
   8 F :   -0.158907
   9 F :   -0.152290
  10 F :   -0.156903
  11 F :   -0.160873
  12 C :    0.109267
  13 C :   -0.107068
  14 C :    0.181894
  15 C :    0.174003
  16 C :    0.136709
  17 C :    0.172402
  18 C :    0.178079
  19 F :   -0.157285
  20 F :   -0.153798
  21 F :   -0.147519
  22 F :   -0.153525
  23 F :   -0.155165
  24 C :   -0.156177
  25 S :    0.144373
  26 C :   -0.104889
  27 N :   -0.047137
  28 N :   -0.053676
  29 C :    0.077996
  30 C :   -0.022391
  31 C :    0.138026
  32 N :   -0.256844
  33 C :    0.096203
  34 C :    0.004260
  35 C :    0.169168
  36 O :   -0.213509
  37 C :   -0.065807
  38 C :   -0.063825
  39 C :    0.169604
  40 O :   -0.211094
  41 N :   -0.258583
  42 C :    0.096433
  43 C :    0.003936
  44 C :    0.127135
  45 C :   -0.001358
  46 C :    0.014040
  47 C :    0.014529
  48 C :    0.043276
  49 N :   -0.034537
  50 C :   -0.084978
  51 N :   -0.062722
  52 C :    0.047951
  53 C :    0.095724
  54 C :   -0.136820
  55 C :    0.190907
  56 C :    0.162814
  57 C :    0.137243
  58 C :    0.155350
  59 C :    0.233954
  60 F :   -0.158722
  61 F :   -0.161071
  62 F :   -0.156459
  63 F :   -0.160232
  64 F :   -0.159964
  65 C :   -0.014268
  66 C :   -0.081241
  67 C :    0.172951
  68 C :    0.167945
  69 C :    0.134323
  70 C :    0.162264
  71 C :    0.222064
  72 F :   -0.162900
  73 F :   -0.161914
  74 F :   -0.154895
  75 F :   -0.159044
  76 F :   -0.158477
  77 H :    0.022671
  78 H :    0.011393
  79 H :    0.003529
  80 H :    0.029323
  81 H :    0.042704
  82 H :    0.021282
  83 H :    0.026414
  84 H :    0.028594
  85 H :    0.045125
  86 H :    0.023764
  87 H :    0.031396
  88 H :    0.026307
  89 H :    0.016743
  90 H :   -0.024657
  91 H :    0.020426
  92 H :    0.008787
  93 H :    0.022917
  94 H :    0.028021
Sum of atomic charges:   -0.0000000

LOEWDIN ATOMIC CHARGES
----------------------
   0 C :    0.031729
   1 C :   -0.076307
   2 C :    0.069392
   3 C :    0.025201
   4 C :    0.043367
   5 C :    0.028825
   6 C :    0.069879
   7 F :   -0.035762
   8 F :   -0.037486
   9 F :   -0.030126
  10 F :   -0.036776
  11 F :   -0.040566
  12 C :   -0.039622
  13 C :   -0.085527
  14 C :    0.061376
  15 C :    0.027562
  16 C :    0.044101
  17 C :    0.026671
  18 C :    0.066184
  19 F :   -0.034527
  20 F :   -0.033503
  21 F :   -0.026171
  22 F :   -0.032788
  23 F :   -0.032733
  24 C :   -0.152227
  25 S :    0.420913
  26 C :   -0.145200
  27 N :   -0.076941
  28 N :   -0.068339
  29 C :   -0.010269
  30 C :   -0.010549
  31 C :    0.073035
  32 N :    0.003415
  33 C :    0.037138
  34 C :   -0.059834
  35 C :    0.080848
  36 O :   -0.202214
  37 C :   -0.121308
  38 C :   -0.117659
  39 C :    0.081770
  40 O :   -0.199371
  41 N :    0.000782
  42 C :    0.036100
  43 C :   -0.060540
  44 C :    0.077235
  45 C :   -0.041607
  46 C :    0.030356
  47 C :   -0.070992
  48 C :    0.062094
  49 N :   -0.069430
  50 C :    0.037542
  51 N :   -0.065691
  52 C :    0.066222
  53 C :   -0.023738
  54 C :   -0.070040
  55 C :    0.062717
  56 C :    0.022155
  57 C :    0.038768
  58 C :    0.023369
  59 C :    0.069990
  60 F :   -0.035162
  61 F :   -0.040165
  62 F :   -0.033500
  63 F :   -0.039127
  64 F :   -0.040953
  65 C :    0.033488
  66 C :   -0.079069
  67 C :    0.067393
  68 C :    0.021910
  69 C :    0.041642
  70 C :    0.022159
  71 C :    0.070879
  72 F :   -0.036346
  73 F :   -0.041020
  74 F :   -0.032271
  75 F :   -0.038876
  76 F :   -0.039771
  77 H :    0.041819
  78 H :    0.037096
  79 H :    0.038109
  80 H :    0.026128
  81 H :    0.037448
  82 H :    0.024503
  83 H :    0.032341
  84 H :    0.031605
  85 H :    0.038492
  86 H :    0.022745
  87 H :    0.033046
  88 H :    0.031968
  89 H :    0.022284
  90 H :    0.027563
  91 H :    0.039484
  92 H :    0.025664
  93 H :    0.033486
  94 H :    0.044116

  Mayer bond orders larger than 0.100000
B(  0-C ,  1-C ) :   1.0086 B(  0-C , 12-C ) :   1.8458 B(  0-C , 77-H ) :   0.9504
B(  1-C ,  2-C ) :   1.3374 B(  1-C ,  4-C ) :   0.1087 B(  1-C ,  6-C ) :   1.3183
B(  2-C ,  3-C ) :   1.2767 B(  2-C , 11-F ) :   1.1830 B(  3-C ,  4-C ) :   1.2753
B(  3-C , 10-F ) :   1.1747 B(  4-C ,  5-C ) :   1.2731 B(  4-C ,  9-F ) :   1.1754
B(  5-C ,  6-C ) :   1.2997 B(  5-C ,  8-F ) :   1.1718 B(  6-C ,  7-F ) :   1.1460
B( 12-C , 13-C ) :   0.9661 B( 12-C , 24-C ) :   1.0188 B( 13-C , 14-C ) :   1.3253
B( 13-C , 16-C ) :   0.1055 B( 13-C , 18-C ) :   1.3281 B( 14-C , 15-C ) :   1.2832
B( 14-C , 23-F ) :   1.1627 B( 15-C , 16-C ) :   1.2761 B( 15-C , 22-F ) :   1.1755
B( 16-C , 17-C ) :   1.2753 B( 16-C , 21-F ) :   1.1826 B( 17-C , 18-C ) :   1.2826
B( 17-C , 20-F ) :   1.1753 B( 18-C , 19-F ) :   1.1664 B( 24-C , 25-S ) :   1.1170
B( 24-C , 28-N ) :   1.6622 B( 25-S , 26-C ) :   1.1045 B( 26-C , 27-N ) :   1.6712
B( 26-C , 29-C ) :   1.1008 B( 27-N , 28-N ) :   1.2296 B( 29-C , 30-C ) :   1.6635
B( 29-C , 78-H ) :   0.9195 B( 30-C , 31-C ) :   1.1294 B( 30-C , 79-H ) :   0.9730
B( 31-C , 32-N ) :   1.1605 B( 31-C , 38-C ) :   1.3483 B( 32-N , 33-C ) :   0.9417
B( 32-N , 35-C ) :   1.0647 B( 33-C , 34-C ) :   1.1216 B( 33-C , 80-H ) :   0.9501
B( 33-C , 81-H ) :   0.9294 B( 34-C , 82-H ) :   0.9689 B( 34-C , 83-H ) :   0.9680
B( 34-C , 84-H ) :   0.9635 B( 35-C , 36-O ) :   2.0203 B( 35-C , 37-C ) :   0.9849
B( 36-O , 91-H ) :   0.1162 B( 37-C , 38-C ) :   1.2522 B( 37-C , 44-C ) :   1.3533
B( 38-C , 39-C ) :   0.9866 B( 39-C , 40-O ) :   2.0227 B( 39-C , 41-N ) :   1.0592
B( 40-O , 78-H ) :   0.1136 B( 41-N , 42-C ) :   0.9451 B( 41-N , 44-C ) :   1.1604
B( 42-C , 43-C ) :   1.1203 B( 42-C , 85-H ) :   0.9281 B( 42-C , 86-H ) :   0.9495
B( 43-C , 87-H ) :   0.9632 B( 43-C , 88-H ) :   0.9680 B( 43-C , 89-H ) :   0.9685
B( 44-C , 45-C ) :   1.1505 B( 45-C , 46-C ) :   1.6354 B( 45-C , 90-H ) :   0.9569
B( 46-C , 47-C ) :   1.0668 B( 46-C , 91-H ) :   0.9565 B( 47-C , 48-C ) :   1.3047
B( 47-C , 52-C ) :   1.2970 B( 48-C , 49-N ) :   1.5713 B( 48-C , 92-H ) :   0.9841
B( 49-N , 50-C ) :   1.5676 B( 50-C , 51-N ) :   1.5082 B( 50-C , 53-C ) :   0.9996
B( 51-N , 52-C ) :   1.5616 B( 52-C , 93-H ) :   0.9873 B( 53-C , 54-C ) :   0.9367
B( 53-C , 65-C ) :   1.8607 B( 54-C , 55-C ) :   1.3727 B( 54-C , 57-C ) :   0.1084
B( 54-C , 59-C ) :   1.3418 B( 55-C , 56-C ) :   1.2679 B( 55-C , 64-F ) :   1.1793
B( 56-C , 57-C ) :   1.2836 B( 56-C , 63-F ) :   1.1693 B( 57-C , 58-C ) :   1.2715
B( 57-C , 62-F ) :   1.1721 B( 58-C , 59-C ) :   1.2860 B( 58-C , 61-F ) :   1.1691
B( 59-C , 60-F ) :   1.1776 B( 65-C , 66-C ) :   0.9801 B( 65-C , 94-H ) :   0.9506
B( 66-C , 67-C ) :   1.3559 B( 66-C , 69-C ) :   0.1097 B( 66-C , 71-C ) :   1.3248
B( 67-C , 68-C ) :   1.2666 B( 67-C , 76-F ) :   1.1898 B( 68-C , 69-C ) :   1.2803
B( 68-C , 75-F ) :   1.1723 B( 69-C , 70-C ) :   1.2678 B( 69-C , 74-F ) :   1.1731
B( 70-C , 71-C ) :   1.3014 B( 70-C , 73-F ) :   1.1704 B( 71-C , 72-F ) :   1.1565

-----------------------------------------------------------------------------
         ABSORPTION SPECTRUM VIA TRANSITION ELECTRIC DIPOLE MOMENTS
-----------------------------------------------------------------------------
State   Energy  Wavelength   fosc         T2         TX        TY        TZ
        (cm-1)    (nm)                  (au**2)     (au)      (au)      (au)
-----------------------------------------------------------------------------
   0   16235.9    615.9   0.810166623  16.42756   0.67799   3.27621   2.28787
   1   24516.3    407.9   0.001663231   0.02233  -0.07704   0.07712  -0.10223
   2   27191.9    367.8   0.001306583   0.01582  -0.09194   0.01931  -0.08363
   3   27818.9    359.5   0.140753286   1.66569  -0.55987  -1.11987  -0.31325
   4   28261.8    353.8   0.060103505   0.70012  -0.19475  -0.76274   0.28359
   5   29248.7    341.9   0.016636945   0.18726   0.05846   0.41270  -0.11627
   6   29653.1    337.2   0.060292806   0.66938  -0.34589  -0.71664   0.19016
   7   29828.4    335.3   0.419017996   4.62465   0.40707   2.03861   0.55045
   8   30613.4    326.7   0.363517165   3.90921   0.12908   1.92801  -0.41872
   9   32693.3    305.9   0.007403034   0.07455  -0.13447   0.17979   0.15537
  10   33379.9    299.6   0.076862645   0.75807   0.16744   0.76549  -0.37954
  11   33945.6    294.6   0.102610265   0.99514   0.25905  -0.94318  -0.19608
  12   34463.7    290.2   0.066136282   0.63176   0.02505   0.76229  -0.22372
  13   34598.8    289.0   0.058976212   0.56117   0.05651  -0.61600  -0.42251
  14   34809.3    287.3   0.155184239   1.46767   0.50953  -1.02420  -0.39883
  15   35049.8    285.3   0.022059922   0.20720   0.11014  -0.30755  -0.31700
  16   35757.4    279.7   0.303268155   2.79213  -1.00941   0.78920  -1.07256
  17   36486.0    274.1   0.080135549   0.72306  -0.54333  -0.64269  -0.12163
  18   38040.0    262.9   0.016301674   0.14108   0.14045   0.30398  -0.17014
  19   38440.4    260.1   0.073339283   0.62809  -0.67133   0.39837  -0.13676
  20   38545.8    259.4   0.072987386   0.62337   0.69453   0.32442  -0.18908
  21   38685.3    258.5   0.107941665   0.91858   0.50462   0.42271   0.69661
  22   38839.9    257.5   0.135683016   1.15007   0.11882  -1.05666   0.13938

FINAL SINGLE POINT ENERGY     -4708.735419657830

DIPOLE MOMENT
-------------
                                X             Y             Z
Electronic contribution:     -0.08656      -7.83856      -2.14214
Nuclear contribution   :      0.42638       6.77210       2.64276
                        -----------------------------------------
Total Dipole Moment    :      0.33982      -1.06646       0.50062
                        -----------------------------------------
Magnitude (a.u.)       :      1.22615
Magnitude (Debye)      :      3.11662

Rotational constants in cm-1:     0.001330     0.000212     0.000200
Rotational constants in MHz :    39.863684     6.346124     5.991661

                             ****ORCA TERMINATED NORMALLY****
TOTAL RUN TIME: 0 days 0 hours 8 minutes 5 seconds 374 msec
