                         Program Version 4.2.0 -  RELEASE  -
|  1> # ORCA input file
|  2> # SCF done       -198.683126600978          0.000455766954
|  3> ! CAM-B3LYP def2-SVP def2/J RIJCOSX Grid4 TightSCF
|  4> %maxcore 5000
|  5> %tddft
|  6>     Mode sTDDFT
|  7>     Ethresh 5.0
|  8>     maxcore 5000
|  9> end
| 10>
| 11> %pal
| 12>   nprocs 6
| 13>   end
| 14> * xyz 0 1
| 15>    C        3.81156         2.88970        -1.96921
| 16>    C        4.25849         2.89731        -0.67298
| 17>    C        5.31730         2.09236        -0.20002
| 18>    N        6.16451         1.46601         0.25576
| 19>    C        3.77833         3.71314         0.37339
| 20>    N        3.46522         4.34794         1.27845
| 21>    C        4.39047         2.09797        -3.04704
| 22>    C        3.76491         2.47393        -4.26850
| 23>    C        4.10925         1.90938        -5.46290
| 24>    C        5.11418         0.91723        -5.49000
| 25>    C        5.74026         0.52777        -4.27056
| 26>    C        5.36336         1.13302        -3.04990
| 27>    C        6.73904        -0.46651        -4.30778
| 28>    C        7.10428        -1.04759        -5.49156
| 29>    C        6.48782        -0.66256        -6.69159
| 30>    C        5.51389         0.29898        -6.69095
| 31>    C        2.74988         3.50671        -4.00860
| 32>    O        2.06339         4.05329        -4.84660
| 33>    C        2.74442         3.70459        -2.53560
| 34>    C        1.86751         4.42592        -1.77629
| 35>    C        0.81123         5.29479        -2.12941
| 36>    S       -0.11814         5.95584        -0.79672
| 37>    C       -1.10851         6.89229        -1.86620
| 38>    C       -0.71694         6.68040        -3.19659
| 39>    C        0.35190         5.79086        -3.33619
| 40>    C       -1.34414         7.30014        -4.29479
| 41>    N       -1.83895         7.78291        -5.20875
| 42>    C       -2.13807         7.74746        -1.41745
| 43>    C       -2.48420         7.87293        -0.10688
| 44>    C       -3.48975         8.75528         0.34761
| 45>    N       -3.88053         8.86164         1.66426
| 46>    C       -3.41526         8.05656         2.76789
| 47>    C       -4.03526         6.66168         2.75670
| 48>    C       -4.87108         9.83940         1.84255
| 49>    O       -5.36982        10.10377         2.91904
| 50>    C       -5.08582        10.37889         0.51715
| 51>    C       -4.23217         9.68614        -0.37675
| 52>    C       -4.43013        10.23529        -1.69904
| 53>    O       -3.94041         9.96474        -2.77616
| 54>    N       -5.39957        11.23885        -1.51506
| 55>    C       -5.83623        12.05721        -2.62024
| 56>    C       -5.11208        13.40117        -2.65196
| 57>    C       -5.79132        11.34210        -0.20167
| 58>    C       -6.73646        12.29525         0.26693
| 59>    C       -7.13895        12.34039         1.55722
| 60>    C       -8.06557        13.29406         2.11220
| 61>    C       -8.63511        13.03399         3.36107
| 62>    C       -9.51944        13.92568         3.94083
| 63>    N      -10.02038        13.59976         5.25307
| 64>    O      -10.01946        12.43164         5.57333
| 65>    O      -10.40351        14.50936         5.95950
| 66>    C       -9.86871        15.13527         3.31208
| 67>    C       -9.27664        15.39035         2.06733
| 68>    C       -8.40850        14.50004         1.48117
| 69>    C      -10.81316        16.07464         3.87257
| 70>    C      -10.68436        17.41272         3.74183
| 71>    C      -11.62794        18.31698         4.30028
| 72>    C      -11.49474        19.67136         4.28545
| 73>    C      -12.40881        20.64075         4.86923
| 74>    C      -13.70327        20.41207         5.25150
| 75>    C      -14.55337        21.40295         5.78716
| 76>    N      -15.29097        22.16482         6.22635
| 77>    C      -14.38345        19.18298         5.11455
| 78>    N      -15.00727        18.22488         5.01046
| 79>    C      -11.72484        21.92731         4.90426
| 80>    C      -10.47229        21.79516         4.23857
| 81>    C      -10.30485        20.40832         3.77422
| 82>    O       -9.38367        19.96880         3.11860
| 83>    C       -9.60990        22.84586         4.10943
| 84>    C       -9.96281        24.09842         4.65858
| 85>    C      -11.21046        24.23684         5.33335
| 86>    C      -12.08604        23.13287         5.44590
| 87>    C      -11.54898        25.48992         5.88380
| 88>    C      -10.69777        26.55556         5.77427
| 89>    C       -9.46977        26.41813         5.10968
| 90>    C       -9.11047        25.21609         4.56312
| 91>    H        3.61963         2.21678        -6.37507
| 92>    H        5.85381         0.81124        -2.14524
| 93>    H        7.21173        -0.75856        -3.38152
| 94>    H        7.87104        -1.80746        -5.50980
| 95>    H        6.78833        -1.13177        -7.61641
| 96>    H        5.03541         0.59949        -7.61157
| 97>    H        1.97864         4.32617        -0.70270
| 98>    H        0.77842         5.51313        -4.28339
| 99>    H       -2.65511         8.32263        -2.17627
|100>    H       -1.96193         7.27781         0.63096
|101>    H       -3.71901         8.58597         3.67525
|102>    H       -2.32338         7.99753         2.74416
|103>    H       -5.11710         6.73530         2.83488
|104>    H       -3.66417         6.08863         3.60163
|105>    H       -3.78964         6.13174         1.83900
|106>    H       -6.91974        12.19522        -2.56813
|107>    H       -5.59611        11.49400        -3.52646
|108>    H       -5.28382        13.96232        -1.73575
|109>    H       -5.46369        13.98870        -3.49544
|110>    H       -4.04259        13.24121        -2.76273
|111>    H       -7.13906        12.98649        -0.45900
|112>    H       -6.75401        11.60276         2.24914
|113>    H       -8.38278        12.12904         3.89469
|114>    H       -9.53370        16.30358         1.55355
|115>    H       -7.96964        14.74931         0.52773
|116>    H      -11.64652        15.67906         4.43853
|117>    H       -9.82429        17.83633         3.24433
|118>    H      -12.48482        17.87523         4.79323
|119>    H       -8.66672        22.72078         3.59839
|120>    H      -13.02012        23.26750         5.96793
|121>    H      -12.49577        25.59104         6.39367
|122>    H      -10.96583        27.51096         6.19973
|123>    H       -8.80988        27.26935         5.03354
|124>    H       -8.16617        25.10413         4.05061
|125> *
|126>
|127>                          ****END OF INPUT****

CARTESIAN COORDINATES (ANGSTROEM)
---------------------------------
  C      3.811560    2.889700   -1.969210
  C      4.258490    2.897310   -0.672980
  C      5.317300    2.092360   -0.200020
  N      6.164510    1.466010    0.255760
  C      3.778330    3.713140    0.373390
  N      3.465220    4.347940    1.278450
  C      4.390470    2.097970   -3.047040
  C      3.764910    2.473930   -4.268500
  C      4.109250    1.909380   -5.462900
  C      5.114180    0.917230   -5.490000
  C      5.740260    0.527770   -4.270560
  C      5.363360    1.133020   -3.049900
  C      6.739040   -0.466510   -4.307780
  C      7.104280   -1.047590   -5.491560
  C      6.487820   -0.662560   -6.691590
  C      5.513890    0.298980   -6.690950
  C      2.749880    3.506710   -4.008600
  O      2.063390    4.053290   -4.846600
  C      2.744420    3.704590   -2.535600
  C      1.867510    4.425920   -1.776290
  C      0.811230    5.294790   -2.129410
  S     -0.118140    5.955840   -0.796720
  C     -1.108510    6.892290   -1.866200
  C     -0.716940    6.680400   -3.196590
  C      0.351900    5.790860   -3.336190
  C     -1.344140    7.300140   -4.294790
  N     -1.838950    7.782910   -5.208750
  C     -2.138070    7.747460   -1.417450
  C     -2.484200    7.872930   -0.106880
  C     -3.489750    8.755280    0.347610
  N     -3.880530    8.861640    1.664260
  C     -3.415260    8.056560    2.767890
  C     -4.035260    6.661680    2.756700
  C     -4.871080    9.839400    1.842550
  O     -5.369820   10.103770    2.919040
  C     -5.085820   10.378890    0.517150
  C     -4.232170    9.686140   -0.376750
  C     -4.430130   10.235290   -1.699040
  O     -3.940410    9.964740   -2.776160
  N     -5.399570   11.238850   -1.515060
  C     -5.836230   12.057210   -2.620240
  C     -5.112080   13.401170   -2.651960
  C     -5.791320   11.342100   -0.201670
  C     -6.736460   12.295250    0.266930
  C     -7.138950   12.340390    1.557220
  C     -8.065570   13.294060    2.112200
  C     -8.635110   13.033990    3.361070
  C     -9.519440   13.925680    3.940830
  N    -10.020380   13.599760    5.253070
  O    -10.019460   12.431640    5.573330
  O    -10.403510   14.509360    5.959500
  C     -9.868710   15.135270    3.312080
  C     -9.276640   15.390350    2.067330
  C     -8.408500   14.500040    1.481170
  C    -10.813160   16.074640    3.872570
  C    -10.684360   17.412720    3.741830
  C    -11.627940   18.316980    4.300280
  C    -11.494740   19.671360    4.285450
  C    -12.408810   20.640750    4.869230
  C    -13.703270   20.412070    5.251500
  C    -14.553370   21.402950    5.787160
  N    -15.290970   22.164820    6.226350
  C    -14.383450   19.182980    5.114550
  N    -15.007270   18.224880    5.010460
  C    -11.724840   21.927310    4.904260
  C    -10.472290   21.795160    4.238570
  C    -10.304850   20.408320    3.774220
  O     -9.383670   19.968800    3.118600
  C     -9.609900   22.845860    4.109430
  C     -9.962810   24.098420    4.658580
  C    -11.210460   24.236840    5.333350
  C    -12.086040   23.132870    5.445900
  C    -11.548980   25.489920    5.883800
  C    -10.697770   26.555560    5.774270
  C     -9.469770   26.418130    5.109680
  C     -9.110470   25.216090    4.563120
  H      3.619630    2.216780   -6.375070
  H      5.853810    0.811240   -2.145240
  H      7.211730   -0.758560   -3.381520
  H      7.871040   -1.807460   -5.509800
  H      6.788330   -1.131770   -7.616410
  H      5.035410    0.599490   -7.611570
  H      1.978640    4.326170   -0.702700
  H      0.778420    5.513130   -4.283390
  H     -2.655110    8.322630   -2.176270
  H     -1.961930    7.277810    0.630960
  H     -3.719010    8.585970    3.675250
  H     -2.323380    7.997530    2.744160
  H     -5.117100    6.735300    2.834880
  H     -3.664170    6.088630    3.601630
  H     -3.789640    6.131740    1.839000
  H     -6.919740   12.195220   -2.568130
  H     -5.596110   11.494000   -3.526460
  H     -5.283820   13.962320   -1.735750
  H     -5.463690   13.988700   -3.495440
  H     -4.042590   13.241210   -2.762730
  H     -7.139060   12.986490   -0.459000
  H     -6.754010   11.602760    2.249140
  H     -8.382780   12.129040    3.894690
  H     -9.533700   16.303580    1.553550
  H     -7.969640   14.749310    0.527730
  H    -11.646520   15.679060    4.438530
  H     -9.824290   17.836330    3.244330
  H    -12.484820   17.875230    4.793230
  H     -8.666720   22.720780    3.598390
  H    -13.020120   23.267500    5.967930
  H    -12.495770   25.591040    6.393670
  H    -10.965830   27.510960    6.199730
  H     -8.809880   27.269350    5.033540
  H     -8.166170   25.104130    4.050610

 Total Charge           Charge          ....    0
 Multiplicity           Mult            ....    1
 Number of Electrons    NEL             ....  520
 Basis Dimension        Dim             .... 1238

ORBITAL ENERGIES
----------------

  NO   OCC          E(Eh)            E(eV)
   0   2.0000     -88.985303     -2421.4132
   1   2.0000     -19.252038      -523.8746
   2   2.0000     -19.250416      -523.8304
   3   2.0000     -19.224610      -523.1282
   4   2.0000     -19.219973      -523.0021
   5   2.0000     -19.202188      -522.5181
   6   2.0000     -19.197394      -522.3876
   7   2.0000     -14.656785      -398.8314
   8   2.0000     -14.463268      -393.5655
   9   2.0000     -14.460946      -393.5023
  10   2.0000     -14.422012      -392.4429
  11   2.0000     -14.418059      -392.3353
  12   2.0000     -14.416373      -392.2895
  13   2.0000     -14.415653      -392.2699
  14   2.0000     -14.406902      -392.0317
  15   2.0000     -10.383474      -282.5487
  16   2.0000     -10.381156      -282.4856
  17   2.0000     -10.375521      -282.3323
  18   2.0000     -10.370751      -282.2025
  19   2.0000     -10.350856      -281.6611
  20   2.0000     -10.346910      -281.5537
  21   2.0000     -10.346455      -281.5413
  22   2.0000     -10.345951      -281.5276
  23   2.0000     -10.343734      -281.4673
  24   2.0000     -10.343305      -281.4556
  25   2.0000     -10.343238      -281.4538
  26   2.0000     -10.341482      -281.4060
  27   2.0000     -10.332187      -281.1531
  28   2.0000     -10.331739      -281.1409
  29   2.0000     -10.325516      -280.9716
  30   2.0000     -10.324853      -280.9535
  31   2.0000     -10.323341      -280.9124
  32   2.0000     -10.321043      -280.8499
  33   2.0000     -10.318766      -280.7879
  34   2.0000     -10.318216      -280.7729
  35   2.0000     -10.317205      -280.7454
  36   2.0000     -10.316484      -280.7258
  37   2.0000     -10.314645      -280.6758
  38   2.0000     -10.311722      -280.5962
  39   2.0000     -10.310081      -280.5516
  40   2.0000     -10.309558      -280.5373
  41   2.0000     -10.309415      -280.5335
  42   2.0000     -10.308550      -280.5099
  43   2.0000     -10.307600      -280.4841
  44   2.0000     -10.306736      -280.4605
  45   2.0000     -10.306401      -280.4514
  46   2.0000     -10.306145      -280.4445
  47   2.0000     -10.305076      -280.4154
  48   2.0000     -10.304850      -280.4092
  49   2.0000     -10.304507      -280.3999
  50   2.0000     -10.303207      -280.3645
  51   2.0000     -10.302546      -280.3465
  52   2.0000     -10.301239      -280.3110
  53   2.0000     -10.301005      -280.3046
  54   2.0000     -10.300776      -280.2984
  55   2.0000     -10.300259      -280.2843
  56   2.0000     -10.300125      -280.2807
  57   2.0000     -10.299566      -280.2654
  58   2.0000     -10.299299      -280.2582
  59   2.0000     -10.298679      -280.2413
  60   2.0000     -10.298245      -280.2295
  61   2.0000     -10.292191      -280.0648
  62   2.0000     -10.290537      -280.0197
  63   2.0000     -10.289587      -279.9939
  64   2.0000     -10.289492      -279.9913
  65   2.0000     -10.288979      -279.9774
  66   2.0000     -10.288771      -279.9717
  67   2.0000     -10.288327      -279.9596
  68   2.0000     -10.288303      -279.9590
  69   2.0000     -10.287784      -279.9448
  70   2.0000     -10.287464      -279.9361
  71   2.0000     -10.286876      -279.9201
  72   2.0000     -10.272922      -279.5404
  73   2.0000     -10.271513      -279.5021
  74   2.0000     -10.269843      -279.4566
  75   2.0000     -10.269427      -279.4453
  76   2.0000      -8.080709      -219.8873
  77   2.0000      -6.049751      -164.6221
  78   2.0000      -6.045847      -164.5159
  79   2.0000      -6.043069      -164.4403
  80   2.0000      -1.332702       -36.2647
  81   2.0000      -1.151457       -31.3327
  82   2.0000      -1.143133       -31.1062
  83   2.0000      -1.139433       -31.0055
  84   2.0000      -1.135614       -30.9016
  85   2.0000      -1.134344       -30.8671
  86   2.0000      -1.073241       -29.2044
  87   2.0000      -1.064500       -28.9665
  88   2.0000      -1.024313       -27.8730
  89   2.0000      -1.020226       -27.7617
  90   2.0000      -1.018914       -27.7261
  91   2.0000      -1.003292       -27.3010
  92   2.0000      -1.002753       -27.2863
  93   2.0000      -0.999659       -27.2021
  94   2.0000      -0.997942       -27.1554
  95   2.0000      -0.994382       -27.0585
  96   2.0000      -0.986637       -26.8478
  97   2.0000      -0.975362       -26.5410
  98   2.0000      -0.973143       -26.4806
  99   2.0000      -0.943250       -25.6671
 100   2.0000      -0.938599       -25.5406
 101   2.0000      -0.933945       -25.4139
 102   2.0000      -0.929197       -25.2847
 103   2.0000      -0.925043       -25.1717
 104   2.0000      -0.919406       -25.0183
 105   2.0000      -0.908487       -24.7212
 106   2.0000      -0.902884       -24.5687
 107   2.0000      -0.895236       -24.3606
 108   2.0000      -0.888814       -24.1859
 109   2.0000      -0.884181       -24.0598
 110   2.0000      -0.883252       -24.0345
 111   2.0000      -0.880740       -23.9661
 112   2.0000      -0.874079       -23.7849
 113   2.0000      -0.867265       -23.5995
 114   2.0000      -0.849010       -23.1027
 115   2.0000      -0.843720       -22.9588
 116   2.0000      -0.831781       -22.6339
 117   2.0000      -0.829912       -22.5831
 118   2.0000      -0.828251       -22.5379
 119   2.0000      -0.811066       -22.0702
 120   2.0000      -0.807160       -21.9639
 121   2.0000      -0.801503       -21.8100
 122   2.0000      -0.782407       -21.2904
 123   2.0000      -0.774298       -21.0697
 124   2.0000      -0.768481       -20.9114
 125   2.0000      -0.767080       -20.8733
 126   2.0000      -0.762956       -20.7611
 127   2.0000      -0.741600       -20.1800
 128   2.0000      -0.736245       -20.0343
 129   2.0000      -0.729429       -19.8488
 130   2.0000      -0.717841       -19.5334
 131   2.0000      -0.714671       -19.4472
 132   2.0000      -0.711470       -19.3601
 133   2.0000      -0.707718       -19.2580
 134   2.0000      -0.705321       -19.1928
 135   2.0000      -0.702558       -19.1176
 136   2.0000      -0.697989       -18.9932
 137   2.0000      -0.692579       -18.8460
 138   2.0000      -0.684532       -18.6271
 139   2.0000      -0.680622       -18.5207
 140   2.0000      -0.668950       -18.2031
 141   2.0000      -0.666059       -18.1244
 142   2.0000      -0.664843       -18.0913
 143   2.0000      -0.658910       -17.9299
 144   2.0000      -0.652106       -17.7447
 145   2.0000      -0.646478       -17.5916
 146   2.0000      -0.640410       -17.4264
 147   2.0000      -0.639400       -17.3990
 148   2.0000      -0.634855       -17.2753
 149   2.0000      -0.627595       -17.0777
 150   2.0000      -0.619524       -16.8581
 151   2.0000      -0.617942       -16.8151
 152   2.0000      -0.615090       -16.7374
 153   2.0000      -0.609879       -16.5957
 154   2.0000      -0.608421       -16.5560
 155   2.0000      -0.604881       -16.4597
 156   2.0000      -0.597504       -16.2589
 157   2.0000      -0.594196       -16.1689
 158   2.0000      -0.590324       -16.0635
 159   2.0000      -0.587199       -15.9785
 160   2.0000      -0.584887       -15.9156
 161   2.0000      -0.581152       -15.8140
 162   2.0000      -0.575232       -15.6529
 163   2.0000      -0.569289       -15.4911
 164   2.0000      -0.563487       -15.3333
 165   2.0000      -0.558974       -15.2105
 166   2.0000      -0.553520       -15.0620
 167   2.0000      -0.550515       -14.9803
 168   2.0000      -0.549544       -14.9538
 169   2.0000      -0.548371       -14.9219
 170   2.0000      -0.544647       -14.8206
 171   2.0000      -0.543525       -14.7901
 172   2.0000      -0.543102       -14.7785
 173   2.0000      -0.539894       -14.6913
 174   2.0000      -0.539094       -14.6695
 175   2.0000      -0.537886       -14.6366
 176   2.0000      -0.536477       -14.5983
 177   2.0000      -0.535795       -14.5797
 178   2.0000      -0.528749       -14.3880
 179   2.0000      -0.527711       -14.3597
 180   2.0000      -0.525571       -14.3015
 181   2.0000      -0.521883       -14.2012
 182   2.0000      -0.521306       -14.1855
 183   2.0000      -0.519180       -14.1276
 184   2.0000      -0.518161       -14.0999
 185   2.0000      -0.516787       -14.0625
 186   2.0000      -0.515760       -14.0345
 187   2.0000      -0.511563       -13.9203
 188   2.0000      -0.508009       -13.8236
 189   2.0000      -0.506006       -13.7691
 190   2.0000      -0.503026       -13.6880
 191   2.0000      -0.501069       -13.6348
 192   2.0000      -0.500803       -13.6276
 193   2.0000      -0.497756       -13.5446
 194   2.0000      -0.497159       -13.5284
 195   2.0000      -0.494583       -13.4583
 196   2.0000      -0.490298       -13.3417
 197   2.0000      -0.488351       -13.2887
 198   2.0000      -0.485235       -13.2039
 199   2.0000      -0.484443       -13.1824
 200   2.0000      -0.477459       -12.9923
 201   2.0000      -0.474735       -12.9182
 202   2.0000      -0.469369       -12.7722
 203   2.0000      -0.469109       -12.7651
 204   2.0000      -0.468254       -12.7418
 205   2.0000      -0.466302       -12.6887
 206   2.0000      -0.463032       -12.5997
 207   2.0000      -0.461014       -12.5448
 208   2.0000      -0.457947       -12.4614
 209   2.0000      -0.453608       -12.3433
 210   2.0000      -0.450960       -12.2713
 211   2.0000      -0.449177       -12.2227
 212   2.0000      -0.448869       -12.2144
 213   2.0000      -0.447683       -12.1821
 214   2.0000      -0.446733       -12.1562
 215   2.0000      -0.445190       -12.1142
 216   2.0000      -0.444930       -12.1071
 217   2.0000      -0.443630       -12.0718
 218   2.0000      -0.442753       -12.0479
 219   2.0000      -0.441309       -12.0086
 220   2.0000      -0.437489       -11.9047
 221   2.0000      -0.437187       -11.8965
 222   2.0000      -0.436746       -11.8845
 223   2.0000      -0.434704       -11.8289
 224   2.0000      -0.433818       -11.8048
 225   2.0000      -0.433108       -11.7855
 226   2.0000      -0.432573       -11.7709
 227   2.0000      -0.430502       -11.7146
 228   2.0000      -0.429961       -11.6998
 229   2.0000      -0.425992       -11.5918
 230   2.0000      -0.423384       -11.5209
 231   2.0000      -0.420539       -11.4434
 232   2.0000      -0.415097       -11.2954
 233   2.0000      -0.411104       -11.1867
 234   2.0000      -0.408608       -11.1188
 235   2.0000      -0.408372       -11.1124
 236   2.0000      -0.404406       -11.0045
 237   2.0000      -0.394545       -10.7361
 238   2.0000      -0.391963       -10.6659
 239   2.0000      -0.388673       -10.5763
 240   2.0000      -0.383546       -10.4368
 241   2.0000      -0.379684       -10.3317
 242   2.0000      -0.378172       -10.2906
 243   2.0000      -0.371372       -10.1055
 244   2.0000      -0.357032        -9.7153
 245   2.0000      -0.356725        -9.7070
 246   2.0000      -0.351081        -9.5534
 247   2.0000      -0.345135        -9.3916
 248   2.0000      -0.342598        -9.3226
 249   2.0000      -0.340912        -9.2767
 250   2.0000      -0.338695        -9.2164
 251   2.0000      -0.334309        -9.0970
 252   2.0000      -0.324476        -8.8294
 253   2.0000      -0.321268        -8.7422
 254   2.0000      -0.318964        -8.6794
 255   2.0000      -0.303775        -8.2661
 256   2.0000      -0.301368        -8.2007
 257   2.0000      -0.293064        -7.9747
 258   2.0000      -0.289910        -7.8889
 259   2.0000      -0.244490        -6.6529
 260   0.0000      -0.116633        -3.1738
 261   0.0000      -0.099787        -2.7153
 262   0.0000      -0.080715        -2.1964
 263   0.0000      -0.063893        -1.7386
 264   0.0000      -0.059595        -1.6217

MULLIKEN ATOMIC CHARGES
-----------------------
   0 C :    0.313441
   1 C :   -0.351018
   2 C :   -0.183580
   3 N :    0.148526
   4 C :   -0.191468
   5 N :    0.152912
   6 C :    0.044600
   7 C :   -0.005387
   8 C :   -0.074910
   9 C :    0.094661
  10 C :    0.092327
  11 C :   -0.075284
  12 C :   -0.015514
  13 C :    0.032925
  14 C :    0.037618
  15 C :   -0.013175
  16 C :    0.160868
  17 O :   -0.151115
  18 C :   -0.079478
  19 C :    0.048131
  20 C :   -0.096884
  21 S :    0.144321
  22 C :   -0.029958
  23 C :   -0.068675
  24 C :    0.035626
  25 C :   -0.179057
  26 N :    0.154984
  27 C :   -0.005139
  28 C :   -0.025743
  29 C :    0.134546
  30 N :   -0.255396
  31 C :    0.095517
  32 C :    0.001566
  33 C :    0.163579
  34 O :   -0.210676
  35 C :   -0.070965
  36 C :   -0.054547
  37 C :    0.159639
  38 O :   -0.188268
  39 N :   -0.258224
  40 C :    0.098666
  41 C :    0.000825
  42 C :    0.133646
  43 C :   -0.002884
  44 C :    0.009314
  45 C :    0.106056
  46 C :   -0.069000
  47 C :    0.164975
  48 N :    0.245411
  49 O :   -0.223420
  50 O :   -0.231143
  51 C :    0.043192
  52 C :   -0.017765
  53 C :    0.017737
  54 C :    0.037756
  55 C :   -0.010785
  56 C :   -0.036130
  57 C :   -0.068535
  58 C :    0.315365
  59 C :   -0.341403
  60 C :   -0.179779
  61 N :    0.149572
  62 C :   -0.200700
  63 N :    0.157457
  64 C :    0.047898
  65 C :    0.000403
  66 C :    0.152223
  67 O :   -0.153744
  68 C :   -0.078070
  69 C :    0.095767
  70 C :    0.093682
  71 C :   -0.080482
  72 C :   -0.016459
  73 C :    0.038330
  74 C :    0.034312
  75 C :   -0.014205
  76 H :   -0.011778
  77 H :   -0.007763
  78 H :   -0.008846
  79 H :   -0.001917
  80 H :   -0.003893
  81 H :   -0.016198
  82 H :    0.009565
  83 H :    0.028143
  84 H :    0.043294
  85 H :   -0.012442
  86 H :    0.046390
  87 H :    0.028076
  88 H :    0.032637
  89 H :    0.028010
  90 H :    0.014814
  91 H :    0.025484
  92 H :    0.050356
  93 H :    0.011285
  94 H :    0.026902
  95 H :    0.035899
  96 H :   -0.027245
  97 H :    0.020077
  98 H :    0.019908
  99 H :    0.000747
 100 H :   -0.010408
 101 H :    0.030600
 102 H :    0.033356
 103 H :    0.022900
 104 H :   -0.014451
 105 H :   -0.007649
 106 H :   -0.008716
 107 H :   -0.004587
 108 H :   -0.003671
 109 H :   -0.018290
Sum of atomic charges:   -0.0000000

LOEWDIN ATOMIC CHARGES
----------------------
   0 C :    0.076747
   1 C :   -0.139327
   2 C :   -0.017023
   3 N :   -0.051870
   4 C :   -0.024396
   5 N :   -0.051752
   6 C :   -0.027128
   7 C :   -0.056150
   8 C :    0.034296
   9 C :   -0.008012
  10 C :   -0.005919
  11 C :    0.020836
  12 C :   -0.004690
  13 C :   -0.012372
  14 C :   -0.010825
  15 C :   -0.008768
  16 C :    0.088512
  17 O :   -0.138817
  18 C :   -0.085837
  19 C :    0.043887
  20 C :   -0.172213
  21 S :    0.469090
  22 C :   -0.125452
  23 C :   -0.097709
  24 C :    0.019696
  25 C :   -0.033094
  26 N :   -0.035049
  27 C :   -0.001017
  28 C :   -0.028206
  29 C :    0.065356
  30 N :    0.001053
  31 C :    0.036424
  32 C :   -0.060580
  33 C :    0.078908
  34 O :   -0.202514
  35 C :   -0.123100
  36 C :   -0.108169
  37 C :    0.081372
  38 O :   -0.180447
  39 N :    0.001192
  40 C :    0.036660
  41 C :   -0.060944
  42 C :    0.083501
  43 C :   -0.045268
  44 C :    0.039251
  45 C :   -0.024284
  46 C :    0.021511
  47 C :   -0.021588
  48 N :    0.284444
  49 O :   -0.191236
  50 O :   -0.190055
  51 C :   -0.005817
  52 C :    0.002619
  53 C :    0.014239
  54 C :    0.035883
  55 C :   -0.026576
  56 C :    0.073184
  57 C :   -0.085904
  58 C :    0.075243
  59 C :   -0.134787
  60 C :   -0.017071
  61 N :   -0.051322
  62 C :   -0.022449
  63 N :   -0.048369
  64 C :   -0.025188
  65 C :   -0.056009
  66 C :    0.087081
  67 O :   -0.146024
  68 C :    0.032730
  69 C :   -0.008260
  70 C :   -0.005646
  71 C :    0.020105
  72 C :   -0.004980
  73 C :   -0.012348
  74 C :   -0.011948
  75 C :   -0.009350
  76 H :    0.039592
  77 H :    0.039229
  78 H :    0.035024
  79 H :    0.033956
  80 H :    0.033364
  81 H :    0.032431
  82 H :    0.042991
  83 H :    0.043143
  84 H :    0.048054
  85 H :    0.025155
  86 H :    0.039128
  87 H :    0.024101
  88 H :    0.033273
  89 H :    0.032752
  90 H :    0.021625
  91 H :    0.023687
  92 H :    0.041022
  93 H :    0.019956
  94 H :    0.032110
  95 H :    0.034607
  96 H :    0.027301
  97 H :    0.039985
  98 H :    0.048616
  99 H :    0.040185
 100 H :    0.033450
 101 H :    0.037662
 102 H :    0.033307
 103 H :    0.044956
 104 H :    0.038617
 105 H :    0.039281
 106 H :    0.035100
 107 H :    0.033425
 108 H :    0.033163
 109 H :    0.031794

  Mayer bond orders larger than 0.100000
B(  0-C ,  1-C ) :   1.6232 B(  0-C ,  6-C ) :   0.9859 B(  0-C , 18-C ) :   1.0722
B(  1-C ,  2-C ) :   1.1488 B(  1-C ,  4-C ) :   1.1395 B(  2-C ,  3-N ) :   2.9640
B(  4-C ,  5-N ) :   2.9717 B(  6-C ,  7-C ) :   1.2149 B(  6-C , 11-C ) :   1.4489
B(  7-C ,  8-C ) :   1.4676 B(  7-C , 16-C ) :   0.9579 B(  8-C ,  9-C ) :   1.1806
B(  8-C , 76-H ) :   1.0166 B(  9-C , 10-C ) :   1.2555 B(  9-C , 15-C ) :   1.2438
B( 10-C , 11-C ) :   1.2077 B( 10-C , 12-C ) :   1.2406 B( 11-C , 77-H ) :   0.9894
B( 12-C , 13-C ) :   1.4887 B( 12-C , 78-H ) :   0.9974 B( 13-C , 14-C ) :   1.2591
B( 13-C , 79-H ) :   0.9896 B( 14-C , 15-C ) :   1.4890 B( 14-C , 80-H ) :   0.9891
B( 15-C , 81-H ) :   0.9979 B( 16-C , 17-O ) :   2.1720 B( 16-C , 18-C ) :   0.9314
B( 18-C , 19-C ) :   1.6172 B( 19-C , 20-C ) :   1.1926 B( 19-C , 82-H ) :   0.9102
B( 20-C , 21-S ) :   1.1029 B( 20-C , 24-C ) :   1.4383 B( 21-S , 22-C ) :   1.1482
B( 22-C , 23-C ) :   1.3902 B( 22-C , 27-C ) :   1.1962 B( 23-C , 24-C ) :   1.2965
B( 23-C , 25-C ) :   1.1081 B( 24-C , 83-H ) :   0.9819 B( 25-C , 26-N ) :   3.0277
B( 27-C , 28-C ) :   1.5667 B( 27-C , 84-H ) :   0.9441 B( 28-C , 29-C ) :   1.1691
B( 28-C , 85-H ) :   0.9612 B( 29-C , 30-N ) :   1.1522 B( 29-C , 36-C ) :   1.3500
B( 30-N , 31-C ) :   0.9437 B( 30-N , 33-C ) :   1.0688 B( 31-C , 32-C ) :   1.1190
B( 31-C , 86-H ) :   0.9279 B( 31-C , 87-H ) :   0.9499 B( 32-C , 88-H ) :   0.9639
B( 32-C , 89-H ) :   0.9682 B( 32-C , 90-H ) :   0.9687 B( 33-C , 34-O ) :   2.0234
B( 33-C , 35-C ) :   0.9862 B( 34-O , 97-H ) :   0.1169 B( 35-C , 36-C ) :   1.2578
B( 35-C , 42-C ) :   1.3377 B( 36-C , 37-C ) :   0.9768 B( 37-C , 38-O ) :   2.0507
B( 37-C , 39-N ) :   1.0528 B( 38-O , 84-H ) :   0.1040 B( 39-N , 40-C ) :   0.9434
B( 39-N , 42-C ) :   1.1680 B( 40-C , 41-C ) :   1.1183 B( 40-C , 91-H ) :   0.9503
B( 40-C , 92-H ) :   0.9279 B( 41-C , 93-H ) :   0.9690 B( 41-C , 94-H ) :   0.9685
B( 41-C , 95-H ) :   0.9638 B( 42-C , 43-C ) :   1.1502 B( 43-C , 44-C ) :   1.6246
B( 43-C , 96-H ) :   0.9589 B( 44-C , 45-C ) :   1.0651 B( 44-C , 97-H ) :   0.9594
B( 45-C , 46-C ) :   1.2836 B( 45-C , 53-C ) :   1.3148 B( 46-C , 47-C ) :   1.3654
B( 46-C , 98-H ) :   1.0063 B( 47-C , 48-N ) :   0.8777 B( 47-C , 51-C ) :   1.3496
B( 48-N , 49-O ) :   1.5627 B( 48-N , 50-O ) :   1.5205 B( 49-O , 50-O ) :   0.2684
B( 51-C , 52-C ) :   1.3454 B( 51-C , 54-C ) :   1.0328 B( 52-C , 53-C ) :   1.4116
B( 52-C , 99-H ) :   0.9894 B( 53-C ,100-H ) :   0.9913 B( 54-C , 55-C ) :   1.6621
B( 54-C ,101-H ) :   0.9524 B( 55-C , 56-C ) :   1.1394 B( 55-C ,102-H ) :   0.9726
B( 56-C , 57-C ) :   1.5900 B( 56-C ,103-H ) :   0.9650 B( 57-C , 58-C ) :   1.0433
B( 57-C , 66-C ) :   0.9375 B( 58-C , 59-C ) :   1.6503 B( 58-C , 64-C ) :   0.9918
B( 59-C , 60-C ) :   1.1410 B( 59-C , 62-C ) :   1.1405 B( 60-C , 61-N ) :   2.9694
B( 62-C , 63-N ) :   2.9883 B( 64-C , 65-C ) :   1.2160 B( 64-C , 71-C ) :   1.4478
B( 65-C , 66-C ) :   0.9447 B( 65-C , 68-C ) :   1.4710 B( 66-C , 67-O ) :   2.1965
B( 68-C , 69-C ) :   1.1816 B( 68-C ,104-H ) :   1.0150 B( 69-C , 70-C ) :   1.2574
B( 69-C , 75-C ) :   1.2442 B( 70-C , 71-C ) :   1.2086 B( 70-C , 72-C ) :   1.2382
B( 71-C ,105-H ) :   0.9897 B( 72-C , 73-C ) :   1.4912 B( 72-C ,106-H ) :   0.9967
B( 73-C , 74-C ) :   1.2603 B( 73-C ,107-H ) :   0.9879 B( 74-C , 75-C ) :   1.4893
B( 74-C ,108-H ) :   0.9886 B( 75-C ,109-H ) :   0.9970

-----------------------------------------------------------------------------
         ABSORPTION SPECTRUM VIA TRANSITION ELECTRIC DIPOLE MOMENTS
-----------------------------------------------------------------------------
State   Energy  Wavelength   fosc         T2         TX        TY        TZ
        (cm-1)    (nm)                  (au**2)     (au)      (au)      (au)
-----------------------------------------------------------------------------
   0   13391.5    746.7   1.389689509  34.16376  -4.04142   4.07859   1.09350
   1   19859.7    503.5   0.080003111   1.32620  -0.19754   1.06636   0.38736
   2   23137.9    432.2   0.311698364   4.43492   1.40461  -1.47252  -0.54191
   3   23978.5    417.0   0.154962344   2.12755  -1.31568   0.62308   0.09115
   4   25303.3    395.2   0.287652248   3.74253  -1.01050   1.49018   0.70767
   5   25621.1    390.3   0.518005384   6.65599  -1.71815   1.68012   0.93869
   6   26169.7    382.1   0.047239000   0.59426   0.38459  -0.55095  -0.37790
   7   26918.1    371.5   0.537298633   6.57124   0.68213  -2.23931  -1.04471
   8   27435.8    364.5   0.029323664   0.35187  -0.09320  -0.30258   0.50162
   9   27676.7    361.3   0.005369674   0.06387  -0.18872   0.08920   0.14248
  10   27921.7    358.1   0.025140424   0.29642   0.21078  -0.42485  -0.26738
  11   28046.3    356.6   0.036139063   0.42421   0.31714  -0.18004  -0.53964
  12   28076.8    356.2   0.014782772   0.17333  -0.18715   0.36324   0.07978
  13   28919.3    345.8   0.084407110   0.96087  -0.34939   0.42423   0.81169
  14   29137.3    343.2   0.013456824   0.15204  -0.18483  -0.07332   0.33542
  15   29406.9    340.1   0.073949985   0.82787   0.17242  -0.74902  -0.48695
  16   30075.3    332.5   0.044604050   0.48825  -0.21995   0.28620  -0.59830
  17   31108.3    321.5   0.086553125   0.91597  -0.12814   0.01991   0.94824
  18   31542.4    317.0   0.218811137   2.28376   0.39673   1.40945   0.37392
  19   31619.0    316.3   0.001389172   0.01446  -0.10880  -0.01687   0.04840
  20   32773.3    305.1   0.404686575   4.06513  -0.39428   0.63853   1.87135
  21   33051.9    302.6   0.268576737   2.67515   1.42425   0.23914  -0.76777
  22   33086.8    302.2   0.351964130   3.50203   0.02863   1.81516   0.45430
  23   33372.0    299.7   0.039415283   0.38883   0.23304   0.57596  -0.05285
  24   33748.4    296.3   0.385445995   3.75998   0.87728   1.71655   0.20934
  25   34166.4    292.7   0.056320482   0.54268   0.30161   0.66815   0.07274
  26   34763.3    287.7   0.066065993   0.62565   0.00672  -0.78231  -0.11663
  27   35117.4    284.8   0.036989129   0.34676   0.22279   0.51022   0.19183
  28   35425.2    282.3   0.116318519   1.08097   0.65899   0.74502   0.30273
  29   35527.3    281.5   0.013228704   0.12258   0.15400   0.28832  -0.12547
  30   35719.6    280.0   0.092459598   0.85216  -0.53431   0.04433   0.75147
  31   35870.0    278.8   0.054518886   0.50037  -0.62190   0.03734   0.33498
  32   36439.7    274.4   0.017806924   0.16088  -0.05561   0.37803   0.12198
  33   36471.7    274.2   0.006841235   0.06175   0.07532  -0.23608   0.01855
  34   36869.0    271.2   0.006547138   0.05846   0.14511  -0.06195  -0.18321
  35   37026.8    270.1   0.014791005   0.13151  -0.31817   0.12810   0.11775
  36   37285.9    268.2   0.422290402   3.72857  -1.07220  -0.08086   1.60387
  37   37755.8    264.9   0.057176475   0.49855  -0.36408   0.35897   0.48697
  38   38333.1    260.9   0.175893609   1.51061   1.15689   0.37996   0.16685
  39   38359.3    260.7   0.057233840   0.49120   0.17528   0.53304   0.41993
  40   38997.4    256.4   0.395878298   3.34196   0.01829  -0.01901   1.82791
  41   39116.5    255.6   0.032781890   0.27590   0.06369   0.17302  -0.49184
  42   39428.3    253.6   0.053238328   0.44452  -0.35034   0.45882   0.33357
  43   39699.9    251.9   0.067424549   0.55912   0.23074  -0.08642   0.70598
  44   39958.2    250.3   0.045659115   0.37618   0.53573  -0.29724   0.02870
  45   40050.0    249.7   0.102534434   0.84284   0.76223  -0.29379  -0.41896

FINAL SINGLE POINT ENERGY     -3628.175756766439

DIPOLE MOMENT
-------------
                                X             Y             Z
Electronic contribution:      0.49272     -10.32005       8.81152
Nuclear contribution   :      1.67288      10.82399     -11.00187
                        -----------------------------------------
Total Dipole Moment    :      2.16560       0.50394      -2.19034
                        -----------------------------------------
Magnitude (a.u.)       :      3.12112
Magnitude (Debye)      :      7.93326

Rotational constants in cm-1:     0.002459     0.000151     0.000150
Rotational constants in MHz :    73.726819     4.534959     4.483957

                             ****ORCA TERMINATED NORMALLY****
TOTAL RUN TIME: 0 days 0 hours 10 minutes 50 seconds 589 msec
