                         Program Version 4.2.0 -  RELEASE  -
|  1> # ORCA input file
|  2> # SCF done       -171.616643357813          0.000833999957
|  3> ! CAM-B3LYP def2-SVP def2/J RIJCOSX Grid4 TightSCF
|  4> %maxcore 5000
|  5> %tddft
|  6>     Mode sTDDFT
|  7>     Ethresh 5.0
|  8>     maxcore 5000
|  9> end
| 10>
| 11> %pal
| 12>   nprocs 6
| 13>   end
| 14> * xyz 0 1
| 15>    C        1.15476        -1.55964         1.64516
| 16>    C        1.87406        -0.80384         0.72841
| 17>    C        1.49106         0.55071         0.43703
| 18>    N        2.20372         1.26730        -0.46679
| 19>    C        3.24030         0.71208        -1.01461
| 20>    C        3.64402        -0.60745        -0.68768
| 21>    N        2.97286        -1.34454         0.14260
| 22>    C        0.39227         1.12546         1.08156
| 23>    C       -0.35106         0.34283         1.97297
| 24>    C        0.04773        -1.00170         2.27330
| 25>    N       -0.63465        -1.72529         3.19672
| 26>    C       -1.64711        -1.15892         3.77906
| 27>    C       -2.08456         0.14540         3.42836
| 28>    N       -1.46108         0.86649         2.54820
| 29>    C        0.01447         2.58529         0.94047
| 30>    C        0.50923         3.21236        -0.31627
| 31>    N       -0.06393         3.02899        -1.48365
| 32>    S        0.74646         3.87429        -2.61149
| 33>    N        1.84285         4.52885        -1.60663
| 34>    C        1.61673         4.10080        -0.38756
| 35>    C        2.46215         4.50637         0.78499
| 36>    C        1.70504         4.20995         2.03383
| 37>    C        0.58391         3.33590         2.10694
| 38>    N        0.10645         3.23893         3.32690
| 39>    S        0.98114         4.17630         4.32416
| 40>    N        2.00761         4.74004         3.19704
| 41>    C        3.78287         3.78889         0.70613
| 42>    S        4.94890         4.42060        -0.38844
| 43>    C        6.05078         3.10905        -0.12031
| 44>    C        5.51085         2.20839         0.79213
| 45>    C        4.21739         2.60464         1.27692
| 46>    C        3.57436         1.77066         2.21745
| 47>    C        4.12498         0.58230         2.61868
| 48>    C        3.39828        -0.28001         3.54762
| 49>    C        2.50571         0.12952         4.44025
| 50>    C        5.39345         0.16967         2.09216
| 51>    C        5.98152        -1.14875         2.49059
| 52>    C        6.06291         0.98230         1.22550
| 53>    C        7.33151         3.04747        -0.75142
| 54>    C        7.79524         3.93881        -1.62861
| 55>    C        9.16873         3.89415        -2.25690
| 56>    C       10.18232         3.23798        -1.37864
| 57>    N       10.11128         1.97095        -1.03000
| 58>    S       11.34970         1.61271        -0.03941
| 59>    N       12.02135         3.08874        -0.04364
| 60>    C       11.30740         3.88871        -0.80470
| 61>    C       11.68105         5.31904        -1.01525
| 62>    C       10.73895         5.93662        -1.99296
| 63>    C        9.61496         5.28705        -2.56719
| 64>    N        8.95846         6.06540        -3.39822
| 65>    S        9.68323         7.51706        -3.46102
| 66>    N       10.87684         7.17440        -2.41476
| 67>    C       11.64727         6.05508         0.30204
| 68>    C       12.82637         6.54372         0.86857
| 69>    C       12.79550         7.22186         2.13378
| 70>    N       13.94531         7.68793         2.68643
| 71>    C       15.04899         7.49810         2.03156
| 72>    C       15.07801         6.83669         0.77473
| 73>    N       14.00290         6.37649         0.21306
| 74>    C       11.59141         7.40571         2.80357
| 75>    C       10.41346         6.92855         2.23972
| 76>    C       10.43951         6.24439         0.97834
| 77>    N        9.28725         5.78248         0.42792
| 78>    C        8.18291         5.98813         1.07905
| 79>    C        8.15911         6.65849         2.33043
| 80>    N        9.23703         7.11231         2.89237
| 81>    H        1.46943        -2.56088         1.88939
| 82>    H        3.78229         1.30154        -1.74232
| 83>    H        4.52272        -1.04823        -1.13841
| 84>    H       -2.16919        -1.74090         4.52703
| 85>    H       -2.97454         0.57403         3.86867
| 86>    H       -1.07910         2.62739         0.99554
| 87>    H        2.66382         5.58312         0.72485
| 88>    H        2.61077         2.05271         2.60355
| 89>    H        3.62060        -1.33524         3.48111
| 90>    H        2.25992         1.16832         4.58548
| 91>    H        1.99163        -0.56881         5.07815
| 92>    H        5.36745        -1.96367         2.10569
| 93>    H        6.03362        -1.24144         3.57412
| 94>    H        6.98403        -1.25457         2.08341
| 95>    H        7.02653         0.68152         0.84126
| 96>    H        7.95453         2.21286        -0.46088
| 97>    H        7.18581         4.77008        -1.95414
| 98>    H        9.08286         3.32879        -3.19693
| 99>    H       12.71345         5.38671        -1.37949
|100>    H       15.95728         7.87235         2.48474
|101>    H       16.00742         6.69799         0.23864
|102>    H       11.57019         7.91415         3.75364
|103>    H        7.27276         5.62348         0.62454
|104>    H        7.22782         6.81016         2.85948
|105> *
|106>
|107>                          ****END OF INPUT****

CARTESIAN COORDINATES (ANGSTROEM)
---------------------------------
  C      1.154760   -1.559640    1.645160
  C      1.874060   -0.803840    0.728410
  C      1.491060    0.550710    0.437030
  N      2.203720    1.267300   -0.466790
  C      3.240300    0.712080   -1.014610
  C      3.644020   -0.607450   -0.687680
  N      2.972860   -1.344540    0.142600
  C      0.392270    1.125460    1.081560
  C     -0.351060    0.342830    1.972970
  C      0.047730   -1.001700    2.273300
  N     -0.634650   -1.725290    3.196720
  C     -1.647110   -1.158920    3.779060
  C     -2.084560    0.145400    3.428360
  N     -1.461080    0.866490    2.548200
  C      0.014470    2.585290    0.940470
  C      0.509230    3.212360   -0.316270
  N     -0.063930    3.028990   -1.483650
  S      0.746460    3.874290   -2.611490
  N      1.842850    4.528850   -1.606630
  C      1.616730    4.100800   -0.387560
  C      2.462150    4.506370    0.784990
  C      1.705040    4.209950    2.033830
  C      0.583910    3.335900    2.106940
  N      0.106450    3.238930    3.326900
  S      0.981140    4.176300    4.324160
  N      2.007610    4.740040    3.197040
  C      3.782870    3.788890    0.706130
  S      4.948900    4.420600   -0.388440
  C      6.050780    3.109050   -0.120310
  C      5.510850    2.208390    0.792130
  C      4.217390    2.604640    1.276920
  C      3.574360    1.770660    2.217450
  C      4.124980    0.582300    2.618680
  C      3.398280   -0.280010    3.547620
  C      2.505710    0.129520    4.440250
  C      5.393450    0.169670    2.092160
  C      5.981520   -1.148750    2.490590
  C      6.062910    0.982300    1.225500
  C      7.331510    3.047470   -0.751420
  C      7.795240    3.938810   -1.628610
  C      9.168730    3.894150   -2.256900
  C     10.182320    3.237980   -1.378640
  N     10.111280    1.970950   -1.030000
  S     11.349700    1.612710   -0.039410
  N     12.021350    3.088740   -0.043640
  C     11.307400    3.888710   -0.804700
  C     11.681050    5.319040   -1.015250
  C     10.738950    5.936620   -1.992960
  C      9.614960    5.287050   -2.567190
  N      8.958460    6.065400   -3.398220
  S      9.683230    7.517060   -3.461020
  N     10.876840    7.174400   -2.414760
  C     11.647270    6.055080    0.302040
  C     12.826370    6.543720    0.868570
  C     12.795500    7.221860    2.133780
  N     13.945310    7.687930    2.686430
  C     15.048990    7.498100    2.031560
  C     15.078010    6.836690    0.774730
  N     14.002900    6.376490    0.213060
  C     11.591410    7.405710    2.803570
  C     10.413460    6.928550    2.239720
  C     10.439510    6.244390    0.978340
  N      9.287250    5.782480    0.427920
  C      8.182910    5.988130    1.079050
  C      8.159110    6.658490    2.330430
  N      9.237030    7.112310    2.892370
  H      1.469430   -2.560880    1.889390
  H      3.782290    1.301540   -1.742320
  H      4.522720   -1.048230   -1.138410
  H     -2.169190   -1.740900    4.527030
  H     -2.974540    0.574030    3.868670
  H     -1.079100    2.627390    0.995540
  H      2.663820    5.583120    0.724850
  H      2.610770    2.052710    2.603550
  H      3.620600   -1.335240    3.481110
  H      2.259920    1.168320    4.585480
  H      1.991630   -0.568810    5.078150
  H      5.367450   -1.963670    2.105690
  H      6.033620   -1.241440    3.574120
  H      6.984030   -1.254570    2.083410
  H      7.026530    0.681520    0.841260
  H      7.954530    2.212860   -0.460880
  H      7.185810    4.770080   -1.954140
  H      9.082860    3.328790   -3.196930
  H     12.713450    5.386710   -1.379490
  H     15.957280    7.872350    2.484740
  H     16.007420    6.697990    0.238640
  H     11.570190    7.914150    3.753640
  H      7.272760    5.623480    0.624540
  H      7.227820    6.810160    2.859480

 Total Charge           Charge          ....    0
 Multiplicity           Mult            ....    1
 Number of Electrons    NEL             ....  486
 Basis Dimension        Dim             .... 1064

ORBITAL ENERGIES
----------------

  NO   OCC          E(Eh)            E(eV)
   0   2.0000     -89.008740     -2422.0510
   1   2.0000     -89.001433     -2421.8521
   2   2.0000     -88.995316     -2421.6857
   3   2.0000     -88.992724     -2421.6151
   4   2.0000     -88.958884     -2420.6943
   5   2.0000     -14.435250      -392.8031
   6   2.0000     -14.434159      -392.7734
   7   2.0000     -14.430944      -392.6859
   8   2.0000     -14.428939      -392.6314
   9   2.0000     -14.428229      -392.6121
  10   2.0000     -14.426963      -392.5776
  11   2.0000     -14.424442      -392.5090
  12   2.0000     -14.423923      -392.4949
  13   2.0000     -14.423801      -392.4916
  14   2.0000     -14.423320      -392.4785
  15   2.0000     -14.423310      -392.4782
  16   2.0000     -14.423195      -392.4751
  17   2.0000     -14.423065      -392.4715
  18   2.0000     -14.422949      -392.4684
  19   2.0000     -14.422811      -392.4646
  20   2.0000     -14.418240      -392.3403
  21   2.0000     -10.326080      -280.9869
  22   2.0000     -10.325681      -280.9761
  23   2.0000     -10.322159      -280.8802
  24   2.0000     -10.320566      -280.8369
  25   2.0000     -10.320358      -280.8312
  26   2.0000     -10.320341      -280.8308
  27   2.0000     -10.320160      -280.8258
  28   2.0000     -10.319644      -280.8118
  29   2.0000     -10.319309      -280.8027
  30   2.0000     -10.319210      -280.8000
  31   2.0000     -10.319134      -280.7979
  32   2.0000     -10.318974      -280.7936
  33   2.0000     -10.318954      -280.7930
  34   2.0000     -10.318248      -280.7738
  35   2.0000     -10.317838      -280.7626
  36   2.0000     -10.317319      -280.7485
  37   2.0000     -10.317182      -280.7448
  38   2.0000     -10.316615      -280.7294
  39   2.0000     -10.315575      -280.7011
  40   2.0000     -10.315381      -280.6958
  41   2.0000     -10.314942      -280.6838
  42   2.0000     -10.314634      -280.6755
  43   2.0000     -10.314280      -280.6658
  44   2.0000     -10.313647      -280.6486
  45   2.0000     -10.308375      -280.5052
  46   2.0000     -10.300282      -280.2849
  47   2.0000     -10.299038      -280.2511
  48   2.0000     -10.296639      -280.1858
  49   2.0000     -10.296112      -280.1714
  50   2.0000     -10.294888      -280.1382
  51   2.0000     -10.294357      -280.1237
  52   2.0000     -10.292382      -280.0700
  53   2.0000     -10.279920      -279.7308
  54   2.0000     -10.279271      -279.7132
  55   2.0000     -10.273751      -279.5630
  56   2.0000     -10.273682      -279.5611
  57   2.0000     -10.272471      -279.5281
  58   2.0000     -10.272177      -279.5201
  59   2.0000     -10.271013      -279.4885
  60   2.0000     -10.267668      -279.3974
  61   2.0000     -10.267583      -279.3951
  62   2.0000     -10.266791      -279.3736
  63   2.0000     -10.263092      -279.2729
  64   2.0000     -10.259179      -279.1665
  65   2.0000     -10.258974      -279.1609
  66   2.0000      -8.101114      -220.4425
  67   2.0000      -8.094443      -220.2610
  68   2.0000      -8.088296      -220.0937
  69   2.0000      -8.085432      -220.0158
  70   2.0000      -8.053234      -219.1396
  71   2.0000      -6.072771      -165.2485
  72   2.0000      -6.066085      -165.0666
  73   2.0000      -6.065120      -165.0403
  74   2.0000      -6.062355      -164.9651
  75   2.0000      -6.059953      -164.8997
  76   2.0000      -6.058503      -164.8602
  77   2.0000      -6.057138      -164.8231
  78   2.0000      -6.055515      -164.7789
  79   2.0000      -6.052381      -164.6937
  80   2.0000      -6.049574      -164.6173
  81   2.0000      -6.049339      -164.6109
  82   2.0000      -6.046454      -164.5324
  83   2.0000      -6.022086      -163.8693
  84   2.0000      -6.018066      -163.7599
  85   2.0000      -6.016344      -163.7130
  86   2.0000      -1.119471       -30.4624
  87   2.0000      -1.114159       -30.3178
  88   2.0000      -1.106892       -30.1201
  89   2.0000      -1.104253       -30.0483
  90   2.0000      -1.083796       -29.4916
  91   2.0000      -1.082719       -29.4623
  92   2.0000      -1.076627       -29.2965
  93   2.0000      -1.075480       -29.2653
  94   2.0000      -1.008555       -27.4442
  95   2.0000      -1.007349       -27.4113
  96   2.0000      -1.002329       -27.2748
  97   2.0000      -1.000990       -27.2383
  98   2.0000      -0.993746       -27.0412
  99   2.0000      -0.977536       -26.6001
 100   2.0000      -0.976358       -26.5681
 101   2.0000      -0.962308       -26.1857
 102   2.0000      -0.961600       -26.1665
 103   2.0000      -0.954837       -25.9824
 104   2.0000      -0.953536       -25.9470
 105   2.0000      -0.939086       -25.5538
 106   2.0000      -0.934589       -25.4315
 107   2.0000      -0.930340       -25.3158
 108   2.0000      -0.891469       -24.2581
 109   2.0000      -0.878370       -23.9017
 110   2.0000      -0.866643       -23.5826
 111   2.0000      -0.863498       -23.4970
 112   2.0000      -0.861689       -23.4477
 113   2.0000      -0.861280       -23.4366
 114   2.0000      -0.854744       -23.2588
 115   2.0000      -0.852067       -23.1859
 116   2.0000      -0.846771       -23.0418
 117   2.0000      -0.838013       -22.8035
 118   2.0000      -0.818261       -22.2660
 119   2.0000      -0.809008       -22.0142
 120   2.0000      -0.790104       -21.4998
 121   2.0000      -0.788082       -21.4448
 122   2.0000      -0.782611       -21.2959
 123   2.0000      -0.775173       -21.0935
 124   2.0000      -0.770297       -20.9609
 125   2.0000      -0.760605       -20.6971
 126   2.0000      -0.759967       -20.6797
 127   2.0000      -0.747067       -20.3287
 128   2.0000      -0.724922       -19.7261
 129   2.0000      -0.723276       -19.6813
 130   2.0000      -0.718888       -19.5619
 131   2.0000      -0.715181       -19.4611
 132   2.0000      -0.704372       -19.1669
 133   2.0000      -0.688925       -18.7466
 134   2.0000      -0.686382       -18.6774
 135   2.0000      -0.683255       -18.5923
 136   2.0000      -0.682430       -18.5699
 137   2.0000      -0.677973       -18.4486
 138   2.0000      -0.674202       -18.3460
 139   2.0000      -0.667419       -18.1614
 140   2.0000      -0.657871       -17.9016
 141   2.0000      -0.655270       -17.8308
 142   2.0000      -0.654449       -17.8085
 143   2.0000      -0.634135       -17.2557
 144   2.0000      -0.633664       -17.2429
 145   2.0000      -0.631643       -17.1879
 146   2.0000      -0.631374       -17.1806
 147   2.0000      -0.624055       -16.9814
 148   2.0000      -0.622057       -16.9270
 149   2.0000      -0.613911       -16.7054
 150   2.0000      -0.610277       -16.6065
 151   2.0000      -0.599290       -16.3075
 152   2.0000      -0.591543       -16.0967
 153   2.0000      -0.590800       -16.0765
 154   2.0000      -0.589340       -16.0368
 155   2.0000      -0.581255       -15.8168
 156   2.0000      -0.580325       -15.7914
 157   2.0000      -0.576084       -15.6760
 158   2.0000      -0.569036       -15.4842
 159   2.0000      -0.568565       -15.4714
 160   2.0000      -0.567284       -15.4366
 161   2.0000      -0.555699       -15.1213
 162   2.0000      -0.550986       -14.9931
 163   2.0000      -0.547935       -14.9101
 164   2.0000      -0.544269       -14.8103
 165   2.0000      -0.539539       -14.6816
 166   2.0000      -0.537279       -14.6201
 167   2.0000      -0.528990       -14.3945
 168   2.0000      -0.527637       -14.3577
 169   2.0000      -0.527133       -14.3440
 170   2.0000      -0.525492       -14.2994
 171   2.0000      -0.521421       -14.1886
 172   2.0000      -0.519740       -14.1429
 173   2.0000      -0.518055       -14.0970
 174   2.0000      -0.515148       -14.0179
 175   2.0000      -0.510606       -13.8943
 176   2.0000      -0.509944       -13.8763
 177   2.0000      -0.508101       -13.8261
 178   2.0000      -0.506647       -13.7866
 179   2.0000      -0.503415       -13.6986
 180   2.0000      -0.502448       -13.6723
 181   2.0000      -0.498783       -13.5726
 182   2.0000      -0.496561       -13.5121
 183   2.0000      -0.494680       -13.4609
 184   2.0000      -0.491145       -13.3647
 185   2.0000      -0.486050       -13.2261
 186   2.0000      -0.482248       -13.1226
 187   2.0000      -0.478455       -13.0194
 188   2.0000      -0.475983       -12.9522
 189   2.0000      -0.474261       -12.9053
 190   2.0000      -0.472075       -12.8458
 191   2.0000      -0.467510       -12.7216
 192   2.0000      -0.466887       -12.7046
 193   2.0000      -0.460253       -12.5241
 194   2.0000      -0.459630       -12.5072
 195   2.0000      -0.455750       -12.4016
 196   2.0000      -0.451129       -12.2758
 197   2.0000      -0.448342       -12.2000
 198   2.0000      -0.441655       -12.0181
 199   2.0000      -0.441014       -12.0006
 200   2.0000      -0.432483       -11.7685
 201   2.0000      -0.431853       -11.7513
 202   2.0000      -0.419890       -11.4258
 203   2.0000      -0.416465       -11.3326
 204   2.0000      -0.414955       -11.2915
 205   2.0000      -0.413007       -11.2385
 206   2.0000      -0.412322       -11.2199
 207   2.0000      -0.410516       -11.1707
 208   2.0000      -0.407545       -11.0899
 209   2.0000      -0.403804       -10.9881
 210   2.0000      -0.399026       -10.8581
 211   2.0000      -0.395144       -10.7524
 212   2.0000      -0.393675       -10.7125
 213   2.0000      -0.393488       -10.7074
 214   2.0000      -0.391920       -10.6647
 215   2.0000      -0.389806       -10.6072
 216   2.0000      -0.384236       -10.4556
 217   2.0000      -0.379658       -10.3310
 218   2.0000      -0.379491       -10.3265
 219   2.0000      -0.377329       -10.2676
 220   2.0000      -0.368256       -10.0207
 221   2.0000      -0.364611        -9.9216
 222   2.0000      -0.362299        -9.8587
 223   2.0000      -0.359105        -9.7717
 224   2.0000      -0.358240        -9.7482
 225   2.0000      -0.355555        -9.6751
 226   2.0000      -0.353182        -9.6106
 227   2.0000      -0.350021        -9.5246
 228   2.0000      -0.337367        -9.1802
 229   2.0000      -0.336394        -9.1537
 230   2.0000      -0.333696        -9.0803
 231   2.0000      -0.332041        -9.0353
 232   2.0000      -0.328812        -8.9474
 233   2.0000      -0.325519        -8.8578
 234   2.0000      -0.324006        -8.8166
 235   2.0000      -0.320087        -8.7100
 236   2.0000      -0.311970        -8.4891
 237   2.0000      -0.301856        -8.2139
 238   2.0000      -0.299247        -8.1429
 239   2.0000      -0.296204        -8.0601
 240   2.0000      -0.291371        -7.9286
 241   2.0000      -0.280652        -7.6369
 242   2.0000      -0.236247        -6.4286
 243   0.0000      -0.072655        -1.9770
 244   0.0000      -0.072060        -1.9608
 245   0.0000      -0.040447        -1.1006
 246   0.0000      -0.025589        -0.6963
 247   0.0000      -0.018707        -0.5091

MULLIKEN ATOMIC CHARGES
-----------------------
   0 C :   -0.104501
   1 C :    0.059884
   2 C :   -0.043277
   3 N :   -0.034814
   4 C :    0.063548
   5 C :    0.034684
   6 N :   -0.023020
   7 C :   -0.045014
   8 C :   -0.057955
   9 C :    0.067610
  10 N :   -0.018249
  11 C :    0.015950
  12 C :    0.027629
  13 N :   -0.006549
  14 C :    0.323751
  15 C :   -0.069370
  16 N :   -0.268506
  17 S :    0.433206
  18 N :   -0.284303
  19 C :   -0.067116
  20 C :    0.337959
  21 C :   -0.162069
  22 C :   -0.108579
  23 N :   -0.244716
  24 S :    0.448495
  25 N :   -0.253387
  26 C :   -0.228616
  27 S :    0.159385
  28 C :   -0.143396
  29 C :    0.123102
  30 C :    0.143242
  31 C :   -0.063324
  32 C :    0.076998
  33 C :   -0.026044
  34 C :   -0.004998
  35 C :   -0.065042
  36 C :    0.104084
  37 C :   -0.126430
  38 C :    0.064351
  39 C :   -0.133367
  40 C :    0.412288
  41 C :   -0.123449
  42 N :   -0.298846
  43 S :    0.445644
  44 N :   -0.273015
  45 C :   -0.097374
  46 C :    0.350385
  47 C :   -0.093422
  48 C :   -0.127360
  49 N :   -0.292413
  50 S :    0.440211
  51 N :   -0.279414
  52 C :    0.021050
  53 C :   -0.078279
  54 C :    0.057164
  55 N :   -0.012464
  56 C :    0.020697
  57 C :    0.028640
  58 N :   -0.018899
  59 C :   -0.109249
  60 C :    0.065528
  61 C :   -0.080303
  62 N :   -0.039224
  63 C :    0.047499
  64 C :    0.030188
  65 N :   -0.008856
  66 H :   -0.042818
  67 H :    0.015810
  68 H :    0.012155
  69 H :    0.014299
  70 H :    0.012500
  71 H :    0.026508
  72 H :    0.015872
  73 H :   -0.064419
  74 H :   -0.004631
  75 H :    0.011178
  76 H :    0.019378
  77 H :    0.033485
  78 H :    0.027741
  79 H :    0.004881
  80 H :   -0.044575
  81 H :   -0.004434
  82 H :    0.010982
  83 H :    0.035999
  84 H :    0.021162
  85 H :    0.014808
  86 H :    0.014575
  87 H :   -0.036553
  88 H :   -0.001165
  89 H :    0.019294
Sum of atomic charges:    0.0000000

LOEWDIN ATOMIC CHARGES
----------------------
   0 C :    0.006520
   1 C :   -0.009576
   2 C :   -0.007995
   3 N :   -0.024196
   4 C :    0.025046
   5 C :    0.016101
   6 N :   -0.036368
   7 C :   -0.004851
   8 C :   -0.008035
   9 C :   -0.011301
  10 N :   -0.036212
  11 C :    0.003576
  12 C :    0.010773
  13 N :   -0.025483
  14 C :   -0.014974
  15 C :   -0.046156
  16 N :   -0.273433
  17 S :    0.568595
  18 N :   -0.276841
  19 C :   -0.051768
  20 C :   -0.034167
  21 C :   -0.053483
  22 C :   -0.048690
  23 N :   -0.259961
  24 S :    0.582425
  25 N :   -0.264043
  26 C :   -0.172892
  27 S :    0.489586
  28 C :   -0.191095
  29 C :   -0.047995
  30 C :   -0.057100
  31 C :   -0.008934
  32 C :   -0.032853
  33 C :   -0.019020
  34 C :   -0.039753
  35 C :   -0.016505
  36 C :   -0.046296
  37 C :   -0.035294
  38 C :   -0.049072
  39 C :   -0.013479
  40 C :   -0.022725
  41 C :   -0.037338
  42 N :   -0.275716
  43 S :    0.573238
  44 N :   -0.269451
  45 C :   -0.043273
  46 C :   -0.016319
  47 C :   -0.046714
  48 C :   -0.044991
  49 N :   -0.277882
  50 S :    0.571205
  51 N :   -0.274257
  52 C :    0.007882
  53 C :   -0.006185
  54 C :   -0.011645
  55 N :   -0.033076
  56 C :    0.006577
  57 C :    0.011382
  58 N :   -0.029770
  59 C :    0.002302
  60 C :   -0.011597
  61 C :   -0.010107
  62 N :   -0.037756
  63 C :    0.019743
  64 C :    0.010165
  65 N :   -0.031158
  66 H :    0.038981
  67 H :    0.028671
  68 H :    0.026793
  69 H :    0.026245
  70 H :    0.026887
  71 H :    0.064206
  72 H :    0.055914
  73 H :    0.020933
  74 H :    0.028510
  75 H :    0.013585
  76 H :    0.025099
  77 H :    0.035199
  78 H :    0.034135
  79 H :    0.029056
  80 H :    0.024652
  81 H :    0.029594
  82 H :    0.019817
  83 H :    0.062341
  84 H :    0.059035
  85 H :    0.027058
  86 H :    0.027601
  87 H :    0.042592
  88 H :    0.015866
  89 H :    0.029890

  Mayer bond orders larger than 0.100000
B(  0-C ,  1-C ) :   1.2380 B(  0-C ,  7-C ) :   0.1419 B(  0-C ,  9-C ) :   1.2294
B(  0-C , 66-H ) :   1.0650 B(  1-C ,  2-C ) :   1.1888 B(  1-C ,  6-N ) :   1.3559
B(  2-C ,  3-N ) :   1.3823 B(  2-C ,  7-C ) :   1.3393 B(  3-N ,  4-C ) :   1.6829
B(  4-C ,  5-C ) :   1.1659 B(  4-C , 67-H ) :   0.9702 B(  5-C ,  6-N ) :   1.7138
B(  5-C , 68-H ) :   0.9735 B(  7-C ,  8-C ) :   1.3188 B(  7-C , 14-C ) :   1.0770
B(  8-C ,  9-C ) :   1.1932 B(  8-C , 13-N ) :   1.4113 B(  9-C , 10-N ) :   1.3687
B( 10-N , 11-C ) :   1.7230 B( 11-C , 12-C ) :   1.1669 B( 11-C , 69-H ) :   0.9733
B( 12-C , 13-N ) :   1.7098 B( 12-C , 70-H ) :   0.9739 B( 14-C , 15-C ) :   0.9414
B( 14-C , 22-C ) :   1.0021 B( 14-C , 71-H ) :   0.8069 B( 15-C , 16-N ) :   1.7116
B( 15-C , 19-C ) :   1.2122 B( 16-N , 17-S ) :   1.1949 B( 16-N , 18-N ) :   0.1179
B( 17-S , 18-N ) :   1.1931 B( 18-N , 19-C ) :   1.6971 B( 19-C , 20-C ) :   0.9726
B( 20-C , 21-C ) :   0.9818 B( 20-C , 26-C ) :   1.0357 B( 20-C , 72-H ) :   0.8245
B( 21-C , 22-C ) :   1.2106 B( 21-C , 25-N ) :   1.6928 B( 22-C , 23-N ) :   1.6982
B( 23-N , 24-S ) :   1.2010 B( 23-N , 25-N ) :   0.1207 B( 24-S , 25-N ) :   1.2041
B( 26-C , 27-S ) :   1.1801 B( 26-C , 28-C ) :   0.1136 B( 26-C , 30-C ) :   1.4336
B( 27-S , 28-C ) :   1.1312 B( 28-C , 29-C ) :   1.3648 B( 28-C , 38-C ) :   1.1382
B( 29-C , 30-C ) :   1.1913 B( 29-C , 37-C ) :   1.1571 B( 30-C , 31-C ) :   1.1685
B( 31-C , 32-C ) :   1.5628 B( 31-C , 73-H ) :   0.9614 B( 32-C , 33-C ) :   1.0415
B( 32-C , 35-C ) :   1.1677 B( 33-C , 34-C ) :   1.9780 B( 33-C , 74-H ) :   0.9412
B( 34-C , 75-H ) :   0.9471 B( 34-C , 76-H ) :   0.9392 B( 35-C , 36-C ) :   1.0947
B( 35-C , 37-C ) :   1.5642 B( 36-C , 77-H ) :   0.9332 B( 36-C , 78-H ) :   0.9417
B( 36-C , 79-H ) :   0.9512 B( 37-C , 80-H ) :   0.9963 B( 38-C , 39-C ) :   1.7975
B( 38-C , 81-H ) :   0.9337 B( 39-C , 40-C ) :   0.9727 B( 39-C , 82-H ) :   0.9777
B( 40-C , 41-C ) :   0.9853 B( 40-C , 48-C ) :   0.9787 B( 40-C , 83-H ) :   0.7851
B( 41-C , 42-N ) :   1.6257 B( 41-C , 45-C ) :   1.2400 B( 42-N , 43-S ) :   1.1906
B( 42-N , 44-N ) :   0.1243 B( 43-S , 44-N ) :   1.2045 B( 44-N , 45-C ) :   1.6822
B( 45-C , 46-C ) :   0.9813 B( 46-C , 47-C ) :   0.9576 B( 46-C , 52-C ) :   1.0518
B( 46-C , 84-H ) :   0.8080 B( 47-C , 48-C ) :   1.2382 B( 47-C , 51-N ) :   1.6827
B( 48-C , 49-N ) :   1.6586 B( 49-N , 50-S ) :   1.1953 B( 49-N , 51-N ) :   0.1228
B( 50-S , 51-N ) :   1.1998 B( 52-C , 53-C ) :   1.3585 B( 52-C , 59-C ) :   0.1409
B( 52-C , 61-C ) :   1.3179 B( 53-C , 54-C ) :   1.1757 B( 53-C , 58-N ) :   1.4060
B( 54-C , 55-N ) :   1.3665 B( 54-C , 59-C ) :   1.2350 B( 55-N , 56-C ) :   1.7368
B( 56-C , 57-C ) :   1.1635 B( 56-C , 85-H ) :   0.9731 B( 57-C , 58-N ) :   1.7166
B( 57-C , 86-H ) :   0.9730 B( 59-C , 60-C ) :   1.2270 B( 59-C , 87-H ) :   1.0668
B( 60-C , 61-C ) :   1.1960 B( 60-C , 65-N ) :   1.3693 B( 61-C , 62-N ) :   1.4057
B( 62-N , 63-C ) :   1.6830 B( 63-C , 64-C ) :   1.1789 B( 63-C , 88-H ) :   0.9603
B( 64-C , 65-N ) :   1.7315 B( 64-C , 89-H ) :   0.9742

-----------------------------------------------------------------------------
         ABSORPTION SPECTRUM VIA TRANSITION ELECTRIC DIPOLE MOMENTS
-----------------------------------------------------------------------------
State   Energy  Wavelength   fosc         T2         TX        TY        TZ
        (cm-1)    (nm)                  (au**2)     (au)      (au)      (au)
-----------------------------------------------------------------------------
   0   17794.3    562.0   0.003583609   0.06630  -0.25680  -0.00748   0.01729
   1   21104.6    473.8   0.005381550   0.08395  -0.24014  -0.15897   0.03171
   2   24978.1    400.4   0.009132121   0.12036  -0.25366  -0.23217  -0.04600
   3   25346.0    394.5   0.196938234   2.55798   1.52768  -0.16063  -0.44539
   4   26258.7    380.8   0.006023409   0.07552  -0.06189   0.24672  -0.10399
   5   26800.7    373.1   0.034650706   0.42564  -0.60124   0.23963   0.08198
   6   27379.2    365.2   0.029494413   0.35465   0.53040  -0.10497  -0.24960
   7   27629.6    361.9   0.003381395   0.04029  -0.03767   0.02754  -0.19522
   8   28013.6    357.0   0.000447881   0.00526  -0.00443  -0.04061   0.05996
   9   29354.5    340.7   0.098902903   1.10920  -0.06265   0.54108   0.90139
  10   30500.5    327.9   0.017974081   0.19401   0.32081   0.12983  -0.27246
  11   30735.1    325.4   0.123817257   1.32624  -0.35912  -0.99875   0.44695
  12   31789.7    314.6   0.078456960   0.81250   0.84053  -0.15297  -0.28741
  13   32358.4    309.0   0.148845075   1.51434   0.97832   0.13571  -0.73405
  14   32957.1    303.4   0.200015889   1.99798   1.37823   0.31373   0.00524
  15   33261.4    300.6   0.017709598   0.17528  -0.35738   0.21736   0.01784
  16   33735.5    296.4   0.002624945   0.02562  -0.08134  -0.13298   0.03627
  17   34211.4    292.3   0.045049269   0.43350   0.17109  -0.63199   0.06941
  18   34815.1    287.2   0.021678671   0.20499  -0.07403  -0.23814   0.37789
  19   35240.5    283.8   0.027342773   0.25543  -0.19491  -0.32120  -0.33804
  20   35381.7    282.6   0.000528273   0.00492  -0.06902  -0.00176   0.01220
  21   35532.2    281.4   0.004401088   0.04078   0.00389  -0.20183  -0.00516
  22   35742.9    279.8   0.002321462   0.02138  -0.03892  -0.11643  -0.07944
  23   35816.0    279.2   0.023680116   0.21766  -0.29303  -0.36242   0.02112
  24   36137.1    276.7   0.006566153   0.05982  -0.16940   0.07819  -0.15813
  25   36594.3    273.3   0.038476024   0.34614  -0.31378  -0.28638   0.40703
  26   37117.5    269.4   0.023566982   0.20903  -0.22494   0.35627  -0.17749
  27   37591.8    266.0   0.005237979   0.04587  -0.14320  -0.12076   0.10383
  28   38095.4    262.5   0.002414391   0.02086  -0.01735   0.09255   0.10953
  29   38408.5    260.4   0.009724800   0.08335   0.09897   0.09100   0.25550
  30   38514.9    259.6   0.003888952   0.03324   0.04373   0.10409  -0.14316
  31   38791.3    257.8   0.023581089   0.20013  -0.15331  -0.30337   0.29084
  32   38924.8    256.9   0.005052395   0.04273   0.15727   0.13285  -0.01869
  33   39317.1    254.3   0.579819829   4.85498   0.97088   1.33974  -1.45515
  34   39697.7    251.9   0.014693013   0.12185  -0.21676   0.10215  -0.25383
  35   39796.7    251.3   0.007492778   0.06198  -0.03648  -0.14220   0.20108
  36   40084.7    249.5   0.018845619   0.15478  -0.18455  -0.13953   0.31819
  37   40196.9    248.8   0.069933678   0.57276   0.50708   0.37331  -0.41984

FINAL SINGLE POINT ENERGY     -4592.270659819415

DIPOLE MOMENT
-------------
                                X             Y             Z
Electronic contribution:      1.49455      26.13239     -19.53202
Nuclear contribution   :     -1.27720     -26.69039      20.07981
                        -----------------------------------------
Total Dipole Moment    :      0.21735      -0.55800       0.54779
                        -----------------------------------------
Magnitude (a.u.)       :      0.81159
Magnitude (Debye)      :      2.06290

Rotational constants in cm-1:     0.002339     0.000580     0.000568
Rotational constants in MHz :    70.119208    17.380721    17.027667

                             ****ORCA TERMINATED NORMALLY****
TOTAL RUN TIME: 0 days 0 hours 10 minutes 15 seconds 486 msec
