                         Program Version 4.2.0 -  RELEASE  -
|  1> # ORCA input file
|  2> # SCF done       -134.181857355168          0.000543662826
|  3> ! CAM-B3LYP def2-SVP def2/J RIJCOSX Grid4 TightSCF
|  4> %maxcore 5000
|  5> %tddft
|  6>     Mode sTDDFT
|  7>     Ethresh 5.0
|  8>     maxcore 5000
|  9> end
| 10>
| 11> %pal
| 12>   nprocs 6
| 13>   end
| 14> * xyz 0 1
| 15>    C       -0.73368        -1.38179         0.67953
| 16>    C        0.22828        -0.91798         1.57256
| 17>    C        0.62690         0.46088         1.58310
| 18>    N        1.54056         0.89095         2.47766
| 19>    C        2.05740         0.02042         3.29234
| 20>    C        1.68739        -1.34757         3.26439
| 21>    N        0.79272        -1.79934         2.43791
| 22>    C        0.05313         1.36938         0.66472
| 23>    C       -0.93275         0.88519        -0.22175
| 24>    C       -1.32255        -0.49325        -0.21357
| 25>    N       -2.26510        -0.93877        -1.08162
| 26>    C       -2.79180        -0.07937        -1.90187
| 27>    C       -2.41395         1.28509        -1.90724
| 28>    N       -1.51087         1.74076        -1.08903
| 29>    C        0.44680         2.74230         0.60801
| 30>    S       -0.33773         3.89493        -0.47028
| 31>    C        0.78217         5.07378         0.20183
| 32>    N        1.59042         4.55027         1.09744
| 33>    N        1.39820         3.28501         1.31044
| 34>    C        0.80968         6.42772        -0.18871
| 35>    S       -0.32134         7.04662        -1.33662
| 36>    C        0.34042         8.65059        -1.25957
| 37>    C        1.41743         8.69458        -0.35528
| 38>    C        1.68580         7.43533         0.25319
| 39>    C        2.73662         7.31117         1.17151
| 40>    C        3.50543         8.40643         1.49916
| 41>    C        4.60701         8.26694         2.44881
| 42>    C        4.64914         7.37491         3.43064
| 43>    C        3.23375         9.67326         0.89710
| 44>    C        4.05165        10.87376         1.26286
| 45>    C        2.21170         9.80087        -0.00721
| 46>    C       -0.17613         9.71158        -2.02743
| 47>    C       -1.23823         9.61934        -2.86938
| 48>    C       -1.70069        10.72299        -3.62664
| 49>    S       -3.09932        10.62925        -4.68502
| 50>    C       -2.76869        12.32066        -5.04707
| 51>    N       -1.74155        12.77788        -4.39060
| 52>    N       -1.15767        11.91795        -3.61357
| 53>    C       -3.57018        13.07889        -5.95772
| 54>    C       -4.79911        12.56365        -6.42230
| 55>    C       -5.64309        13.33706        -7.28426
| 56>    N       -6.82484        12.82875        -7.71511
| 57>    C       -7.15275        11.63451        -7.32172
| 58>    C       -6.32085        10.86876        -6.46927
| 59>    N       -5.18287        11.32837        -6.03835
| 60>    C       -5.26128        14.61511        -7.67858
| 61>    C       -4.03953        15.12665        -7.25160
| 62>    C       -3.17182        14.35860        -6.40479
| 63>    N       -1.96363        14.84863        -6.05744
| 64>    C       -1.65034        16.04492        -6.45563
| 65>    C       -2.53295        16.83129        -7.23862
| 66>    N       -3.68018        16.37641        -7.64347
| 67>    H       -1.01583        -2.42176         0.67892
| 68>    H        2.78113         0.39312         4.00439
| 69>    H        2.13014        -2.06455         3.94323
| 70>    H       -3.54076        -0.45324        -2.58698
| 71>    H       -2.86104         1.99671        -2.58746
| 72>    H        2.93401         6.34004         1.59397
| 73>    H        5.43141         8.95589         2.32613
| 74>    H        3.84252         6.68671         3.61756
| 75>    H        5.49294         7.31349         4.09657
| 76>    H        5.08076        10.75480         0.92375
| 77>    H        4.06613        11.01466         2.34245
| 78>    H        3.64318        11.76848         0.80006
| 79>    H        2.00853        10.76032        -0.45834
| 80>    H        0.31192        10.67175        -1.93906
| 81>    H       -1.76754         8.68430        -2.98799
| 82>    H       -8.09746        11.24509        -7.67674
| 83>    H       -6.59994         9.87515        -6.14648
| 84>    H       -5.90840        15.20705        -8.30470
| 85>    H       -0.67003        16.40770        -6.17796
| 86>    H       -2.26749        17.83267        -7.55132
| 87> *
| 88>
| 89>                          ****END OF INPUT****

CARTESIAN COORDINATES (ANGSTROEM)
---------------------------------
  C     -0.733680   -1.381790    0.679530
  C      0.228280   -0.917980    1.572560
  C      0.626900    0.460880    1.583100
  N      1.540560    0.890950    2.477660
  C      2.057400    0.020420    3.292340
  C      1.687390   -1.347570    3.264390
  N      0.792720   -1.799340    2.437910
  C      0.053130    1.369380    0.664720
  C     -0.932750    0.885190   -0.221750
  C     -1.322550   -0.493250   -0.213570
  N     -2.265100   -0.938770   -1.081620
  C     -2.791800   -0.079370   -1.901870
  C     -2.413950    1.285090   -1.907240
  N     -1.510870    1.740760   -1.089030
  C      0.446800    2.742300    0.608010
  S     -0.337730    3.894930   -0.470280
  C      0.782170    5.073780    0.201830
  N      1.590420    4.550270    1.097440
  N      1.398200    3.285010    1.310440
  C      0.809680    6.427720   -0.188710
  S     -0.321340    7.046620   -1.336620
  C      0.340420    8.650590   -1.259570
  C      1.417430    8.694580   -0.355280
  C      1.685800    7.435330    0.253190
  C      2.736620    7.311170    1.171510
  C      3.505430    8.406430    1.499160
  C      4.607010    8.266940    2.448810
  C      4.649140    7.374910    3.430640
  C      3.233750    9.673260    0.897100
  C      4.051650   10.873760    1.262860
  C      2.211700    9.800870   -0.007210
  C     -0.176130    9.711580   -2.027430
  C     -1.238230    9.619340   -2.869380
  C     -1.700690   10.722990   -3.626640
  S     -3.099320   10.629250   -4.685020
  C     -2.768690   12.320660   -5.047070
  N     -1.741550   12.777880   -4.390600
  N     -1.157670   11.917950   -3.613570
  C     -3.570180   13.078890   -5.957720
  C     -4.799110   12.563650   -6.422300
  C     -5.643090   13.337060   -7.284260
  N     -6.824840   12.828750   -7.715110
  C     -7.152750   11.634510   -7.321720
  C     -6.320850   10.868760   -6.469270
  N     -5.182870   11.328370   -6.038350
  C     -5.261280   14.615110   -7.678580
  C     -4.039530   15.126650   -7.251600
  C     -3.171820   14.358600   -6.404790
  N     -1.963630   14.848630   -6.057440
  C     -1.650340   16.044920   -6.455630
  C     -2.532950   16.831290   -7.238620
  N     -3.680180   16.376410   -7.643470
  H     -1.015830   -2.421760    0.678920
  H      2.781130    0.393120    4.004390
  H      2.130140   -2.064550    3.943230
  H     -3.540760   -0.453240   -2.586980
  H     -2.861040    1.996710   -2.587460
  H      2.934010    6.340040    1.593970
  H      5.431410    8.955890    2.326130
  H      3.842520    6.686710    3.617560
  H      5.492940    7.313490    4.096570
  H      5.080760   10.754800    0.923750
  H      4.066130   11.014660    2.342450
  H      3.643180   11.768480    0.800060
  H      2.008530   10.760320   -0.458340
  H      0.311920   10.671750   -1.939060
  H     -1.767540    8.684300   -2.987990
  H     -8.097460   11.245090   -7.676740
  H     -6.599940    9.875150   -6.146480
  H     -5.908400   15.207050   -8.304700
  H     -0.670030   16.407700   -6.177960
  H     -2.267490   17.832670   -7.551320

 Total Charge           Charge          ....    0
 Multiplicity           Mult            ....    1
 Number of Electrons    NEL             ....  374
 Basis Dimension        Dim             ....  840

ORBITAL ENERGIES
----------------

  NO   OCC          E(Eh)            E(eV)
   0   2.0000     -88.963452     -2420.8186
   1   2.0000     -88.953496     -2420.5477
   2   2.0000     -88.950406     -2420.4636
   3   2.0000     -14.439451      -392.9174
   4   2.0000     -14.436244      -392.8302
   5   2.0000     -14.432856      -392.7380
   6   2.0000     -14.430543      -392.6751
   7   2.0000     -14.424073      -392.4990
   8   2.0000     -14.421991      -392.4423
   9   2.0000     -14.416838      -392.3021
  10   2.0000     -14.416359      -392.2891
  11   2.0000     -14.415272      -392.2595
  12   2.0000     -14.414865      -392.2484
  13   2.0000     -14.413963      -392.2239
  14   2.0000     -14.409727      -392.1086
  15   2.0000     -10.334251      -281.2093
  16   2.0000     -10.331234      -281.1272
  17   2.0000     -10.328676      -281.0576
  18   2.0000     -10.328645      -281.0567
  19   2.0000     -10.326248      -280.9915
  20   2.0000     -10.326035      -280.9857
  21   2.0000     -10.324960      -280.9564
  22   2.0000     -10.324182      -280.9353
  23   2.0000     -10.324008      -280.9305
  24   2.0000     -10.322412      -280.8871
  25   2.0000     -10.321941      -280.8743
  26   2.0000     -10.321318      -280.8573
  27   2.0000     -10.321072      -280.8506
  28   2.0000     -10.320661      -280.8395
  29   2.0000     -10.320335      -280.8306
  30   2.0000     -10.318664      -280.7851
  31   2.0000     -10.318622      -280.7840
  32   2.0000     -10.318549      -280.7820
  33   2.0000     -10.316093      -280.7152
  34   2.0000     -10.314049      -280.6595
  35   2.0000     -10.304235      -280.3925
  36   2.0000     -10.302991      -280.3586
  37   2.0000     -10.301475      -280.3174
  38   2.0000     -10.301301      -280.3127
  39   2.0000     -10.285887      -279.8932
  40   2.0000     -10.283283      -279.8223
  41   2.0000     -10.283273      -279.8221
  42   2.0000     -10.276146      -279.6281
  43   2.0000     -10.275817      -279.6192
  44   2.0000     -10.274521      -279.5839
  45   2.0000     -10.272055      -279.5168
  46   2.0000     -10.267158      -279.3836
  47   2.0000     -10.261558      -279.2312
  48   2.0000     -10.260828      -279.2113
  49   2.0000     -10.257259      -279.1142
  50   2.0000     -10.254145      -279.0295
  51   2.0000     -10.253004      -278.9984
  52   2.0000      -8.058478      -219.2823
  53   2.0000      -8.047764      -218.9908
  54   2.0000      -8.044896      -218.9128
  55   2.0000      -6.027419      -164.0144
  56   2.0000      -6.023445      -163.9063
  57   2.0000      -6.021250      -163.8465
  58   2.0000      -6.016972      -163.7301
  59   2.0000      -6.013875      -163.6459
  60   2.0000      -6.012903      -163.6194
  61   2.0000      -6.009993      -163.5402
  62   2.0000      -6.009932      -163.5386
  63   2.0000      -6.007348      -163.4683
  64   2.0000      -1.122596       -30.5474
  65   2.0000      -1.118324       -30.4312
  66   2.0000      -1.092733       -29.7348
  67   2.0000      -1.089899       -29.6577
  68   2.0000      -1.078502       -29.3475
  69   2.0000      -1.076454       -29.2918
  70   2.0000      -1.016698       -27.6658
  71   2.0000      -1.013800       -27.5869
  72   2.0000      -1.002401       -27.2767
  73   2.0000      -1.000257       -27.2184
  74   2.0000      -0.993000       -27.0209
  75   2.0000      -0.956408       -26.0252
  76   2.0000      -0.953971       -25.9589
  77   2.0000      -0.935765       -25.4635
  78   2.0000      -0.923614       -25.1328
  79   2.0000      -0.909329       -24.7441
  80   2.0000      -0.899804       -24.4849
  81   2.0000      -0.895883       -24.3782
  82   2.0000      -0.870458       -23.6864
  83   2.0000      -0.867552       -23.6073
  84   2.0000      -0.864084       -23.5129
  85   2.0000      -0.863498       -23.4970
  86   2.0000      -0.848712       -23.0946
  87   2.0000      -0.843613       -22.9559
  88   2.0000      -0.839065       -22.8321
  89   2.0000      -0.815834       -22.2000
  90   2.0000      -0.795058       -21.6346
  91   2.0000      -0.792368       -21.5614
  92   2.0000      -0.782833       -21.3020
  93   2.0000      -0.766679       -20.8624
  94   2.0000      -0.765474       -20.8296
  95   2.0000      -0.759509       -20.6673
  96   2.0000      -0.741596       -20.1799
  97   2.0000      -0.730039       -19.8654
  98   2.0000      -0.728754       -19.8304
  99   2.0000      -0.726412       -19.7667
 100   2.0000      -0.722662       -19.6646
 101   2.0000      -0.708812       -19.2877
 102   2.0000      -0.689975       -18.7752
 103   2.0000      -0.687769       -18.7151
 104   2.0000      -0.681376       -18.5412
 105   2.0000      -0.670948       -18.2574
 106   2.0000      -0.663084       -18.0434
 107   2.0000      -0.645771       -17.5723
 108   2.0000      -0.643604       -17.5134
 109   2.0000      -0.634290       -17.2599
 110   2.0000      -0.632552       -17.2126
 111   2.0000      -0.627196       -17.0669
 112   2.0000      -0.621376       -16.9085
 113   2.0000      -0.608739       -16.5646
 114   2.0000      -0.596387       -16.2285
 115   2.0000      -0.595597       -16.2070
 116   2.0000      -0.593225       -16.1425
 117   2.0000      -0.590548       -16.0696
 118   2.0000      -0.579847       -15.7784
 119   2.0000      -0.577493       -15.7144
 120   2.0000      -0.575986       -15.6734
 121   2.0000      -0.569350       -15.4928
 122   2.0000      -0.565291       -15.3824
 123   2.0000      -0.551420       -15.0049
 124   2.0000      -0.550105       -14.9691
 125   2.0000      -0.547169       -14.8892
 126   2.0000      -0.540852       -14.7173
 127   2.0000      -0.529087       -14.3972
 128   2.0000      -0.523117       -14.2347
 129   2.0000      -0.522106       -14.2072
 130   2.0000      -0.520652       -14.1677
 131   2.0000      -0.517834       -14.0910
 132   2.0000      -0.516109       -14.0440
 133   2.0000      -0.515664       -14.0319
 134   2.0000      -0.513511       -13.9733
 135   2.0000      -0.512208       -13.9379
 136   2.0000      -0.509340       -13.8598
 137   2.0000      -0.508744       -13.8436
 138   2.0000      -0.503054       -13.6888
 139   2.0000      -0.498969       -13.5776
 140   2.0000      -0.497785       -13.5454
 141   2.0000      -0.492179       -13.3929
 142   2.0000      -0.488721       -13.2988
 143   2.0000      -0.481865       -13.1122
 144   2.0000      -0.481631       -13.1059
 145   2.0000      -0.478753       -13.0275
 146   2.0000      -0.473800       -12.8928
 147   2.0000      -0.464631       -12.6432
 148   2.0000      -0.462368       -12.5817
 149   2.0000      -0.455212       -12.3869
 150   2.0000      -0.454074       -12.3560
 151   2.0000      -0.447695       -12.1824
 152   2.0000      -0.445828       -12.1316
 153   2.0000      -0.443091       -12.0571
 154   2.0000      -0.425814       -11.5870
 155   2.0000      -0.423643       -11.5279
 156   2.0000      -0.417948       -11.3729
 157   2.0000      -0.414529       -11.2799
 158   2.0000      -0.413699       -11.2573
 159   2.0000      -0.412103       -11.2139
 160   2.0000      -0.408433       -11.1140
 161   2.0000      -0.405695       -11.0395
 162   2.0000      -0.401480       -10.9248
 163   2.0000      -0.400452       -10.8968
 164   2.0000      -0.398684       -10.8488
 165   2.0000      -0.384730       -10.4690
 166   2.0000      -0.383444       -10.4340
 167   2.0000      -0.373217       -10.1557
 168   2.0000      -0.360457        -9.8085
 169   2.0000      -0.359510        -9.7828
 170   2.0000      -0.354173        -9.6375
 171   2.0000      -0.349459        -9.5093
 172   2.0000      -0.348366        -9.4795
 173   2.0000      -0.335243        -9.1224
 174   2.0000      -0.333202        -9.0669
 175   2.0000      -0.332007        -9.0344
 176   2.0000      -0.330949        -9.0056
 177   2.0000      -0.329063        -8.9543
 178   2.0000      -0.318125        -8.6566
 179   2.0000      -0.316728        -8.6186
 180   2.0000      -0.313336        -8.5263
 181   2.0000      -0.290197        -7.8967
 182   2.0000      -0.286441        -7.7945
 183   2.0000      -0.284964        -7.7543
 184   2.0000      -0.283669        -7.7190
 185   2.0000      -0.271873        -7.3981
 186   2.0000      -0.223040        -6.0692
 187   0.0000      -0.093213        -2.5365
 188   0.0000      -0.083165        -2.2630
 189   0.0000      -0.058046        -1.5795
 190   0.0000      -0.010729        -0.2920
 191   0.0000      -0.008778        -0.2388

MULLIKEN ATOMIC CHARGES
-----------------------
   0 C :   -0.065835
   1 C :    0.027519
   2 C :   -0.096774
   3 N :    0.047062
   4 C :    0.023127
   5 C :    0.026409
   6 N :   -0.021113
   7 C :    0.206871
   8 C :   -0.019021
   9 C :    0.021969
  10 N :   -0.011004
  11 C :    0.017865
  12 C :    0.046266
  13 N :   -0.061170
  14 C :   -0.229232
  15 S :    0.101737
  16 C :   -0.062696
  17 N :   -0.068204
  18 N :   -0.002724
  19 C :   -0.078194
  20 S :    0.154657
  21 C :   -0.076924
  22 C :    0.126521
  23 C :    0.081229
  24 C :   -0.105067
  25 C :    0.105093
  26 C :   -0.040257
  27 C :   -0.007938
  28 C :   -0.071567
  29 C :    0.097252
  30 C :   -0.101369
  31 C :    0.004363
  32 C :    0.021415
  33 C :   -0.063848
  34 S :    0.114125
  35 C :   -0.245685
  36 N :   -0.004521
  37 N :   -0.072931
  38 C :    0.203405
  39 C :   -0.025267
  40 C :    0.024163
  41 N :   -0.011349
  42 C :    0.018874
  43 C :    0.040844
  44 N :   -0.051425
  45 C :   -0.071274
  46 C :    0.032215
  47 C :   -0.092168
  48 N :    0.046790
  49 C :    0.023037
  50 C :    0.025491
  51 N :   -0.021411
  52 H :   -0.031715
  53 H :    0.017937
  54 H :    0.015898
  55 H :    0.019570
  56 H :    0.017838
  57 H :   -0.009481
  58 H :   -0.009459
  59 H :    0.032139
  60 H :    0.018754
  61 H :    0.031103
  62 H :    0.031313
  63 H :    0.010154
  64 H :   -0.036945
  65 H :    0.018598
  66 H :   -0.016126
  67 H :    0.017545
  68 H :    0.015478
  69 H :   -0.033069
  70 H :    0.016598
  71 H :    0.014541
Sum of atomic charges:   -0.0000000

LOEWDIN ATOMIC CHARGES
----------------------
   0 C :    0.004116
   1 C :   -0.011822
   2 C :   -0.001661
   3 N :   -0.007727
   4 C :    0.013667
   5 C :    0.010254
   6 N :   -0.038565
   7 C :   -0.037419
   8 C :   -0.012604
   9 C :   -0.014806
  10 N :   -0.028282
  11 C :    0.006240
  12 C :    0.019499
  13 N :   -0.050840
  14 C :   -0.156188
  15 S :    0.407906
  16 C :   -0.170963
  17 N :   -0.089805
  18 N :   -0.046236
  19 C :   -0.205478
  20 S :    0.472595
  21 C :   -0.172870
  22 C :   -0.033691
  23 C :   -0.030009
  24 C :    0.003944
  25 C :   -0.023573
  26 C :   -0.025463
  27 C :   -0.029938
  28 C :   -0.010277
  29 C :   -0.045223
  30 C :   -0.029847
  31 C :    0.003129
  32 C :   -0.072495
  33 C :   -0.157889
  34 S :    0.414710
  35 C :   -0.159997
  36 N :   -0.046577
  37 N :   -0.098577
  38 C :   -0.036630
  39 C :   -0.013532
  40 C :   -0.014848
  41 N :   -0.029120
  42 C :    0.005474
  43 C :    0.016668
  44 N :   -0.050185
  45 C :    0.002452
  46 C :   -0.012074
  47 C :   -0.001766
  48 N :   -0.007199
  49 C :    0.012029
  50 C :    0.010110
  51 N :   -0.039350
  52 H :    0.043442
  53 H :    0.028649
  54 H :    0.027171
  55 H :    0.028738
  56 H :    0.029423
  57 H :    0.030146
  58 H :    0.026405
  59 H :    0.027112
  60 H :    0.023853
  61 H :    0.035042
  62 H :    0.035683
  63 H :    0.030467
  64 H :    0.026598
  65 H :    0.042973
  66 H :    0.020925
  67 H :    0.028040
  68 H :    0.028347
  69 H :    0.042882
  70 H :    0.028162
  71 H :    0.026674

  Mayer bond orders larger than 0.100000
B(  0-C ,  1-C ) :   1.2420 B(  0-C ,  7-C ) :   0.1435 B(  0-C ,  9-C ) :   1.2449
B(  0-C , 52-H ) :   1.0591 B(  1-C ,  2-C ) :   1.1670 B(  1-C ,  6-N ) :   1.3727
B(  2-C ,  3-N ) :   1.4991 B(  2-C ,  7-C ) :   1.2462 B(  3-N ,  4-C ) :   1.7067
B(  4-C ,  5-C ) :   1.1672 B(  4-C , 53-H ) :   0.9744 B(  5-C ,  6-N ) :   1.7247
B(  5-C , 54-H ) :   0.9725 B(  7-C ,  8-C ) :   1.2753 B(  7-C , 14-C ) :   1.0670
B(  8-C ,  9-C ) :   1.1865 B(  8-C , 13-N ) :   1.3908 B(  9-C , 10-N ) :   1.3750
B( 10-N , 11-C ) :   1.7189 B( 11-C , 12-C ) :   1.1846 B( 11-C , 55-H ) :   0.9745
B( 12-C , 13-N ) :   1.6747 B( 12-C , 56-H ) :   0.9728 B( 14-C , 15-S ) :   1.0905
B( 14-C , 18-N ) :   1.7137 B( 15-S , 16-C ) :   1.0677 B( 16-C , 17-N ) :   1.6146
B( 16-C , 19-C ) :   1.1543 B( 17-N , 18-N ) :   1.2232 B( 19-C , 20-S ) :   1.1605
B( 19-C , 21-C ) :   0.1152 B( 19-C , 23-C ) :   1.3312 B( 20-S , 21-C ) :   1.1249
B( 21-C , 22-C ) :   1.3017 B( 21-C , 31-C ) :   1.1769 B( 22-C , 23-C ) :   1.2007
B( 22-C , 30-C ) :   1.1979 B( 23-C , 24-C ) :   1.2388 B( 24-C , 25-C ) :   1.4554
B( 24-C , 57-H ) :   0.9851 B( 25-C , 26-C ) :   1.0394 B( 25-C , 28-C ) :   1.2002
B( 26-C , 27-C ) :   1.9729 B( 26-C , 58-H ) :   0.9519 B( 27-C , 59-H ) :   0.9559
B( 27-C , 60-H ) :   0.9492 B( 28-C , 29-C ) :   1.0863 B( 28-C , 30-C ) :   1.5526
B( 29-C , 61-H ) :   0.9402 B( 29-C , 62-H ) :   0.9437 B( 29-C , 63-H ) :   0.9544
B( 30-C , 64-H ) :   0.9906 B( 31-C , 32-C ) :   1.6546 B( 31-C , 65-H ) :   0.9703
B( 32-C , 33-C ) :   1.1363 B( 32-C , 66-H ) :   0.9502 B( 33-C , 34-S ) :   1.0701
B( 33-C , 37-N ) :   1.6186 B( 34-S , 35-C ) :   1.1018 B( 35-C , 36-N ) :   1.7075
B( 35-C , 38-C ) :   1.0680 B( 36-N , 37-N ) :   1.2251 B( 38-C , 39-C ) :   1.2765
B( 38-C , 45-C ) :   0.1441 B( 38-C , 47-C ) :   1.2526 B( 39-C , 40-C ) :   1.1855
B( 39-C , 44-N ) :   1.3981 B( 40-C , 41-N ) :   1.3754 B( 40-C , 45-C ) :   1.2442
B( 41-N , 42-C ) :   1.7205 B( 42-C , 43-C ) :   1.1826 B( 42-C , 67-H ) :   0.9744
B( 43-C , 44-N ) :   1.6828 B( 43-C , 68-H ) :   0.9732 B( 45-C , 46-C ) :   1.2422
B( 45-C , 69-H ) :   1.0597 B( 46-C , 47-C ) :   1.1650 B( 46-C , 51-N ) :   1.3714
B( 47-C , 48-N ) :   1.4922 B( 48-N , 49-C ) :   1.7099 B( 49-C , 50-C ) :   1.1647
B( 49-C , 70-H ) :   0.9744 B( 50-C , 51-N ) :   1.7279 B( 50-C , 71-H ) :   0.9727

-----------------------------------------------------------------------------
         ABSORPTION SPECTRUM VIA TRANSITION ELECTRIC DIPOLE MOMENTS
-----------------------------------------------------------------------------
State   Energy  Wavelength   fosc         T2         TX        TY        TZ
        (cm-1)    (nm)                  (au**2)     (au)      (au)      (au)
-----------------------------------------------------------------------------
   0   14185.1    705.0   0.956202459  22.19175  -0.79422   4.24071  -1.89139
   1   17423.6    573.9   0.297714285   5.62518   1.72574  -0.33600   1.59189
   2   19602.5    510.1   0.000775093   0.01302   0.10749   0.03360  -0.01826
   3   20049.4    498.8   0.002273398   0.03733  -0.02098   0.19177   0.01064
   4   21513.4    464.8   0.175145036   2.68018   0.36590  -1.41956   0.72880
   5   24932.3    401.1   0.183912759   2.42842   1.17969  -0.06082   1.01639
   6   25235.6    396.3   0.000445183   0.00581   0.00946  -0.00685   0.07531
   7   25593.0    390.7   0.002973300   0.03825   0.13680   0.12992   0.05152
   8   26104.2    383.1   0.136583644   1.72252  -0.02836  -1.28718   0.25474
   9   26881.2    372.0   0.004396050   0.05384  -0.13129  -0.13158   0.13888
  10   27138.0    368.5   0.003764919   0.04567  -0.00946   0.03279  -0.21097
  11   27710.3    360.9   0.038141940   0.45314  -0.46834   0.02850  -0.48269
  12   29271.6    341.6   0.005039412   0.05668   0.16682  -0.00237  -0.16983
  13   29355.8    340.6   0.009629452   0.10799  -0.22208   0.04236   0.23849
  14   29858.7    334.9   0.074976530   0.82667  -0.54950   0.46559  -0.55492
  15   30689.9    325.8   0.149292847   1.60147  -0.97163  -0.24563  -0.77270
  16   30735.5    325.4   0.240532860   2.57638  -1.13317   0.13236  -1.12906
  17   31129.0    321.2   0.071372674   0.75482   0.62046   0.60191   0.08687
  18   31466.4    317.8   0.068606772   0.71779   0.53879   0.58854   0.28480
  19   32400.5    308.6   0.254294740   2.58381   1.15650  -0.22559   1.09335
  20   32801.3    304.9   0.009678770   0.09714   0.00322   0.28774  -0.11974
  21   33790.7    295.9   0.033271174   0.32415   0.46522   0.18239   0.27286
  22   34042.0    293.8   0.019350831   0.18714  -0.26901  -0.08700  -0.32742
  23   34125.7    293.0   0.041139013   0.39687   0.26896   0.56964  -0.00662
  24   34628.2    288.8   0.174287678   1.65696  -0.89833  -0.23971  -0.89022
  25   34936.7    286.2   0.187855082   1.77018  -0.14105   1.17132  -0.61504
  26   35279.9    283.4   0.024905187   0.23240  -0.38806   0.09850  -0.26852
  27   35391.2    282.6   0.001836493   0.01708   0.10150  -0.03134   0.07615
  28   35628.1    280.7   0.204867376   1.89302   1.04090   0.87412   0.21323
  29   35892.9    278.6   0.086483215   0.79323   0.00830  -0.70301   0.54676
  30   36039.8    277.5   0.004776194   0.04363  -0.12219  -0.13716  -0.09943
  31   36304.6    275.4   0.000428859   0.00389  -0.04936   0.01824  -0.03346
  32   36518.3    273.8   0.120305086   1.08455   0.77315   0.48330   0.50320
  33   36980.2    270.4   0.025166597   0.22404  -0.24593  -0.38557  -0.12205
  34   37585.2    266.1   0.004977033   0.04359   0.06479   0.07949  -0.18187
  35   37709.5    265.2   0.005873302   0.05128  -0.18657  -0.09311  -0.08830
  36   37790.0    264.6   0.001846189   0.01608   0.11664  -0.04519   0.02091
  37   37857.9    264.1   0.019276001   0.16762  -0.34947  -0.16508  -0.13507
  38   38212.8    261.7   0.002429783   0.02093  -0.01391   0.00183   0.14400
  39   38233.0    261.6   0.024033512   0.20695  -0.32183  -0.21216  -0.24157
  40   38677.3    258.5   0.007483690   0.06370   0.20255   0.06574   0.13547
  41   38763.1    258.0   0.001890214   0.01605  -0.09192  -0.06396  -0.05927
  42   39625.2    252.4   0.002397436   0.01992  -0.06782   0.04856   0.11384
  43   39662.4    252.1   0.030878787   0.25630   0.23539   0.38031   0.23719
  44   39805.4    251.2   0.018552603   0.15344  -0.22025  -0.31090  -0.09097
  45   40173.4    248.9   0.006998015   0.05735  -0.20234   0.02936   0.12468
  46   40204.3    248.7   0.003240726   0.02654   0.03123   0.14639   0.06427
  47   40306.3    248.1   0.004482515   0.03661  -0.14560  -0.03606   0.11879

FINAL SINGLE POINT ENERGY     -3270.504766562240

DIPOLE MOMENT
-------------
                                X             Y             Z
Electronic contribution:    -22.64548     -11.14112     -16.88532
Nuclear contribution   :     21.63629      10.38253      16.30167
                        -----------------------------------------
Total Dipole Moment    :     -1.00919      -0.75859      -0.58365
                        -----------------------------------------
Magnitude (a.u.)       :      1.39089
Magnitude (Debye)      :      3.53535

Rotational constants in cm-1:     0.002644     0.000566     0.000468
Rotational constants in MHz :    79.267468    16.961045    14.036916

                             ****ORCA TERMINATED NORMALLY****
TOTAL RUN TIME: 0 days 0 hours 4 minutes 59 seconds 510 msec
