                         Program Version 4.2.0 -  RELEASE  -
|  1> # ORCA input file
|  2> # SCF done       -183.219148599072          0.000478980510
|  3> ! CAM-B3LYP def2-SVP def2/J RIJCOSX Grid4 TightSCF
|  4> %maxcore 5000
|  5> %tddft
|  6>     Mode sTDDFT
|  7>     Ethresh 5.0
|  8>     maxcore 5000
|  9> end
| 10>
| 11> %pal
| 12>   nprocs 6
| 13>   end
| 14> * xyz 0 1
| 15>    C        7.20718        -7.64701        -0.73241
| 16>    S        5.69428        -7.95700        -1.45502
| 17>    C        5.63458        -6.39734        -2.18044
| 18>    C        6.76956        -5.66292        -1.89006
| 19>    C        7.67850        -6.39121        -1.03966
| 20>    C        8.89103        -5.79118        -0.63037
| 21>    C        9.18858        -4.52469        -1.05464
| 22>    C       10.39753        -3.90803        -0.65473
| 23>    N       11.37995        -3.42493        -0.31703
| 24>    C        8.28550        -3.80182        -1.90844
| 25>    C        8.63451        -2.49359        -2.31825
| 26>    N        8.90076        -1.42843        -2.64515
| 27>    C        7.10278        -4.35791        -2.31644
| 28>    C        4.50147        -6.00015        -3.07081
| 29>    C        4.93491        -6.15302        -4.54660
| 30>    O        5.83586        -5.59866        -5.09226
| 31>    O        4.13459        -7.05860        -5.15640
| 32>    C        3.19534        -7.51743        -4.26808
| 33>    C        3.32731        -6.92200        -3.01209
| 34>    C        2.48010        -7.24343        -1.96836
| 35>    C        1.51269        -8.18976        -2.25256
| 36>    C        1.39003        -8.79697        -3.50609
| 37>    C        2.22999        -8.46662        -4.55285
| 38>    C        0.25951        -9.76911        -3.41761
| 39>    C       -0.21624        -9.55517        -1.96851
| 40>    O       -1.13156       -10.09763        -1.43466
| 41>    O        0.58309        -8.65038        -1.36218
| 42>    C       -0.89978        -9.52752        -4.39223
| 43>    C       -1.26077        -8.04060        -4.48468
| 44>    O       -1.41851        -7.27530        -3.58518
| 45>    O       -1.36084        -7.68333        -5.78972
| 46>    C       -1.00265        -8.74548        -6.58144
| 47>    C       -0.66109        -9.87027        -5.82602
| 48>    C       -0.21979       -11.03339        -6.42824
| 49>    C       -0.16338       -11.01129        -7.81024
| 50>    C       -0.55060        -9.90074        -8.56740
| 51>    C       -0.97403        -8.73056        -7.96470
| 52>    C       -0.46261       -10.29596       -10.00597
| 53>    C        0.11071       -11.72228        -9.89706
| 54>    O        0.39461       -12.44499       -10.79806
| 55>    O        0.25319       -12.04992        -8.59274
| 56>    C       -1.84520       -10.37047       -10.68705
| 57>    C       -2.84225       -11.03114        -9.72453
| 58>    O       -2.73522       -12.08683        -9.18356
| 59>    O       -3.89089       -10.19722        -9.51653
| 60>    C       -3.70480        -9.04371       -10.23083
| 61>    C       -2.50624        -9.05826       -10.95025
| 62>    C       -2.13623        -7.99135       -11.74888
| 63>    C       -3.02546        -6.93161       -11.78575
| 64>    C       -4.22283        -6.91896       -11.06399
| 65>    C       -4.59143        -7.98206       -10.26190
| 66>    C       -4.93155        -5.64091       -11.38713
| 67>    C       -3.95415        -4.99932       -12.39887
| 68>    O       -4.09189        -3.96976       -12.97774
| 69>    O       -2.87315        -5.80351       -12.54796
| 70>    C       -6.29597        -5.79492       -11.97200
| 71>    S       -7.54823        -4.70113       -11.53815
| 72>    C       -8.67457        -5.44904       -12.57052
| 73>    C       -8.12348        -6.51332       -13.24905
| 74>    C       -6.73525        -6.71467       -12.90988
| 75>    C       -6.02243        -7.76725       -13.52565
| 76>    C       -6.65915        -8.58410       -14.42215
| 77>    C       -5.94214        -9.64566       -15.02121
| 78>    N       -5.33282       -10.50131       -15.47875
| 79>    C       -8.04157        -8.38448       -14.75464
| 80>    C       -8.65668        -9.25498       -15.68484
| 81>    N       -9.16817        -9.95275       -16.43551
| 82>    C       -8.75544        -7.36716       -14.18060
| 83>    H        7.67322        -8.39546        -0.12376
| 84>    H        9.57161        -6.33370         0.00821
| 85>    H        6.44166        -3.81253        -2.97160
| 86>    H        4.23656        -4.95337        -2.88591
| 87>    H        2.56097        -6.79257        -0.99411
| 88>    H        2.15025        -8.91895        -5.52732
| 89>    H        0.59498       -10.80584        -3.52686
| 90>    H       -1.77207       -10.06718        -3.99856
| 91>    H        0.05116       -11.91390        -5.87124
| 92>    H       -1.26534        -7.85941        -8.52747
| 93>    H        0.20202        -9.66797       -10.60430
| 94>    H       -1.74418       -10.97831       -11.59332
| 95>    H       -1.22671        -7.98298       -12.32530
| 96>    H       -5.51366        -7.99746        -9.70670
| 97>    H       -4.99387        -4.97529       -10.51895
| 98>    H       -9.67785        -5.07864       -12.63563
| 99>    H       -4.98169        -7.93673       -13.29689
|100>    H       -9.79403        -7.21347       -14.43134
|101> *
|102>
|103>                          ****END OF INPUT****

CARTESIAN COORDINATES (ANGSTROEM)
---------------------------------
  C      7.207180   -7.647010   -0.732410
  S      5.694280   -7.957000   -1.455020
  C      5.634580   -6.397340   -2.180440
  C      6.769560   -5.662920   -1.890060
  C      7.678500   -6.391210   -1.039660
  C      8.891030   -5.791180   -0.630370
  C      9.188580   -4.524690   -1.054640
  C     10.397530   -3.908030   -0.654730
  N     11.379950   -3.424930   -0.317030
  C      8.285500   -3.801820   -1.908440
  C      8.634510   -2.493590   -2.318250
  N      8.900760   -1.428430   -2.645150
  C      7.102780   -4.357910   -2.316440
  C      4.501470   -6.000150   -3.070810
  C      4.934910   -6.153020   -4.546600
  O      5.835860   -5.598660   -5.092260
  O      4.134590   -7.058600   -5.156400
  C      3.195340   -7.517430   -4.268080
  C      3.327310   -6.922000   -3.012090
  C      2.480100   -7.243430   -1.968360
  C      1.512690   -8.189760   -2.252560
  C      1.390030   -8.796970   -3.506090
  C      2.229990   -8.466620   -4.552850
  C      0.259510   -9.769110   -3.417610
  C     -0.216240   -9.555170   -1.968510
  O     -1.131560  -10.097630   -1.434660
  O      0.583090   -8.650380   -1.362180
  C     -0.899780   -9.527520   -4.392230
  C     -1.260770   -8.040600   -4.484680
  O     -1.418510   -7.275300   -3.585180
  O     -1.360840   -7.683330   -5.789720
  C     -1.002650   -8.745480   -6.581440
  C     -0.661090   -9.870270   -5.826020
  C     -0.219790  -11.033390   -6.428240
  C     -0.163380  -11.011290   -7.810240
  C     -0.550600   -9.900740   -8.567400
  C     -0.974030   -8.730560   -7.964700
  C     -0.462610  -10.295960  -10.005970
  C      0.110710  -11.722280   -9.897060
  O      0.394610  -12.444990  -10.798060
  O      0.253190  -12.049920   -8.592740
  C     -1.845200  -10.370470  -10.687050
  C     -2.842250  -11.031140   -9.724530
  O     -2.735220  -12.086830   -9.183560
  O     -3.890890  -10.197220   -9.516530
  C     -3.704800   -9.043710  -10.230830
  C     -2.506240   -9.058260  -10.950250
  C     -2.136230   -7.991350  -11.748880
  C     -3.025460   -6.931610  -11.785750
  C     -4.222830   -6.918960  -11.063990
  C     -4.591430   -7.982060  -10.261900
  C     -4.931550   -5.640910  -11.387130
  C     -3.954150   -4.999320  -12.398870
  O     -4.091890   -3.969760  -12.977740
  O     -2.873150   -5.803510  -12.547960
  C     -6.295970   -5.794920  -11.972000
  S     -7.548230   -4.701130  -11.538150
  C     -8.674570   -5.449040  -12.570520
  C     -8.123480   -6.513320  -13.249050
  C     -6.735250   -6.714670  -12.909880
  C     -6.022430   -7.767250  -13.525650
  C     -6.659150   -8.584100  -14.422150
  C     -5.942140   -9.645660  -15.021210
  N     -5.332820  -10.501310  -15.478750
  C     -8.041570   -8.384480  -14.754640
  C     -8.656680   -9.254980  -15.684840
  N     -9.168170   -9.952750  -16.435510
  C     -8.755440   -7.367160  -14.180600
  H      7.673220   -8.395460   -0.123760
  H      9.571610   -6.333700    0.008210
  H      6.441660   -3.812530   -2.971600
  H      4.236560   -4.953370   -2.885910
  H      2.560970   -6.792570   -0.994110
  H      2.150250   -8.918950   -5.527320
  H      0.594980  -10.805840   -3.526860
  H     -1.772070  -10.067180   -3.998560
  H      0.051160  -11.913900   -5.871240
  H     -1.265340   -7.859410   -8.527470
  H      0.202020   -9.667970  -10.604300
  H     -1.744180  -10.978310  -11.593320
  H     -1.226710   -7.982980  -12.325300
  H     -5.513660   -7.997460   -9.706700
  H     -4.993870   -4.975290  -10.518950
  H     -9.677850   -5.078640  -12.635630
  H     -4.981690   -7.936730  -13.296890
  H     -9.794030   -7.213470  -14.431340

 Total Charge           Charge          ....    0
 Multiplicity           Mult            ....    1
 Number of Electrons    NEL             ....  474
 Basis Dimension        Dim             .... 1050

ORBITAL ENERGIES
----------------

  NO   OCC          E(Eh)            E(eV)
   0   2.0000     -89.007917     -2422.0285
   1   2.0000     -89.002686     -2421.8862
   2   2.0000     -19.312283      -525.5139
   3   2.0000     -19.311183      -525.4840
   4   2.0000     -19.308438      -525.4093
   5   2.0000     -19.307819      -525.3925
   6   2.0000     -19.303266      -525.2686
   7   2.0000     -19.302833      -525.2568
   8   2.0000     -19.242719      -523.6210
   9   2.0000     -19.241975      -523.6008
  10   2.0000     -19.241369      -523.5843
  11   2.0000     -19.239629      -523.5369
  12   2.0000     -19.234398      -523.3946
  13   2.0000     -19.233894      -523.3809
  14   2.0000     -14.419104      -392.3638
  15   2.0000     -14.416948      -392.3051
  16   2.0000     -14.410881      -392.1400
  17   2.0000     -14.409767      -392.1097
  18   2.0000     -10.438541      -284.0471
  19   2.0000     -10.438089      -284.0348
  20   2.0000     -10.436570      -283.9935
  21   2.0000     -10.435749      -283.9712
  22   2.0000     -10.431336      -283.8511
  23   2.0000     -10.431099      -283.8446
  24   2.0000     -10.377624      -282.3895
  25   2.0000     -10.376658      -282.3632
  26   2.0000     -10.371266      -282.2165
  27   2.0000     -10.370983      -282.2088
  28   2.0000     -10.370716      -282.2015
  29   2.0000     -10.369100      -282.1576
  30   2.0000     -10.347999      -281.5834
  31   2.0000     -10.344789      -281.4960
  32   2.0000     -10.343361      -281.4572
  33   2.0000     -10.342384      -281.4306
  34   2.0000     -10.342097      -281.4228
  35   2.0000     -10.340920      -281.3907
  36   2.0000     -10.340730      -281.3856
  37   2.0000     -10.339274      -281.3459
  38   2.0000     -10.339210      -281.3442
  39   2.0000     -10.338485      -281.3245
  40   2.0000     -10.335237      -281.2361
  41   2.0000     -10.334507      -281.2162
  42   2.0000     -10.332079      -281.1502
  43   2.0000     -10.330785      -281.1150
  44   2.0000     -10.329468      -281.0791
  45   2.0000     -10.328306      -281.0475
  46   2.0000     -10.326818      -281.0070
  47   2.0000     -10.326798      -281.0065
  48   2.0000     -10.326569      -281.0002
  49   2.0000     -10.325517      -280.9716
  50   2.0000     -10.324559      -280.9455
  51   2.0000     -10.323747      -280.9234
  52   2.0000     -10.323332      -280.9121
  53   2.0000     -10.322857      -280.8992
  54   2.0000     -10.322500      -280.8895
  55   2.0000     -10.322246      -280.8826
  56   2.0000     -10.321167      -280.8532
  57   2.0000     -10.321143      -280.8526
  58   2.0000     -10.320999      -280.8487
  59   2.0000     -10.320174      -280.8262
  60   2.0000     -10.319222      -280.8003
  61   2.0000     -10.318653      -280.7848
  62   2.0000     -10.317509      -280.7537
  63   2.0000     -10.315232      -280.6917
  64   2.0000     -10.314280      -280.6658
  65   2.0000     -10.313700      -280.6500
  66   2.0000     -10.309292      -280.5301
  67   2.0000     -10.308144      -280.4989
  68   2.0000      -8.103241      -220.5004
  69   2.0000      -8.097473      -220.3435
  70   2.0000      -6.071905      -165.2249
  71   2.0000      -6.067676      -165.1099
  72   2.0000      -6.066768      -165.0851
  73   2.0000      -6.066306      -165.0726
  74   2.0000      -6.061915      -164.9531
  75   2.0000      -6.060920      -164.9260
  76   2.0000      -1.248474       -33.9727
  77   2.0000      -1.247767       -33.9535
  78   2.0000      -1.244743       -33.8712
  79   2.0000      -1.243968       -33.8501
  80   2.0000      -1.240527       -33.7565
  81   2.0000      -1.240305       -33.7504
  82   2.0000      -1.154785       -31.4233
  83   2.0000      -1.153595       -31.3909
  84   2.0000      -1.152606       -31.3640
  85   2.0000      -1.150876       -31.3169
  86   2.0000      -1.146523       -31.1985
  87   2.0000      -1.146464       -31.1969
  88   2.0000      -1.039653       -28.2904
  89   2.0000      -1.033074       -28.1114
  90   2.0000      -1.013604       -27.5816
  91   2.0000      -1.008900       -27.4536
  92   2.0000      -1.006992       -27.4017
  93   2.0000      -1.003121       -27.2963
  94   2.0000      -0.998595       -27.1732
  95   2.0000      -0.997297       -27.1378
  96   2.0000      -0.990753       -26.9597
  97   2.0000      -0.975738       -26.5512
  98   2.0000      -0.972469       -26.4622
  99   2.0000      -0.966654       -26.3040
 100   2.0000      -0.957899       -26.0658
 101   2.0000      -0.942192       -25.6383
 102   2.0000      -0.932979       -25.3876
 103   2.0000      -0.908291       -24.7159
 104   2.0000      -0.901467       -24.5302
 105   2.0000      -0.894791       -24.3485
 106   2.0000      -0.889012       -24.1912
 107   2.0000      -0.885997       -24.1092
 108   2.0000      -0.882711       -24.0198
 109   2.0000      -0.879993       -23.9458
 110   2.0000      -0.878470       -23.9044
 111   2.0000      -0.874687       -23.8014
 112   2.0000      -0.846378       -23.0311
 113   2.0000      -0.839305       -22.8387
 114   2.0000      -0.824200       -22.4276
 115   2.0000      -0.812889       -22.1198
 116   2.0000      -0.803432       -21.8625
 117   2.0000      -0.775875       -21.1126
 118   2.0000      -0.772692       -21.0260
 119   2.0000      -0.772021       -21.0078
 120   2.0000      -0.768589       -20.9144
 121   2.0000      -0.765406       -20.8277
 122   2.0000      -0.758318       -20.6349
 123   2.0000      -0.752360       -20.4728
 124   2.0000      -0.745810       -20.2945
 125   2.0000      -0.738718       -20.1015
 126   2.0000      -0.731183       -19.8965
 127   2.0000      -0.727291       -19.7906
 128   2.0000      -0.712990       -19.4015
 129   2.0000      -0.704729       -19.1767
 130   2.0000      -0.702427       -19.1140
 131   2.0000      -0.690880       -18.7998
 132   2.0000      -0.688566       -18.7368
 133   2.0000      -0.685896       -18.6642
 134   2.0000      -0.680902       -18.5283
 135   2.0000      -0.667292       -18.1579
 136   2.0000      -0.662625       -18.0309
 137   2.0000      -0.658914       -17.9300
 138   2.0000      -0.654303       -17.8045
 139   2.0000      -0.644877       -17.5480
 140   2.0000      -0.640758       -17.4359
 141   2.0000      -0.635827       -17.3017
 142   2.0000      -0.627915       -17.0864
 143   2.0000      -0.624174       -16.9847
 144   2.0000      -0.622838       -16.9483
 145   2.0000      -0.620953       -16.8970
 146   2.0000      -0.618402       -16.8276
 147   2.0000      -0.616525       -16.7765
 148   2.0000      -0.615290       -16.7429
 149   2.0000      -0.599697       -16.3186
 150   2.0000      -0.597825       -16.2677
 151   2.0000      -0.594806       -16.1855
 152   2.0000      -0.591479       -16.0950
 153   2.0000      -0.587949       -15.9989
 154   2.0000      -0.584177       -15.8963
 155   2.0000      -0.578518       -15.7423
 156   2.0000      -0.575771       -15.6675
 157   2.0000      -0.571923       -15.5628
 158   2.0000      -0.569345       -15.4927
 159   2.0000      -0.567270       -15.4362
 160   2.0000      -0.565551       -15.3894
 161   2.0000      -0.563460       -15.3325
 162   2.0000      -0.562939       -15.3183
 163   2.0000      -0.560391       -15.2490
 164   2.0000      -0.558882       -15.2080
 165   2.0000      -0.553168       -15.0525
 166   2.0000      -0.548719       -14.9314
 167   2.0000      -0.547245       -14.8913
 168   2.0000      -0.545764       -14.8510
 169   2.0000      -0.542287       -14.7564
 170   2.0000      -0.539578       -14.6827
 171   2.0000      -0.538337       -14.6489
 172   2.0000      -0.537588       -14.6285
 173   2.0000      -0.534517       -14.5450
 174   2.0000      -0.530749       -14.4424
 175   2.0000      -0.527936       -14.3659
 176   2.0000      -0.527737       -14.3604
 177   2.0000      -0.526099       -14.3159
 178   2.0000      -0.522826       -14.2268
 179   2.0000      -0.516349       -14.0506
 180   2.0000      -0.512738       -13.9523
 181   2.0000      -0.512221       -13.9382
 182   2.0000      -0.511185       -13.9100
 183   2.0000      -0.506720       -13.7886
 184   2.0000      -0.504011       -13.7148
 185   2.0000      -0.501638       -13.6503
 186   2.0000      -0.498786       -13.5727
 187   2.0000      -0.497214       -13.5299
 188   2.0000      -0.494969       -13.4688
 189   2.0000      -0.491590       -13.3768
 190   2.0000      -0.488429       -13.2908
 191   2.0000      -0.487640       -13.2694
 192   2.0000      -0.483959       -13.1692
 193   2.0000      -0.481827       -13.1112
 194   2.0000      -0.474804       -12.9201
 195   2.0000      -0.472534       -12.8583
 196   2.0000      -0.469522       -12.7763
 197   2.0000      -0.465839       -12.6761
 198   2.0000      -0.465521       -12.6675
 199   2.0000      -0.462156       -12.5759
 200   2.0000      -0.460301       -12.5254
 201   2.0000      -0.459685       -12.5087
 202   2.0000      -0.456758       -12.4290
 203   2.0000      -0.454164       -12.3584
 204   2.0000      -0.453203       -12.3323
 205   2.0000      -0.446164       -12.1407
 206   2.0000      -0.445960       -12.1352
 207   2.0000      -0.443616       -12.0714
 208   2.0000      -0.438093       -11.9211
 209   2.0000      -0.436778       -11.8853
 210   2.0000      -0.426202       -11.5975
 211   2.0000      -0.422002       -11.4832
 212   2.0000      -0.419873       -11.4253
 213   2.0000      -0.418352       -11.3839
 214   2.0000      -0.417494       -11.3606
 215   2.0000      -0.416653       -11.3377
 216   2.0000      -0.416016       -11.3204
 217   2.0000      -0.411838       -11.2067
 218   2.0000      -0.410768       -11.1776
 219   2.0000      -0.400901       -10.9091
 220   2.0000      -0.391706       -10.6589
 221   2.0000      -0.389384       -10.5957
 222   2.0000      -0.387351       -10.5404
 223   2.0000      -0.382829       -10.4173
 224   2.0000      -0.382344       -10.4041
 225   2.0000      -0.378875       -10.3097
 226   2.0000      -0.378323       -10.2947
 227   2.0000      -0.369761       -10.0617
 228   2.0000      -0.366867        -9.9830
 229   2.0000      -0.363440        -9.8897
 230   2.0000      -0.344793        -9.3823
 231   2.0000      -0.338401        -9.2084
 232   2.0000      -0.327077        -8.9002
 233   2.0000      -0.320543        -8.7224
 234   2.0000      -0.318404        -8.6642
 235   2.0000      -0.301658        -8.2085
 236   2.0000      -0.294213        -8.0059
 237   0.0000      -0.078130        -2.1260
 238   0.0000      -0.071419        -1.9434
 239   0.0000      -0.044194        -1.2026
 240   0.0000      -0.035813        -0.9745
 241   0.0000      -0.028203        -0.7674

MULLIKEN ATOMIC CHARGES
-----------------------
   0 C :   -0.124839
   1 S :    0.194017
   2 C :   -0.253133
   3 C :    0.176572
   4 C :    0.107228
   5 C :   -0.019906
   6 C :   -0.070074
   7 C :   -0.176095
   8 N :    0.172172
   9 C :   -0.073923
  10 C :   -0.171546
  11 N :    0.177494
  12 C :   -0.028139
  13 C :    0.029667
  14 C :    0.229268
  15 O :   -0.121549
  16 O :   -0.205764
  17 C :    0.230382
  18 C :   -0.072418
  19 C :   -0.091187
  20 C :    0.216085
  21 C :   -0.038108
  22 C :   -0.109176
  23 C :   -0.029449
  24 C :    0.220228
  25 O :   -0.127088
  26 O :   -0.198260
  27 C :   -0.027046
  28 C :    0.203701
  29 O :   -0.126506
  30 O :   -0.210030
  31 C :    0.215525
  32 C :   -0.011116
  33 C :   -0.107316
  34 C :    0.224357
  35 C :   -0.059434
  36 C :   -0.106290
  37 C :   -0.034767
  38 C :    0.223485
  39 O :   -0.123204
  40 O :   -0.195585
  41 C :   -0.020379
  42 C :    0.199751
  43 O :   -0.123915
  44 O :   -0.205028
  45 C :    0.205287
  46 C :   -0.009830
  47 C :   -0.100399
  48 C :    0.193994
  49 C :   -0.046708
  50 C :   -0.092945
  51 C :    0.052851
  52 C :    0.216652
  53 O :   -0.111400
  54 O :   -0.205628
  55 C :   -0.226078
  56 S :    0.215446
  57 C :   -0.125450
  58 C :    0.105466
  59 C :    0.129962
  60 C :   -0.032182
  61 C :   -0.063423
  62 C :   -0.175728
  63 N :    0.176432
  64 C :   -0.066507
  65 C :   -0.178528
  66 N :    0.173164
  67 C :   -0.013279
  68 H :    0.031746
  69 H :   -0.003354
  70 H :   -0.001413
  71 H :    0.067383
  72 H :   -0.008779
  73 H :   -0.009810
  74 H :    0.067758
  75 H :    0.087441
  76 H :   -0.009505
  77 H :   -0.010747
  78 H :    0.063107
  79 H :    0.088231
  80 H :   -0.004840
  81 H :   -0.006803
  82 H :    0.048014
  83 H :    0.035282
  84 H :   -0.011766
  85 H :   -0.001776
Sum of atomic charges:   -0.0000000

LOEWDIN ATOMIC CHARGES
----------------------
   0 C :   -0.187488
   1 S :    0.523252
   2 C :   -0.182196
   3 C :   -0.046509
   4 C :   -0.048230
   5 C :    0.035721
   6 C :   -0.054107
   7 C :   -0.032403
   8 N :   -0.034402
   9 C :   -0.053437
  10 C :   -0.031961
  11 N :   -0.034151
  12 C :    0.038465
  13 C :   -0.055102
  14 C :    0.103888
  15 O :   -0.117037
  16 O :   -0.036239
  17 C :    0.049231
  18 C :   -0.054996
  19 C :   -0.022265
  20 C :    0.055109
  21 C :   -0.043856
  22 C :   -0.029248
  23 C :   -0.033354
  24 C :    0.099486
  25 O :   -0.121674
  26 O :   -0.025848
  27 C :   -0.036258
  28 C :    0.101977
  29 O :   -0.121843
  30 O :   -0.037632
  31 C :    0.045631
  32 C :   -0.042528
  33 C :   -0.025854
  34 C :    0.055339
  35 C :   -0.051689
  36 C :   -0.029416
  37 C :   -0.029698
  38 C :    0.098179
  39 O :   -0.117100
  40 O :   -0.024149
  41 C :   -0.031492
  42 C :    0.101881
  43 O :   -0.117712
  44 O :   -0.031659
  45 C :    0.048439
  46 C :   -0.043025
  47 C :   -0.027071
  48 C :    0.040788
  49 C :   -0.045428
  50 C :   -0.019709
  51 C :   -0.058926
  52 C :    0.098560
  53 O :   -0.112951
  54 O :   -0.035216
  55 C :   -0.184092
  56 S :    0.536040
  57 C :   -0.183721
  58 C :   -0.048470
  59 C :   -0.048503
  60 C :    0.025417
  61 C :   -0.050412
  62 C :   -0.032574
  63 N :   -0.034417
  64 C :   -0.055920
  65 C :   -0.033334
  66 N :   -0.031602
  67 C :    0.039972
  68 H :    0.030449
  69 H :    0.045607
  70 H :    0.042580
  71 H :    0.064798
  72 H :    0.044733
  73 H :    0.043095
  74 H :    0.060485
  75 H :    0.070636
  76 H :    0.043489
  77 H :    0.042412
  78 H :    0.056772
  79 H :    0.068795
  80 H :    0.045538
  81 H :    0.046351
  82 H :    0.063008
  83 H :    0.031972
  84 H :    0.041966
  85 H :    0.046845

  Mayer bond orders larger than 0.100000
B(  0-C ,  1-S ) :   1.2075 B(  0-C ,  2-C ) :   0.1142 B(  0-C ,  4-C ) :   1.4243
B(  0-C , 68-H ) :   0.9703 B(  1-S ,  2-C ) :   1.2250 B(  2-C ,  3-C ) :   1.3979
B(  2-C , 13-C ) :   1.0421 B(  3-C ,  4-C ) :   1.1938 B(  3-C , 12-C ) :   1.1805
B(  4-C ,  5-C ) :   1.1468 B(  5-C ,  6-C ) :   1.5943 B(  5-C , 69-H ) :   1.0070
B(  6-C ,  7-C ) :   1.0788 B(  6-C ,  9-C ) :   1.2089 B(  7-C ,  8-N ) :   3.0481
B(  9-C , 10-C ) :   1.0775 B(  9-C , 12-C ) :   1.5953 B( 10-C , 11-N ) :   3.0470
B( 12-C , 70-H ) :   0.9907 B( 13-C , 14-C ) :   0.9130 B( 13-C , 18-C ) :   0.9443
B( 13-C , 71-H ) :   0.8509 B( 14-C , 15-O ) :   2.2615 B( 14-C , 16-O ) :   1.0911
B( 16-O , 17-C ) :   1.0533 B( 17-C , 18-C ) :   1.3794 B( 17-C , 22-C ) :   1.3508
B( 18-C , 19-C ) :   1.3409 B( 19-C , 20-C ) :   1.3667 B( 19-C , 22-C ) :   0.1289
B( 19-C , 72-H ) :   1.0301 B( 20-C , 21-C ) :   1.3748 B( 20-C , 26-O ) :   1.0573
B( 21-C , 22-C ) :   1.3539 B( 21-C , 23-C ) :   0.9447 B( 22-C , 73-H ) :   1.0297
B( 23-C , 24-C ) :   0.9133 B( 23-C , 27-C ) :   1.0387 B( 23-C , 74-H ) :   0.8738
B( 24-C , 25-O ) :   2.2619 B( 24-C , 26-O ) :   1.0909 B( 27-C , 28-C ) :   0.9173
B( 27-C , 32-C ) :   0.9658 B( 27-C , 75-H ) :   0.8548 B( 28-C , 29-O ) :   2.2516
B( 28-C , 30-O ) :   1.0863 B( 30-O , 31-C ) :   1.0533 B( 31-C , 32-C ) :   1.3799
B( 31-C , 36-C ) :   1.3514 B( 32-C , 33-C ) :   1.3363 B( 33-C , 34-C ) :   1.3739
B( 33-C , 36-C ) :   0.1273 B( 33-C , 76-H ) :   1.0242 B( 34-C , 35-C ) :   1.3700
B( 34-C , 40-O ) :   1.0612 B( 35-C , 36-C ) :   1.3536 B( 35-C , 37-C ) :   0.9502
B( 36-C , 77-H ) :   1.0281 B( 37-C , 38-C ) :   0.9150 B( 37-C , 41-C ) :   1.0278
B( 37-C , 78-H ) :   0.8842 B( 38-C , 39-O ) :   2.2670 B( 38-C , 40-O ) :   1.0832
B( 41-C , 42-C ) :   0.9135 B( 41-C , 46-C ) :   0.9702 B( 41-C , 79-H ) :   0.8656
B( 42-C , 43-O ) :   2.2388 B( 42-C , 44-O ) :   1.0850 B( 44-O , 45-C ) :   1.0531
B( 45-C , 46-C ) :   1.3722 B( 45-C , 50-C ) :   1.3619 B( 46-C , 47-C ) :   1.3386
B( 47-C , 48-C ) :   1.3649 B( 47-C , 50-C ) :   0.1269 B( 47-C , 80-H ) :   1.0276
B( 48-C , 49-C ) :   1.3615 B( 48-C , 54-O ) :   1.0554 B( 49-C , 50-C ) :   1.3486
B( 49-C , 51-C ) :   0.9440 B( 50-C , 81-H ) :   1.0332 B( 51-C , 52-C ) :   0.9007
B( 51-C , 55-C ) :   1.0214 B( 51-C , 82-H ) :   0.8428 B( 52-C , 53-O ) :   2.2975
B( 52-C , 54-O ) :   1.0777 B( 55-C , 56-S ) :   1.2189 B( 55-C , 57-C ) :   0.1079
B( 55-C , 59-C ) :   1.4106 B( 56-S , 57-C ) :   1.2232 B( 57-C , 58-C ) :   1.4165
B( 57-C , 83-H ) :   0.9703 B( 58-C , 59-C ) :   1.1955 B( 58-C , 67-C ) :   1.1515
B( 59-C , 60-C ) :   1.1693 B( 60-C , 61-C ) :   1.6066 B( 60-C , 84-H ) :   0.9946
B( 61-C , 62-C ) :   1.0766 B( 61-C , 64-C ) :   1.2111 B( 62-C , 63-N ) :   3.0485
B( 64-C , 65-C ) :   1.0782 B( 64-C , 67-C ) :   1.5856 B( 65-C , 66-N ) :   3.0460
B( 67-C , 85-H ) :   1.0067

-----------------------------------------------------------------------------
         ABSORPTION SPECTRUM VIA TRANSITION ELECTRIC DIPOLE MOMENTS
-----------------------------------------------------------------------------
State   Energy  Wavelength   fosc         T2         TX        TY        TZ
        (cm-1)    (nm)                  (au**2)     (au)      (au)      (au)
-----------------------------------------------------------------------------
   0   31055.6    322.0   0.141199744   1.49682   0.82010  -0.50278   0.75595
   1   31161.3    320.9   0.155528607   1.64312  -1.21390   0.09084  -0.40165
   2   35647.6    280.5   0.001234304   0.01140   0.03644   0.08625  -0.05131

FINAL SINGLE POINT ENERGY     -3830.341822879731

DIPOLE MOMENT
-------------
                                X             Y             Z
Electronic contribution:      0.59148       2.98840      -0.59688
Nuclear contribution   :     -3.16991      -3.21787       2.32908
                        -----------------------------------------
Total Dipole Moment    :     -2.57843      -0.22947       1.73220
                        -----------------------------------------
Magnitude (a.u.)       :      3.11472
Magnitude (Debye)      :      7.91700

Rotational constants in cm-1:     0.002108     0.000347     0.000331
Rotational constants in MHz :    63.192984    10.403151     9.916719

                             ****ORCA TERMINATED NORMALLY****
TOTAL RUN TIME: 0 days 0 hours 7 minutes 26 seconds 263 msec
