                         Program Version 4.2.0 -  RELEASE  -
|  1> # ORCA input file
|  2> # SCF done       -118.911696945317          0.000544173170
|  3> ! CAM-B3LYP def2-SVP def2/J RIJCOSX Grid4 TightSCF
|  4> %maxcore 5000
|  5> %tddft
|  6>     Mode sTDDFT
|  7>     Ethresh 5.0
|  8>     maxcore 5000
|  9> end
| 10>
| 11> %pal
| 12>   nprocs 6
| 13>   end
| 14> * xyz 0 1
| 15>    C        5.40283         4.02761        -4.41655
| 16>    S        6.68657         4.94281        -3.66554
| 17>    C        6.86603         3.67768        -2.54389
| 18>    C        5.96279         2.66409        -2.79846
| 19>    N        5.15496         2.90300        -3.86900
| 20>    C        5.88009         1.46488        -2.02263
| 21>    N        6.71173         1.26345        -1.01926
| 22>    C        6.40603         0.04610        -0.51821
| 23>    C        5.32052        -0.58204        -1.28034
| 24>    C        4.91724        -1.85698        -0.65794
| 25>    O        3.99825        -2.58963        -0.94292
| 26>    C        5.87242        -1.97312         0.46421
| 27>    C        6.75413        -0.78609         0.51626
| 28>    N        7.59403        -0.85991         1.57819
| 29>    C        7.29245        -1.98629         2.17512
| 30>    C        6.21655        -2.72443         1.54016
| 31>    C        4.95830         0.32871        -2.24295
| 32>    C        3.95957         0.14971        -3.23376
| 33>    C        3.63535        -1.10089        -3.79005
| 34>    C        2.49424        -1.04817        -4.64227
| 35>    N        2.02630        -2.16003        -5.23297
| 36>    C        2.67224        -3.26341        -4.97629
| 37>    C        3.85779        -3.31154        -4.18648
| 38>    C        4.60097        -4.58846        -4.00486
| 39>    N        4.33340        -2.23173        -3.61937
| 40>    C        1.94868         0.24527        -4.74924
| 41>    S        2.88897         1.36621        -3.80658
| 42>    C        0.80809         0.61650        -5.47131
| 43>    C        0.31494         1.89099        -5.51759
| 44>    C       -0.84347         2.23277        -6.23615
| 45>    N       -1.54184         1.36741        -6.97497
| 46>    C       -2.57341         2.05386        -7.48029
| 47>    C       -2.54772         3.46024        -7.04080
| 48>    C       -3.68695         4.20951        -7.58788
| 49>    O       -3.95724         5.38030        -7.41602
| 50>    C       -4.38893         3.18428        -8.37466
| 51>    C       -3.68138         1.88937        -8.28600
| 52>    N       -4.32436         0.94419        -9.00784
| 53>    C       -5.36531         1.55650        -9.52694
| 54>    C       -5.46643         2.95263        -9.17257
| 55>    C       -1.44518         3.59056        -6.24784
| 56>    C       -0.97685         4.74880        -5.56810
| 57>    S       -1.87518         6.26235        -5.67302
| 58>    C       -0.69362         6.96206        -4.65208
| 59>    C        0.26461         6.04852        -4.31667
| 60>    N        0.09329         4.82316        -4.83383
| 61>    H        4.88047         4.40576        -5.27225
| 62>    H        7.59359         3.70079        -1.75870
| 63>    H        7.82479        -2.29233         3.05904
| 64>    H        5.81631        -3.65847         1.88172
| 65>    H        2.28624        -4.16275        -5.43659
| 66>    H        5.55325        -4.39093        -3.52172
| 67>    H        4.76267        -5.08149        -4.96147
| 68>    H        4.01847        -5.25642        -3.37143
| 69>    H        0.29674        -0.16827        -6.01322
| 70>    H        0.80037         2.69302        -4.97718
| 71>    H       -6.05252         1.01708       -10.15551
| 72>    H       -6.23923         3.62464        -9.48969
| 73>    H       -0.75790         7.98906        -4.35459
| 74>    H        1.11680         6.23333        -3.68711
| 75> *
| 76>
| 77>                          ****END OF INPUT****

CARTESIAN COORDINATES (ANGSTROEM)
---------------------------------
  C      5.402830    4.027610   -4.416550
  S      6.686570    4.942810   -3.665540
  C      6.866030    3.677680   -2.543890
  C      5.962790    2.664090   -2.798460
  N      5.154960    2.903000   -3.869000
  C      5.880090    1.464880   -2.022630
  N      6.711730    1.263450   -1.019260
  C      6.406030    0.046100   -0.518210
  C      5.320520   -0.582040   -1.280340
  C      4.917240   -1.856980   -0.657940
  O      3.998250   -2.589630   -0.942920
  C      5.872420   -1.973120    0.464210
  C      6.754130   -0.786090    0.516260
  N      7.594030   -0.859910    1.578190
  C      7.292450   -1.986290    2.175120
  C      6.216550   -2.724430    1.540160
  C      4.958300    0.328710   -2.242950
  C      3.959570    0.149710   -3.233760
  C      3.635350   -1.100890   -3.790050
  C      2.494240   -1.048170   -4.642270
  N      2.026300   -2.160030   -5.232970
  C      2.672240   -3.263410   -4.976290
  C      3.857790   -3.311540   -4.186480
  C      4.600970   -4.588460   -4.004860
  N      4.333400   -2.231730   -3.619370
  C      1.948680    0.245270   -4.749240
  S      2.888970    1.366210   -3.806580
  C      0.808090    0.616500   -5.471310
  C      0.314940    1.890990   -5.517590
  C     -0.843470    2.232770   -6.236150
  N     -1.541840    1.367410   -6.974970
  C     -2.573410    2.053860   -7.480290
  C     -2.547720    3.460240   -7.040800
  C     -3.686950    4.209510   -7.587880
  O     -3.957240    5.380300   -7.416020
  C     -4.388930    3.184280   -8.374660
  C     -3.681380    1.889370   -8.286000
  N     -4.324360    0.944190   -9.007840
  C     -5.365310    1.556500   -9.526940
  C     -5.466430    2.952630   -9.172570
  C     -1.445180    3.590560   -6.247840
  C     -0.976850    4.748800   -5.568100
  S     -1.875180    6.262350   -5.673020
  C     -0.693620    6.962060   -4.652080
  C      0.264610    6.048520   -4.316670
  N      0.093290    4.823160   -4.833830
  H      4.880470    4.405760   -5.272250
  H      7.593590    3.700790   -1.758700
  H      7.824790   -2.292330    3.059040
  H      5.816310   -3.658470    1.881720
  H      2.286240   -4.162750   -5.436590
  H      5.553250   -4.390930   -3.521720
  H      4.762670   -5.081490   -4.961470
  H      4.018470   -5.256420   -3.371430
  H      0.296740   -0.168270   -6.013220
  H      0.800370    2.693020   -4.977180
  H     -6.052520    1.017080  -10.155510
  H     -6.239230    3.624640   -9.489690
  H     -0.757900    7.989060   -4.354590
  H      1.116800    6.233330   -3.687110

 Total Charge           Charge          ....    0
 Multiplicity           Mult            ....    1
 Number of Electrons    NEL             ....  332
 Basis Dimension        Dim             ....  726

ORBITAL ENERGIES
----------------

  NO   OCC          E(Eh)            E(eV)
   0   2.0000     -88.992746     -2421.6157
   1   2.0000     -88.981219     -2421.3021
   2   2.0000     -88.957447     -2420.6552
   3   2.0000     -19.207729      -522.6689
   4   2.0000     -19.200467      -522.4713
   5   2.0000     -14.436899      -392.8480
   6   2.0000     -14.424812      -392.5191
   7   2.0000     -14.417299      -392.3147
   8   2.0000     -14.415913      -392.2769
   9   2.0000     -14.409084      -392.0911
  10   2.0000     -14.407579      -392.0502
  11   2.0000     -14.392565      -391.6416
  12   2.0000     -14.388527      -391.5317
  13   2.0000     -10.369049      -282.1562
  14   2.0000     -10.360476      -281.9229
  15   2.0000     -10.353731      -281.7393
  16   2.0000     -10.352888      -281.7164
  17   2.0000     -10.335630      -281.2468
  18   2.0000     -10.335516      -281.2437
  19   2.0000     -10.331332      -281.1298
  20   2.0000     -10.330611      -281.1102
  21   2.0000     -10.329518      -281.0805
  22   2.0000     -10.327755      -281.0325
  23   2.0000     -10.326752      -281.0052
  24   2.0000     -10.321977      -280.8753
  25   2.0000     -10.321866      -280.8723
  26   2.0000     -10.320044      -280.8227
  27   2.0000     -10.317445      -280.7520
  28   2.0000     -10.315835      -280.7082
  29   2.0000     -10.314414      -280.6695
  30   2.0000     -10.314356      -280.6679
  31   2.0000     -10.310719      -280.5689
  32   2.0000     -10.305427      -280.4249
  33   2.0000     -10.304655      -280.4039
  34   2.0000     -10.299364      -280.2599
  35   2.0000     -10.299036      -280.2510
  36   2.0000     -10.297656      -280.2135
  37   2.0000     -10.295250      -280.1480
  38   2.0000     -10.293918      -280.1118
  39   2.0000     -10.291137      -280.0361
  40   2.0000     -10.289741      -279.9981
  41   2.0000     -10.283325      -279.8235
  42   2.0000     -10.272718      -279.5349
  43   2.0000     -10.272161      -279.5197
  44   2.0000     -10.271104      -279.4909
  45   2.0000     -10.266094      -279.3546
  46   2.0000      -8.089475      -220.1258
  47   2.0000      -8.074715      -219.7242
  48   2.0000      -8.052959      -219.1322
  49   2.0000      -6.058296      -164.8546
  50   2.0000      -6.054036      -164.7387
  51   2.0000      -6.052388      -164.6938
  52   2.0000      -6.043558      -164.4536
  53   2.0000      -6.039335      -164.3387
  54   2.0000      -6.037982      -164.3018
  55   2.0000      -6.022028      -163.8677
  56   2.0000      -6.017619      -163.7477
  57   2.0000      -6.015545      -163.6913
  58   2.0000      -1.122823       -30.5536
  59   2.0000      -1.115151       -30.3448
  60   2.0000      -1.096518       -29.8378
  61   2.0000      -1.081343       -29.4248
  62   2.0000      -1.079533       -29.3756
  63   2.0000      -1.066864       -29.0308
  64   2.0000      -1.061931       -28.8966
  65   2.0000      -1.058265       -28.7969
  66   2.0000      -1.041547       -28.3419
  67   2.0000      -1.004122       -27.3236
  68   2.0000      -0.989092       -26.9146
  69   2.0000      -0.939555       -25.5666
  70   2.0000      -0.926660       -25.2157
  71   2.0000      -0.923503       -25.1298
  72   2.0000      -0.908499       -24.7215
  73   2.0000      -0.892231       -24.2789
  74   2.0000      -0.888967       -24.1900
  75   2.0000      -0.883975       -24.0542
  76   2.0000      -0.875662       -23.8280
  77   2.0000      -0.868978       -23.6461
  78   2.0000      -0.855024       -23.2664
  79   2.0000      -0.843287       -22.9470
  80   2.0000      -0.823556       -22.4101
  81   2.0000      -0.811605       -22.0849
  82   2.0000      -0.799397       -21.7527
  83   2.0000      -0.777245       -21.1499
  84   2.0000      -0.768880       -20.9223
  85   2.0000      -0.757337       -20.6082
  86   2.0000      -0.745099       -20.2752
  87   2.0000      -0.736464       -20.0402
  88   2.0000      -0.722868       -19.6702
  89   2.0000      -0.716171       -19.4880
  90   2.0000      -0.706991       -19.2382
  91   2.0000      -0.696704       -18.9583
  92   2.0000      -0.689880       -18.7726
  93   2.0000      -0.676251       -18.4017
  94   2.0000      -0.661699       -18.0057
  95   2.0000      -0.657430       -17.8896
  96   2.0000      -0.639424       -17.3996
  97   2.0000      -0.638206       -17.3665
  98   2.0000      -0.634652       -17.2698
  99   2.0000      -0.631743       -17.1906
 100   2.0000      -0.626481       -17.0474
 101   2.0000      -0.611411       -16.6373
 102   2.0000      -0.606578       -16.5058
 103   2.0000      -0.597181       -16.2501
 104   2.0000      -0.592048       -16.1105
 105   2.0000      -0.585424       -15.9302
 106   2.0000      -0.566979       -15.4283
 107   2.0000      -0.562469       -15.3056
 108   2.0000      -0.558857       -15.2073
 109   2.0000      -0.556861       -15.1529
 110   2.0000      -0.551560       -15.0087
 111   2.0000      -0.543811       -14.7979
 112   2.0000      -0.540896       -14.7185
 113   2.0000      -0.538773       -14.6607
 114   2.0000      -0.536479       -14.5983
 115   2.0000      -0.530823       -14.4444
 116   2.0000      -0.520767       -14.1708
 117   2.0000      -0.520215       -14.1558
 118   2.0000      -0.518313       -14.1040
 119   2.0000      -0.515138       -14.0176
 120   2.0000      -0.512709       -13.9515
 121   2.0000      -0.507481       -13.8092
 122   2.0000      -0.503584       -13.7032
 123   2.0000      -0.503088       -13.6897
 124   2.0000      -0.499867       -13.6021
 125   2.0000      -0.496451       -13.5091
 126   2.0000      -0.485171       -13.2022
 127   2.0000      -0.481367       -13.0986
 128   2.0000      -0.478296       -13.0151
 129   2.0000      -0.475979       -12.9520
 130   2.0000      -0.473965       -12.8972
 131   2.0000      -0.473121       -12.8743
 132   2.0000      -0.472639       -12.8612
 133   2.0000      -0.469116       -12.7653
 134   2.0000      -0.461834       -12.5672
 135   2.0000      -0.461515       -12.5585
 136   2.0000      -0.460767       -12.5381
 137   2.0000      -0.459515       -12.5040
 138   2.0000      -0.447459       -12.1760
 139   2.0000      -0.445066       -12.1108
 140   2.0000      -0.432268       -11.7626
 141   2.0000      -0.428820       -11.6688
 142   2.0000      -0.427384       -11.6297
 143   2.0000      -0.389391       -10.5959
 144   2.0000      -0.387022       -10.5314
 145   2.0000      -0.385286       -10.4842
 146   2.0000      -0.372775       -10.1437
 147   2.0000      -0.369931       -10.0663
 148   2.0000      -0.368629       -10.0309
 149   2.0000      -0.364644        -9.9225
 150   2.0000      -0.355470        -9.6728
 151   2.0000      -0.351139        -9.5550
 152   2.0000      -0.350376        -9.5342
 153   2.0000      -0.348436        -9.4814
 154   2.0000      -0.343121        -9.3368
 155   2.0000      -0.336898        -9.1674
 156   2.0000      -0.335370        -9.1259
 157   2.0000      -0.328466        -8.9380
 158   2.0000      -0.318948        -8.6790
 159   2.0000      -0.318040        -8.6543
 160   2.0000      -0.316663        -8.6168
 161   2.0000      -0.315867        -8.5952
 162   2.0000      -0.311336        -8.4719
 163   2.0000      -0.305163        -8.3039
 164   2.0000      -0.282985        -7.7004
 165   2.0000      -0.248933        -6.7738
 166   0.0000      -0.119552        -3.2532
 167   0.0000      -0.103648        -2.8204
 168   0.0000      -0.064041        -1.7426
 169   0.0000      -0.038068        -1.0359
 170   0.0000      -0.032970        -0.8972

MULLIKEN ATOMIC CHARGES
-----------------------
   0 C :    0.012924
   1 S :    0.135281
   2 C :   -0.063113
   3 C :   -0.045034
   4 N :   -0.077010
   5 C :    0.061082
   6 N :   -0.042544
   7 C :    0.065596
   8 C :   -0.152335
   9 C :    0.208454
  10 O :   -0.125576
  11 C :   -0.032340
  12 C :   -0.021171
  13 N :   -0.054242
  14 C :    0.092172
  15 C :   -0.094624
  16 C :    0.057797
  17 C :   -0.208751
  18 C :    0.075175
  19 C :    0.028842
  20 N :    0.012340
  21 C :    0.028073
  22 C :   -0.140080
  23 C :    0.110147
  24 N :    0.018025
  25 C :   -0.143489
  26 S :    0.250893
  27 C :    0.051487
  28 C :   -0.058113
  29 C :    0.010468
  30 N :   -0.039237
  31 C :    0.078029
  32 C :   -0.187940
  33 C :    0.209827
  34 O :   -0.146604
  35 C :   -0.025576
  36 C :   -0.058661
  37 N :   -0.054886
  38 C :    0.081560
  39 C :   -0.098583
  40 C :    0.161988
  41 C :   -0.239570
  42 S :    0.177787
  43 C :   -0.063280
  44 C :    0.063060
  45 N :   -0.064130
  46 H :    0.053091
  47 H :    0.049163
  48 H :    0.009763
  49 H :   -0.005567
  50 H :    0.003259
  51 H :    0.027752
  52 H :    0.025812
  53 H :    0.042461
  54 H :    0.033413
  55 H :   -0.002247
  56 H :    0.000752
  57 H :   -0.013928
  58 H :    0.029131
  59 H :   -0.006973
Sum of atomic charges:    0.0000000

LOEWDIN ATOMIC CHARGES
----------------------
   0 C :   -0.114109
   1 S :    0.459365
   2 C :   -0.140020
   3 C :   -0.075013
   4 N :   -0.091894
   5 C :    0.068720
   6 N :   -0.103355
   7 C :    0.044840
   8 C :   -0.027851
   9 C :    0.066139
  10 O :   -0.132208
  11 C :   -0.036463
  12 C :    0.026080
  13 N :   -0.098340
  14 C :    0.077399
  15 C :   -0.037400
  16 C :   -0.042374
  17 C :   -0.174733
  18 C :   -0.035585
  19 C :   -0.037652
  20 N :   -0.033573
  21 C :    0.017875
  22 C :    0.003375
  23 C :   -0.050894
  24 N :   -0.034229
  25 C :   -0.189174
  26 S :    0.563536
  27 C :    0.055023
  28 C :   -0.064863
  29 C :    0.078294
  30 N :   -0.115471
  31 C :    0.047110
  32 C :   -0.041701
  33 C :    0.059063
  34 O :   -0.155411
  35 C :   -0.048506
  36 C :    0.007239
  37 N :   -0.099185
  38 C :    0.059255
  39 C :   -0.045848
  40 C :   -0.053238
  41 C :   -0.136347
  42 S :    0.478194
  43 C :   -0.201822
  44 C :   -0.043744
  45 N :   -0.095681
  46 H :    0.025007
  47 H :    0.041707
  48 H :    0.023844
  49 H :    0.034083
  50 H :    0.026161
  51 H :    0.039109
  52 H :    0.035954
  53 H :    0.046132
  54 H :    0.052709
  55 H :    0.021458
  56 H :    0.019898
  57 H :    0.030992
  58 H :    0.027122
  59 H :    0.021002

  Mayer bond orders larger than 0.100000
B(  0-C ,  1-S ) :   1.1484 B(  0-C ,  4-N ) :   1.7176 B(  0-C , 46-H ) :   0.9644
B(  1-S ,  2-C ) :   1.2086 B(  2-C ,  3-C ) :   1.5211 B(  2-C , 47-H ) :   0.9544
B(  3-C ,  4-N ) :   1.3736 B(  3-C ,  5-C ) :   1.0483 B(  5-C ,  6-N ) :   1.6831
B(  5-C ,  7-C ) :   0.1140 B(  5-C , 16-C ) :   1.0427 B(  6-N ,  7-C ) :   1.3192
B(  7-C ,  8-C ) :   1.0565 B(  7-C , 12-C ) :   1.4325 B(  8-C ,  9-C ) :   0.8849
B(  8-C , 16-C ) :   1.5920 B(  9-C , 10-O ) :   2.2746 B(  9-C , 11-C ) :   0.9036
B( 11-C , 12-C ) :   1.0542 B( 11-C , 15-C ) :   1.6201 B( 12-C , 13-N ) :   1.3097
B( 13-N , 14-C ) :   1.6606 B( 14-C , 15-C ) :   1.0669 B( 14-C , 48-H ) :   0.9892
B( 15-C , 49-H ) :   1.0097 B( 16-C , 17-C ) :   1.0636 B( 17-C , 18-C ) :   1.3327
B( 17-C , 25-C ) :   0.1405 B( 17-C , 26-S ) :   1.2241 B( 18-C , 19-C ) :   1.2290
B( 18-C , 24-N ) :   1.4192 B( 19-C , 20-N ) :   1.4384 B( 19-C , 25-C ) :   1.2676
B( 20-N , 21-C ) :   1.7101 B( 21-C , 22-C ) :   1.1608 B( 21-C , 50-H ) :   0.9795
B( 22-C , 23-C ) :   1.0535 B( 22-C , 24-N ) :   1.6865 B( 23-C , 51-H ) :   0.9512
B( 23-C , 52-H ) :   0.9549 B( 23-C , 53-H ) :   0.9471 B( 25-C , 26-S ) :   1.1485
B( 25-C , 27-C ) :   1.2091 B( 27-C , 28-C ) :   1.4616 B( 27-C , 54-H ) :   0.9989
B( 28-C , 29-C ) :   1.2377 B( 28-C , 55-H ) :   0.9322 B( 29-C , 30-N ) :   1.5347
B( 29-C , 31-C ) :   0.1105 B( 29-C , 40-C ) :   0.9955 B( 30-N , 31-C ) :   1.4121
B( 31-C , 32-C ) :   1.0440 B( 31-C , 36-C ) :   1.3664 B( 32-C , 33-C ) :   0.8821
B( 32-C , 40-C ) :   1.5919 B( 33-C , 34-O ) :   2.2400 B( 33-C , 35-C ) :   0.9244
B( 35-C , 36-C ) :   1.0904 B( 35-C , 39-C ) :   1.5705 B( 36-C , 37-N ) :   1.3401
B( 37-N , 38-C ) :   1.6264 B( 38-C , 39-C ) :   1.1024 B( 38-C , 56-H ) :   0.9898
B( 39-C , 57-H ) :   1.0094 B( 40-C , 41-C ) :   1.0600 B( 41-C , 42-S ) :   1.1631
B( 41-C , 45-N ) :   1.7050 B( 42-S , 43-C ) :   1.1727 B( 43-C , 44-C ) :   1.5382
B( 43-C , 58-H ) :   0.9698 B( 44-C , 45-N ) :   1.3608 B( 44-C , 59-H ) :   0.9924
B( 45-N , 55-H ) :   0.1020

-----------------------------------------------------------------------------
         ABSORPTION SPECTRUM VIA TRANSITION ELECTRIC DIPOLE MOMENTS
-----------------------------------------------------------------------------
State   Energy  Wavelength   fosc         T2         TX        TY        TZ
        (cm-1)    (nm)                  (au**2)     (au)      (au)      (au)
-----------------------------------------------------------------------------
   0   13395.2    746.5   0.541019017  13.29659   2.65719  -1.03794   2.27126
   1   16538.8    604.6   0.797944837  15.88345   3.23211  -1.23175   1.97983
   2   19568.3    511.0   0.143685709   2.41733   1.22956   0.04229   0.95064
   3   21075.8    474.5   0.002107379   0.03292  -0.09057   0.00767  -0.15702
   4   22093.3    452.6   0.000364564   0.00543  -0.06941   0.00753   0.02361
   5   23718.4    421.6   0.018231345   0.25305  -0.27200   0.20804  -0.36849
   6   24023.0    416.3   0.033497281   0.45905  -0.27300   0.40153  -0.47254
   7   24480.4    408.5   0.102768815   1.38204   0.04556  -0.82743   0.83385
   8   25054.0    399.1   0.019465838   0.25578   0.12591  -0.33800   0.35452
   9   25422.2    393.4   0.001982256   0.02567  -0.05593   0.14826  -0.02370
  10   25490.9    392.3   0.004659816   0.06018   0.12222  -0.03516  -0.20978
  11   25890.4    386.2   0.245196974   3.11783   0.28356  -1.25839   1.20577
  12   26170.2    382.1   0.025294986   0.31820   0.00965   0.53864   0.16727
  13   26297.4    380.3   0.042937098   0.53752  -0.18532   0.47543  -0.52644
  14   27402.3    364.9   0.033015555   0.39665   0.35593   0.50715  -0.11300
  15   27664.6    361.5   0.002089807   0.02487   0.01552   0.03251  -0.15353
  16   27838.1    359.2   0.036945918   0.43692  -0.21048   0.37500  -0.50199
  17   28172.1    355.0   0.007396573   0.08643   0.00932  -0.17176   0.23842
  18   28650.4    349.0   0.029661978   0.34084  -0.13493   0.56421   0.06551
  19   29245.3    341.9   0.130026272   1.46370  -0.58706   1.05542   0.07176
  20   29474.3    339.3   0.002947606   0.03292   0.14837  -0.01889  -0.10273
  21   29827.9    335.3   0.042374691   0.46769   0.21744   0.37196   0.53109
  22   30356.6    329.4   0.056593419   0.61375  -0.06236  -0.06986   0.77780
  23   30837.1    324.3   0.314183445   3.35417  -0.10652  -1.62695   0.83418
  24   30973.6    322.9   0.002723709   0.02895  -0.05136   0.15356  -0.05226
  25   32278.5    309.8   0.001401127   0.01429   0.04414  -0.07036   0.08597
  26   32367.2    309.0   0.376114570   3.82552  -1.18161  -0.92850  -1.25188
  27   33487.5    298.6   0.017204376   0.16913   0.37256   0.02646   0.17213
  28   33754.3    296.3   0.163812372   1.59769   0.28737  -0.97879   0.74637
  29   33868.8    295.3   0.080358791   0.78110   0.04444  -0.67504   0.56873
  30   34184.9    292.5   0.187840904   1.80897  -1.10037   0.20016  -0.74706
  31   34831.8    287.1   0.066765956   0.63104  -0.75884  -0.18063  -0.15025
  32   35076.4    285.1   0.002026953   0.01902   0.08179   0.02426  -0.10838
  33   35356.5    282.8   0.082174746   0.76515   0.17713   0.54917   0.65740
  34   35469.3    281.9   0.013982914   0.12978  -0.09611   0.17644   0.29902
  35   36077.3    277.2   0.012062712   0.11007  -0.18579  -0.17886  -0.20872
  36   36542.4    273.7   0.064310662   0.57938   0.21672   0.56790   0.45814
  37   36901.6    271.0   0.041798830   0.37290   0.11469  -0.59666   0.06122
  38   36938.2    270.7   0.018364160   0.16367   0.13670   0.13898   0.35450
  39   37611.3    265.9   0.151717679   1.32799  -0.35382   1.08702  -0.14554
  40   37792.3    264.6   0.003537155   0.03081  -0.09057   0.13722  -0.06149
  41   38117.6    262.3   0.020208143   0.17453  -0.08385   0.34034   0.22731
  42   38635.9    258.8   0.041312826   0.35202   0.16223   0.55428  -0.13594
  43   38793.2    257.8   0.042875123   0.36385   0.37873   0.46873   0.02662
  44   38967.8    256.6   0.106893316   0.90307   0.44254   0.15266   0.82699
  45   39227.7    254.9   0.040084333   0.33640   0.19550   0.46904  -0.27960
  46   39320.9    254.3   0.005855532   0.04903  -0.01800  -0.19261   0.10772
  47   39724.9    251.7   0.045229881   0.37483   0.01295  -0.57358   0.21371
  48   39908.5    250.6   0.007990818   0.06592  -0.14264  -0.21311   0.01245
  49   39975.3    250.2   0.001408614   0.01160  -0.10550   0.01392  -0.01663
  50   40231.8    248.6   0.007687569   0.06291  -0.13696   0.04310  -0.20564
  51   40309.1    248.1   0.030921468   0.25254   0.35885  -0.08232   0.34204

FINAL SINGLE POINT ENERGY     -3046.136232629897

DIPOLE MOMENT
-------------
                                X             Y             Z
Electronic contribution:     -0.64599      15.72342       0.35598
Nuclear contribution   :      2.83495     -15.17802       0.43944
                        -----------------------------------------
Total Dipole Moment    :      2.18896       0.54540       0.79542
                        -----------------------------------------
Magnitude (a.u.)       :      2.39201
Magnitude (Debye)      :      6.07999

Rotational constants in cm-1:     0.003481     0.000998     0.000833
Rotational constants in MHz :   104.359320    29.922037    24.983321

                             ****ORCA TERMINATED NORMALLY****
TOTAL RUN TIME: 0 days 0 hours 4 minutes 35 seconds 279 msec
