                         Program Version 4.2.0 -  RELEASE  -
|  1> # ORCA input file
|  2> # SCF done       -178.791872216670          0.000969259419
|  3> ! CAM-B3LYP def2-SVP def2/J RIJCOSX Grid4 TightSCF
|  4> %maxcore 5000
|  5> %tddft
|  6>     Mode sTDDFT
|  7>     Ethresh 5.0
|  8>     maxcore 5000
|  9> end
| 10>
| 11> %pal
| 12>   nprocs 6
| 13>   end
| 14> * xyz 0 1
| 15>    C        3.14694         1.64697        -5.33488
| 16>    C        2.49541         2.46159        -6.20858
| 17>    S        1.81366         3.82504        -5.40032
| 18>    C        2.41515         3.28754        -3.84846
| 19>   Cl        2.12610         4.17347        -2.43486
| 20>    C        3.10118         2.11842        -3.98494
| 21>    C        3.81831         1.19127        -3.10288
| 22>    O        3.95806         1.29383        -1.90556
| 23>    C        4.34797         0.13206        -4.01164
| 24>    C        3.88840         0.40259        -5.36993
| 25>    C        4.05371        -0.35752        -6.49795
| 26>    C        3.52895         0.05831        -7.74069
| 27>    N        3.11552         0.37802        -8.76205
| 28>    C        4.70447        -1.60409        -6.59050
| 29>    N        5.20565        -2.62569        -6.74693
| 30>    C        5.20257        -0.89004        -3.70928
| 31>    C        5.73597        -1.34025        -2.48012
| 32>    S        6.95141        -2.60270        -2.57520
| 33>    C        7.10336        -2.67236        -0.85647
| 34>    C        6.25150        -1.74037        -0.24319
| 35>    C        5.48144        -1.01672        -1.15979
| 36>    C        6.25283        -1.42212         1.18534
| 37>    O        5.31986        -0.98159         1.80350
| 38>    C        7.97502        -3.61983        -0.26708
| 39>    C        7.86225        -4.08654         1.00611
| 40>    C        8.80780        -4.97588         1.57186
| 41>    N        8.72329        -5.47490         2.85122
| 42>    C        7.63932        -5.28020         3.78377
| 43>    C        6.43531        -6.15498         3.44453
| 44>    C        9.82696        -6.28934         3.17516
| 45>    O        9.97310        -6.83633         4.24754
| 46>    C       10.63830        -6.26812         1.97862
| 47>    C        9.98943        -5.46666         1.01397
| 48>    C       10.81668        -5.46399        -0.17099
| 49>    O       10.67449        -4.94024        -1.25861
| 50>    N       11.92581        -6.26602         0.16249
| 51>    C       12.97798        -6.45596        -0.80716
| 52>    C       14.14573        -5.49929        -0.57605
| 53>    C       11.84029        -6.74090         1.45260
| 54>    C       12.73416        -7.53618         2.21083
| 55>    C       13.96240        -8.01859         1.89191
| 56>    C       14.76861        -8.76629         2.79162
| 57>    S       16.35492        -9.28445         2.28088
| 58>    C       16.67634       -10.01970         3.81265
| 59>    C       15.58413        -9.86356         4.67917
| 60>    C       14.52299        -9.16033         4.09116
| 61>    C       15.54792       -10.32468         6.06075
| 62>    O       16.43776       -10.88242         6.65797
| 63>    C       17.91057       -10.62228         4.13718
| 64>    C       19.00609       -10.65846         3.33667
| 65>    C       20.24360       -11.23439         3.72113
| 66>    C       20.76000       -11.43587         4.96547
| 67>    C       21.89061       -12.41262         5.09929
| 68>    O       22.53214       -12.88937         4.19416
| 69>    C       21.98497       -12.67173         6.53878
| 70>    C       22.68956       -13.49315         7.36717
| 71>    S       22.22422       -13.22927         9.03138
| 72>    C       21.09534       -12.00044         8.58792
| 73>    C       21.07433       -11.81601         7.24143
| 74>    C       20.40087       -10.95122         6.28839
| 75>    C       19.76021        -9.79300         6.64125
| 76>    C       19.59006        -9.42713         7.99355
| 77>    N       19.44645        -9.10620         9.08530
| 78>    C       19.26789        -8.82450         5.74846
| 79>    N       18.86763        -7.98822         5.07094
| 80>   Cl       23.86356       -14.64130         6.95148
| 81>    H        2.36943         2.36327        -7.26836
| 82>    H        5.55853        -1.46945        -4.55374
| 83>    H        4.78219        -0.25704        -0.85913
| 84>    H        7.23713        -1.58650         1.67088
| 85>    H        8.76060        -4.01098        -0.90217
| 86>    H        7.02072        -3.79218         1.61628
| 87>    H        7.35757        -4.22390         3.80798
| 88>    H        8.03250        -5.56157         4.76468
| 89>    H        6.05080        -5.92451         2.45325
| 90>    H        5.64588        -5.99042         4.17222
| 91>    H        6.71937        -7.20406         3.47056
| 92>    H       12.52760        -6.24139        -1.78131
| 93>    H       13.29985        -7.49973        -0.79674
| 94>    H       13.80916        -4.47357        -0.70438
| 95>    H       14.93352        -5.69800        -1.29750
| 96>    H       14.55134        -5.60404         0.42772
| 97>    H       12.34218        -7.74368         3.19793
| 98>    H       14.40806        -7.83654         0.92708
| 99>    H       13.60837        -8.93998         4.61131
|100>    H       14.58501       -10.10624         6.55811
|101>    H       17.94436       -11.08296         5.11543
|102>    H       18.93351       -10.28331         2.32327
|103>    H       20.86276       -11.62262         2.91703
|104>    H       20.51967       -11.51469         9.35037
|105> *
|106>
|107>                          ****END OF INPUT****

CARTESIAN COORDINATES (ANGSTROEM)
---------------------------------
  C      3.146940    1.646970   -5.334880
  C      2.495410    2.461590   -6.208580
  S      1.813660    3.825040   -5.400320
  C      2.415150    3.287540   -3.848460
  Cl     2.126100    4.173470   -2.434860
  C      3.101180    2.118420   -3.984940
  C      3.818310    1.191270   -3.102880
  O      3.958060    1.293830   -1.905560
  C      4.347970    0.132060   -4.011640
  C      3.888400    0.402590   -5.369930
  C      4.053710   -0.357520   -6.497950
  C      3.528950    0.058310   -7.740690
  N      3.115520    0.378020   -8.762050
  C      4.704470   -1.604090   -6.590500
  N      5.205650   -2.625690   -6.746930
  C      5.202570   -0.890040   -3.709280
  C      5.735970   -1.340250   -2.480120
  S      6.951410   -2.602700   -2.575200
  C      7.103360   -2.672360   -0.856470
  C      6.251500   -1.740370   -0.243190
  C      5.481440   -1.016720   -1.159790
  C      6.252830   -1.422120    1.185340
  O      5.319860   -0.981590    1.803500
  C      7.975020   -3.619830   -0.267080
  C      7.862250   -4.086540    1.006110
  C      8.807800   -4.975880    1.571860
  N      8.723290   -5.474900    2.851220
  C      7.639320   -5.280200    3.783770
  C      6.435310   -6.154980    3.444530
  C      9.826960   -6.289340    3.175160
  O      9.973100   -6.836330    4.247540
  C     10.638300   -6.268120    1.978620
  C      9.989430   -5.466660    1.013970
  C     10.816680   -5.463990   -0.170990
  O     10.674490   -4.940240   -1.258610
  N     11.925810   -6.266020    0.162490
  C     12.977980   -6.455960   -0.807160
  C     14.145730   -5.499290   -0.576050
  C     11.840290   -6.740900    1.452600
  C     12.734160   -7.536180    2.210830
  C     13.962400   -8.018590    1.891910
  C     14.768610   -8.766290    2.791620
  S     16.354920   -9.284450    2.280880
  C     16.676340  -10.019700    3.812650
  C     15.584130   -9.863560    4.679170
  C     14.522990   -9.160330    4.091160
  C     15.547920  -10.324680    6.060750
  O     16.437760  -10.882420    6.657970
  C     17.910570  -10.622280    4.137180
  C     19.006090  -10.658460    3.336670
  C     20.243600  -11.234390    3.721130
  C     20.760000  -11.435870    4.965470
  C     21.890610  -12.412620    5.099290
  O     22.532140  -12.889370    4.194160
  C     21.984970  -12.671730    6.538780
  C     22.689560  -13.493150    7.367170
  S     22.224220  -13.229270    9.031380
  C     21.095340  -12.000440    8.587920
  C     21.074330  -11.816010    7.241430
  C     20.400870  -10.951220    6.288390
  C     19.760210   -9.793000    6.641250
  C     19.590060   -9.427130    7.993550
  N     19.446450   -9.106200    9.085300
  C     19.267890   -8.824500    5.748460
  N     18.867630   -7.988220    5.070940
  Cl    23.863560  -14.641300    6.951480
  H      2.369430    2.363270   -7.268360
  H      5.558530   -1.469450   -4.553740
  H      4.782190   -0.257040   -0.859130
  H      7.237130   -1.586500    1.670880
  H      8.760600   -4.010980   -0.902170
  H      7.020720   -3.792180    1.616280
  H      7.357570   -4.223900    3.807980
  H      8.032500   -5.561570    4.764680
  H      6.050800   -5.924510    2.453250
  H      5.645880   -5.990420    4.172220
  H      6.719370   -7.204060    3.470560
  H     12.527600   -6.241390   -1.781310
  H     13.299850   -7.499730   -0.796740
  H     13.809160   -4.473570   -0.704380
  H     14.933520   -5.698000   -1.297500
  H     14.551340   -5.604040    0.427720
  H     12.342180   -7.743680    3.197930
  H     14.408060   -7.836540    0.927080
  H     13.608370   -8.939980    4.611310
  H     14.585010  -10.106240    6.558110
  H     17.944360  -11.082960    5.115430
  H     18.933510  -10.283310    2.323270
  H     20.862760  -11.622620    2.917030
  H     20.519670  -11.514690    9.350370

 Total Charge           Charge          ....    0
 Multiplicity           Mult            ....    1
 Number of Electrons    NEL             ....  500
 Basis Dimension        Dim             .... 1068

ORBITAL ENERGIES
----------------

  NO   OCC          E(Eh)            E(eV)
   0   2.0000    -101.617788     -2765.1606
   1   2.0000    -101.614854     -2765.0808
   2   2.0000     -88.994206     -2421.6555
   3   2.0000     -88.989962     -2421.5400
   4   2.0000     -88.984310     -2421.3862
   5   2.0000     -88.983765     -2421.3714
   6   2.0000     -19.228472      -523.2333
   7   2.0000     -19.225412      -523.1500
   8   2.0000     -19.221982      -523.0567
   9   2.0000     -19.216587      -522.9099
  10   2.0000     -19.204803      -522.5892
  11   2.0000     -19.199315      -522.4399
  12   2.0000     -14.465505      -393.6264
  13   2.0000     -14.463581      -393.5740
  14   2.0000     -14.423421      -392.4812
  15   2.0000     -14.420199      -392.3936
  16   2.0000     -14.419794      -392.3825
  17   2.0000     -14.415894      -392.2764
  18   2.0000     -10.386583      -282.6333
  19   2.0000     -10.383352      -282.5454
  20   2.0000     -10.382257      -282.5156
  21   2.0000     -10.376907      -282.3700
  22   2.0000     -10.373495      -282.2771
  23   2.0000     -10.373112      -282.2667
  24   2.0000     -10.372863      -282.2599
  25   2.0000     -10.367862      -282.1239
  26   2.0000     -10.353057      -281.7210
  27   2.0000     -10.350873      -281.6616
  28   2.0000     -10.350145      -281.6418
  29   2.0000     -10.348622      -281.6003
  30   2.0000     -10.346953      -281.5549
  31   2.0000     -10.344904      -281.4991
  32   2.0000     -10.340969      -281.3921
  33   2.0000     -10.333849      -281.1983
  34   2.0000     -10.333300      -281.1834
  35   2.0000     -10.330412      -281.1048
  36   2.0000     -10.330066      -281.0954
  37   2.0000     -10.329124      -281.0698
  38   2.0000     -10.325754      -280.9780
  39   2.0000     -10.325288      -280.9654
  40   2.0000     -10.322608      -280.8925
  41   2.0000     -10.321006      -280.8489
  42   2.0000     -10.318129      -280.7706
  43   2.0000     -10.318005      -280.7672
  44   2.0000     -10.317838      -280.7626
  45   2.0000     -10.316449      -280.7248
  46   2.0000     -10.315326      -280.6943
  47   2.0000     -10.313694      -280.6499
  48   2.0000     -10.313298      -280.6391
  49   2.0000     -10.312732      -280.6237
  50   2.0000     -10.312212      -280.6096
  51   2.0000     -10.309419      -280.5336
  52   2.0000     -10.308321      -280.5037
  53   2.0000     -10.305711      -280.4327
  54   2.0000     -10.304179      -280.3910
  55   2.0000     -10.303570      -280.3744
  56   2.0000     -10.302663      -280.3497
  57   2.0000     -10.300748      -280.2976
  58   2.0000     -10.300629      -280.2944
  59   2.0000     -10.300529      -280.2916
  60   2.0000     -10.299884      -280.2741
  61   2.0000     -10.297048      -280.1969
  62   2.0000     -10.274082      -279.5720
  63   2.0000     -10.272751      -279.5358
  64   2.0000     -10.271954      -279.5141
  65   2.0000     -10.270634      -279.4782
  66   2.0000      -9.572566      -260.4828
  67   2.0000      -9.569608      -260.4023
  68   2.0000      -8.089900      -220.1374
  69   2.0000      -8.085668      -220.0222
  70   2.0000      -8.079910      -219.8655
  71   2.0000      -8.079445      -219.8529
  72   2.0000      -7.343212      -199.8190
  73   2.0000      -7.340245      -199.7382
  74   2.0000      -7.332589      -199.5299
  75   2.0000      -7.332062      -199.5155
  76   2.0000      -7.329653      -199.4500
  77   2.0000      -7.329112      -199.4353
  78   2.0000      -6.059289      -164.8816
  79   2.0000      -6.055073      -164.7669
  80   2.0000      -6.054667      -164.7559
  81   2.0000      -6.052161      -164.6877
  82   2.0000      -6.050445      -164.6410
  83   2.0000      -6.048914      -164.5993
  84   2.0000      -6.048480      -164.5875
  85   2.0000      -6.047902      -164.5718
  86   2.0000      -6.044916      -164.4905
  87   2.0000      -6.044400      -164.4765
  88   2.0000      -6.042438      -164.4231
  89   2.0000      -6.041903      -164.4085
  90   2.0000      -1.145045       -31.1582
  91   2.0000      -1.142689       -31.0942
  92   2.0000      -1.140788       -31.0424
  93   2.0000      -1.137241       -30.9459
  94   2.0000      -1.135710       -30.9042
  95   2.0000      -1.133674       -30.8488
  96   2.0000      -1.074379       -29.2353
  97   2.0000      -1.065735       -29.0001
  98   2.0000      -1.039444       -28.2847
  99   2.0000      -1.035018       -28.1643
 100   2.0000      -1.019718       -27.7479
 101   2.0000      -1.016056       -27.6483
 102   2.0000      -1.013668       -27.5833
 103   2.0000      -1.012339       -27.5471
 104   2.0000      -1.000449       -27.2236
 105   2.0000      -0.996188       -27.1077
 106   2.0000      -0.989425       -26.9236
 107   2.0000      -0.985368       -26.8132
 108   2.0000      -0.956603       -26.0305
 109   2.0000      -0.953329       -25.9414
 110   2.0000      -0.941329       -25.6149
 111   2.0000      -0.935821       -25.4650
 112   2.0000      -0.932032       -25.3619
 113   2.0000      -0.917625       -24.9698
 114   2.0000      -0.909960       -24.7613
 115   2.0000      -0.902633       -24.5619
 116   2.0000      -0.897825       -24.4311
 117   2.0000      -0.884168       -24.0594
 118   2.0000      -0.874610       -23.7994
 119   2.0000      -0.871644       -23.7186
 120   2.0000      -0.868167       -23.6240
 121   2.0000      -0.850450       -23.1419
 122   2.0000      -0.835190       -22.7267
 123   2.0000      -0.833636       -22.6844
 124   2.0000      -0.830014       -22.5858
 125   2.0000      -0.829245       -22.5649
 126   2.0000      -0.809790       -22.0355
 127   2.0000      -0.800197       -21.7745
 128   2.0000      -0.779527       -21.2120
 129   2.0000      -0.774551       -21.0766
 130   2.0000      -0.769892       -20.9498
 131   2.0000      -0.757741       -20.6192
 132   2.0000      -0.754224       -20.5235
 133   2.0000      -0.742396       -20.2016
 134   2.0000      -0.737133       -20.0584
 135   2.0000      -0.728381       -19.8202
 136   2.0000      -0.719433       -19.5768
 137   2.0000      -0.712614       -19.3912
 138   2.0000      -0.700491       -19.0613
 139   2.0000      -0.698056       -18.9951
 140   2.0000      -0.685185       -18.6448
 141   2.0000      -0.681768       -18.5519
 142   2.0000      -0.679535       -18.4911
 143   2.0000      -0.674917       -18.3654
 144   2.0000      -0.672803       -18.3079
 145   2.0000      -0.663368       -18.0512
 146   2.0000      -0.658833       -17.9277
 147   2.0000      -0.652762       -17.7625
 148   2.0000      -0.642022       -17.4703
 149   2.0000      -0.627408       -17.0727
 150   2.0000      -0.625492       -17.0205
 151   2.0000      -0.616590       -16.7783
 152   2.0000      -0.614013       -16.7081
 153   2.0000      -0.611253       -16.6330
 154   2.0000      -0.610189       -16.6041
 155   2.0000      -0.606459       -16.5026
 156   2.0000      -0.600848       -16.3499
 157   2.0000      -0.597315       -16.2538
 158   2.0000      -0.595233       -16.1971
 159   2.0000      -0.591181       -16.0868
 160   2.0000      -0.582826       -15.8595
 161   2.0000      -0.575798       -15.6683
 162   2.0000      -0.567855       -15.4521
 163   2.0000      -0.556641       -15.1470
 164   2.0000      -0.556065       -15.1313
 165   2.0000      -0.552547       -15.0356
 166   2.0000      -0.551642       -15.0109
 167   2.0000      -0.550970       -14.9926
 168   2.0000      -0.545377       -14.8405
 169   2.0000      -0.544778       -14.8242
 170   2.0000      -0.542720       -14.7682
 171   2.0000      -0.538881       -14.6637
 172   2.0000      -0.536394       -14.5960
 173   2.0000      -0.534985       -14.5577
 174   2.0000      -0.531527       -14.4636
 175   2.0000      -0.528306       -14.3759
 176   2.0000      -0.527563       -14.3557
 177   2.0000      -0.525210       -14.2917
 178   2.0000      -0.525194       -14.2912
 179   2.0000      -0.520885       -14.1740
 180   2.0000      -0.520330       -14.1589
 181   2.0000      -0.517065       -14.0701
 182   2.0000      -0.513242       -13.9660
 183   2.0000      -0.510656       -13.8956
 184   2.0000      -0.509400       -13.8615
 185   2.0000      -0.507790       -13.8177
 186   2.0000      -0.503541       -13.7021
 187   2.0000      -0.502177       -13.6649
 188   2.0000      -0.498467       -13.5640
 189   2.0000      -0.496859       -13.5202
 190   2.0000      -0.494535       -13.4570
 191   2.0000      -0.490837       -13.3563
 192   2.0000      -0.486910       -13.2495
 193   2.0000      -0.484483       -13.1834
 194   2.0000      -0.482553       -13.1309
 195   2.0000      -0.480744       -13.0817
 196   2.0000      -0.478695       -13.0259
 197   2.0000      -0.476524       -12.9669
 198   2.0000      -0.475776       -12.9465
 199   2.0000      -0.474001       -12.8982
 200   2.0000      -0.472978       -12.8704
 201   2.0000      -0.464815       -12.6483
 202   2.0000      -0.463527       -12.6132
 203   2.0000      -0.459620       -12.5069
 204   2.0000      -0.458152       -12.4669
 205   2.0000      -0.456646       -12.4260
 206   2.0000      -0.454506       -12.3677
 207   2.0000      -0.453000       -12.3267
 208   2.0000      -0.452503       -12.3132
 209   2.0000      -0.451946       -12.2981
 210   2.0000      -0.450981       -12.2718
 211   2.0000      -0.449116       -12.2211
 212   2.0000      -0.446263       -12.1434
 213   2.0000      -0.444277       -12.0894
 214   2.0000      -0.443944       -12.0803
 215   2.0000      -0.443268       -12.0619
 216   2.0000      -0.441358       -12.0099
 217   2.0000      -0.438278       -11.9262
 218   2.0000      -0.434635       -11.8270
 219   2.0000      -0.433269       -11.7898
 220   2.0000      -0.432233       -11.7617
 221   2.0000      -0.431794       -11.7497
 222   2.0000      -0.429325       -11.6825
 223   2.0000      -0.423481       -11.5235
 224   2.0000      -0.420306       -11.4371
 225   2.0000      -0.416689       -11.3387
 226   2.0000      -0.410350       -11.1662
 227   2.0000      -0.403618       -10.9830
 228   2.0000      -0.401827       -10.9343
 229   2.0000      -0.399881       -10.8813
 230   2.0000      -0.395895       -10.7729
 231   2.0000      -0.378799       -10.3077
 232   2.0000      -0.362311        -9.8590
 233   2.0000      -0.359560        -9.7841
 234   2.0000      -0.351115        -9.5543
 235   2.0000      -0.348048        -9.4709
 236   2.0000      -0.344957        -9.3868
 237   2.0000      -0.344538        -9.3754
 238   2.0000      -0.342857        -9.3296
 239   2.0000      -0.341695        -9.2980
 240   2.0000      -0.339839        -9.2475
 241   2.0000      -0.338941        -9.2230
 242   2.0000      -0.336569        -9.1585
 243   2.0000      -0.330065        -8.9815
 244   2.0000      -0.327071        -8.9001
 245   2.0000      -0.317736        -8.6460
 246   2.0000      -0.310971        -8.4620
 247   2.0000      -0.296904        -8.0792
 248   2.0000      -0.284233        -7.7344
 249   2.0000      -0.243778        -6.6335
 250   0.0000      -0.118909        -3.2357
 251   0.0000      -0.102974        -2.8021
 252   0.0000      -0.083125        -2.2620
 253   0.0000      -0.058404        -1.5892
 254   0.0000      -0.052828        -1.4375

MULLIKEN ATOMIC CHARGES
-----------------------
   0 C :    0.028330
   1 C :   -0.128913
   2 S :    0.187046
   3 C :   -0.171959
   4 Cl:    0.000944
   5 C :    0.080231
   6 C :    0.161184
   7 O :   -0.134831
   8 C :   -0.104909
   9 C :    0.296505
  10 C :   -0.344195
  11 C :   -0.192077
  12 N :    0.156405
  13 C :   -0.184314
  14 N :    0.159212
  15 C :    0.057283
  16 C :   -0.105950
  17 S :    0.193052
  18 C :   -0.084849
  19 C :    0.015412
  20 C :    0.007958
  21 C :    0.115142
  22 O :   -0.171823
  23 C :    0.052696
  24 C :   -0.042705
  25 C :    0.127583
  26 N :   -0.265702
  27 C :    0.095028
  28 C :    0.002942
  29 C :    0.152917
  30 O :   -0.192856
  31 C :   -0.047299
  32 C :   -0.053729
  33 C :    0.165989
  34 O :   -0.209186
  35 N :   -0.267323
  36 C :    0.099050
  37 C :    0.001964
  38 C :    0.121824
  39 C :   -0.038067
  40 C :    0.081111
  41 C :   -0.081630
  42 S :    0.165142
  43 C :   -0.088364
  44 C :    0.031129
  45 C :    0.000574
  46 C :    0.162169
  47 O :   -0.185106
  48 C :    0.009458
  49 C :    0.017090
  50 C :    0.040835
  51 C :   -0.134510
  52 C :    0.124968
  53 O :   -0.132455
  54 C :    0.101710
  55 C :   -0.175978
  56 S :    0.182111
  57 C :   -0.125378
  58 C :    0.007391
  59 C :    0.279763
  60 C :   -0.319149
  61 C :   -0.175948
  62 N :    0.154399
  63 C :   -0.197579
  64 N :    0.169847
  65 Cl:   -0.002796
  66 H :    0.055607
  67 H :    0.009519
  68 H :    0.030145
  69 H :    0.004330
  70 H :    0.026457
  71 H :   -0.002280
  72 H :    0.028006
  73 H :    0.045696
  74 H :    0.015677
  75 H :    0.030380
  76 H :    0.030757
  77 H :    0.044879
  78 H :    0.024748
  79 H :    0.031238
  80 H :    0.025298
  81 H :    0.022055
  82 H :    0.006126
  83 H :   -0.018883
  84 H :    0.008075
  85 H :   -0.003946
  86 H :    0.046521
  87 H :    0.006965
  88 H :    0.030728
  89 H :    0.055094
Sum of atomic charges:   -0.0000000

LOEWDIN ATOMIC CHARGES
----------------------
   0 C :   -0.060184
   1 C :   -0.148612
   2 S :    0.475775
   3 C :   -0.272138
   4 Cl:    0.193283
   5 C :   -0.116435
   6 C :    0.084502
   7 O :   -0.127854
   8 C :   -0.087466
   9 C :    0.075626
  10 C :   -0.139641
  11 C :   -0.014739
  12 N :   -0.052449
  13 C :   -0.026432
  14 N :   -0.045917
  15 C :    0.047892
  16 C :   -0.178139
  17 S :    0.490668
  18 C :   -0.137816
  19 C :   -0.110511
  20 C :    0.021982
  21 C :    0.096765
  22 O :   -0.123133
  23 C :    0.000939
  24 C :   -0.029962
  25 C :    0.074958
  26 N :   -0.002175
  27 C :    0.036244
  28 C :   -0.060151
  29 C :    0.078756
  30 O :   -0.196092
  31 C :   -0.110361
  32 C :   -0.118727
  33 C :    0.083691
  34 O :   -0.196391
  35 N :   -0.001784
  36 C :    0.035264
  37 C :   -0.062647
  38 C :    0.071385
  39 C :   -0.022675
  40 C :   -0.023909
  41 C :   -0.160327
  42 S :    0.477312
  43 C :   -0.133587
  44 C :   -0.102554
  45 C :   -0.023141
  46 C :    0.119102
  47 O :   -0.135820
  48 C :    0.011311
  49 C :   -0.033036
  50 C :    0.063850
  51 C :   -0.082452
  52 C :    0.080052
  53 O :   -0.135388
  54 C :   -0.118284
  55 C :   -0.273299
  56 S :    0.472507
  57 C :   -0.150173
  58 C :   -0.055587
  59 C :    0.066002
  60 C :   -0.129861
  61 C :   -0.013151
  62 N :   -0.050542
  63 C :   -0.013810
  64 N :   -0.044351
  65 Cl:    0.189926
  66 H :    0.037856
  67 H :    0.044038
  68 H :    0.041986
  69 H :   -0.000949
  70 H :    0.040951
  71 H :    0.033649
  72 H :    0.024609
  73 H :    0.039151
  74 H :    0.022127
  75 H :    0.033540
  76 H :    0.032621
  77 H :    0.038602
  78 H :    0.021698
  79 H :    0.034115
  80 H :    0.031753
  81 H :    0.022359
  82 H :    0.046199
  83 H :    0.028908
  84 H :    0.038587
  85 H :    0.005012
  86 H :    0.041373
  87 H :    0.029200
  88 H :    0.048348
  89 H :    0.038177

  Mayer bond orders larger than 0.100000
B(  0-C ,  1-C ) :   1.5465 B(  0-C ,  5-C ) :   1.2241 B(  0-C ,  9-C ) :   0.9914
B(  1-C ,  2-S ) :   1.1619 B(  1-C , 66-H ) :   0.9531 B(  2-S ,  3-C ) :   1.1499
B(  3-C ,  4-Cl) :   1.1279 B(  3-C ,  5-C ) :   1.4769 B(  5-C ,  6-C ) :   0.9609
B(  6-C ,  7-O ) :   2.1930 B(  6-C ,  8-C ) :   0.9281 B(  8-C ,  9-C ) :   1.0824
B(  8-C , 15-C ) :   1.6336 B(  9-C , 10-C ) :   1.6401 B( 10-C , 11-C ) :   1.1517
B( 10-C , 13-C ) :   1.1353 B( 11-C , 12-N ) :   2.9892 B( 13-C , 14-N ) :   2.9719
B( 15-C , 16-C ) :   1.1930 B( 15-C , 67-H ) :   0.9128 B( 16-C , 17-S ) :   1.1002
B( 16-C , 20-C ) :   1.4252 B( 17-S , 18-C ) :   1.1897 B( 18-C , 19-C ) :   1.3667
B( 18-C , 23-C ) :   1.1334 B( 19-C , 20-C ) :   1.2815 B( 19-C , 21-C ) :   0.9519
B( 20-C , 68-H ) :   0.9884 B( 21-C , 22-O ) :   2.1881 B( 21-C , 69-H ) :   0.9538
B( 23-C , 24-C ) :   1.6001 B( 23-C , 70-H ) :   0.9301 B( 24-C , 25-C ) :   1.1740
B( 24-C , 71-H ) :   0.9603 B( 25-C , 26-N ) :   1.1656 B( 25-C , 32-C ) :   1.3302
B( 26-N , 27-C ) :   0.9427 B( 26-N , 29-C ) :   1.0359 B( 27-C , 28-C ) :   1.1197
B( 27-C , 72-H ) :   0.9495 B( 27-C , 73-H ) :   0.9279 B( 28-C , 74-H ) :   0.9688
B( 28-C , 75-H ) :   0.9680 B( 28-C , 76-H ) :   0.9637 B( 29-C , 30-O ) :   2.1259
B( 29-C , 31-C ) :   0.9790 B( 31-C , 32-C ) :   1.2519 B( 31-C , 38-C ) :   1.3350
B( 32-C , 33-C ) :   0.9844 B( 33-C , 34-O ) :   2.0215 B( 33-C , 35-N ) :   1.0632
B( 34-O , 70-H ) :   0.1115 B( 35-N , 36-C ) :   0.9424 B( 35-N , 38-C ) :   1.1597
B( 36-C , 37-C ) :   1.1153 B( 36-C , 77-H ) :   0.9254 B( 36-C , 78-H ) :   0.9511
B( 37-C , 79-H ) :   0.9610 B( 37-C , 80-H ) :   0.9686 B( 37-C , 81-H ) :   0.9685
B( 38-C , 39-C ) :   1.1998 B( 39-C , 40-C ) :   1.5964 B( 39-C , 82-H ) :   0.9442
B( 40-C , 41-C ) :   1.1213 B( 40-C , 83-H ) :   0.9640 B( 41-C , 42-S ) :   1.1251
B( 41-C , 45-C ) :   1.4849 B( 42-S , 43-C ) :   1.1559 B( 43-C , 44-C ) :   1.4051
B( 43-C , 48-C ) :   1.2193 B( 44-C , 45-C ) :   1.2489 B( 44-C , 46-C ) :   0.9955
B( 45-C , 84-H ) :   0.9898 B( 46-C , 47-O ) :   2.1090 B( 46-C , 85-H ) :   0.9637
B( 48-C , 49-C ) :   1.6003 B( 48-C , 86-H ) :   0.9425 B( 49-C , 50-C ) :   1.1582
B( 49-C , 87-H ) :   0.9577 B( 50-C , 51-C ) :   1.6835 B( 50-C , 88-H ) :   0.9274
B( 51-C , 52-C ) :   0.9433 B( 51-C , 59-C ) :   1.0302 B( 52-C , 53-O ) :   2.2702
B( 52-C , 54-C ) :   0.9257 B( 54-C , 55-C ) :   1.4800 B( 54-C , 58-C ) :   1.2220
B( 55-C , 56-S ) :   1.1510 B( 55-C , 65-Cl) :   1.1272 B( 56-S , 57-C ) :   1.1566
B( 57-C , 58-C ) :   1.5555 B( 57-C , 89-H ) :   0.9553 B( 58-C , 59-C ) :   1.0085
B( 59-C , 60-C ) :   1.6651 B( 60-C , 61-C ) :   1.1287 B( 60-C , 63-C ) :   1.1747
B( 61-C , 62-N ) :   2.9991 B( 63-C , 64-N ) :   2.9799

-----------------------------------------------------------------------------
         ABSORPTION SPECTRUM VIA TRANSITION ELECTRIC DIPOLE MOMENTS
-----------------------------------------------------------------------------
State   Energy  Wavelength   fosc         T2         TX        TY        TZ
        (cm-1)    (nm)                  (au**2)     (au)      (au)      (au)
-----------------------------------------------------------------------------
   0   13052.7    766.1   1.521611025  38.37775   4.89619  -3.17904   2.07335
   1   17692.9    565.2   0.057967686   1.07861  -0.98348  -0.33308  -0.02076
   2   21602.6    462.9   0.193661334   2.95129  -0.51294  -0.02512  -1.63938
   3   22511.1    444.2   0.101902457   1.49026   0.95792  -0.05979  -0.75437
   4   24049.8    415.8   0.734010629  10.04770  -1.58144   1.43746  -2.34104
   5   25816.4    387.3   0.006604053   0.08422  -0.09028  -0.13540   0.24027
   6   26186.3    381.9   0.025128525   0.31591  -0.25335   0.41273  -0.28527
   7   26567.3    376.4   0.168952828   2.09360   0.79249  -1.10062   0.50418
   8   27887.5    358.6   0.071940684   0.84926   0.75766  -0.43934   0.28670
   9   28015.4    356.9   0.002182931   0.02565  -0.08625   0.11145   0.07611
  10   28136.4    355.4   0.023576538   0.27586   0.43397  -0.17222   0.24056
  11   28265.4    353.8   0.011133819   0.12968  -0.04377  -0.09047   0.34580
  12   28370.1    352.5   0.000835517   0.00970   0.06845   0.06648  -0.02431
  13   28545.4    350.3   0.041417115   0.47766   0.06972   0.54542  -0.41871
  14   29284.3    341.5   0.114278551   1.28471  -0.69510   0.88705  -0.12119
  15   29452.4    339.5   0.072013212   0.80495  -0.54035   0.64148  -0.31855
  16   30081.4    332.4   0.048666077   0.53260   0.13089  -0.54937  -0.46224
  17   30476.5    328.1   0.062931158   0.67979  -0.45224   0.50098  -0.47359
  18   31316.2    319.3   0.092998882   0.97765   0.62595  -0.74422   0.17884
  19   31747.1    315.0   0.000365811   0.00379   0.03139  -0.04039  -0.03430
  20   32438.0    308.3   0.146229640   1.48408  -0.78531   0.92118   0.13713
  21   32608.2    306.7   0.015848158   0.16000   0.10800   0.35114  -0.15825
  22   33293.5    300.4   0.047189666   0.46662  -0.48266   0.44092  -0.19811
  23   33862.6    295.3   0.014785612   0.14375  -0.22683   0.19884   0.22969
  24   33940.2    294.6   0.104950278   1.01799  -0.18488   0.22588  -0.96581
  25   34607.7    289.0   0.002069747   0.01969   0.01549  -0.06412  -0.12384
  26   34956.3    286.1   0.291500781   2.74530  -0.94719   1.31957   0.32688
  27   35206.0    284.0   0.034219946   0.31999  -0.08314   0.38204  -0.40881
  28   35430.8    282.2   0.086573254   0.80441  -0.29724  -0.19439   0.82357
  29   35492.0    281.8   0.072488187   0.67238  -0.59285   0.48752  -0.28850
  30   35667.1    280.4   0.015612419   0.14410   0.29284  -0.21400   0.11205
  31   35710.6    280.0   0.064827308   0.59764   0.36437  -0.66404  -0.15466
  32   35875.9    278.7   0.034441648   0.31605  -0.29626   0.39487  -0.26899
  33   36323.1    275.3   0.040195172   0.36431   0.21196  -0.54196  -0.16017
  34   36552.6    273.6   0.043178425   0.38889  -0.06369   0.54323  -0.29956
  35   36671.9    272.7   0.314654228   2.82472  -0.73504   1.35073   0.67822
  36   37606.3    265.9   0.419712393   3.67423   0.97049  -1.20241   1.13428
  37   38147.8    262.1   0.034328743   0.29625   0.20288  -0.42934   0.26601
  38   38255.0    261.4   0.017055857   0.14678   0.12738  -0.33800  -0.12771
  39   38473.7    259.9   0.074721167   0.63938   0.20262  -0.72468  -0.27048
  40   38788.4    257.8   0.021099265   0.17908   0.18360  -0.38107  -0.01239
  41   39054.3    256.1   0.047097939   0.39702   0.39947  -0.47907  -0.08906
  42   39196.4    255.1   0.002036391   0.01710   0.05105  -0.11299  -0.04160
  43   39294.7    254.5   0.012716139   0.10654   0.05269  -0.21922  -0.23601
  44   39653.0    252.2   0.074736981   0.62049   0.06164  -0.11239  -0.77721
  45   39727.4    251.7   0.008960954   0.07426  -0.21233   0.06496  -0.15796
  46   39889.5    250.7   0.219732811   1.81348   0.36861  -0.28734   1.26295
  47   40008.2    249.9   0.113801611   0.93643   0.56884  -0.78080   0.05652

FINAL SINGLE POINT ENERGY     -5132.388561498211

DIPOLE MOMENT
-------------
                                X             Y             Z
Electronic contribution:     12.21493      11.43046      -5.25141
Nuclear contribution   :    -12.29403     -11.85303       5.40933
                        -----------------------------------------
Total Dipole Moment    :     -0.07910      -0.42257       0.15793
                        -----------------------------------------
Magnitude (a.u.)       :      0.45799
Magnitude (Debye)      :      1.16413

Rotational constants in cm-1:     0.003291     0.000178     0.000173
Rotational constants in MHz :    98.673233     5.339851     5.199913

                             ****ORCA TERMINATED NORMALLY****
TOTAL RUN TIME: 0 days 0 hours 7 minutes 56 seconds 873 msec
