                         Program Version 4.2.0 -  RELEASE  -
|  1> # ORCA input file
|  2> # SCF done       -170.280888803885          0.001108194226
|  3> ! CAM-B3LYP def2-SVP def2/J RIJCOSX Grid4 TightSCF
|  4> %maxcore 5000
|  5> %tddft
|  6>     Mode sTDDFT
|  7>     Ethresh 5.0
|  8>     maxcore 5000
|  9> end
| 10>
| 11> %pal
| 12>   nprocs 6
| 13>   end
| 14> * xyz 0 1
| 15>    C        3.50660        -2.53392        -2.74089
| 16>    S        2.48607        -3.80130        -2.24000
| 17>    C        2.63610        -3.45086        -0.50027
| 18>    C        3.44719        -2.35206        -0.20131
| 19>    S        4.18132        -1.55043        -1.55445
| 20>    C        3.72358        -1.83932         1.13294
| 21>    O        3.21878        -2.30490         2.13779
| 22>    C        4.68561        -0.67610         1.19347
| 23>    C        1.97904        -4.26695         0.41592
| 24>    C        1.25319        -5.38007         0.04701
| 25>    C        0.61159        -6.26561         0.91021
| 26>    S        0.04484        -7.80475         0.27821
| 27>    C       -0.35331        -8.40251         1.85555
| 28>    C       -0.08703        -7.41038         2.81392
| 29>    C        0.41211        -6.21211         2.30432
| 30>    O        0.67510        -5.15590         3.10935
| 31>    C       -0.16751        -4.01133         2.92674
| 32>    C        0.37823        -2.89077         3.79189
| 33>    O       -0.28906        -7.64280         4.15018
| 34>    N       -1.43803        -7.03969         4.72735
| 35>    O       -1.55971        -7.27756         5.87353
| 36>    O       -2.10989        -6.39174         4.00049
| 37>    C       -0.90633        -9.65632         2.11343
| 38>    S       -1.45496       -10.07530         3.72361
| 39>    C       -2.09201       -11.59258         3.17775
| 40>    C       -1.85866       -11.75447         1.79914
| 41>    C       -1.17900       -10.69235         1.20345
| 42>    O       -0.88720       -10.62252        -0.12247
| 43>    C        0.47087       -10.85799        -0.49537
| 44>    C        0.83840       -12.33628        -0.48794
| 45>    O       -2.29204       -12.86100         1.11271
| 46>    N       -1.50618       -14.03877         1.26293
| 47>    O       -1.92235       -14.95520         0.65465
| 48>    O       -0.55701       -13.94432         1.96451
| 49>    C       -2.72051       -12.46093         4.05747
| 50>    S       -3.38963       -14.01143         3.61427
| 51>    C       -3.85153       -14.34466         5.26702
| 52>    C       -3.53624       -13.23411         6.10447
| 53>    C       -2.91301       -12.19073         5.43367
| 54>    O       -2.41122       -11.03229         5.88059
| 55>    C       -2.83464       -10.48001         7.12215
| 56>    C       -4.22306        -9.86145         7.01283
| 57>    O       -3.83741       -13.25448         7.43889
| 58>    N       -5.24730       -13.10494         7.76662
| 59>    O       -5.45267       -13.15696         8.92306
| 60>    O       -5.97133       -12.97312         6.84160
| 61>    C       -4.37017       -15.55530         5.63344
| 62>    S       -4.73511       -15.99021         7.28680
| 63>    C       -5.22571       -17.63525         6.94625
| 64>    C       -5.18240       -18.02626         5.63920
| 65>    S       -4.65267       -16.82653         4.47115
| 66>    C       -5.53255       -19.36275         5.12099
| 67>    O       -5.92637       -20.26117         5.83183
| 68>    C       -5.36024       -19.52651         3.63600
| 69>    C       -5.62975       -18.45625         8.06035
| 70>    C       -5.67475       -18.02587         9.31884
| 71>    H        3.71123        -2.37207        -3.77923
| 72>    H        5.64905        -0.95868         0.77288
| 73>    H        4.81977        -0.38397         2.23153
| 74>    H        4.29662         0.17021         0.62986
| 75>    H        2.11143        -4.02314         1.45833
| 76>    H        1.21619        -5.64576        -1.00409
| 77>    H       -1.19088        -4.27788         3.22605
| 78>    H       -0.18249        -3.71721         1.87071
| 79>    H       -0.27093        -2.02324         3.71384
| 80>    H        1.37994        -2.62143         3.46877
| 81>    H        0.42158        -3.21159         4.82881
| 82>    H        1.15012       -10.30148         0.16040
| 83>    H        0.53989       -10.45062        -1.50597
| 84>    H        0.87782       -12.72063         0.52895
| 85>    H        1.81830       -12.46468        -0.93925
| 86>    H        0.11144       -12.90589        -1.06322
| 87>    H       -2.09549        -9.70325         7.33001
| 88>    H       -2.79089       -11.23991         7.90814
| 89>    H       -4.19749        -9.01848         6.32718
| 90>    H       -4.54523        -9.51084         7.98904
| 91>    H       -4.94879       -10.58093         6.63776
| 92>    H       -4.32686       -19.33219         3.35401
| 93>    H       -5.99235       -18.81624         3.10553
| 94>    H       -5.63180       -20.53939         3.35091
| 95>    H       -5.90286       -19.46950         7.80384
| 96>    H       -5.41202       -17.01590         9.59265
| 97>    H       -5.98161       -18.67738        10.11751
| 98> *
| 99>
|100>                          ****END OF INPUT****

CARTESIAN COORDINATES (ANGSTROEM)
---------------------------------
  C      3.506600   -2.533920   -2.740890
  S      2.486070   -3.801300   -2.240000
  C      2.636100   -3.450860   -0.500270
  C      3.447190   -2.352060   -0.201310
  S      4.181320   -1.550430   -1.554450
  C      3.723580   -1.839320    1.132940
  O      3.218780   -2.304900    2.137790
  C      4.685610   -0.676100    1.193470
  C      1.979040   -4.266950    0.415920
  C      1.253190   -5.380070    0.047010
  C      0.611590   -6.265610    0.910210
  S      0.044840   -7.804750    0.278210
  C     -0.353310   -8.402510    1.855550
  C     -0.087030   -7.410380    2.813920
  C      0.412110   -6.212110    2.304320
  O      0.675100   -5.155900    3.109350
  C     -0.167510   -4.011330    2.926740
  C      0.378230   -2.890770    3.791890
  O     -0.289060   -7.642800    4.150180
  N     -1.438030   -7.039690    4.727350
  O     -1.559710   -7.277560    5.873530
  O     -2.109890   -6.391740    4.000490
  C     -0.906330   -9.656320    2.113430
  S     -1.454960  -10.075300    3.723610
  C     -2.092010  -11.592580    3.177750
  C     -1.858660  -11.754470    1.799140
  C     -1.179000  -10.692350    1.203450
  O     -0.887200  -10.622520   -0.122470
  C      0.470870  -10.857990   -0.495370
  C      0.838400  -12.336280   -0.487940
  O     -2.292040  -12.861000    1.112710
  N     -1.506180  -14.038770    1.262930
  O     -1.922350  -14.955200    0.654650
  O     -0.557010  -13.944320    1.964510
  C     -2.720510  -12.460930    4.057470
  S     -3.389630  -14.011430    3.614270
  C     -3.851530  -14.344660    5.267020
  C     -3.536240  -13.234110    6.104470
  C     -2.913010  -12.190730    5.433670
  O     -2.411220  -11.032290    5.880590
  C     -2.834640  -10.480010    7.122150
  C     -4.223060   -9.861450    7.012830
  O     -3.837410  -13.254480    7.438890
  N     -5.247300  -13.104940    7.766620
  O     -5.452670  -13.156960    8.923060
  O     -5.971330  -12.973120    6.841600
  C     -4.370170  -15.555300    5.633440
  S     -4.735110  -15.990210    7.286800
  C     -5.225710  -17.635250    6.946250
  C     -5.182400  -18.026260    5.639200
  S     -4.652670  -16.826530    4.471150
  C     -5.532550  -19.362750    5.120990
  O     -5.926370  -20.261170    5.831830
  C     -5.360240  -19.526510    3.636000
  C     -5.629750  -18.456250    8.060350
  C     -5.674750  -18.025870    9.318840
  H      3.711230   -2.372070   -3.779230
  H      5.649050   -0.958680    0.772880
  H      4.819770   -0.383970    2.231530
  H      4.296620    0.170210    0.629860
  H      2.111430   -4.023140    1.458330
  H      1.216190   -5.645760   -1.004090
  H     -1.190880   -4.277880    3.226050
  H     -0.182490   -3.717210    1.870710
  H     -0.270930   -2.023240    3.713840
  H      1.379940   -2.621430    3.468770
  H      0.421580   -3.211590    4.828810
  H      1.150120  -10.301480    0.160400
  H      0.539890  -10.450620   -1.505970
  H      0.877820  -12.720630    0.528950
  H      1.818300  -12.464680   -0.939250
  H      0.111440  -12.905890   -1.063220
  H     -2.095490   -9.703250    7.330010
  H     -2.790890  -11.239910    7.908140
  H     -4.197490   -9.018480    6.327180
  H     -4.545230   -9.510840    7.989040
  H     -4.948790  -10.580930    6.637760
  H     -4.326860  -19.332190    3.354010
  H     -5.992350  -18.816240    3.105530
  H     -5.631800  -20.539390    3.350910
  H     -5.902860  -19.469500    7.803840
  H     -5.412020  -17.015900    9.592650
  H     -5.981610  -18.677380   10.117510

 Total Charge           Charge          ....    0
 Multiplicity           Mult            ....    1
 Number of Electrons    NEL             ....  464
 Basis Dimension        Dim             ....  947

ORBITAL ENERGIES
----------------

  NO   OCC          E(Eh)            E(eV)
   0   2.0000     -89.044656     -2423.0283
   1   2.0000     -89.015733     -2422.2412
   2   2.0000     -88.949305     -2420.4336
   3   2.0000     -88.948828     -2420.4207
   4   2.0000     -88.946312     -2420.3522
   5   2.0000     -88.937178     -2420.1036
   6   2.0000     -88.936631     -2420.0888
   7   2.0000     -19.300515      -525.1937
   8   2.0000     -19.292317      -524.9706
   9   2.0000     -19.291860      -524.9582
  10   2.0000     -19.274675      -524.4906
  11   2.0000     -19.274287      -524.4800
  12   2.0000     -19.272895      -524.4421
  13   2.0000     -19.272415      -524.4291
  14   2.0000     -19.264779      -524.2213
  15   2.0000     -19.264720      -524.2197
  16   2.0000     -19.252736      -523.8936
  17   2.0000     -19.241608      -523.5908
  18   2.0000     -19.238148      -523.4966
  19   2.0000     -19.215762      -522.8875
  20   2.0000     -19.196779      -522.3709
  21   2.0000     -14.708589      -400.2411
  22   2.0000     -14.699254      -399.9870
  23   2.0000     -14.698259      -399.9600
  24   2.0000     -10.389583      -282.7149
  25   2.0000     -10.377600      -282.3889
  26   2.0000     -10.356843      -281.8240
  27   2.0000     -10.344292      -281.4825
  28   2.0000     -10.343610      -281.4639
  29   2.0000     -10.342611      -281.4368
  30   2.0000     -10.337520      -281.2982
  31   2.0000     -10.332970      -281.1744
  32   2.0000     -10.331753      -281.1413
  33   2.0000     -10.326067      -280.9866
  34   2.0000     -10.322677      -280.8943
  35   2.0000     -10.317241      -280.7464
  36   2.0000     -10.316585      -280.7286
  37   2.0000     -10.315837      -280.7082
  38   2.0000     -10.314511      -280.6721
  39   2.0000     -10.314039      -280.6593
  40   2.0000     -10.313006      -280.6311
  41   2.0000     -10.301431      -280.3162
  42   2.0000     -10.301162      -280.3089
  43   2.0000     -10.298637      -280.2402
  44   2.0000     -10.295560      -280.1564
  45   2.0000     -10.294196      -280.1193
  46   2.0000     -10.293570      -280.1023
  47   2.0000     -10.293490      -280.1001
  48   2.0000     -10.288862      -279.9742
  49   2.0000     -10.269068      -279.4355
  50   2.0000     -10.268943      -279.4322
  51   2.0000     -10.266837      -279.3748
  52   2.0000     -10.260054      -279.1903
  53   2.0000     -10.253047      -278.9996
  54   2.0000     -10.251968      -278.9702
  55   2.0000     -10.245071      -278.7826
  56   2.0000      -8.137771      -221.4400
  57   2.0000      -8.110767      -220.7052
  58   2.0000      -8.044619      -218.9052
  59   2.0000      -8.044159      -218.8927
  60   2.0000      -8.041777      -218.8279
  61   2.0000      -8.032701      -218.5809
  62   2.0000      -8.030986      -218.5342
  63   2.0000      -6.106465      -166.1654
  64   2.0000      -6.102028      -166.0446
  65   2.0000      -6.101839      -166.0395
  66   2.0000      -6.080209      -165.4509
  67   2.0000      -6.075654      -165.3270
  68   2.0000      -6.072865      -165.2511
  69   2.0000      -6.014640      -163.6667
  70   2.0000      -6.013986      -163.6489
  71   2.0000      -6.012034      -163.5958
  72   2.0000      -6.010310      -163.5488
  73   2.0000      -6.010057      -163.5420
  74   2.0000      -6.007565      -163.4741
  75   2.0000      -6.005286      -163.4122
  76   2.0000      -6.004879      -163.4011
  77   2.0000      -6.002752      -163.3432
  78   2.0000      -6.002138      -163.3265
  79   2.0000      -6.001047      -163.2968
  80   2.0000      -5.998780      -163.2351
  81   2.0000      -5.996686      -163.1781
  82   2.0000      -5.992970      -163.0770
  83   2.0000      -5.991543      -163.0382
  84   2.0000      -1.388476       -37.7823
  85   2.0000      -1.379789       -37.5460
  86   2.0000      -1.378594       -37.5135
  87   2.0000      -1.202190       -32.7133
  88   2.0000      -1.199624       -32.6434
  89   2.0000      -1.192829       -32.4585
  90   2.0000      -1.173979       -31.9456
  91   2.0000      -1.166687       -31.7472
  92   2.0000      -1.163593       -31.6630
  93   2.0000      -1.151175       -31.3251
  94   2.0000      -1.143192       -31.1078
  95   2.0000      -1.139642       -31.0112
  96   2.0000      -1.133857       -30.8538
  97   2.0000      -1.116222       -30.3739
  98   2.0000      -1.041773       -28.3481
  99   2.0000      -0.990078       -26.9414
 100   2.0000      -0.986502       -26.8441
 101   2.0000      -0.973592       -26.4928
 102   2.0000      -0.957355       -26.0510
 103   2.0000      -0.936187       -25.4749
 104   2.0000      -0.912055       -24.8183
 105   2.0000      -0.895726       -24.3740
 106   2.0000      -0.884929       -24.0801
 107   2.0000      -0.878081       -23.8938
 108   2.0000      -0.864211       -23.5164
 109   2.0000      -0.858502       -23.3610
 110   2.0000      -0.853875       -23.2351
 111   2.0000      -0.852097       -23.1867
 112   2.0000      -0.844214       -22.9722
 113   2.0000      -0.834936       -22.7198
 114   2.0000      -0.831559       -22.6279
 115   2.0000      -0.824897       -22.4466
 116   2.0000      -0.815104       -22.1801
 117   2.0000      -0.813814       -22.1450
 118   2.0000      -0.795569       -21.6485
 119   2.0000      -0.781139       -21.2559
 120   2.0000      -0.769277       -20.9331
 121   2.0000      -0.763061       -20.7639
 122   2.0000      -0.755586       -20.5606
 123   2.0000      -0.736733       -20.0475
 124   2.0000      -0.733738       -19.9660
 125   2.0000      -0.722641       -19.6641
 126   2.0000      -0.716758       -19.5040
 127   2.0000      -0.707998       -19.2656
 128   2.0000      -0.701915       -19.1001
 129   2.0000      -0.699761       -19.0415
 130   2.0000      -0.686172       -18.6717
 131   2.0000      -0.676805       -18.4168
 132   2.0000      -0.674180       -18.3454
 133   2.0000      -0.673137       -18.3170
 134   2.0000      -0.664584       -18.0842
 135   2.0000      -0.660943       -17.9852
 136   2.0000      -0.656533       -17.8652
 137   2.0000      -0.656038       -17.8517
 138   2.0000      -0.647993       -17.6328
 139   2.0000      -0.638564       -17.3762
 140   2.0000      -0.635090       -17.2817
 141   2.0000      -0.630825       -17.1656
 142   2.0000      -0.624074       -16.9819
 143   2.0000      -0.617482       -16.8025
 144   2.0000      -0.615330       -16.7440
 145   2.0000      -0.614441       -16.7198
 146   2.0000      -0.611047       -16.6274
 147   2.0000      -0.603881       -16.4324
 148   2.0000      -0.598204       -16.2780
 149   2.0000      -0.591804       -16.1038
 150   2.0000      -0.583663       -15.8823
 151   2.0000      -0.571400       -15.5486
 152   2.0000      -0.569074       -15.4853
 153   2.0000      -0.562327       -15.3017
 154   2.0000      -0.558914       -15.2088
 155   2.0000      -0.558022       -15.1845
 156   2.0000      -0.556518       -15.1436
 157   2.0000      -0.554055       -15.0766
 158   2.0000      -0.547724       -14.9043
 159   2.0000      -0.546742       -14.8776
 160   2.0000      -0.541647       -14.7390
 161   2.0000      -0.541179       -14.7262
 162   2.0000      -0.539622       -14.6839
 163   2.0000      -0.529704       -14.4140
 164   2.0000      -0.527010       -14.3407
 165   2.0000      -0.525854       -14.3092
 166   2.0000      -0.524168       -14.2633
 167   2.0000      -0.518682       -14.1141
 168   2.0000      -0.518137       -14.0992
 169   2.0000      -0.510768       -13.8987
 170   2.0000      -0.508307       -13.8317
 171   2.0000      -0.506121       -13.7723
 172   2.0000      -0.501797       -13.6546
 173   2.0000      -0.497998       -13.5512
 174   2.0000      -0.491327       -13.3697
 175   2.0000      -0.488655       -13.2970
 176   2.0000      -0.486820       -13.2470
 177   2.0000      -0.483437       -13.1550
 178   2.0000      -0.479948       -13.0601
 179   2.0000      -0.474379       -12.9085
 180   2.0000      -0.471385       -12.8270
 181   2.0000      -0.466173       -12.6852
 182   2.0000      -0.464899       -12.6505
 183   2.0000      -0.462005       -12.5718
 184   2.0000      -0.460710       -12.5366
 185   2.0000      -0.459488       -12.5033
 186   2.0000      -0.457064       -12.4374
 187   2.0000      -0.455318       -12.3898
 188   2.0000      -0.452624       -12.3165
 189   2.0000      -0.449920       -12.2429
 190   2.0000      -0.444669       -12.1001
 191   2.0000      -0.443258       -12.0617
 192   2.0000      -0.442442       -12.0395
 193   2.0000      -0.437461       -11.9039
 194   2.0000      -0.435937       -11.8625
 195   2.0000      -0.432391       -11.7660
 196   2.0000      -0.432170       -11.7599
 197   2.0000      -0.430311       -11.7094
 198   2.0000      -0.429046       -11.6749
 199   2.0000      -0.427377       -11.6295
 200   2.0000      -0.425964       -11.5911
 201   2.0000      -0.420793       -11.4504
 202   2.0000      -0.418157       -11.3786
 203   2.0000      -0.413426       -11.2499
 204   2.0000      -0.412926       -11.2363
 205   2.0000      -0.409500       -11.1431
 206   2.0000      -0.407761       -11.0958
 207   2.0000      -0.406749       -11.0682
 208   2.0000      -0.402948       -10.9648
 209   2.0000      -0.398197       -10.8355
 210   2.0000      -0.397298       -10.8110
 211   2.0000      -0.394317       -10.7299
 212   2.0000      -0.393814       -10.7162
 213   2.0000      -0.392935       -10.6923
 214   2.0000      -0.386336       -10.5127
 215   2.0000      -0.383072       -10.4239
 216   2.0000      -0.380551       -10.3553
 217   2.0000      -0.368266       -10.0210
 218   2.0000      -0.366163        -9.9638
 219   2.0000      -0.356169        -9.6918
 220   2.0000      -0.347566        -9.4578
 221   2.0000      -0.344527        -9.3750
 222   2.0000      -0.341513        -9.2930
 223   2.0000      -0.327097        -8.9008
 224   2.0000      -0.318610        -8.6698
 225   2.0000      -0.310598        -8.4518
 226   2.0000      -0.306019        -8.3272
 227   2.0000      -0.300971        -8.1898
 228   2.0000      -0.296623        -8.0715
 229   2.0000      -0.269160        -7.3242
 230   2.0000      -0.230342        -6.2679
 231   2.0000      -0.172260        -4.6874
 232   0.0000      -0.104503        -2.8437
 233   0.0000      -0.078945        -2.1482
 234   0.0000      -0.032886        -0.8949
 235   0.0000      -0.018234        -0.4962
 236   0.0000      -0.012558        -0.3417

MULLIKEN ATOMIC CHARGES
-----------------------
   0 C :   -0.111301
   1 S :    0.190617
   2 C :   -0.045730
   3 C :   -0.146780
   4 S :    0.263380
   5 C :    0.021627
   6 O :   -0.180132
   7 C :    0.008782
   8 C :   -0.066621
   9 C :    0.016265
  10 C :   -0.153045
  11 S :    0.116089
  12 C :   -0.080523
  13 C :    0.107410
  14 C :    0.195334
  15 O :   -0.323772
  16 C :    0.153552
  17 C :    0.004068
  18 O :   -0.224179
  19 N :    0.380360
  20 O :   -0.162759
  21 O :   -0.170851
  22 C :   -0.132334
  23 S :    0.122437
  24 C :   -0.053720
  25 C :    0.097242
  26 C :    0.156031
  27 O :   -0.330250
  28 C :    0.180401
  29 C :   -0.032499
  30 O :   -0.223465
  31 N :    0.359223
  32 O :   -0.158824
  33 O :   -0.162579
  34 C :   -0.137295
  35 S :    0.096432
  36 C :   -0.023657
  37 C :    0.051896
  38 C :    0.200316
  39 O :   -0.316949
  40 C :    0.155557
  41 C :   -0.031457
  42 O :   -0.241889
  43 N :    0.352105
  44 O :   -0.156912
  45 O :   -0.148096
  46 C :   -0.201639
  47 S :    0.092468
  48 C :   -0.026474
  49 C :   -0.066073
  50 S :    0.083783
  51 C :    0.008537
  52 O :   -0.183117
  53 C :    0.024421
  54 C :   -0.017968
  55 C :   -0.006194
  56 H :    0.107831
  57 H :    0.042762
  58 H :    0.049314
  59 H :    0.041715
  60 H :    0.040034
  61 H :   -0.023975
  62 H :    0.020609
  63 H :    0.018067
  64 H :    0.009291
  65 H :    0.037842
  66 H :    0.020335
  67 H :    0.018680
  68 H :    0.017734
  69 H :    0.039112
  70 H :    0.016933
  71 H :    0.028401
  72 H :    0.036441
  73 H :    0.037022
  74 H :    0.030767
  75 H :    0.027031
  76 H :    0.022672
  77 H :    0.052494
  78 H :    0.051886
  79 H :    0.035156
  80 H :    0.030141
  81 H :    0.037172
  82 H :    0.033281
Sum of atomic charges:   -0.0000000

LOEWDIN ATOMIC CHARGES
----------------------
   0 C :   -0.328484
   1 S :    0.482354
   2 C :   -0.146573
   3 C :   -0.283409
   4 S :    0.591851
   5 C :    0.055298
   6 O :   -0.149763
   7 C :   -0.089472
   8 C :   -0.110147
   9 C :   -0.046904
  10 C :   -0.198507
  11 S :    0.424376
  12 C :   -0.178846
  13 C :   -0.057475
  14 C :    0.030855
  15 O :   -0.113113
  16 C :    0.088284
  17 C :   -0.066802
  18 O :   -0.077343
  19 N :    0.324091
  20 O :   -0.145437
  21 O :   -0.154388
  22 C :   -0.226815
  23 S :    0.431021
  24 C :   -0.179134
  25 C :   -0.060427
  26 C :    0.024819
  27 O :   -0.118390
  28 C :    0.079492
  29 C :   -0.079091
  30 O :   -0.083485
  31 N :    0.315735
  32 O :   -0.141751
  33 O :   -0.154967
  34 C :   -0.217951
  35 S :    0.379935
  36 C :   -0.226996
  37 C :   -0.094559
  38 C :    0.034578
  39 O :   -0.081700
  40 C :    0.084718
  41 C :   -0.072835
  42 O :   -0.098672
  43 N :    0.310793
  44 O :   -0.140683
  45 O :   -0.142853
  46 C :   -0.355824
  47 S :    0.399777
  48 C :   -0.128972
  49 C :   -0.233767
  50 S :    0.384986
  51 C :    0.067368
  52 O :   -0.147712
  53 C :   -0.087332
  54 C :   -0.042451
  55 C :   -0.022082
  56 H :    0.035733
  57 H :    0.036647
  58 H :    0.047202
  59 H :    0.035701
  60 H :    0.039844
  61 H :    0.012926
  62 H :    0.011154
  63 H :    0.011732
  64 H :    0.028572
  65 H :    0.028605
  66 H :    0.027693
  67 H :    0.007021
  68 H :    0.020367
  69 H :    0.024080
  70 H :    0.032301
  71 H :    0.027421
  72 H :    0.028764
  73 H :    0.016615
  74 H :    0.031041
  75 H :    0.034592
  76 H :    0.021912
  77 H :    0.042368
  78 H :    0.042257
  79 H :    0.040424
  80 H :    0.039626
  81 H :    0.019169
  82 H :    0.031013

  Mayer bond orders larger than 0.100000
B(  0-C ,  1-S ) :   1.2133 B(  0-C ,  3-C ) :   0.1326 B(  0-C ,  4-S ) :   1.3984
B(  0-C , 56-H ) :   0.9638 B(  1-S ,  2-C ) :   0.9848 B(  1-S ,  4-S ) :   0.1375
B(  2-C ,  3-C ) :   1.2624 B(  2-C ,  8-C ) :   1.5300 B(  3-C ,  4-S ) :   1.1365
B(  3-C ,  5-C ) :   1.0451 B(  5-C ,  6-O ) :   2.0675 B(  5-C ,  7-C ) :   1.0611
B(  7-C , 57-H ) :   0.9517 B(  7-C , 58-H ) :   0.9464 B(  7-C , 59-H ) :   0.9492
B(  8-C ,  9-C ) :   1.2509 B(  8-C , 60-H ) :   0.9536 B(  9-C , 10-C ) :   1.4656
B(  9-C , 61-H ) :   0.9355 B( 10-C , 11-S ) :   1.0122 B( 10-C , 14-C ) :   1.2102
B( 11-S , 12-C ) :   1.0738 B( 12-C , 13-C ) :   1.2410 B( 12-C , 22-C ) :   1.4653
B( 13-C , 14-C ) :   1.4689 B( 13-C , 18-O ) :   1.0484 B( 14-C , 15-O ) :   1.2031
B( 15-O , 16-C ) :   0.8824 B( 16-C , 17-C ) :   1.1119 B( 16-C , 62-H ) :   0.9450
B( 16-C , 63-H ) :   0.9498 B( 17-C , 64-H ) :   0.9571 B( 17-C , 65-H ) :   0.9587
B( 17-C , 66-H ) :   0.9626 B( 18-O , 19-N ) :   0.8657 B( 19-N , 20-O ) :   1.6960
B( 19-N , 21-O ) :   1.6338 B( 20-O , 21-O ) :   0.2375 B( 22-C , 23-S ) :   0.9907
B( 22-C , 26-C ) :   1.2509 B( 23-S , 24-C ) :   1.0614 B( 24-C , 25-C ) :   1.2115
B( 24-C , 34-C ) :   1.5236 B( 25-C , 26-C ) :   1.4772 B( 25-C , 30-O ) :   1.0768
B( 26-C , 27-O ) :   1.1756 B( 27-O , 28-C ) :   0.9077 B( 28-C , 29-C ) :   1.1095
B( 28-C , 67-H ) :   0.9444 B( 28-C , 68-H ) :   0.9613 B( 29-C , 69-H ) :   0.9610
B( 29-C , 70-H ) :   0.9572 B( 29-C , 71-H ) :   0.9639 B( 30-O , 31-N ) :   0.8579
B( 31-N , 32-O ) :   1.7071 B( 31-N , 33-O ) :   1.6241 B( 32-O , 33-O ) :   0.2400
B( 34-C , 35-S ) :   1.0187 B( 34-C , 38-C ) :   1.2220 B( 35-S , 36-C ) :   1.0254
B( 36-C , 37-C ) :   1.1590 B( 36-C , 46-C ) :   1.6829 B( 37-C , 38-C ) :   1.4710
B( 37-C , 42-O ) :   1.0722 B( 38-C , 39-O ) :   1.1825 B( 39-O , 40-C ) :   0.8953
B( 40-C , 41-C ) :   1.1121 B( 40-C , 72-H ) :   0.9551 B( 40-C , 73-H ) :   0.9520
B( 41-C , 74-H ) :   0.9639 B( 41-C , 75-H ) :   0.9630 B( 41-C , 76-H ) :   0.9612
B( 42-O , 43-N ) :   0.8120 B( 43-N , 44-O ) :   1.7050 B( 43-N , 45-O ) :   1.6367
B( 44-O , 45-O ) :   0.2447 B( 46-C , 47-S ) :   1.0114 B( 46-C , 50-S ) :   1.0105
B( 47-S , 48-C ) :   1.0544 B( 48-C , 49-C ) :   1.6496 B( 48-C , 54-C ) :   1.1509
B( 49-C , 50-S ) :   1.0175 B( 49-C , 51-C ) :   0.9813 B( 51-C , 52-O ) :   2.1298
B( 51-C , 53-C ) :   1.0786 B( 53-C , 77-H ) :   0.9425 B( 53-C , 78-H ) :   0.9409
B( 53-C , 79-H ) :   0.9464 B( 54-C , 55-C ) :   1.8965 B( 54-C , 80-H ) :   0.9471
B( 55-C , 81-H ) :   0.9490 B( 55-C , 82-H ) :   0.9502

-----------------------------------------------------------------------------
         ABSORPTION SPECTRUM VIA TRANSITION ELECTRIC DIPOLE MOMENTS
-----------------------------------------------------------------------------
State   Energy  Wavelength   fosc         T2         TX        TY        TZ
        (cm-1)    (nm)                  (au**2)     (au)      (au)      (au)
-----------------------------------------------------------------------------
   0    2815.8   3551.4   0.056811550   6.64222   1.11904   1.82937  -1.42947
   1    7963.5   1255.7   0.868008606  35.88377   2.77209   4.82084  -2.22683
   2   14441.7    692.4   0.014424916   0.32883  -0.11638  -0.35692  -0.43346
   3   15671.3    638.1   0.027301210   0.57353   0.03734   0.47266   0.59053
   4   17188.5    581.8   0.016171481   0.30973   0.41486   0.24368  -0.27972
   5   17730.0    564.0   0.006074583   0.11279  -0.08052  -0.31885   0.06813
   6   18425.3    542.7   0.151889335   2.71387  -0.79885  -1.38986   0.37947
   7   18678.8    535.4   0.003755222   0.06619   0.05451  -0.12673  -0.21715
   8   21054.0    475.0   0.012003005   0.18769  -0.11021   0.12979  -0.39836
   9   21955.3    455.5   0.000513840   0.00770  -0.06261  -0.04871  -0.03758
  10   23320.0    428.8   0.010596643   0.14959   0.04305  -0.03488  -0.38279
  11   26590.2    376.1   0.019411860   0.24034  -0.09858  -0.13734   0.46017
  12   26844.7    372.5   0.014898441   0.18271  -0.07117  -0.21990   0.35956
  13   27822.5    359.4   0.004914828   0.05816  -0.13367  -0.15894   0.12258
  14   28311.4    353.2   0.254449751   2.95880  -0.92095  -1.35099   0.53430
  15   29190.9    342.6   0.007153756   0.08068  -0.10219  -0.26152   0.04297
  16   29578.6    338.1   0.000649836   0.00723   0.08176   0.01296  -0.01951
  17   30101.7    332.2   0.048742583   0.53308   0.04025   0.31826   0.65588
  18   30372.5    329.2   0.004045160   0.04385  -0.04215   0.18891   0.07990
  19   30983.2    322.8   0.012449235   0.13228   0.16730   0.31906  -0.04989
  20   31525.1    317.2   0.034108132   0.35619  -0.12186  -0.37717  -0.44618
  21   31749.8    315.0   0.015285784   0.15850  -0.18217  -0.22439  -0.27379
  22   32016.0    312.3   0.002128831   0.02189   0.00443   0.14783  -0.00403
  23   32207.7    310.5   0.000137474   0.00141   0.03611  -0.00836  -0.00558
  24   32477.8    307.9   0.050733666   0.51426  -0.20786  -0.05387   0.68422
  25   32765.3    305.2   0.030542689   0.30688  -0.05541  -0.40250  -0.37656
  26   32984.2    303.2   0.009988439   0.09969   0.13643   0.22260   0.17758
  27   34434.5    290.4   0.010252151   0.09802   0.11464  -0.12982  -0.26081
  28   34686.9    288.3   0.005005220   0.04750   0.04106   0.21300   0.02125
  29   34999.5    285.7   0.130110552   1.22384   0.31909   1.02061  -0.28353
  30   35263.7    283.6   0.013793861   0.12878   0.06507   0.34271  -0.08420
  31   35746.0    279.8   0.042597161   0.39231   0.36152   0.50511  -0.08052
  32   36376.3    274.9   0.004080681   0.03693  -0.07824  -0.09775   0.14578
  33   36428.5    274.5   0.004067502   0.03676  -0.11263  -0.14569   0.05337
  34   36743.9    272.2   0.033301739   0.29837   0.35302   0.29242  -0.29705
  35   37448.3    267.0   0.010165756   0.08937  -0.18864  -0.18405   0.14109
  36   37978.6    263.3   0.015010678   0.13012  -0.04677   0.28576   0.21511
  37   38743.6    258.1   0.003897831   0.03312   0.16168   0.04698  -0.06908
  38   38864.2    257.3   0.000956483   0.00810   0.04729   0.06751   0.03616
  39   39062.2    256.0   0.002075903   0.01750  -0.00566   0.08777   0.09879
  40   39148.2    255.4   0.068001037   0.57185   0.03351  -0.31462  -0.68683
  41   39861.8    250.9   0.027288622   0.22537  -0.06821  -0.08514   0.46203
  42   40200.9    248.8   0.030446803   0.24933   0.08223   0.48919  -0.05714

FINAL SINGLE POINT ENERGY     -5236.024718994115

DIPOLE MOMENT
-------------
                                X             Y             Z
Electronic contribution:     -9.47192     -18.20885      -5.19465
Nuclear contribution   :     13.26708      23.96233       1.24129
                        -----------------------------------------
Total Dipole Moment    :      3.79516       5.75349      -3.95336
                        -----------------------------------------
Magnitude (a.u.)       :      7.94575
Magnitude (Debye)      :     20.19649

Rotational constants in cm-1:     0.003323     0.000457     0.000410
Rotational constants in MHz :    99.620540    13.703797    12.277114

                             ****ORCA TERMINATED NORMALLY****
TOTAL RUN TIME: 0 days 0 hours 8 minutes 35 seconds 709 msec
