                         Program Version 4.2.0 -  RELEASE  -
|  1> # ORCA input file
|  2> # SCF done       -163.125478346686          0.000632327459
|  3> ! CAM-B3LYP def2-SVP def2/J RIJCOSX Grid4 TightSCF
|  4> %maxcore 5000
|  5> %tddft
|  6>     Mode sTDDFT
|  7>     Ethresh 5.0
|  8>     maxcore 5000
|  9> end
| 10>
| 11> %pal
| 12>   nprocs 6
| 13>   end
| 14> * xyz 0 1
| 15>    C       -9.43478        -5.32019         0.46070
| 16>    S       -8.54297        -6.39443        -0.51091
| 17>    C       -7.16521        -6.35667         0.54295
| 18>    C       -7.43405        -5.54946         1.65816
| 19>    C       -8.73731        -4.93865         1.58750
| 20>    C       -9.16651        -4.05322         2.59895
| 21>    C       -8.34398        -3.80669         3.66572
| 22>    C       -8.68057        -2.85204         4.64831
| 23>    N       -8.91094        -2.04632         5.43134
| 24>    C       -7.08568        -4.48522         3.78518
| 25>    C       -6.28130        -4.23358         4.91558
| 26>    N       -5.60356        -4.00704         5.81361
| 27>    C       -6.64865        -5.34405         2.80442
| 28>    C       -5.99600        -7.07018         0.17152
| 29>    C       -4.74298        -6.78137         0.60415
| 30>    C       -3.57734        -7.51154         0.28931
| 31>    S       -3.53165        -8.91808        -0.77523
| 32>    C       -1.83543        -9.15356        -0.51238
| 33>    C       -1.33028        -8.22622         0.33286
| 34>    C       -2.30902        -7.28314         0.78805
| 35>    C       -1.69070        -6.38033         1.69031
| 36>    C       -0.36235        -6.71659         1.84834
| 37>    C       -0.04101        -7.90053         0.98357
| 38>    O        1.02264        -8.46101         0.85852
| 39>    C        0.53061        -6.07357         2.73124
| 40>    C        1.83707        -6.40485         2.94106
| 41>    C        2.63544        -5.76407         3.90483
| 42>    S        1.98109        -4.52961         4.93273
| 43>    C        3.46304        -4.30944         5.81733
| 44>    C        4.45643        -5.16986         5.30897
| 45>    C        3.98538        -5.99071         4.23204
| 46>    C        4.84884        -6.90727         3.61406
| 47>    C        6.15139        -7.01270         4.04520
| 48>    C        7.03365        -7.93007         3.42996
| 49>    N        7.73874        -8.67727         2.92252
| 50>    C        6.62379        -6.19505         5.11541
| 51>    C        7.96611        -6.31711         5.54239
| 52>    N        9.05118        -6.40396         5.90002
| 53>    C        5.78878        -5.29190         5.73331
| 54>    C        3.48282        -3.37934         6.87297
| 55>    S        4.89213        -3.07131         7.89701
| 56>    C        4.04334        -1.90590         8.85728
| 57>    C        2.77137        -1.75004         8.43279
| 58>    C        2.43737        -2.57528         7.30823
| 59>    C        1.09000        -2.32521         6.95142
| 60>    C        0.54100        -1.38145         7.79404
| 61>    C        1.57119        -0.95735         8.79440
| 62>    O        1.44053        -0.15194         9.68447
| 63>    C       -0.77163        -0.85172         7.76581
| 64>    C       -1.67023        -1.19015         6.80013
| 65>    C       -2.99072        -0.73467         6.64678
| 66>    S       -3.80004         0.32207         7.75406
| 67>    C       -5.27143         0.32241         6.84484
| 68>    C       -5.13476        -0.43515         5.67776
| 69>    C       -3.84616        -1.05895         5.57859
| 70>    C       -3.55737        -1.89743         4.49556
| 71>    C       -4.49392        -2.07918         3.50554
| 72>    C       -4.23804        -3.00284         2.47727
| 73>    N       -4.01212        -3.80553         1.68747
| 74>    C       -5.73953        -1.37458         3.54838
| 75>    C       -6.63371        -1.53525         2.46983
| 76>    N       -7.35142        -1.69618         1.58908
| 77>    C       -6.05278        -0.57316         4.61951
| 78>    C       -6.40617         1.03150         7.36647
| 79>    C       -7.68437         0.72115         7.14785
| 80>    H      -10.41537        -5.00810         0.16193
| 81>    H      -10.12542        -3.56538         2.51720
| 82>    H       -5.71411        -5.86511         2.93557
| 83>    H       -6.13168        -7.87252        -0.54415
| 84>    H       -4.56854        -5.90633         1.21347
| 85>    H       -1.33949        -9.96837        -1.00276
| 86>    H       -2.18901        -5.55747         2.17215
| 87>    H        0.10805        -5.25711         3.30886
| 88>    H        2.27993        -7.20215         2.36299
| 89>    H        4.49736        -7.52659         2.80330
| 90>    H        6.16934        -4.68349         6.53790
| 91>    H        4.55861        -1.42480         9.66519
| 92>    H        0.57394        -2.80776         6.14341
| 93>    H       -1.03272        -0.14567         8.54267
| 94>    H       -1.34755        -1.88411         6.03712
| 95>    H       -2.61306        -2.41567         4.43161
| 96>    H       -6.99018        -0.04111         4.63626
| 97>    H       -6.15961         1.84725         8.03579
| 98>    H       -7.98974        -0.13390         6.57038
| 99>    H       -8.47161         1.30454         7.59310
|100> *
|101>
|102>                          ****END OF INPUT****

CARTESIAN COORDINATES (ANGSTROEM)
---------------------------------
  C     -9.434780   -5.320190    0.460700
  S     -8.542970   -6.394430   -0.510910
  C     -7.165210   -6.356670    0.542950
  C     -7.434050   -5.549460    1.658160
  C     -8.737310   -4.938650    1.587500
  C     -9.166510   -4.053220    2.598950
  C     -8.343980   -3.806690    3.665720
  C     -8.680570   -2.852040    4.648310
  N     -8.910940   -2.046320    5.431340
  C     -7.085680   -4.485220    3.785180
  C     -6.281300   -4.233580    4.915580
  N     -5.603560   -4.007040    5.813610
  C     -6.648650   -5.344050    2.804420
  C     -5.996000   -7.070180    0.171520
  C     -4.742980   -6.781370    0.604150
  C     -3.577340   -7.511540    0.289310
  S     -3.531650   -8.918080   -0.775230
  C     -1.835430   -9.153560   -0.512380
  C     -1.330280   -8.226220    0.332860
  C     -2.309020   -7.283140    0.788050
  C     -1.690700   -6.380330    1.690310
  C     -0.362350   -6.716590    1.848340
  C     -0.041010   -7.900530    0.983570
  O      1.022640   -8.461010    0.858520
  C      0.530610   -6.073570    2.731240
  C      1.837070   -6.404850    2.941060
  C      2.635440   -5.764070    3.904830
  S      1.981090   -4.529610    4.932730
  C      3.463040   -4.309440    5.817330
  C      4.456430   -5.169860    5.308970
  C      3.985380   -5.990710    4.232040
  C      4.848840   -6.907270    3.614060
  C      6.151390   -7.012700    4.045200
  C      7.033650   -7.930070    3.429960
  N      7.738740   -8.677270    2.922520
  C      6.623790   -6.195050    5.115410
  C      7.966110   -6.317110    5.542390
  N      9.051180   -6.403960    5.900020
  C      5.788780   -5.291900    5.733310
  C      3.482820   -3.379340    6.872970
  S      4.892130   -3.071310    7.897010
  C      4.043340   -1.905900    8.857280
  C      2.771370   -1.750040    8.432790
  C      2.437370   -2.575280    7.308230
  C      1.090000   -2.325210    6.951420
  C      0.541000   -1.381450    7.794040
  C      1.571190   -0.957350    8.794400
  O      1.440530   -0.151940    9.684470
  C     -0.771630   -0.851720    7.765810
  C     -1.670230   -1.190150    6.800130
  C     -2.990720   -0.734670    6.646780
  S     -3.800040    0.322070    7.754060
  C     -5.271430    0.322410    6.844840
  C     -5.134760   -0.435150    5.677760
  C     -3.846160   -1.058950    5.578590
  C     -3.557370   -1.897430    4.495560
  C     -4.493920   -2.079180    3.505540
  C     -4.238040   -3.002840    2.477270
  N     -4.012120   -3.805530    1.687470
  C     -5.739530   -1.374580    3.548380
  C     -6.633710   -1.535250    2.469830
  N     -7.351420   -1.696180    1.589080
  C     -6.052780   -0.573160    4.619510
  C     -6.406170    1.031500    7.366470
  C     -7.684370    0.721150    7.147850
  H    -10.415370   -5.008100    0.161930
  H    -10.125420   -3.565380    2.517200
  H     -5.714110   -5.865110    2.935570
  H     -6.131680   -7.872520   -0.544150
  H     -4.568540   -5.906330    1.213470
  H     -1.339490   -9.968370   -1.002760
  H     -2.189010   -5.557470    2.172150
  H      0.108050   -5.257110    3.308860
  H      2.279930   -7.202150    2.362990
  H      4.497360   -7.526590    2.803300
  H      6.169340   -4.683490    6.537900
  H      4.558610   -1.424800    9.665190
  H      0.573940   -2.807760    6.143410
  H     -1.032720   -0.145670    8.542670
  H     -1.347550   -1.884110    6.037120
  H     -2.613060   -2.415670    4.431610
  H     -6.990180   -0.041110    4.636260
  H     -6.159610    1.847250    8.035790
  H     -7.989740   -0.133900    6.570380
  H     -8.471610    1.304540    7.593100

 Total Charge           Charge          ....    0
 Multiplicity           Mult            ....    1
 Number of Electrons    NEL             ....  470
 Basis Dimension        Dim             .... 1030

ORBITAL ENERGIES
----------------

  NO   OCC          E(Eh)            E(eV)
   0   2.0000     -88.991980     -2421.5949
   1   2.0000     -88.989437     -2421.5257
   2   2.0000     -88.988579     -2421.5023
   3   2.0000     -88.977423     -2421.1988
   4   2.0000     -88.971574     -2421.0396
   5   2.0000     -19.225229      -523.1451
   6   2.0000     -19.224113      -523.1147
   7   2.0000     -14.432432      -392.7264
   8   2.0000     -14.423843      -392.4927
   9   2.0000     -14.418876      -392.3576
  10   2.0000     -14.418498      -392.3473
  11   2.0000     -14.408430      -392.0733
  12   2.0000     -14.406875      -392.0310
  13   2.0000     -10.374369      -282.3009
  14   2.0000     -10.372199      -282.2419
  15   2.0000     -10.337426      -281.2957
  16   2.0000     -10.336125      -281.2603
  17   2.0000     -10.335508      -281.2435
  18   2.0000     -10.335206      -281.2353
  19   2.0000     -10.333400      -281.1861
  20   2.0000     -10.332958      -281.1741
  21   2.0000     -10.332522      -281.1622
  22   2.0000     -10.332499      -281.1616
  23   2.0000     -10.330862      -281.1171
  24   2.0000     -10.330361      -281.1034
  25   2.0000     -10.329616      -281.0831
  26   2.0000     -10.329553      -281.0814
  27   2.0000     -10.327239      -281.0185
  28   2.0000     -10.326007      -280.9849
  29   2.0000     -10.325109      -280.9605
  30   2.0000     -10.324160      -280.9347
  31   2.0000     -10.323109      -280.9061
  32   2.0000     -10.321563      -280.8640
  33   2.0000     -10.319679      -280.8127
  34   2.0000     -10.318417      -280.7784
  35   2.0000     -10.318362      -280.7769
  36   2.0000     -10.318082      -280.7693
  37   2.0000     -10.317526      -280.7542
  38   2.0000     -10.317402      -280.7508
  39   2.0000     -10.315118      -280.6886
  40   2.0000     -10.314883      -280.6822
  41   2.0000     -10.314325      -280.6671
  42   2.0000     -10.311096      -280.5792
  43   2.0000     -10.310105      -280.5522
  44   2.0000     -10.308968      -280.5213
  45   2.0000     -10.308770      -280.5159
  46   2.0000     -10.308386      -280.5054
  47   2.0000     -10.306967      -280.4668
  48   2.0000     -10.306707      -280.4597
  49   2.0000     -10.306595      -280.4567
  50   2.0000     -10.305328      -280.4222
  51   2.0000     -10.303755      -280.3794
  52   2.0000     -10.303456      -280.3713
  53   2.0000     -10.299756      -280.2706
  54   2.0000     -10.298517      -280.2369
  55   2.0000     -10.297219      -280.2016
  56   2.0000     -10.297106      -280.1985
  57   2.0000     -10.296485      -280.1816
  58   2.0000     -10.295555      -280.1563
  59   2.0000     -10.295001      -280.1412
  60   2.0000     -10.294662      -280.1320
  61   2.0000     -10.294152      -280.1181
  62   2.0000     -10.288446      -279.9628
  63   2.0000     -10.285722      -279.8887
  64   2.0000     -10.278855      -279.7019
  65   2.0000      -8.087391      -220.0691
  66   2.0000      -8.084062      -219.9785
  67   2.0000      -8.083749      -219.9700
  68   2.0000      -8.072417      -219.6616
  69   2.0000      -8.067170      -219.5189
  70   2.0000      -6.056176      -164.7969
  71   2.0000      -6.053119      -164.7137
  72   2.0000      -6.052533      -164.6978
  73   2.0000      -6.051874      -164.6799
  74   2.0000      -6.050766      -164.6497
  75   2.0000      -6.049002      -164.6017
  76   2.0000      -6.048472      -164.5873
  77   2.0000      -6.046844      -164.5430
  78   2.0000      -6.046745      -164.5403
  79   2.0000      -6.042212      -164.4169
  80   2.0000      -6.037569      -164.2906
  81   2.0000      -6.036711      -164.2673
  82   2.0000      -6.034056      -164.1950
  83   2.0000      -6.032272      -164.1465
  84   2.0000      -6.029038      -164.0585
  85   2.0000      -1.137888       -30.9635
  86   2.0000      -1.136381       -30.9225
  87   2.0000      -1.031615       -28.0717
  88   2.0000      -1.030113       -28.0308
  89   2.0000      -1.026078       -27.9210
  90   2.0000      -1.016265       -27.6540
  91   2.0000      -1.011796       -27.5324
  92   2.0000      -1.011753       -27.5312
  93   2.0000      -1.009647       -27.4739
  94   2.0000      -1.003874       -27.3168
  95   2.0000      -1.001614       -27.2553
  96   2.0000      -0.999508       -27.1980
  97   2.0000      -0.988002       -26.8849
  98   2.0000      -0.969823       -26.3902
  99   2.0000      -0.966006       -26.2864
 100   2.0000      -0.963142       -26.2084
 101   2.0000      -0.953868       -25.9561
 102   2.0000      -0.949772       -25.8446
 103   2.0000      -0.925547       -25.1854
 104   2.0000      -0.921502       -25.0754
 105   2.0000      -0.916899       -24.9501
 106   2.0000      -0.892365       -24.2825
 107   2.0000      -0.891502       -24.2590
 108   2.0000      -0.888557       -24.1789
 109   2.0000      -0.882805       -24.0224
 110   2.0000      -0.879323       -23.9276
 111   2.0000      -0.877270       -23.8717
 112   2.0000      -0.872370       -23.7384
 113   2.0000      -0.861999       -23.4562
 114   2.0000      -0.854614       -23.2552
 115   2.0000      -0.835744       -22.7417
 116   2.0000      -0.830397       -22.5962
 117   2.0000      -0.809894       -22.0383
 118   2.0000      -0.800129       -21.7726
 119   2.0000      -0.797298       -21.6956
 120   2.0000      -0.770334       -20.9618
 121   2.0000      -0.765040       -20.8178
 122   2.0000      -0.763380       -20.7726
 123   2.0000      -0.759642       -20.6709
 124   2.0000      -0.757850       -20.6221
 125   2.0000      -0.749152       -20.3855
 126   2.0000      -0.744943       -20.2709
 127   2.0000      -0.743353       -20.2277
 128   2.0000      -0.736288       -20.0354
 129   2.0000      -0.731860       -19.9149
 130   2.0000      -0.714675       -19.4473
 131   2.0000      -0.691700       -18.8221
 132   2.0000      -0.689298       -18.7568
 133   2.0000      -0.684703       -18.6317
 134   2.0000      -0.676752       -18.4154
 135   2.0000      -0.666305       -18.1311
 136   2.0000      -0.657054       -17.8793
 137   2.0000      -0.648883       -17.6570
 138   2.0000      -0.641647       -17.4601
 139   2.0000      -0.639210       -17.3938
 140   2.0000      -0.634086       -17.2544
 141   2.0000      -0.630233       -17.1495
 142   2.0000      -0.623241       -16.9592
 143   2.0000      -0.617596       -16.8056
 144   2.0000      -0.614427       -16.7194
 145   2.0000      -0.613590       -16.6966
 146   2.0000      -0.611251       -16.6330
 147   2.0000      -0.606717       -16.5096
 148   2.0000      -0.603274       -16.4159
 149   2.0000      -0.595169       -16.1954
 150   2.0000      -0.581668       -15.8280
 151   2.0000      -0.578285       -15.7359
 152   2.0000      -0.567660       -15.4468
 153   2.0000      -0.565514       -15.3884
 154   2.0000      -0.563849       -15.3431
 155   2.0000      -0.555265       -15.1095
 156   2.0000      -0.554007       -15.0753
 157   2.0000      -0.553800       -15.0697
 158   2.0000      -0.552110       -15.0237
 159   2.0000      -0.545486       -14.8434
 160   2.0000      -0.544040       -14.8041
 161   2.0000      -0.540088       -14.6965
 162   2.0000      -0.535992       -14.5851
 163   2.0000      -0.534509       -14.5447
 164   2.0000      -0.533827       -14.5262
 165   2.0000      -0.530863       -14.4455
 166   2.0000      -0.527259       -14.3475
 167   2.0000      -0.526721       -14.3328
 168   2.0000      -0.525388       -14.2965
 169   2.0000      -0.521595       -14.1933
 170   2.0000      -0.515214       -14.0197
 171   2.0000      -0.510023       -13.8784
 172   2.0000      -0.509433       -13.8624
 173   2.0000      -0.502679       -13.6786
 174   2.0000      -0.501684       -13.6515
 175   2.0000      -0.497102       -13.5268
 176   2.0000      -0.494551       -13.4574
 177   2.0000      -0.493267       -13.4225
 178   2.0000      -0.491836       -13.3836
 179   2.0000      -0.490150       -13.3377
 180   2.0000      -0.485949       -13.2234
 181   2.0000      -0.482382       -13.1263
 182   2.0000      -0.479780       -13.0555
 183   2.0000      -0.476918       -12.9776
 184   2.0000      -0.471489       -12.8299
 185   2.0000      -0.471021       -12.8171
 186   2.0000      -0.469185       -12.7672
 187   2.0000      -0.468025       -12.7356
 188   2.0000      -0.466513       -12.6945
 189   2.0000      -0.463193       -12.6041
 190   2.0000      -0.462063       -12.5734
 191   2.0000      -0.458962       -12.4890
 192   2.0000      -0.453755       -12.3473
 193   2.0000      -0.451875       -12.2961
 194   2.0000      -0.451587       -12.2883
 195   2.0000      -0.448419       -12.2021
 196   2.0000      -0.446226       -12.1424
 197   2.0000      -0.443539       -12.0693
 198   2.0000      -0.441994       -12.0273
 199   2.0000      -0.439912       -11.9706
 200   2.0000      -0.436440       -11.8761
 201   2.0000      -0.436060       -11.8658
 202   2.0000      -0.434967       -11.8361
 203   2.0000      -0.433386       -11.7930
 204   2.0000      -0.432365       -11.7652
 205   2.0000      -0.431245       -11.7348
 206   2.0000      -0.429536       -11.6883
 207   2.0000      -0.428178       -11.6513
 208   2.0000      -0.425460       -11.5773
 209   2.0000      -0.422839       -11.5060
 210   2.0000      -0.421752       -11.4765
 211   2.0000      -0.420470       -11.4416
 212   2.0000      -0.414324       -11.2743
 213   2.0000      -0.413515       -11.2523
 214   2.0000      -0.409387       -11.1400
 215   2.0000      -0.409180       -11.1344
 216   2.0000      -0.404886       -11.0175
 217   2.0000      -0.402874       -10.9628
 218   2.0000      -0.398703       -10.8493
 219   2.0000      -0.377034       -10.2596
 220   2.0000      -0.365417        -9.9435
 221   2.0000      -0.360751        -9.8165
 222   2.0000      -0.356750        -9.7077
 223   2.0000      -0.342013        -9.3066
 224   2.0000      -0.341104        -9.2819
 225   2.0000      -0.338914        -9.2223
 226   2.0000      -0.338069        -9.1993
 227   2.0000      -0.335289        -9.1237
 228   2.0000      -0.335029        -9.1166
 229   2.0000      -0.324509        -8.8303
 230   2.0000      -0.314919        -8.5694
 231   2.0000      -0.301429        -8.2023
 232   2.0000      -0.271031        -7.3751
 233   2.0000      -0.254057        -6.9132
 234   2.0000      -0.232091        -6.3155
 235   0.0000      -0.112854        -3.0709
 236   0.0000      -0.086064        -2.3419
 237   0.0000      -0.077260        -2.1023
 238   0.0000      -0.057020        -1.5516
 239   0.0000      -0.053391        -1.4528

MULLIKEN ATOMIC CHARGES
-----------------------
   0 C :   -0.119376
   1 S :    0.191738
   2 C :   -0.147783
   3 C :    0.146945
   4 C :    0.108520
   5 C :    0.012523
   6 C :   -0.078459
   7 C :   -0.159468
   8 N :    0.168427
   9 C :   -0.112803
  10 C :   -0.180744
  11 N :    0.160514
  12 C :   -0.017518
  13 C :    0.032052
  14 C :   -0.007644
  15 C :   -0.101897
  16 S :    0.113463
  17 C :   -0.112084
  18 C :    0.020287
  19 C :    0.095719
  20 C :   -0.000758
  21 C :   -0.002468
  22 C :    0.171395
  23 O :   -0.135042
  24 C :   -0.039623
  25 C :   -0.001959
  26 C :   -0.048773
  27 S :    0.100312
  28 C :   -0.096687
  29 C :    0.105922
  30 C :    0.119592
  31 C :   -0.051160
  32 C :   -0.069189
  33 C :   -0.178216
  34 N :    0.175169
  35 C :   -0.075271
  36 C :   -0.178004
  37 N :    0.177056
  38 C :   -0.061547
  39 C :   -0.086391
  40 S :    0.105511
  41 C :   -0.105210
  42 C :    0.019749
  43 C :    0.063056
  44 C :   -0.043930
  45 C :   -0.045353
  46 C :    0.161296
  47 O :   -0.121461
  48 C :    0.006467
  49 C :    0.001954
  50 C :   -0.071099
  51 S :    0.198779
  52 C :   -0.135043
  53 C :    0.136089
  54 C :    0.135739
  55 C :   -0.044003
  56 C :   -0.072663
  57 C :   -0.122687
  58 N :    0.133276
  59 C :   -0.104165
  60 C :   -0.185077
  61 N :    0.165098
  62 C :   -0.011299
  63 C :    0.002461
  64 C :   -0.018859
  65 H :    0.030598
  66 H :   -0.008459
  67 H :   -0.007499
  68 H :   -0.005862
  69 H :   -0.010932
  70 H :    0.039165
  71 H :   -0.016295
  72 H :   -0.020276
  73 H :    0.018888
  74 H :    0.005672
  75 H :    0.005350
  76 H :    0.042336
  77 H :    0.004306
  78 H :   -0.003469
  79 H :   -0.025357
  80 H :   -0.016410
  81 H :   -0.000461
  82 H :    0.003026
  83 H :    0.045163
  84 H :    0.035121
Sum of atomic charges:   -0.0000000

LOEWDIN ATOMIC CHARGES
----------------------
   0 C :   -0.182792
   1 S :    0.518187
   2 C :   -0.163454
   3 C :   -0.043120
   4 C :   -0.043193
   5 C :    0.053099
   6 C :   -0.066280
   7 C :   -0.008135
   8 N :   -0.056195
   9 C :   -0.073420
  10 C :   -0.028603
  11 N :   -0.058276
  12 C :    0.045613
  13 C :   -0.049878
  14 C :   -0.024101
  15 C :   -0.151125
  16 S :    0.422688
  17 C :   -0.116426
  18 C :   -0.097195
  19 C :   -0.052590
  20 C :    0.040645
  21 C :   -0.065660
  22 C :    0.094343
  23 O :   -0.126212
  24 C :   -0.018304
  25 C :   -0.036204
  26 C :   -0.153055
  27 S :    0.499387
  28 C :   -0.177792
  29 C :   -0.044340
  30 C :   -0.043087
  31 C :    0.039415
  32 C :   -0.055853
  33 C :   -0.032613
  34 N :   -0.035113
  35 C :   -0.050171
  36 C :   -0.032080
  37 N :   -0.034757
  38 C :    0.021824
  39 C :   -0.176665
  40 S :    0.435783
  41 C :   -0.119158
  42 C :   -0.094311
  43 C :   -0.061513
  44 C :    0.005881
  45 C :   -0.056263
  46 C :    0.087473
  47 O :   -0.120282
  48 C :   -0.017582
  49 C :   -0.025775
  50 C :   -0.169461
  51 S :    0.513713
  52 C :   -0.150401
  53 C :   -0.041380
  54 C :   -0.033031
  55 C :    0.045724
  56 C :   -0.068000
  57 C :    0.003301
  58 N :   -0.066222
  59 C :   -0.072865
  60 C :   -0.027386
  61 N :   -0.054827
  62 C :    0.055800
  63 C :   -0.056983
  64 C :   -0.008353
  65 H :    0.029998
  66 H :    0.045233
  67 H :    0.041471
  68 H :    0.025435
  69 H :    0.032798
  70 H :    0.035711
  71 H :    0.029577
  72 H :    0.019034
  73 H :    0.039199
  74 H :    0.047822
  75 H :    0.027815
  76 H :    0.037494
  77 H :    0.011089
  78 H :    0.032034
  79 H :    0.030229
  80 H :    0.037632
  81 H :    0.045804
  82 H :    0.031628
  83 H :    0.025599
  84 H :    0.032004

  Mayer bond orders larger than 0.100000
B(  0-C ,  1-S ) :   1.2082 B(  0-C ,  4-C ) :   1.4097 B(  0-C , 65-H ) :   0.9698
B(  1-S ,  2-C ) :   1.1908 B(  2-C ,  3-C ) :   1.3324 B(  2-C , 13-C ) :   1.1384
B(  3-C ,  4-C ) :   1.1938 B(  3-C , 12-C ) :   1.1989 B(  4-C ,  5-C ) :   1.1600
B(  5-C ,  6-C ) :   1.5708 B(  5-C , 66-H ) :   1.0033 B(  6-C ,  7-C ) :   1.0916
B(  6-C ,  9-C ) :   1.2189 B(  7-C ,  8-N ) :   2.9870 B(  9-C , 10-C ) :   1.0976
B(  9-C , 12-C ) :   1.5615 B( 10-C , 11-N ) :   3.0070 B( 12-C , 67-H ) :   0.9892
B( 13-C , 14-C ) :   1.6473 B( 13-C , 68-H ) :   0.9536 B( 14-C , 15-C ) :   1.1949
B( 14-C , 69-H ) :   0.9415 B( 15-C , 16-S ) :   1.0732 B( 15-C , 19-C ) :   1.4435
B( 16-S , 17-C ) :   1.1434 B( 17-C , 18-C ) :   1.6057 B( 17-C , 70-H ) :   0.9682
B( 18-C , 19-C ) :   1.1922 B( 18-C , 22-C ) :   0.9216 B( 19-C , 20-C ) :   1.0816
B( 20-C , 21-C ) :   1.5305 B( 20-C , 71-H ) :   1.0101 B( 21-C , 22-C ) :   0.9401
B( 21-C , 24-C ) :   1.1632 B( 22-C , 23-O ) :   2.2104 B( 24-C , 25-C ) :   1.5846
B( 24-C , 72-H ) :   0.9718 B( 25-C , 26-C ) :   1.1873 B( 25-C , 73-H ) :   0.9626
B( 26-C , 27-S ) :   1.1284 B( 26-C , 30-C ) :   1.2905 B( 27-S , 28-C ) :   1.1437
B( 28-C , 29-C ) :   1.3185 B( 28-C , 39-C ) :   1.2354 B( 29-C , 30-C ) :   1.1936
B( 29-C , 38-C ) :   1.1896 B( 30-C , 31-C ) :   1.2120 B( 31-C , 32-C ) :   1.5481
B( 31-C , 74-H ) :   1.0006 B( 32-C , 33-C ) :   1.0798 B( 32-C , 35-C ) :   1.2440
B( 33-C , 34-N ) :   3.0435 B( 35-C , 36-C ) :   1.0802 B( 35-C , 38-C ) :   1.5767
B( 36-C , 37-N ) :   3.0436 B( 38-C , 75-H ) :   0.9832 B( 39-C , 40-S ) :   1.0826
B( 39-C , 43-C ) :   1.4367 B( 40-S , 41-C ) :   1.1306 B( 41-C , 42-C ) :   1.6165
B( 41-C , 76-H ) :   0.9682 B( 42-C , 43-C ) :   1.1971 B( 42-C , 46-C ) :   0.8996
B( 43-C , 44-C ) :   1.0815 B( 44-C , 45-C ) :   1.5730 B( 44-C , 77-H ) :   0.9849
B( 45-C , 46-C ) :   0.9383 B( 45-C , 48-C ) :   1.1498 B( 46-C , 47-O ) :   2.2786
B( 48-C , 49-C ) :   1.5860 B( 48-C , 78-H ) :   0.9863 B( 49-C , 50-C ) :   1.2044
B( 49-C , 79-H ) :   0.9614 B( 50-C , 51-S ) :   1.1394 B( 50-C , 54-C ) :   1.3058
B( 51-S , 52-C ) :   1.1806 B( 52-C , 53-C ) :   1.3616 B( 52-C , 63-C ) :   1.0877
B( 53-C , 54-C ) :   1.1876 B( 53-C , 62-C ) :   1.1861 B( 54-C , 55-C ) :   1.2136
B( 55-C , 56-C ) :   1.5640 B( 55-C , 80-H ) :   0.9889 B( 56-C , 57-C ) :   1.1007
B( 56-C , 59-C ) :   1.2193 B( 57-C , 58-N ) :   2.9060 B( 58-N , 69-H ) :   0.1008
B( 59-C , 60-C ) :   1.0977 B( 59-C , 62-C ) :   1.5527 B( 60-C , 61-N ) :   3.0042
B( 62-C , 81-H ) :   0.9917 B( 63-C , 64-C ) :   1.9153 B( 63-C , 82-H ) :   0.9503
B( 64-C , 83-H ) :   0.9430 B( 64-C , 84-H ) :   0.9503

-----------------------------------------------------------------------------
         ABSORPTION SPECTRUM VIA TRANSITION ELECTRIC DIPOLE MOMENTS
-----------------------------------------------------------------------------
State   Energy  Wavelength   fosc         T2         TX        TY        TZ
        (cm-1)    (nm)                  (au**2)     (au)      (au)      (au)
-----------------------------------------------------------------------------
   0   11146.3    897.2   0.273250017   8.07059   0.18058  -2.23349  -1.74628
   1   16633.0    601.2   0.162946964   3.22515  -1.71631   0.20377  -0.48776
   2   18086.1    552.9   1.800142143  32.76697  -5.55793   0.95838  -0.97870
   3   19648.7    508.9   0.049361538   0.82705  -0.38884  -0.44555  -0.69090
   4   20867.5    479.2   0.230701013   3.63960  -0.07892   1.16126   1.51157
   5   22176.2    450.9   0.045548083   0.67617   0.19673  -0.50392  -0.61930
   6   22646.8    441.6   0.032599468   0.47389   0.65383  -0.13585   0.16717
   7   23133.6    432.3   0.074679731   1.06276   0.76417  -0.52244  -0.45371
   8   24180.5    413.6   0.070694370   0.96249  -0.84031  -0.18998  -0.46934
   9   25952.1    385.3   0.014679864   0.18622   0.39098  -0.11759   0.13973
  10   26133.2    382.7   0.007742410   0.09753   0.02709  -0.16675  -0.26267
  11   26858.1    372.3   0.044925650   0.55067  -0.64789   0.16163   0.32371
  12   27538.3    363.1   0.047607192   0.56913   0.72180  -0.14597  -0.16381
  13   28076.0    356.2   0.224097211   2.62771  -1.54814   0.35542  -0.32350
  14   28092.3    356.0   0.054417443   0.63771   0.76036  -0.17552   0.16959
  15   28498.4    350.9   0.078842684   0.91079  -0.90746   0.15767  -0.24988
  16   28638.7    349.2   0.000322907   0.00371   0.04691  -0.00626   0.03836
  17   28949.8    345.4   0.238591917   2.71323   0.97379  -0.95331  -0.92529
  18   29579.0    338.1   0.050112376   0.55775   0.72228  -0.09375   0.16513
  19   29804.6    335.5   0.003533812   0.03903  -0.02202   0.18335   0.07021
  20   30653.5    326.2   0.048905654   0.52524   0.00324  -0.50313  -0.52162
  21   31170.5    320.8   0.026964480   0.28479   0.49362  -0.20017   0.03264
  22   31776.4    314.7   0.076706609   0.79470   0.69230   0.18494   0.53030
  23   31917.4    313.3   0.116178107   1.19832   0.99338  -0.45663  -0.05481
  24   32634.0    306.4   0.255300439   2.57547   1.38973   0.18404   0.78118
  25   32710.0    305.7   0.254855097   2.56501   1.34484   0.05792   0.86779
  26   32930.0    303.7   0.128262636   1.28228  -1.03412   0.42719   0.17430
  27   33645.7    297.2   0.135579273   1.32660  -0.29127   0.80532   0.77021
  28   34150.8    292.8   0.093478840   0.90113   0.47994  -0.61143  -0.54492
  29   34210.3    292.3   0.114644476   1.10324  -0.18684  -0.54350  -0.87917
  30   34682.6    288.3   0.047418070   0.45010   0.34623  -0.26260  -0.51114
  31   34866.3    286.8   0.113487522   1.07156  -0.99929   0.19274  -0.18928
  32   35220.1    283.9   0.129115791   1.20688   0.44290  -0.67943  -0.74101
  33   35529.8    281.5   0.044862350   0.41569   0.57002   0.14281   0.26527
  34   35771.0    279.6   0.207565717   1.91030  -0.17609   0.75490   1.14430
  35   35925.0    278.4   0.004865936   0.04459  -0.08818   0.13110   0.14010
  36   36006.7    277.7   0.074446906   0.68067   0.79093  -0.23422  -0.01539
  37   36221.1    276.1   0.057817949   0.52550   0.57912  -0.42442  -0.09997
  38   36681.4    272.6   0.153669467   1.37917  -0.84763  -0.30829  -0.75209
  39   36775.9    271.9   0.034442864   0.30833   0.10527   0.23307   0.49287
  40   37185.0    268.9   0.066765428   0.59110  -0.43616  -0.22800  -0.59066
  41   37687.4    265.3   0.017576615   0.15354  -0.27894  -0.21401  -0.17300
  42   38133.8    262.2   0.021843952   0.18858  -0.40586   0.08955   0.12584
  43   38242.0    261.5   0.032572736   0.28041   0.29399   0.19167   0.39654
  44   38799.3    257.7   0.012635365   0.10721  -0.09388  -0.20855  -0.23432
  45   39331.0    254.3   0.023903408   0.20008  -0.10423   0.22610   0.37161
  46   39679.9    252.0   0.056266216   0.46682  -0.41010   0.37590   0.39666
  47   39744.0    251.6   0.304550930   2.52269  -0.69490  -0.52139  -1.32964
  48   39800.1    251.3   0.007944154   0.06571  -0.11724   0.17095   0.15080
  49   39984.9    250.1   0.000209750   0.00173  -0.00892   0.03092  -0.02630
  50   40103.3    249.4   0.079827808   0.65532   0.03642  -0.33257  -0.73715

FINAL SINGLE POINT ENERGY     -4459.560986789596

DIPOLE MOMENT
-------------
                                X             Y             Z
Electronic contribution:     16.80823      -8.58103      -2.62178
Nuclear contribution   :    -21.41420       9.61181       1.89269
                        -----------------------------------------
Total Dipole Moment    :     -4.60597       1.03078      -0.72909
                        -----------------------------------------
Magnitude (a.u.)       :      4.77588
Magnitude (Debye)      :     12.13933

Rotational constants in cm-1:     0.001270     0.000656     0.000442
Rotational constants in MHz :    38.084463    19.666996    13.256995

                             ****ORCA TERMINATED NORMALLY****
TOTAL RUN TIME: 0 days 0 hours 8 minutes 23 seconds 874 msec
