                         Program Version 4.2.0 -  RELEASE  -
|  1> # ORCA input file
|  2> # SCF done       -170.253881447741          0.000860074406
|  3> ! CAM-B3LYP def2-SVP def2/J RIJCOSX Grid4 TightSCF
|  4> %maxcore 5000
|  5> %tddft
|  6>     Mode sTDDFT
|  7>     Ethresh 5.0
|  8>     maxcore 5000
|  9> end
| 10>
| 11> %pal
| 12>   nprocs 6
| 13>   end
| 14> * xyz 0 1
| 15>    C        0.65042        -6.73156         7.35924
| 16>    S       -0.33786        -7.77510         6.44708
| 17>    C       -0.30918        -6.73910         5.04698
| 18>    C        0.44133        -5.58155         5.32278
| 19>    C        0.99866        -5.60033         6.65225
| 20>    C        1.79615        -4.52881         7.10882
| 21>    C        2.02066        -3.45555         6.28702
| 22>    C        2.82087        -2.37527         6.72476
| 23>    N        3.47587        -1.51095         7.09519
| 24>    C        1.43086        -3.40979         4.98339
| 25>    C        1.64220        -2.28272         4.16039
| 26>    N        1.80051        -1.38524         3.46439
| 27>    C        0.65593        -4.45008         4.52127
| 28>    C       -0.99532        -7.19651         3.90277
| 29>    C       -0.93429        -6.71073         2.62947
| 30>    C       -1.67186        -7.23362         1.55480
| 31>    S       -2.78478        -8.55290         1.74934
| 32>    C       -3.23124        -8.54804         0.07018
| 33>    C       -2.52727        -7.54420        -0.62467
| 34>    C       -1.64677        -6.80245         0.21094
| 35>    C       -0.88465        -5.76677        -0.34609
| 36>    C       -0.97728        -5.46495        -1.68734
| 37>    C       -0.18494        -4.37138        -2.24725
| 38>    C        1.02673        -4.02690        -1.83168
| 39>    C       -1.85899        -6.21024        -2.52317
| 40>    C       -1.95422        -5.90038        -3.98564
| 41>    C       -2.60900        -7.22608        -1.99021
| 42>    C       -4.17471        -9.44144        -0.45407
| 43>    C       -4.82073       -10.41684         0.24972
| 44>    C       -5.77145       -11.27551        -0.33422
| 45>    O       -6.11846       -11.15900        -1.63456
| 46>    C       -7.05107       -12.10984        -1.91426
| 47>    C       -7.31066       -12.85756        -0.77701
| 48>    C       -6.49774       -12.33017         0.24106
| 49>    C       -6.41037       -12.75358         1.57196
| 50>    N       -6.33902       -13.10029         2.66354
| 51>    C       -7.60296       -12.20282        -3.21222
| 52>    C       -7.25865       -11.36129        -4.22674
| 53>    C       -7.78374       -11.39826        -5.52820
| 54>    S       -8.96517       -12.56231        -6.02224
| 55>    C       -9.09237       -11.90915        -7.63365
| 56>    C       -8.19761       -10.82978        -7.79382
| 57>    C       -7.47132       -10.53788        -6.60205
| 58>    C       -6.54463        -9.48733        -6.59251
| 59>    C       -6.30910        -8.73926        -7.72430
| 60>    C       -5.33091        -7.65373        -7.69656
| 61>    C       -5.07540        -6.89316        -6.63997
| 62>    C       -7.00013        -9.05533        -8.92874
| 63>    C       -6.74095        -8.26648       -10.17543
| 64>    C       -7.91586       -10.07613        -8.94682
| 65>    C      -10.03213       -12.52216        -8.47899
| 66>    C      -10.50540       -12.08772        -9.68393
| 67>    C      -11.44647       -12.79484       -10.45236
| 68>    S      -12.06312       -14.34687        -9.97513
| 69>    C      -13.07727       -14.49122       -11.37257
| 70>    C      -12.94472       -13.36789       -12.19329
| 71>    C      -12.01888       -12.40134       -11.67610
| 72>    C      -11.77652       -11.21814       -12.38738
| 73>    C      -12.42543       -10.98897       -13.57955
| 74>    C      -12.17813        -9.79899       -14.29716
| 75>    N      -11.95511        -8.82509       -14.85973
| 76>    C      -13.34831       -11.95130       -14.09660
| 77>    C      -14.00394       -11.69597       -15.32225
| 78>    N      -14.54605       -11.50989       -16.31467
| 79>    C      -13.60046       -13.11581       -13.41346
| 80>    C      -13.90460       -15.63612       -11.58411
| 81>    C      -13.98386       -16.68375       -10.76077
| 82>    H        0.93013        -6.98848         8.36115
| 83>    H        2.21848        -4.56005         8.10191
| 84>    H        0.20167        -4.36314         3.54797
| 85>    H       -1.61843        -8.06814         4.06844
| 86>    H       -0.27414        -5.89349         2.38642
| 87>    H       -0.23145        -5.18222         0.28251
| 88>    H       -0.63992        -3.82537        -3.06236
| 89>    H        1.54153        -4.56264        -1.05146
| 90>    H        1.56234        -3.20520        -2.27456
| 91>    H       -0.96572        -5.89294        -4.44219
| 92>    H       -2.40434        -4.91931        -4.14005
| 93>    H       -2.56743        -6.64078        -4.49385
| 94>    H       -3.27078        -7.79275        -2.62810
| 95>    H       -4.40286        -9.34046        -1.50624
| 96>    H       -4.61962       -10.56668         1.30088
| 97>    H       -7.99795       -13.67438        -0.69237
| 98>    H       -8.33366       -12.98263        -3.36917
| 99>    H       -6.52584       -10.59317        -4.02289
|100>    H       -5.98698        -9.27914        -5.69309
|101>    H       -4.79603        -7.47229        -8.61866
|102>    H       -5.60937        -7.00166        -5.71034
|103>    H       -4.33889        -6.10865        -6.67633
|104>    H       -5.71817        -8.41792       -10.52081
|105>    H       -6.88055        -7.20216        -9.99215
|106>    H       -7.41520        -8.57235       -10.97142
|107>    H       -8.40744       -10.31483        -9.87540
|108>    H      -10.45591       -13.44201        -8.09034
|109>    H      -10.18571       -11.13965       -10.08491
|110>    H      -11.08544       -10.47977       -12.00969
|111>    H      -14.30035       -13.83102       -13.81789
|112>    H      -14.49713       -15.61991       -12.48893
|113>    H      -13.40757       -16.73128        -9.85160
|114>    H      -14.62589       -17.51895       -10.97391
|115> *
|116>
|117>                          ****END OF INPUT****

CARTESIAN COORDINATES (ANGSTROEM)
---------------------------------
  C      0.650420   -6.731560    7.359240
  S     -0.337860   -7.775100    6.447080
  C     -0.309180   -6.739100    5.046980
  C      0.441330   -5.581550    5.322780
  C      0.998660   -5.600330    6.652250
  C      1.796150   -4.528810    7.108820
  C      2.020660   -3.455550    6.287020
  C      2.820870   -2.375270    6.724760
  N      3.475870   -1.510950    7.095190
  C      1.430860   -3.409790    4.983390
  C      1.642200   -2.282720    4.160390
  N      1.800510   -1.385240    3.464390
  C      0.655930   -4.450080    4.521270
  C     -0.995320   -7.196510    3.902770
  C     -0.934290   -6.710730    2.629470
  C     -1.671860   -7.233620    1.554800
  S     -2.784780   -8.552900    1.749340
  C     -3.231240   -8.548040    0.070180
  C     -2.527270   -7.544200   -0.624670
  C     -1.646770   -6.802450    0.210940
  C     -0.884650   -5.766770   -0.346090
  C     -0.977280   -5.464950   -1.687340
  C     -0.184940   -4.371380   -2.247250
  C      1.026730   -4.026900   -1.831680
  C     -1.858990   -6.210240   -2.523170
  C     -1.954220   -5.900380   -3.985640
  C     -2.609000   -7.226080   -1.990210
  C     -4.174710   -9.441440   -0.454070
  C     -4.820730  -10.416840    0.249720
  C     -5.771450  -11.275510   -0.334220
  O     -6.118460  -11.159000   -1.634560
  C     -7.051070  -12.109840   -1.914260
  C     -7.310660  -12.857560   -0.777010
  C     -6.497740  -12.330170    0.241060
  C     -6.410370  -12.753580    1.571960
  N     -6.339020  -13.100290    2.663540
  C     -7.602960  -12.202820   -3.212220
  C     -7.258650  -11.361290   -4.226740
  C     -7.783740  -11.398260   -5.528200
  S     -8.965170  -12.562310   -6.022240
  C     -9.092370  -11.909150   -7.633650
  C     -8.197610  -10.829780   -7.793820
  C     -7.471320  -10.537880   -6.602050
  C     -6.544630   -9.487330   -6.592510
  C     -6.309100   -8.739260   -7.724300
  C     -5.330910   -7.653730   -7.696560
  C     -5.075400   -6.893160   -6.639970
  C     -7.000130   -9.055330   -8.928740
  C     -6.740950   -8.266480  -10.175430
  C     -7.915860  -10.076130   -8.946820
  C    -10.032130  -12.522160   -8.478990
  C    -10.505400  -12.087720   -9.683930
  C    -11.446470  -12.794840  -10.452360
  S    -12.063120  -14.346870   -9.975130
  C    -13.077270  -14.491220  -11.372570
  C    -12.944720  -13.367890  -12.193290
  C    -12.018880  -12.401340  -11.676100
  C    -11.776520  -11.218140  -12.387380
  C    -12.425430  -10.988970  -13.579550
  C    -12.178130   -9.798990  -14.297160
  N    -11.955110   -8.825090  -14.859730
  C    -13.348310  -11.951300  -14.096600
  C    -14.003940  -11.695970  -15.322250
  N    -14.546050  -11.509890  -16.314670
  C    -13.600460  -13.115810  -13.413460
  C    -13.904600  -15.636120  -11.584110
  C    -13.983860  -16.683750  -10.760770
  H      0.930130   -6.988480    8.361150
  H      2.218480   -4.560050    8.101910
  H      0.201670   -4.363140    3.547970
  H     -1.618430   -8.068140    4.068440
  H     -0.274140   -5.893490    2.386420
  H     -0.231450   -5.182220    0.282510
  H     -0.639920   -3.825370   -3.062360
  H      1.541530   -4.562640   -1.051460
  H      1.562340   -3.205200   -2.274560
  H     -0.965720   -5.892940   -4.442190
  H     -2.404340   -4.919310   -4.140050
  H     -2.567430   -6.640780   -4.493850
  H     -3.270780   -7.792750   -2.628100
  H     -4.402860   -9.340460   -1.506240
  H     -4.619620  -10.566680    1.300880
  H     -7.997950  -13.674380   -0.692370
  H     -8.333660  -12.982630   -3.369170
  H     -6.525840  -10.593170   -4.022890
  H     -5.986980   -9.279140   -5.693090
  H     -4.796030   -7.472290   -8.618660
  H     -5.609370   -7.001660   -5.710340
  H     -4.338890   -6.108650   -6.676330
  H     -5.718170   -8.417920  -10.520810
  H     -6.880550   -7.202160   -9.992150
  H     -7.415200   -8.572350  -10.971420
  H     -8.407440  -10.314830   -9.875400
  H    -10.455910  -13.442010   -8.090340
  H    -10.185710  -11.139650  -10.084910
  H    -11.085440  -10.479770  -12.009690
  H    -14.300350  -13.831020  -13.817890
  H    -14.497130  -15.619910  -12.488930
  H    -13.407570  -16.731280   -9.851600
  H    -14.625890  -17.518950  -10.973910

 Total Charge           Charge          ....    0
 Multiplicity           Mult            ....    1
 Number of Electrons    NEL             ....  482
 Basis Dimension        Dim             .... 1119

ORBITAL ENERGIES
----------------

  NO   OCC          E(Eh)            E(eV)
   0   2.0000     -88.991776     -2421.5893
   1   2.0000     -88.982420     -2421.3348
   2   2.0000     -88.975977     -2421.1594
   3   2.0000     -88.975682     -2421.1514
   4   2.0000     -19.310987      -525.4787
   5   2.0000     -14.410073      -392.1180
   6   2.0000     -14.409902      -392.1134
   7   2.0000     -14.407881      -392.0584
   8   2.0000     -14.407030      -392.0352
   9   2.0000     -14.406516      -392.0212
  10   2.0000     -10.361679      -281.9556
  11   2.0000     -10.350486      -281.6510
  12   2.0000     -10.332895      -281.1724
  13   2.0000     -10.331949      -281.1466
  14   2.0000     -10.331394      -281.1315
  15   2.0000     -10.329340      -281.0756
  16   2.0000     -10.327760      -281.0326
  17   2.0000     -10.327286      -281.0197
  18   2.0000     -10.321276      -280.8562
  19   2.0000     -10.320715      -280.8409
  20   2.0000     -10.320087      -280.8238
  21   2.0000     -10.319271      -280.8017
  22   2.0000     -10.318013      -280.7674
  23   2.0000     -10.317083      -280.7421
  24   2.0000     -10.316940      -280.7382
  25   2.0000     -10.316484      -280.7258
  26   2.0000     -10.314778      -280.6794
  27   2.0000     -10.314235      -280.6646
  28   2.0000     -10.312982      -280.6305
  29   2.0000     -10.310447      -280.5615
  30   2.0000     -10.310237      -280.5558
  31   2.0000     -10.310063      -280.5511
  32   2.0000     -10.308716      -280.5144
  33   2.0000     -10.308533      -280.5095
  34   2.0000     -10.306042      -280.4417
  35   2.0000     -10.305646      -280.4309
  36   2.0000     -10.305513      -280.4273
  37   2.0000     -10.305016      -280.4137
  38   2.0000     -10.304821      -280.4084
  39   2.0000     -10.304197      -280.3915
  40   2.0000     -10.304126      -280.3895
  41   2.0000     -10.303603      -280.3753
  42   2.0000     -10.299489      -280.2634
  43   2.0000     -10.298806      -280.2447
  44   2.0000     -10.298057      -280.2244
  45   2.0000     -10.297333      -280.2047
  46   2.0000     -10.297214      -280.2014
  47   2.0000     -10.296371      -280.1785
  48   2.0000     -10.295307      -280.1495
  49   2.0000     -10.294574      -280.1296
  50   2.0000     -10.294159      -280.1183
  51   2.0000     -10.294021      -280.1146
  52   2.0000     -10.292523      -280.0738
  53   2.0000     -10.292096      -280.0622
  54   2.0000     -10.290283      -280.0128
  55   2.0000     -10.289393      -279.9886
  56   2.0000     -10.286913      -279.9211
  57   2.0000     -10.285497      -279.8826
  58   2.0000     -10.285497      -279.8826
  59   2.0000     -10.282623      -279.8044
  60   2.0000     -10.282184      -279.7925
  61   2.0000     -10.281845      -279.7832
  62   2.0000     -10.280194      -279.7383
  63   2.0000     -10.277560      -279.6666
  64   2.0000     -10.275827      -279.6195
  65   2.0000     -10.274937      -279.5953
  66   2.0000     -10.272388      -279.5259
  67   2.0000      -8.087091      -220.0609
  68   2.0000      -8.077534      -219.8009
  69   2.0000      -8.070993      -219.6229
  70   2.0000      -8.070894      -219.6202
  71   2.0000      -6.055914      -164.7898
  72   2.0000      -6.051625      -164.6731
  73   2.0000      -6.050390      -164.6395
  74   2.0000      -6.046421      -164.5315
  75   2.0000      -6.042459      -164.4237
  76   2.0000      -6.040366      -164.3667
  77   2.0000      -6.039895      -164.3539
  78   2.0000      -6.039858      -164.3529
  79   2.0000      -6.035988      -164.2476
  80   2.0000      -6.035960      -164.2468
  81   2.0000      -6.033733      -164.1862
  82   2.0000      -6.033565      -164.1817
  83   2.0000      -1.229069       -33.4447
  84   2.0000      -1.024840       -27.8873
  85   2.0000      -1.021773       -27.8039
  86   2.0000      -1.009539       -27.4710
  87   2.0000      -1.008623       -27.4460
  88   2.0000      -1.002140       -27.2696
  89   2.0000      -0.999047       -27.1855
  90   2.0000      -0.993608       -27.0374
  91   2.0000      -0.990466       -26.9520
  92   2.0000      -0.987424       -26.8692
  93   2.0000      -0.963141       -26.2084
  94   2.0000      -0.960274       -26.1304
  95   2.0000      -0.956509       -26.0279
  96   2.0000      -0.955675       -26.0052
  97   2.0000      -0.940325       -25.5875
  98   2.0000      -0.931429       -25.3455
  99   2.0000      -0.926455       -25.2101
 100   2.0000      -0.922836       -25.1116
 101   2.0000      -0.910088       -24.7648
 102   2.0000      -0.898566       -24.4512
 103   2.0000      -0.891239       -24.2518
 104   2.0000      -0.886978       -24.1359
 105   2.0000      -0.881754       -23.9937
 106   2.0000      -0.880300       -23.9542
 107   2.0000      -0.875482       -23.8231
 108   2.0000      -0.874032       -23.7836
 109   2.0000      -0.872450       -23.7406
 110   2.0000      -0.863041       -23.4845
 111   2.0000      -0.857545       -23.3350
 112   2.0000      -0.846507       -23.0346
 113   2.0000      -0.827013       -22.5042
 114   2.0000      -0.823038       -22.3960
 115   2.0000      -0.820637       -22.3307
 116   2.0000      -0.802478       -21.8365
 117   2.0000      -0.794444       -21.6179
 118   2.0000      -0.781146       -21.2561
 119   2.0000      -0.774138       -21.0654
 120   2.0000      -0.765826       -20.8392
 121   2.0000      -0.760657       -20.6985
 122   2.0000      -0.759061       -20.6551
 123   2.0000      -0.753397       -20.5010
 124   2.0000      -0.741528       -20.1780
 125   2.0000      -0.734212       -19.9789
 126   2.0000      -0.732948       -19.9445
 127   2.0000      -0.725566       -19.7437
 128   2.0000      -0.722290       -19.6545
 129   2.0000      -0.707456       -19.2508
 130   2.0000      -0.699472       -19.0336
 131   2.0000      -0.692172       -18.8350
 132   2.0000      -0.686261       -18.6741
 133   2.0000      -0.680521       -18.5179
 134   2.0000      -0.671078       -18.2610
 135   2.0000      -0.668844       -18.2002
 136   2.0000      -0.662905       -18.0386
 137   2.0000      -0.652934       -17.7672
 138   2.0000      -0.650269       -17.6947
 139   2.0000      -0.640723       -17.4350
 140   2.0000      -0.639887       -17.4122
 141   2.0000      -0.635060       -17.2809
 142   2.0000      -0.627897       -17.0859
 143   2.0000      -0.614117       -16.7110
 144   2.0000      -0.611486       -16.6394
 145   2.0000      -0.610323       -16.6077
 146   2.0000      -0.608141       -16.5484
 147   2.0000      -0.604817       -16.4579
 148   2.0000      -0.604043       -16.4368
 149   2.0000      -0.602937       -16.4067
 150   2.0000      -0.581837       -15.8326
 151   2.0000      -0.577961       -15.7271
 152   2.0000      -0.576396       -15.6845
 153   2.0000      -0.568839       -15.4789
 154   2.0000      -0.568298       -15.4642
 155   2.0000      -0.562994       -15.3198
 156   2.0000      -0.559932       -15.2365
 157   2.0000      -0.556056       -15.1311
 158   2.0000      -0.552084       -15.0230
 159   2.0000      -0.549666       -14.9572
 160   2.0000      -0.548406       -14.9229
 161   2.0000      -0.543472       -14.7886
 162   2.0000      -0.539767       -14.6878
 163   2.0000      -0.534685       -14.5495
 164   2.0000      -0.533454       -14.5160
 165   2.0000      -0.529434       -14.4066
 166   2.0000      -0.529345       -14.4042
 167   2.0000      -0.528728       -14.3874
 168   2.0000      -0.526759       -14.3338
 169   2.0000      -0.524163       -14.2632
 170   2.0000      -0.521663       -14.1952
 171   2.0000      -0.519049       -14.1240
 172   2.0000      -0.514720       -14.0062
 173   2.0000      -0.514490       -14.0000
 174   2.0000      -0.510117       -13.8810
 175   2.0000      -0.503799       -13.7091
 176   2.0000      -0.503656       -13.7052
 177   2.0000      -0.501133       -13.6365
 178   2.0000      -0.500774       -13.6268
 179   2.0000      -0.497349       -13.5335
 180   2.0000      -0.496284       -13.5046
 181   2.0000      -0.489992       -13.3334
 182   2.0000      -0.488101       -13.2819
 183   2.0000      -0.487286       -13.2597
 184   2.0000      -0.486849       -13.2478
 185   2.0000      -0.485774       -13.2186
 186   2.0000      -0.479343       -13.0436
 187   2.0000      -0.473936       -12.8965
 188   2.0000      -0.473063       -12.8727
 189   2.0000      -0.470621       -12.8063
 190   2.0000      -0.466069       -12.6824
 191   2.0000      -0.462425       -12.5832
 192   2.0000      -0.459990       -12.5170
 193   2.0000      -0.459262       -12.4971
 194   2.0000      -0.452204       -12.3051
 195   2.0000      -0.451818       -12.2946
 196   2.0000      -0.449685       -12.2365
 197   2.0000      -0.446705       -12.1555
 198   2.0000      -0.446374       -12.1465
 199   2.0000      -0.441861       -12.0236
 200   2.0000      -0.438279       -11.9262
 201   2.0000      -0.437962       -11.9176
 202   2.0000      -0.437722       -11.9110
 203   2.0000      -0.437238       -11.8978
 204   2.0000      -0.436795       -11.8858
 205   2.0000      -0.435775       -11.8580
 206   2.0000      -0.434110       -11.8127
 207   2.0000      -0.433645       -11.8001
 208   2.0000      -0.432215       -11.7612
 209   2.0000      -0.429078       -11.6758
 210   2.0000      -0.427141       -11.6231
 211   2.0000      -0.425572       -11.5804
 212   2.0000      -0.425007       -11.5650
 213   2.0000      -0.419834       -11.4243
 214   2.0000      -0.418898       -11.3988
 215   2.0000      -0.416635       -11.3372
 216   2.0000      -0.415721       -11.3124
 217   2.0000      -0.413297       -11.2464
 218   2.0000      -0.412066       -11.2129
 219   2.0000      -0.410037       -11.1577
 220   2.0000      -0.409015       -11.1299
 221   2.0000      -0.408923       -11.1274
 222   2.0000      -0.406421       -11.0593
 223   2.0000      -0.398123       -10.8335
 224   2.0000      -0.385823       -10.4988
 225   2.0000      -0.375497       -10.2178
 226   2.0000      -0.374554       -10.1921
 227   2.0000      -0.365027        -9.9329
 228   2.0000      -0.354994        -9.6599
 229   2.0000      -0.353301        -9.6138
 230   2.0000      -0.345285        -9.3957
 231   2.0000      -0.338766        -9.2183
 232   2.0000      -0.334433        -9.1004
 233   2.0000      -0.331162        -9.0114
 234   2.0000      -0.313152        -8.5213
 235   2.0000      -0.309806        -8.4303
 236   2.0000      -0.302913        -8.2427
 237   2.0000      -0.291065        -7.9203
 238   2.0000      -0.273748        -7.4491
 239   2.0000      -0.238799        -6.4980
 240   2.0000      -0.216825        -5.9001
 241   0.0000      -0.105653        -2.8750
 242   0.0000      -0.090461        -2.4616
 243   0.0000      -0.062635        -1.7044
 244   0.0000      -0.054237        -1.4759
 245   0.0000      -0.026615        -0.7242

MULLIKEN ATOMIC CHARGES
-----------------------
   0 C :   -0.122480
   1 S :    0.187120
   2 C :   -0.148671
   3 C :    0.143512
   4 C :    0.098830
   5 C :   -0.015917
   6 C :   -0.076185
   7 C :   -0.173205
   8 N :    0.169977
   9 C :   -0.069083
  10 C :   -0.179633
  11 N :    0.166998
  12 C :   -0.052221
  13 C :    0.046564
  14 C :   -0.016431
  15 C :   -0.085596
  16 S :    0.132716
  17 C :   -0.079861
  18 C :    0.146767
  19 C :    0.126351
  20 C :   -0.109361
  21 C :    0.086520
  22 C :   -0.040695
  23 C :   -0.007089
  24 C :   -0.073029
  25 C :    0.094080
  26 C :   -0.100895
  27 C :   -0.003885
  28 C :   -0.069482
  29 C :    0.173822
  30 O :   -0.211827
  31 C :    0.199871
  32 C :   -0.037348
  33 C :   -0.084781
  34 C :   -0.196276
  35 N :    0.143596
  36 C :   -0.036775
  37 C :   -0.007136
  38 C :   -0.078620
  39 S :    0.142264
  40 C :   -0.119739
  41 C :    0.139565
  42 C :    0.127725
  43 C :   -0.106729
  44 C :    0.085572
  45 C :   -0.038995
  46 C :   -0.014374
  47 C :   -0.077019
  48 C :    0.098098
  49 C :   -0.101145
  50 C :    0.044020
  51 C :   -0.026771
  52 C :   -0.086027
  53 S :    0.144642
  54 C :   -0.115373
  55 C :    0.133933
  56 C :    0.122446
  57 C :   -0.056567
  58 C :   -0.072857
  59 C :   -0.178924
  60 N :    0.165689
  61 C :   -0.070962
  62 C :   -0.177587
  63 N :    0.171052
  64 C :   -0.054318
  65 C :   -0.001660
  66 C :   -0.022655
  67 H :    0.030664
  68 H :   -0.005774
  69 H :   -0.012351
  70 H :   -0.007969
  71 H :   -0.014276
  72 H :   -0.034145
  73 H :    0.000367
  74 H :    0.021889
  75 H :    0.030604
  76 H :    0.034993
  77 H :    0.033660
  78 H :    0.008208
  79 H :   -0.043263
  80 H :   -0.000973
  81 H :    0.014941
  82 H :   -0.006812
  83 H :   -0.000676
  84 H :   -0.001715
  85 H :   -0.039194
  86 H :    0.001019
  87 H :    0.020011
  88 H :    0.028413
  89 H :    0.034575
  90 H :    0.036275
  91 H :    0.013048
  92 H :   -0.049327
  93 H :   -0.011558
  94 H :   -0.014978
  95 H :   -0.008870
  96 H :   -0.005755
  97 H :   -0.001266
  98 H :    0.023720
  99 H :    0.032970
Sum of atomic charges:   -0.0000000

LOEWDIN ATOMIC CHARGES
----------------------
   0 C :   -0.189375
   1 S :    0.513561
   2 C :   -0.164081
   3 C :   -0.050456
   4 C :   -0.048809
   5 C :    0.036508
   6 C :   -0.056708
   7 C :   -0.031821
   8 N :   -0.036682
   9 C :   -0.058078
  10 C :   -0.033540
  11 N :   -0.041456
  12 C :    0.030873
  13 C :   -0.055811
  14 C :   -0.035442
  15 C :   -0.164334
  16 S :    0.470886
  17 C :   -0.175034
  18 C :   -0.033471
  19 C :   -0.041863
  20 C :   -0.006279
  21 C :   -0.021199
  22 C :   -0.024390
  23 C :   -0.028009
  24 C :   -0.009741
  25 C :   -0.045416
  26 C :   -0.027480
  27 C :   -0.016744
  28 C :   -0.059670
  29 C :    0.069730
  30 O :    0.011514
  31 C :    0.037660
  32 C :   -0.030024
  33 C :   -0.113545
  34 C :   -0.035087
  35 N :   -0.057789
  36 C :   -0.045709
  37 C :   -0.035016
  38 C :   -0.169013
  39 S :    0.471627
  40 C :   -0.174208
  41 C :   -0.036663
  42 C :   -0.041416
  43 C :   -0.002421
  44 C :   -0.025916
  45 C :   -0.018077
  46 C :   -0.040493
  47 C :   -0.007544
  48 C :   -0.043761
  49 C :   -0.029784
  50 C :   -0.038966
  51 C :   -0.058275
  52 C :   -0.154330
  53 S :    0.487852
  54 C :   -0.172547
  55 C :   -0.043574
  56 C :   -0.051185
  57 C :    0.033946
  58 C :   -0.062012
  59 C :   -0.033506
  60 N :   -0.043477
  61 C :   -0.055358
  62 C :   -0.032145
  63 N :   -0.039147
  64 C :    0.032099
  65 C :   -0.041711
  66 C :   -0.040924
  67 H :    0.029537
  68 H :    0.045228
  69 H :    0.039307
  70 H :    0.022918
  71 H :    0.031726
  72 H :    0.026086
  73 H :    0.029678
  74 H :    0.022575
  75 H :    0.028709
  76 H :    0.037789
  77 H :    0.036288
  78 H :    0.029768
  79 H :    0.023942
  80 H :    0.035862
  81 H :    0.036613
  82 H :    0.039436
  83 H :    0.032656
  84 H :    0.034308
  85 H :    0.025522
  86 H :    0.030466
  87 H :    0.021267
  88 H :    0.025671
  89 H :    0.036890
  90 H :    0.038264
  91 H :    0.031514
  92 H :    0.022778
  93 H :    0.021041
  94 H :    0.030414
  95 H :    0.040307
  96 H :    0.041805
  97 H :    0.036330
  98 H :    0.018100
  99 H :    0.030459

  Mayer bond orders larger than 0.100000
B(  0-C ,  1-S ) :   1.2024 B(  0-C ,  4-C ) :   1.4060 B(  0-C , 67-H ) :   0.9705
B(  1-S ,  2-C ) :   1.1890 B(  2-C ,  3-C ) :   1.3048 B(  2-C , 13-C ) :   1.1851
B(  3-C ,  4-C ) :   1.1938 B(  3-C , 12-C ) :   1.2010 B(  4-C ,  5-C ) :   1.1612
B(  5-C ,  6-C ) :   1.5729 B(  5-C , 68-H ) :   1.0071 B(  6-C ,  7-C ) :   1.0753
B(  6-C ,  9-C ) :   1.2317 B(  7-C ,  8-N ) :   3.0462 B(  9-C , 10-C ) :   1.0821
B(  9-C , 12-C ) :   1.5672 B( 10-C , 11-N ) :   3.0400 B( 12-C , 69-H ) :   0.9932
B( 13-C , 14-C ) :   1.5918 B( 13-C , 70-H ) :   0.9449 B( 14-C , 15-C ) :   1.2372
B( 14-C , 71-H ) :   0.9640 B( 15-C , 16-S ) :   1.1317 B( 15-C , 19-C ) :   1.2800
B( 16-S , 17-C ) :   1.1188 B( 17-C , 18-C ) :   1.2929 B( 17-C , 27-C ) :   1.2131
B( 18-C , 19-C ) :   1.2164 B( 18-C , 26-C ) :   1.1997 B( 19-C , 20-C ) :   1.2012
B( 20-C , 21-C ) :   1.5137 B( 20-C , 72-H ) :   0.9910 B( 21-C , 22-C ) :   1.0296
B( 21-C , 24-C ) :   1.2085 B( 22-C , 23-C ) :   1.9744 B( 22-C , 73-H ) :   0.9513
B( 23-C , 74-H ) :   0.9587 B( 23-C , 75-H ) :   0.9508 B( 24-C , 25-C ) :   1.0832
B( 24-C , 26-C ) :   1.5466 B( 25-C , 76-H ) :   0.9413 B( 25-C , 77-H ) :   0.9403
B( 25-C , 78-H ) :   0.9531 B( 26-C , 79-H ) :   0.9894 B( 27-C , 28-C ) :   1.5541
B( 27-C , 80-H ) :   0.9760 B( 28-C , 29-C ) :   1.2482 B( 28-C , 81-H ) :   0.9501
B( 29-C , 30-O ) :   1.1592 B( 29-C , 33-C ) :   1.3661 B( 30-O , 31-C ) :   1.1065
B( 31-C , 32-C ) :   1.4100 B( 31-C , 36-C ) :   1.1807 B( 32-C , 33-C ) :   1.2432
B( 32-C , 82-H ) :   1.0255 B( 33-C , 34-C ) :   1.1108 B( 34-C , 35-N ) :   3.0311
B( 36-C , 37-C ) :   1.5835 B( 36-C , 83-H ) :   0.9649 B( 37-C , 38-C ) :   1.2016
B( 37-C , 84-H ) :   0.9722 B( 38-C , 39-S ) :   1.1440 B( 38-C , 42-C ) :   1.2757
B( 39-S , 40-C ) :   1.1317 B( 40-C , 41-C ) :   1.3008 B( 40-C , 50-C ) :   1.2092
B( 41-C , 42-C ) :   1.2211 B( 41-C , 49-C ) :   1.1931 B( 42-C , 43-C ) :   1.2114
B( 43-C , 44-C ) :   1.5054 B( 43-C , 85-H ) :   0.9904 B( 44-C , 45-C ) :   1.0290
B( 44-C , 47-C ) :   1.2125 B( 45-C , 46-C ) :   1.9761 B( 45-C , 86-H ) :   0.9508
B( 46-C , 87-H ) :   0.9561 B( 46-C , 88-H ) :   0.9465 B( 47-C , 48-C ) :   1.0869
B( 47-C , 49-C ) :   1.5423 B( 48-C , 89-H ) :   0.9399 B( 48-C , 90-H ) :   0.9430
B( 48-C , 91-H ) :   0.9536 B( 49-C , 92-H ) :   0.9888 B( 50-C , 51-C ) :   1.5786
B( 50-C , 93-H ) :   0.9436 B( 51-C , 52-C ) :   1.2302 B( 51-C , 94-H ) :   0.9629
B( 52-C , 53-S ) :   1.1465 B( 52-C , 56-C ) :   1.2971 B( 53-S , 54-C ) :   1.1287
B( 54-C , 55-C ) :   1.3542 B( 54-C , 65-C ) :   1.1500 B( 55-C , 56-C ) :   1.1840
B( 55-C , 64-C ) :   1.1807 B( 56-C , 57-C ) :   1.2082 B( 57-C , 58-C ) :   1.5622
B( 57-C , 95-H ) :   0.9951 B( 58-C , 59-C ) :   1.0801 B( 58-C , 61-C ) :   1.2325
B( 59-C , 60-N ) :   3.0412 B( 61-C , 62-C ) :   1.0781 B( 61-C , 64-C ) :   1.5783
B( 62-C , 63-N ) :   3.0447 B( 64-C , 96-H ) :   0.9960 B( 65-C , 66-C ) :   1.8984
B( 65-C , 97-H ) :   0.9579 B( 66-C , 98-H ) :   0.9578 B( 66-C , 99-H ) :   0.9484

-----------------------------------------------------------------------------
         ABSORPTION SPECTRUM VIA TRANSITION ELECTRIC DIPOLE MOMENTS
-----------------------------------------------------------------------------
State   Energy  Wavelength   fosc         T2         TX        TY        TZ
        (cm-1)    (nm)                  (au**2)     (au)      (au)      (au)
-----------------------------------------------------------------------------
   0   11236.1    890.0   2.050367733  60.07468   4.47915   2.67190   5.73349
   1   15174.1    659.0   0.027959266   0.60660   0.27333  -0.51785   0.51353
   2   17338.7    576.7   0.007414969   0.14079  -0.10193  -0.34967  -0.09016
   3   19665.1    508.5   0.031847482   0.53316  -0.37791  -0.58566  -0.21760
   4   21509.4    464.9   0.128844766   1.97204   0.39833  -0.11884   1.34136
   5   21921.9    456.2   0.139893652   2.10085   0.81375   1.17652  -0.23339
   6   24415.9    409.6   0.033165192   0.44718  -0.29479  -0.57207   0.18172
   7   26022.3    384.3   0.146692750   1.85583  -0.27723  -0.73616   1.11222
   8   26556.6    376.6   0.143015472   1.77291   0.02195   0.44875  -1.25342
   9   27653.8    361.6   0.015170837   0.18061  -0.24450   0.12787  -0.32322
  10   28032.2    356.7   0.023996790   0.28182   0.28710  -0.07290   0.44055
  11   28502.7    350.8   0.066967383   0.77349  -0.73036  -0.48684  -0.05522
  12   29419.6    339.9   0.146064076   1.63449  -0.86239  -0.90503   0.26776
  13   29753.4    336.1   0.047122953   0.52140   0.39433   0.55136  -0.24881
  14   29892.4    334.5   0.160531711   1.76798   0.85086   1.00273  -0.19632
  15   30123.9    332.0   0.055367193   0.60509   0.09911   0.06218   0.76902
  16   30179.5    331.4   0.029647507   0.32341  -0.01353  -0.51622   0.23821
  17   30976.4    322.8   0.237528589   2.52441  -1.03453  -1.17873  -0.25447
  18   32465.9    308.0   0.467365019   4.73919  -0.81125  -1.31809   1.53091
  19   32809.2    304.8   0.005918015   0.05938  -0.21337  -0.01587   0.11663
  20   33825.2    295.6   0.030260009   0.29451   0.12258   0.06969  -0.52405
  21   34154.1    292.8   0.238894019   2.30270   0.37002   0.85124  -1.20049
  22   34805.8    287.3   0.040758660   0.38552   0.14779   0.23039   0.55731
  23   35162.2    284.4   0.030937226   0.28965  -0.20104  -0.12111  -0.48432
  24   35270.0    283.5   0.199068699   1.85811   0.11669  -0.94155   0.97877
  25   35852.4    278.9   0.140275271   1.28807  -0.38731  -0.85131   0.64291
  26   36041.5    277.5   0.008161593   0.07455   0.04705   0.26866   0.01260
  27   36190.0    276.3   0.013846852   0.12596  -0.14079  -0.31388  -0.08729
  28   36457.4    274.3   0.011870350   0.10719  -0.06807  -0.27676  -0.16113
  29   36923.4    270.8   0.149373642   1.33183  -0.28063   0.51209  -0.99541
  30   37328.5    267.9   0.031701208   0.27958   0.04264   0.45513  -0.26576
  31   37691.0    265.3   0.074543621   0.65110   0.11983   0.65745  -0.45221
  32   37917.8    263.7   0.125596893   1.09046   0.39028  -0.14679   0.95739
  33   38369.0    260.6   0.326974251   2.80549  -0.28264  -1.18205   1.15254
  34   38533.3    259.5   0.083278582   0.71150  -0.30340  -0.06947  -0.78398
  35   39132.1    255.5   0.029353060   0.24694  -0.16263   0.22775  -0.41064
  36   39262.2    254.7   0.019666237   0.16490   0.23686  -0.21837   0.24721
  37   39401.0    253.8   0.068233237   0.57012  -0.35664  -0.48105   0.45991
  38   39761.1    251.5   0.165338459   1.36896   0.47585   0.78269  -0.72795
  39   39951.7    250.3   0.238637963   1.96644  -0.49406  -0.88901   0.96540

FINAL SINGLE POINT ENERGY     -4129.758718122656

DIPOLE MOMENT
-------------
                                X             Y             Z
Electronic contribution:     -9.13781     -13.86097      34.54135
Nuclear contribution   :      9.43608      10.78810     -33.21410
                        -----------------------------------------
Total Dipole Moment    :      0.29827      -3.07288       1.32725
                        -----------------------------------------
Magnitude (a.u.)       :      3.36053
Magnitude (Debye)      :      8.54178

Rotational constants in cm-1:     0.002276     0.000233     0.000213
Rotational constants in MHz :    68.247045     6.973488     6.378206

                             ****ORCA TERMINATED NORMALLY****
TOTAL RUN TIME: 0 days 0 hours 9 minutes 59 seconds 925 msec
