                         Program Version 4.2.0 -  RELEASE  -
|  1> # ORCA input file
|  2> # SCF done       -203.203540163209          0.000941844836
|  3> ! CAM-B3LYP def2-SVP def2/J RIJCOSX Grid4 TightSCF
|  4> %maxcore 5000
|  5> %tddft
|  6>     Mode sTDDFT
|  7>     Ethresh 5.0
|  8>     maxcore 5000
|  9> end
| 10>
| 11> %pal
| 12>   nprocs 6
| 13>   end
| 14> * xyz 0 1
| 15>    C      -13.46415         0.08858         1.29537
| 16>    C      -13.51390         0.21697         2.65844
| 17>    C      -14.14413        -0.70405         3.52049
| 18>    N      -14.64390        -1.41768         4.26747
| 19>    C      -12.93194         1.28704         3.36884
| 20>    N      -12.46514         2.13877         3.98051
| 21>    C      -14.03893        -1.00284         0.51389
| 22>    C      -13.75339        -0.78899        -0.86068
| 23>    C      -14.17085        -1.65052        -1.84707
| 24>    C      -14.90653        -2.77571        -1.46160
| 25>    C      -15.18659        -2.98138        -0.08883
| 26>    C      -14.76284        -2.11086         0.90896
| 27>    S      -16.10983        -4.42896         0.16500
| 28>    C      -16.10950        -4.73628        -1.55150
| 29>    C      -15.45071        -3.80262        -2.27955
| 30>   Br      -16.97809        -6.25741        -2.21950
| 31>    C      -12.98844         0.45349        -0.99690
| 32>    O      -12.55922         0.96240        -2.02947
| 33>    C      -12.83264         0.99143         0.35879
| 34>    C      -12.19229         2.18351         0.58648
| 35>    N      -11.68061         2.87238        -0.44095
| 36>    C      -11.05460         4.07430        -0.39555
| 37>    S      -10.82544         4.92599         1.09958
| 38>    C      -10.05459         6.20537         0.22184
| 39>    N       -9.58753         7.31729         0.93918
| 40>    O       -9.06514         8.21302         0.30317
| 41>    O       -9.74193         7.29736         2.14549
| 42>    C       -9.97951         5.98329        -1.12621
| 43>    C      -10.55000         4.75441        -1.51114
| 44>    C      -10.60901         4.24141        -2.85788
| 45>    C      -10.21914         4.92933        -3.94249
| 46>    C      -10.20851         4.37948        -5.28346
| 47>    C       -9.83336         3.09126        -5.52260
| 48>    S       -9.74348         2.64890        -7.18432
| 49>    C      -10.25154         4.24552        -7.63377
| 50>    C      -10.49027         5.08501        -6.51090
| 51>    C      -11.01150         6.36280        -6.74795
| 52>    C      -11.37743         7.29288        -5.62874
| 53>    C      -10.22175         8.24328        -5.29834
| 54>    C      -11.18572         6.74056        -8.08751
| 55>    C      -10.84512         5.80748        -9.10214
| 56>    N      -10.40939         4.58674        -8.89211
| 57>    S      -11.12096         6.41704       -10.70444
| 58>    C      -11.68325         7.90637       -10.04263
| 59>    C      -11.69784         7.94628        -8.68356
| 60>    N      -12.16671         9.04988        -7.95487
| 61>    C      -13.17348         9.86957        -8.34987
| 62>    S      -13.13739        11.53222        -7.86004
| 63>    C      -14.63451        11.80642        -8.70348
| 64>    N      -15.16967        13.09672        -8.63363
| 65>    O      -16.19551        13.32430        -9.24297
| 66>    O      -14.54468        13.90328        -7.96330
| 67>    C      -15.11434        10.68989        -9.32693
| 68>    C      -14.29768         9.55645        -9.12767
| 69>    C      -14.61667         8.23616        -9.59298
| 70>    C      -15.42388         7.97393       -10.64490
| 71>    C      -15.71496         6.64824       -11.05400
| 72>    C      -16.57960         6.24100       -12.02090
| 73>    C      -17.58634         6.94329       -12.79148
| 74>    C      -18.32306         8.02655       -12.39039
| 75>    C      -19.35073         8.60359       -13.16687
| 76>    N      -20.19007         9.11083       -13.76259
| 77>    C      -18.22487         8.63174       -11.12010
| 78>    N      -18.20904         9.14573       -10.09376
| 79>    C      -17.84575         6.14570       -13.98639
| 80>    C      -17.20801         4.88681       -13.84341
| 81>    C      -16.46072         4.86190       -12.57148
| 82>    O      -15.84046         3.94315       -12.08853
| 83>    C      -17.29924         3.90138       -14.79652
| 84>    C      -18.04388         4.17409       -15.94868
| 85>    C      -18.66434         5.43935       -16.08842
| 86>    C      -18.57957         6.43349       -15.12149
| 87>    S      -19.52103         5.56854       -17.59368
| 88>    C      -19.04533         3.94289       -18.00861
| 89>    C      -18.28258         3.33334       -17.06995
| 90>   Br      -19.59756         3.20606       -19.64194
| 91>    H      -13.93980        -1.46197        -2.88373
| 92>    H      -15.00271        -2.31022         1.93995
| 93>    H      -15.35305        -3.83570        -3.34923
| 94>    H      -12.08279         2.60841         1.57586
| 95>    H      -11.82393         2.41069        -1.35837
| 96>    H       -9.51835         6.69193        -1.78864
| 97>    H      -11.00864         3.24586        -2.99037
| 98>    H       -9.84227         5.93341        -3.83189
| 99>    H       -9.54868         2.36777        -4.78338
|100>    H      -11.63666         6.70886        -4.74515
|101>    H      -12.26061         7.86729        -5.91082
|102>    H       -9.34717         7.68873        -4.96522
|103>    H      -10.51404         8.93454        -4.51154
|104>    H       -9.91587         8.81656        -6.17200
|105>    H      -12.00553         8.68427       -10.70655
|106>    H      -11.51866         9.45029        -7.28901
|107>    H      -16.05593        10.67600        -9.84632
|108>    H      -14.19689         7.40836        -9.03784
|109>    H      -15.82446         8.79126       -11.22447
|110>    H      -15.12576         5.85596       -10.60279
|111>    H      -16.80970         2.95009       -14.65890
|112>    H      -19.06245         7.38430       -15.27521
|113>    H      -17.90228         2.33254       -17.16329
|114> *
|115>
|116>                          ****END OF INPUT****

CARTESIAN COORDINATES (ANGSTROEM)
---------------------------------
  C    -13.464150    0.088580    1.295370
  C    -13.513900    0.216970    2.658440
  C    -14.144130   -0.704050    3.520490
  N    -14.643900   -1.417680    4.267470
  C    -12.931940    1.287040    3.368840
  N    -12.465140    2.138770    3.980510
  C    -14.038930   -1.002840    0.513890
  C    -13.753390   -0.788990   -0.860680
  C    -14.170850   -1.650520   -1.847070
  C    -14.906530   -2.775710   -1.461600
  C    -15.186590   -2.981380   -0.088830
  C    -14.762840   -2.110860    0.908960
  S    -16.109830   -4.428960    0.165000
  C    -16.109500   -4.736280   -1.551500
  C    -15.450710   -3.802620   -2.279550
  Br   -16.978090   -6.257410   -2.219500
  C    -12.988440    0.453490   -0.996900
  O    -12.559220    0.962400   -2.029470
  C    -12.832640    0.991430    0.358790
  C    -12.192290    2.183510    0.586480
  N    -11.680610    2.872380   -0.440950
  C    -11.054600    4.074300   -0.395550
  S    -10.825440    4.925990    1.099580
  C    -10.054590    6.205370    0.221840
  N     -9.587530    7.317290    0.939180
  O     -9.065140    8.213020    0.303170
  O     -9.741930    7.297360    2.145490
  C     -9.979510    5.983290   -1.126210
  C    -10.550000    4.754410   -1.511140
  C    -10.609010    4.241410   -2.857880
  C    -10.219140    4.929330   -3.942490
  C    -10.208510    4.379480   -5.283460
  C     -9.833360    3.091260   -5.522600
  S     -9.743480    2.648900   -7.184320
  C    -10.251540    4.245520   -7.633770
  C    -10.490270    5.085010   -6.510900
  C    -11.011500    6.362800   -6.747950
  C    -11.377430    7.292880   -5.628740
  C    -10.221750    8.243280   -5.298340
  C    -11.185720    6.740560   -8.087510
  C    -10.845120    5.807480   -9.102140
  N    -10.409390    4.586740   -8.892110
  S    -11.120960    6.417040  -10.704440
  C    -11.683250    7.906370  -10.042630
  C    -11.697840    7.946280   -8.683560
  N    -12.166710    9.049880   -7.954870
  C    -13.173480    9.869570   -8.349870
  S    -13.137390   11.532220   -7.860040
  C    -14.634510   11.806420   -8.703480
  N    -15.169670   13.096720   -8.633630
  O    -16.195510   13.324300   -9.242970
  O    -14.544680   13.903280   -7.963300
  C    -15.114340   10.689890   -9.326930
  C    -14.297680    9.556450   -9.127670
  C    -14.616670    8.236160   -9.592980
  C    -15.423880    7.973930  -10.644900
  C    -15.714960    6.648240  -11.054000
  C    -16.579600    6.241000  -12.020900
  C    -17.586340    6.943290  -12.791480
  C    -18.323060    8.026550  -12.390390
  C    -19.350730    8.603590  -13.166870
  N    -20.190070    9.110830  -13.762590
  C    -18.224870    8.631740  -11.120100
  N    -18.209040    9.145730  -10.093760
  C    -17.845750    6.145700  -13.986390
  C    -17.208010    4.886810  -13.843410
  C    -16.460720    4.861900  -12.571480
  O    -15.840460    3.943150  -12.088530
  C    -17.299240    3.901380  -14.796520
  C    -18.043880    4.174090  -15.948680
  C    -18.664340    5.439350  -16.088420
  C    -18.579570    6.433490  -15.121490
  S    -19.521030    5.568540  -17.593680
  C    -19.045330    3.942890  -18.008610
  C    -18.282580    3.333340  -17.069950
  Br   -19.597560    3.206060  -19.641940
  H    -13.939800   -1.461970   -2.883730
  H    -15.002710   -2.310220    1.939950
  H    -15.353050   -3.835700   -3.349230
  H    -12.082790    2.608410    1.575860
  H    -11.823930    2.410690   -1.358370
  H     -9.518350    6.691930   -1.788640
  H    -11.008640    3.245860   -2.990370
  H     -9.842270    5.933410   -3.831890
  H     -9.548680    2.367770   -4.783380
  H    -11.636660    6.708860   -4.745150
  H    -12.260610    7.867290   -5.910820
  H     -9.347170    7.688730   -4.965220
  H    -10.514040    8.934540   -4.511540
  H     -9.915870    8.816560   -6.172000
  H    -12.005530    8.684270  -10.706550
  H    -11.518660    9.450290   -7.289010
  H    -16.055930   10.676000   -9.846320
  H    -14.196890    7.408360   -9.037840
  H    -15.824460    8.791260  -11.224470
  H    -15.125760    5.855960  -10.602790
  H    -16.809700    2.950090  -14.658900
  H    -19.062450    7.384300  -15.275210
  H    -17.902280    2.332540  -17.163290

 Total Charge           Charge          ....    0
 Multiplicity           Mult            ....    1
 Number of Electrons    NEL             ....  618
 Basis Dimension        Dim             .... 1239

ORBITAL ENERGIES
----------------

  NO   OCC          E(Eh)            E(eV)
   0   2.0000    -482.893607    -13140.2031
   1   2.0000    -482.888306    -13140.0588
   2   2.0000     -88.999634     -2421.8032
   3   2.0000     -88.987562     -2421.4747
   4   2.0000     -88.985839     -2421.4278
   5   2.0000     -88.978604     -2421.2309
   6   2.0000     -88.969229     -2420.9758
   7   2.0000     -88.965595     -2420.8769
   8   2.0000     -62.571333     -1702.6525
   9   2.0000     -62.566008     -1702.5076
  10   2.0000     -56.405295     -1534.8661
  11   2.0000     -56.402556     -1534.7916
  12   2.0000     -56.402527     -1534.7908
  13   2.0000     -56.399960     -1534.7209
  14   2.0000     -56.397240     -1534.6469
  15   2.0000     -56.397211     -1534.6461
  16   2.0000     -19.248648      -523.7823
  17   2.0000     -19.247358      -523.7472
  18   2.0000     -19.243821      -523.6510
  19   2.0000     -19.234249      -523.3905
  20   2.0000     -19.234151      -523.3879
  21   2.0000     -19.217411      -522.9323
  22   2.0000     -14.659909      -398.9164
  23   2.0000     -14.646302      -398.5461
  24   2.0000     -14.504901      -394.6984
  25   2.0000     -14.485041      -394.1580
  26   2.0000     -14.428764      -392.6266
  27   2.0000     -14.428094      -392.6084
  28   2.0000     -14.423286      -392.4776
  29   2.0000     -14.420261      -392.3953
  30   2.0000     -14.419079      -392.3631
  31   2.0000     -10.390245      -282.7329
  32   2.0000     -10.381960      -282.5075
  33   2.0000     -10.379463      -282.4395
  34   2.0000     -10.379192      -282.4322
  35   2.0000     -10.368425      -282.1392
  36   2.0000     -10.368273      -282.1350
  37   2.0000     -10.361950      -281.9630
  38   2.0000     -10.357338      -281.8375
  39   2.0000     -10.355475      -281.7868
  40   2.0000     -10.351706      -281.6842
  41   2.0000     -10.349997      -281.6377
  42   2.0000     -10.348401      -281.5943
  43   2.0000     -10.348061      -281.5850
  44   2.0000     -10.346687      -281.5477
  45   2.0000     -10.343816      -281.4695
  46   2.0000     -10.341516      -281.4070
  47   2.0000     -10.336739      -281.2770
  48   2.0000     -10.330324      -281.1024
  49   2.0000     -10.329075      -281.0684
  50   2.0000     -10.326227      -280.9909
  51   2.0000     -10.323436      -280.9150
  52   2.0000     -10.322358      -280.8857
  53   2.0000     -10.321776      -280.8698
  54   2.0000     -10.321493      -280.8621
  55   2.0000     -10.320894      -280.8458
  56   2.0000     -10.318728      -280.7869
  57   2.0000     -10.317712      -280.7592
  58   2.0000     -10.317532      -280.7543
  59   2.0000     -10.317326      -280.7487
  60   2.0000     -10.316642      -280.7301
  61   2.0000     -10.315649      -280.7031
  62   2.0000     -10.315333      -280.6945
  63   2.0000     -10.313559      -280.6462
  64   2.0000     -10.312473      -280.6166
  65   2.0000     -10.310961      -280.5755
  66   2.0000     -10.310392      -280.5600
  67   2.0000     -10.309268      -280.5294
  68   2.0000     -10.309033      -280.5230
  69   2.0000     -10.307817      -280.4900
  70   2.0000     -10.307495      -280.4812
  71   2.0000     -10.306416      -280.4518
  72   2.0000     -10.305999      -280.4405
  73   2.0000     -10.304712      -280.4055
  74   2.0000     -10.304671      -280.4044
  75   2.0000     -10.304450      -280.3983
  76   2.0000     -10.304128      -280.3896
  77   2.0000     -10.302951      -280.3576
  78   2.0000     -10.299572      -280.2656
  79   2.0000     -10.298434      -280.2346
  80   2.0000     -10.297451      -280.2079
  81   2.0000     -10.296306      -280.1767
  82   2.0000     -10.295274      -280.1486
  83   2.0000     -10.293947      -280.1125
  84   2.0000      -8.800779      -239.4814
  85   2.0000      -8.795435      -239.3359
  86   2.0000      -8.094897      -220.2733
  87   2.0000      -8.083490      -219.9629
  88   2.0000      -8.081856      -219.9185
  89   2.0000      -8.074614      -219.7214
  90   2.0000      -8.065933      -219.4852
  91   2.0000      -8.062710      -219.3975
  92   2.0000      -6.637137      -180.6057
  93   2.0000      -6.631729      -180.4585
  94   2.0000      -6.622480      -180.2068
  95   2.0000      -6.622278      -180.2013
  96   2.0000      -6.617177      -180.0625
  97   2.0000      -6.616965      -180.0568
  98   2.0000      -6.064522      -165.0240
  99   2.0000      -6.060186      -164.9060
 100   2.0000      -6.056355      -164.8018
 101   2.0000      -6.053207      -164.7161
 102   2.0000      -6.051515      -164.6701
 103   2.0000      -6.048791      -164.5960
 104   2.0000      -6.047245      -164.5539
 105   2.0000      -6.044783      -164.4869
 106   2.0000      -6.044309      -164.4740
 107   2.0000      -6.043107      -164.4413
 108   2.0000      -6.040021      -164.3573
 109   2.0000      -6.035833      -164.2434
 110   2.0000      -6.035402      -164.2316
 111   2.0000      -6.032077      -164.1411
 112   2.0000      -6.031281      -164.1195
 113   2.0000      -6.027931      -164.0283
 114   2.0000      -6.027354      -164.0127
 115   2.0000      -6.024292      -163.9293
 116   2.0000      -2.752990       -74.9127
 117   2.0000      -2.748896       -74.8013
 118   2.0000      -2.748732       -74.7968
 119   2.0000      -2.747628       -74.7668
 120   2.0000      -2.743501       -74.6545
 121   2.0000      -2.743357       -74.6505
 122   2.0000      -2.737088       -74.4799
 123   2.0000      -2.737069       -74.4794
 124   2.0000      -2.731783       -74.3356
 125   2.0000      -2.731768       -74.3352
 126   2.0000      -1.330084       -36.1934
 127   2.0000      -1.315877       -35.8068
 128   2.0000      -1.158392       -31.5214
 129   2.0000      -1.149433       -31.2777
 130   2.0000      -1.135230       -30.8912
 131   2.0000      -1.132759       -30.8239
 132   2.0000      -1.113169       -30.2909
 133   2.0000      -1.095068       -29.7983
 134   2.0000      -1.077615       -29.3234
 135   2.0000      -1.034723       -28.1562
 136   2.0000      -1.026613       -27.9356
 137   2.0000      -1.024400       -27.8753
 138   2.0000      -1.020427       -27.7672
 139   2.0000      -1.017190       -27.6792
 140   2.0000      -1.009931       -27.4816
 141   2.0000      -1.005151       -27.3515
 142   2.0000      -1.001116       -27.2417
 143   2.0000      -0.998619       -27.1738
 144   2.0000      -0.994615       -27.0649
 145   2.0000      -0.993078       -27.0230
 146   2.0000      -0.972981       -26.4762
 147   2.0000      -0.953280       -25.9401
 148   2.0000      -0.948574       -25.8120
 149   2.0000      -0.939063       -25.5532
 150   2.0000      -0.934538       -25.4301
 151   2.0000      -0.932659       -25.3789
 152   2.0000      -0.920168       -25.0390
 153   2.0000      -0.913205       -24.8496
 154   2.0000      -0.912082       -24.8190
 155   2.0000      -0.901309       -24.5259
 156   2.0000      -0.897513       -24.4226
 157   2.0000      -0.893131       -24.3033
 158   2.0000      -0.889492       -24.2043
 159   2.0000      -0.886555       -24.1244
 160   2.0000      -0.874986       -23.8096
 161   2.0000      -0.870324       -23.6827
 162   2.0000      -0.866105       -23.5679
 163   2.0000      -0.861186       -23.4341
 164   2.0000      -0.842142       -22.9158
 165   2.0000      -0.841033       -22.8857
 166   2.0000      -0.833890       -22.6913
 167   2.0000      -0.830597       -22.6017
 168   2.0000      -0.828250       -22.5378
 169   2.0000      -0.813553       -22.1379
 170   2.0000      -0.802396       -21.8343
 171   2.0000      -0.790265       -21.5042
 172   2.0000      -0.774975       -21.0882
 173   2.0000      -0.771572       -20.9955
 174   2.0000      -0.765736       -20.8367
 175   2.0000      -0.760994       -20.7077
 176   2.0000      -0.758991       -20.6532
 177   2.0000      -0.744891       -20.2695
 178   2.0000      -0.729745       -19.8574
 179   2.0000      -0.726747       -19.7758
 180   2.0000      -0.715938       -19.4817
 181   2.0000      -0.712876       -19.3983
 182   2.0000      -0.706617       -19.2280
 183   2.0000      -0.702183       -19.1074
 184   2.0000      -0.701513       -19.0891
 185   2.0000      -0.695555       -18.9270
 186   2.0000      -0.686310       -18.6754
 187   2.0000      -0.684468       -18.6253
 188   2.0000      -0.669718       -18.2240
 189   2.0000      -0.668576       -18.1929
 190   2.0000      -0.667250       -18.1568
 191   2.0000      -0.661425       -17.9983
 192   2.0000      -0.651591       -17.7307
 193   2.0000      -0.646002       -17.5786
 194   2.0000      -0.644582       -17.5400
 195   2.0000      -0.642548       -17.4846
 196   2.0000      -0.641328       -17.4514
 197   2.0000      -0.638553       -17.3759
 198   2.0000      -0.637211       -17.3394
 199   2.0000      -0.631020       -17.1709
 200   2.0000      -0.627897       -17.0859
 201   2.0000      -0.627180       -17.0664
 202   2.0000      -0.626693       -17.0532
 203   2.0000      -0.614851       -16.7310
 204   2.0000      -0.609664       -16.5898
 205   2.0000      -0.605279       -16.4705
 206   2.0000      -0.602253       -16.3881
 207   2.0000      -0.599102       -16.3024
 208   2.0000      -0.593736       -16.1564
 209   2.0000      -0.587825       -15.9955
 210   2.0000      -0.585227       -15.9248
 211   2.0000      -0.583867       -15.8878
 212   2.0000      -0.578747       -15.7485
 213   2.0000      -0.571024       -15.5384
 214   2.0000      -0.568963       -15.4823
 215   2.0000      -0.567717       -15.4484
 216   2.0000      -0.565468       -15.3872
 217   2.0000      -0.558722       -15.2036
 218   2.0000      -0.556462       -15.1421
 219   2.0000      -0.554490       -15.0885
 220   2.0000      -0.549382       -14.9495
 221   2.0000      -0.548549       -14.9268
 222   2.0000      -0.545893       -14.8545
 223   2.0000      -0.545401       -14.8411
 224   2.0000      -0.542828       -14.7711
 225   2.0000      -0.541153       -14.7255
 226   2.0000      -0.540280       -14.7018
 227   2.0000      -0.537873       -14.6363
 228   2.0000      -0.534833       -14.5536
 229   2.0000      -0.532155       -14.4807
 230   2.0000      -0.530306       -14.4304
 231   2.0000      -0.524579       -14.2745
 232   2.0000      -0.520407       -14.1610
 233   2.0000      -0.519416       -14.1340
 234   2.0000      -0.515151       -14.0180
 235   2.0000      -0.511314       -13.9136
 236   2.0000      -0.509245       -13.8573
 237   2.0000      -0.508816       -13.8456
 238   2.0000      -0.507911       -13.8209
 239   2.0000      -0.504692       -13.7334
 240   2.0000      -0.500020       -13.6062
 241   2.0000      -0.497614       -13.5408
 242   2.0000      -0.495318       -13.4783
 243   2.0000      -0.492363       -13.3979
 244   2.0000      -0.490864       -13.3571
 245   2.0000      -0.488622       -13.2961
 246   2.0000      -0.487571       -13.2675
 247   2.0000      -0.480847       -13.0845
 248   2.0000      -0.480179       -13.0663
 249   2.0000      -0.478497       -13.0206
 250   2.0000      -0.474434       -12.9100
 251   2.0000      -0.470064       -12.7911
 252   2.0000      -0.467171       -12.7124
 253   2.0000      -0.465754       -12.6738
 254   2.0000      -0.462953       -12.5976
 255   2.0000      -0.461666       -12.5626
 256   2.0000      -0.460239       -12.5237
 257   2.0000      -0.459256       -12.4970
 258   2.0000      -0.458449       -12.4750
 259   2.0000      -0.455606       -12.3977
 260   2.0000      -0.453124       -12.3301
 261   2.0000      -0.452687       -12.3182
 262   2.0000      -0.450067       -12.2469
 263   2.0000      -0.449915       -12.2428
 264   2.0000      -0.448201       -12.1962
 265   2.0000      -0.446191       -12.1415
 266   2.0000      -0.445334       -12.1182
 267   2.0000      -0.440921       -11.9981
 268   2.0000      -0.437625       -11.9084
 269   2.0000      -0.437362       -11.9012
 270   2.0000      -0.436244       -11.8708
 271   2.0000      -0.434186       -11.8148
 272   2.0000      -0.429870       -11.6974
 273   2.0000      -0.425416       -11.5761
 274   2.0000      -0.423165       -11.5149
 275   2.0000      -0.420400       -11.4397
 276   2.0000      -0.414782       -11.2868
 277   2.0000      -0.413474       -11.2512
 278   2.0000      -0.407843       -11.0980
 279   2.0000      -0.402508       -10.9528
 280   2.0000      -0.399290       -10.8652
 281   2.0000      -0.395098       -10.7512
 282   2.0000      -0.392269       -10.6742
 283   2.0000      -0.390280       -10.6200
 284   2.0000      -0.387375       -10.5410
 285   2.0000      -0.382951       -10.4206
 286   2.0000      -0.382098       -10.3974
 287   2.0000      -0.381920       -10.3926
 288   2.0000      -0.377578       -10.2744
 289   2.0000      -0.377102       -10.2615
 290   2.0000      -0.376806       -10.2534
 291   2.0000      -0.370967       -10.0945
 292   2.0000      -0.366572        -9.9749
 293   2.0000      -0.362998        -9.8777
 294   2.0000      -0.358184        -9.7467
 295   2.0000      -0.353991        -9.6326
 296   2.0000      -0.352815        -9.6006
 297   2.0000      -0.350149        -9.5280
 298   2.0000      -0.338666        -9.2156
 299   2.0000      -0.332617        -9.0510
 300   2.0000      -0.328640        -8.9428
 301   2.0000      -0.321313        -8.7434
 302   2.0000      -0.318622        -8.6702
 303   2.0000      -0.309163        -8.4127
 304   2.0000      -0.304078        -8.2744
 305   2.0000      -0.297956        -8.1078
 306   2.0000      -0.293887        -7.9971
 307   2.0000      -0.277112        -7.5406
 308   2.0000      -0.267659        -7.2834
 309   0.0000      -0.097228        -2.6457
 310   0.0000      -0.094599        -2.5742
 311   0.0000      -0.079174        -2.1544
 312   0.0000      -0.062205        -1.6927
 313   0.0000      -0.053842        -1.4651

MULLIKEN ATOMIC CHARGES
-----------------------
   0 C :    0.329069
   1 C :   -0.341115
   2 C :   -0.185538
   3 N :    0.155325
   4 C :   -0.195201
   5 N :    0.146485
   6 C :    0.008142
   7 C :   -0.004185
   8 C :   -0.069446
   9 C :    0.116445
  10 C :   -0.089601
  11 C :   -0.020872
  12 S :    0.195307
  13 C :   -0.124406
  14 C :    0.038296
  15 Br:    0.031322
  16 C :    0.170728
  17 O :   -0.226204
  18 C :   -0.127908
  19 C :    0.021676
  20 N :   -0.011051
  21 C :   -0.119136
  22 S :    0.182034
  23 C :    0.003847
  24 N :    0.274835
  25 O :   -0.248074
  26 O :   -0.250729
  27 C :    0.001626
  28 C :    0.128746
  29 C :   -0.041045
  30 C :   -0.017117
  31 C :    0.084598
  32 C :   -0.118032
  33 S :    0.145011
  34 C :   -0.177550
  35 C :    0.090562
  36 C :   -0.096902
  37 C :    0.010922
  38 C :    0.015213
  39 C :    0.093898
  40 C :   -0.182030
  41 N :   -0.003914
  42 S :    0.149964
  43 C :   -0.115692
  44 C :    0.052595
  45 N :   -0.044672
  46 C :   -0.103483
  47 S :    0.166087
  48 C :   -0.010661
  49 N :    0.278335
  50 O :   -0.241141
  51 O :   -0.271265
  52 C :    0.018921
  53 C :    0.063687
  54 C :    0.008733
  55 C :    0.002723
  56 C :    0.023686
  57 C :   -0.107869
  58 C :    0.278845
  59 C :   -0.333945
  60 C :   -0.181490
  61 N :    0.155830
  62 C :   -0.190224
  63 N :    0.155910
  64 C :    0.003026
  65 C :   -0.001770
  66 C :    0.138815
  67 O :   -0.141814
  68 C :   -0.069403
  69 C :    0.112021
  70 C :   -0.089210
  71 C :   -0.018698
  72 S :    0.188452
  73 C :   -0.124817
  74 C :    0.042244
  75 Br:    0.025740
  76 H :   -0.008955
  77 H :   -0.003570
  78 H :   -0.000158
  79 H :    0.048579
  80 H :    0.184176
  81 H :    0.009502
  82 H :   -0.005073
  83 H :   -0.013204
  84 H :    0.028076
  85 H :    0.021542
  86 H :    0.020501
  87 H :    0.026920
  88 H :    0.041289
  89 H :    0.008442
  90 H :    0.025521
  91 H :    0.147087
  92 H :    0.014643
  93 H :    0.024246
  94 H :    0.016077
  95 H :    0.015734
  96 H :   -0.009376
  97 H :   -0.002051
  98 H :   -0.003435
Sum of atomic charges:   -0.0000000

LOEWDIN ATOMIC CHARGES
----------------------
   0 C :    0.078423
   1 C :   -0.145764
   2 C :   -0.020330
   3 N :   -0.049944
   4 C :   -0.020200
   5 N :   -0.050910
   6 C :   -0.018247
   7 C :   -0.052661
   8 C :    0.025393
   9 C :   -0.033239
  10 C :   -0.143091
  11 C :   -0.006320
  12 S :    0.440657
  13 C :   -0.270361
  14 C :   -0.069860
  15 Br:    0.142535
  16 C :    0.097875
  17 O :   -0.179324
  18 C :   -0.144800
  19 C :    0.111374
  20 N :    0.076773
  21 C :   -0.112992
  22 S :    0.475804
  23 C :   -0.199742
  24 N :    0.273172
  25 O :   -0.214226
  26 O :   -0.217305
  27 C :   -0.000609
  28 C :   -0.086507
  29 C :   -0.029131
  30 C :   -0.013127
  31 C :   -0.068226
  32 C :   -0.153792
  33 S :    0.430986
  34 C :   -0.128662
  35 C :   -0.066286
  36 C :    0.018671
  37 C :   -0.036746
  38 C :   -0.049421
  39 C :   -0.081108
  40 C :   -0.131072
  41 N :   -0.097110
  42 S :    0.433418
  43 C :   -0.181427
  44 C :   -0.039378
  45 N :    0.013311
  46 C :   -0.088025
  47 S :    0.449042
  48 C :   -0.212285
  49 N :    0.273298
  50 O :   -0.208020
  51 O :   -0.237212
  52 C :    0.018672
  53 C :   -0.123532
  54 C :    0.038922
  55 C :   -0.037743
  56 C :    0.069140
  57 C :   -0.095805
  58 C :    0.072598
  59 C :   -0.140223
  60 C :   -0.020140
  61 N :   -0.047684
  62 C :   -0.017265
  63 N :   -0.050486
  64 C :   -0.019035
  65 C :   -0.052323
  66 C :    0.082676
  67 O :   -0.142418
  68 C :    0.022733
  69 C :   -0.032714
  70 C :   -0.143314
  71 C :   -0.010998
  72 S :    0.434015
  73 C :   -0.271234
  74 C :   -0.070141
  75 Br:    0.138445
  76 H :    0.041893
  77 H :    0.042508
  78 H :    0.039895
  79 H :    0.036510
  80 H :    0.084289
  81 H :    0.042829
  82 H :    0.030930
  83 H :    0.026082
  84 H :    0.026140
  85 H :    0.035213
  86 H :    0.029320
  87 H :    0.027540
  88 H :    0.034263
  89 H :    0.019767
  90 H :    0.030020
  91 H :    0.083367
  92 H :    0.047959
  93 H :    0.037561
  94 H :    0.031950
  95 H :    0.044665
  96 H :    0.041555
  97 H :    0.041331
  98 H :    0.038997

  Mayer bond orders larger than 0.100000
B(  0-C ,  1-C ) :   1.6337 B(  0-C ,  6-C ) :   1.0037 B(  0-C , 18-C ) :   1.0928
B(  1-C ,  2-C ) :   1.1416 B(  1-C ,  4-C ) :   1.1459 B(  2-C ,  3-N ) :   2.9705
B(  4-C ,  5-N ) :   2.9547 B(  6-C ,  7-C ) :   1.2713 B(  6-C , 11-C ) :   1.4251
B(  7-C ,  8-C ) :   1.4173 B(  7-C , 16-C ) :   0.9840 B(  8-C ,  9-C ) :   1.2441
B(  8-C , 76-H ) :   1.0191 B(  9-C , 10-C ) :   1.3058 B(  9-C , 14-C ) :   1.1643
B( 10-C , 11-C ) :   1.3191 B( 10-C , 12-S ) :   1.0927 B( 11-C , 77-H ) :   0.9806
B( 12-S , 13-C ) :   1.0888 B( 13-C , 14-C ) :   1.6153 B( 13-C , 15-Br) :   1.0236
B( 14-C , 78-H ) :   1.0006 B( 16-C , 17-O ) :   2.0279 B( 16-C , 18-C ) :   1.0061
B( 17-O , 80-H ) :   0.1415 B( 18-C , 19-C ) :   1.4604 B( 19-C , 20-N ) :   1.3350
B( 19-C , 79-H ) :   0.9303 B( 20-N , 21-C ) :   1.1935 B( 20-N , 80-H ) :   0.8232
B( 21-C , 22-S ) :   1.1356 B( 21-C , 28-C ) :   1.3823 B( 22-S , 23-C ) :   1.0861
B( 23-C , 24-N ) :   0.9620 B( 23-C , 27-C ) :   1.5067 B( 24-N , 25-O ) :   1.5325
B( 24-N , 26-O ) :   1.5205 B( 25-O , 26-O ) :   0.2635 B( 27-C , 28-C ) :   1.2178
B( 27-C , 81-H ) :   0.9969 B( 28-C , 29-C ) :   1.0556 B( 29-C , 30-C ) :   1.7942
B( 29-C , 82-H ) :   0.9731 B( 30-C , 31-C ) :   1.0182 B( 30-C , 83-H ) :   0.9509
B( 31-C , 32-C ) :   1.6097 B( 31-C , 35-C ) :   1.1270 B( 32-C , 33-S ) :   1.1198
B( 32-C , 84-H ) :   0.9627 B( 33-S , 34-C ) :   1.1045 B( 34-C , 35-C ) :   1.1742
B( 34-C , 41-N ) :   1.5492 B( 35-C , 36-C ) :   1.3917 B( 36-C , 37-C ) :   1.0674
B( 36-C , 39-C ) :   1.3726 B( 37-C , 38-C ) :   1.1050 B( 37-C , 85-H ) :   0.9102
B( 37-C , 86-H ) :   0.9163 B( 38-C , 87-H ) :   0.9533 B( 38-C , 88-H ) :   0.9700
B( 38-C , 89-H ) :   0.9528 B( 39-C , 40-C ) :   1.1775 B( 39-C , 44-C ) :   1.1593
B( 40-C , 41-N ) :   1.5486 B( 40-C , 42-S ) :   1.1062 B( 42-S , 43-C ) :   1.1103
B( 43-C , 44-C ) :   1.6176 B( 43-C , 90-H ) :   0.9566 B( 44-C , 45-N ) :   1.0244
B( 45-N , 46-C ) :   1.2222 B( 45-N , 91-H ) :   0.8929 B( 46-C , 47-S ) :   1.1549
B( 46-C , 53-C ) :   1.3535 B( 47-S , 48-C ) :   1.0593 B( 48-C , 49-N ) :   0.9701
B( 48-C , 52-C ) :   1.4991 B( 49-N , 50-O ) :   1.5413 B( 49-N , 51-O ) :   1.5039
B( 50-O , 51-O ) :   0.2576 B( 52-C , 53-C ) :   1.2322 B( 52-C , 92-H ) :   0.9943
B( 53-C , 54-C ) :   1.0679 B( 54-C , 55-C ) :   1.6795 B( 54-C , 93-H ) :   0.9731
B( 55-C , 56-C ) :   1.1276 B( 55-C , 94-H ) :   0.9595 B( 56-C , 57-C ) :   1.6228
B( 56-C , 95-H ) :   0.9534 B( 57-C , 58-C ) :   1.0338 B( 57-C , 66-C ) :   0.9396
B( 58-C , 59-C ) :   1.6453 B( 58-C , 64-C ) :   1.0134 B( 59-C , 60-C ) :   1.1274
B( 59-C , 62-C ) :   1.1648 B( 60-C , 61-N ) :   2.9890 B( 62-C , 63-N ) :   2.9614
B( 64-C , 65-C ) :   1.2745 B( 64-C , 71-C ) :   1.4130 B( 65-C , 66-C ) :   0.9228
B( 65-C , 68-C ) :   1.4261 B( 66-C , 67-O ) :   2.2656 B( 68-C , 69-C ) :   1.2523
B( 68-C , 96-H ) :   1.0154 B( 69-C , 70-C ) :   1.3075 B( 69-C , 74-C ) :   1.1625
B( 70-C , 71-C ) :   1.3288 B( 70-C , 72-S ) :   1.0848 B( 71-C , 97-H ) :   0.9815
B( 72-S , 73-C ) :   1.0878 B( 73-C , 74-C ) :   1.6186 B( 73-C , 75-Br) :   1.0203
B( 74-C , 98-H ) :   0.9998

-----------------------------------------------------------------------------
         ABSORPTION SPECTRUM VIA TRANSITION ELECTRIC DIPOLE MOMENTS
-----------------------------------------------------------------------------
State   Energy  Wavelength   fosc         T2         TX        TY        TZ
        (cm-1)    (nm)                  (au**2)     (au)      (au)      (au)
-----------------------------------------------------------------------------
   0   21166.3    472.4   0.341484660   5.31132   1.52300   0.62937   1.61111
   1   22442.7    445.6   0.893427214  13.10571  -1.72263  -2.86936   1.38024
   2   25414.4    393.5   0.055789815   0.72269   0.36379   0.74098   0.20322
   3   26012.8    384.4   0.396771072   5.02145  -1.26978  -0.89472  -1.61511
   4   27799.3    359.7   0.146547481   1.73548  -0.11767   0.63774   1.14670
   5   28002.1    357.1   0.128705477   1.51315   0.51818   1.10546  -0.15036
   6   29293.2    341.4   0.190551607   2.14152   0.43463   1.28249   0.55484
   7   29371.9    340.5   0.498190042   5.58392  -0.90176  -1.50602  -1.58198
   8   29640.2    337.4   0.084306188   0.93638   0.79083  -0.15495   0.53569
   9   29870.8    334.8   0.444039539   4.89385  -1.51974   1.59739  -0.18050
  10   30179.9    331.3   0.164966912   1.79951  -0.34501  -1.09547   0.69313
  11   30385.2    329.1   0.082905225   0.89825  -0.34317  -0.38763   0.79387
  12   30616.2    326.6   0.069622595   0.74864  -0.18239   0.68930   0.49014
  13   30800.9    324.7   0.257935310   2.75692   0.49357   0.82907   1.35127
  14   31135.8    321.2   0.316177972   3.34308  -0.38568  -1.26742  -1.26015
  15   31896.8    313.5   0.235302018   2.42859   0.57357   1.07818   0.96805
  16   32650.0    306.3   0.031232972   0.31492  -0.22525   0.49796   0.12735
  17   32878.0    304.2   0.205235406   2.05505   0.33687   0.78934   1.14827
  18   33595.5    297.7   0.058604560   0.57428  -0.43653  -0.13910  -0.60363
  19   33861.5    295.3   0.010339153   0.10052  -0.12868   0.11980  -0.26383
  20   33872.5    295.2   0.228772165   2.22347   0.18513  -1.17809  -0.89516
  21   33912.4    294.9   0.722133613   7.01028  -0.28562  -1.34407  -2.26322
  22   34288.2    291.6   0.021436735   0.20582  -0.04525  -0.44508  -0.07537
  23   34608.1    288.9   0.036089821   0.34331   0.32585   0.34448   0.34419
  24   34695.5    288.2   0.033590695   0.31873   0.08630   0.35012   0.43440
  25   34730.8    287.9   0.115036240   1.09042   0.22276   0.64792   0.78804
  26   34906.5    286.5   0.045615681   0.43021  -0.09546  -0.49885  -0.41503
  27   35126.9    284.7   0.109377238   1.02509   0.30349   0.84716   0.46401
  28   35531.2    281.4   0.035388449   0.32789   0.01436   0.07440   0.56758
  29   36403.3    274.7   0.000363262   0.00329   0.03417   0.04066  -0.02156
  30   36471.0    274.2   0.003006888   0.02714   0.04994   0.03278  -0.15354
  31   37056.9    269.9   0.004510007   0.04007   0.02682  -0.08741  -0.17807
  32   37269.3    268.3   0.075125998   0.66361  -0.10675   0.65377   0.47413
  33   37677.5    265.4   0.001399016   0.01222  -0.01477   0.06738  -0.08641
  34   37936.2    263.6   0.142850973   1.23967   0.05025  -0.22625  -1.08902
  35   38028.6    263.0   0.245500456   2.12529   0.64439   1.23175  -0.43915
  36   38561.9    259.3   0.092106963   0.78634  -0.16902  -0.05017  -0.86905
  37   38692.0    258.5   0.014971708   0.12739   0.02085   0.14506   0.32544
  38   38784.3    257.8   0.038775923   0.32914  -0.02416   0.28092  -0.49964
  39   38922.5    256.9   0.139324687   1.17843  -0.28401   0.20272   1.02794
  40   39054.3    256.1   0.053983807   0.45506   0.27870   0.01422   0.61416
  41   39364.1    254.0   0.175509637   1.46783   0.06521   0.40220  -1.14097
  42   39540.9    252.9   0.016156820   0.13452  -0.07919   0.18732  -0.30522
  43   39854.0    250.9   0.033957827   0.28051   0.11329  -0.08839  -0.50976
  44   40168.8    248.9   0.029542408   0.24212  -0.46274   0.15464  -0.06390

FINAL SINGLE POINT ENERGY    -10509.976127385338

DIPOLE MOMENT
-------------
                                X             Y             Z
Electronic contribution:    -99.34057    -132.33021     -86.27190
Nuclear contribution   :    101.14447     128.31256      83.64293
                        -----------------------------------------
Total Dipole Moment    :      1.80390      -4.01764      -2.62897
                        -----------------------------------------
Magnitude (a.u.)       :      5.12903
Magnitude (Debye)      :     13.03697

Rotational constants in cm-1:     0.000541     0.000239     0.000181
Rotational constants in MHz :    16.206209     7.158867     5.434263

                             ****ORCA TERMINATED NORMALLY****
TOTAL RUN TIME: 0 days 0 hours 9 minutes 32 seconds 58 msec
