                         Program Version 4.2.0 -  RELEASE  -
|  1> # ORCA input file
|  2> # SCF done       -181.985053253946          0.000677387453
|  3> ! CAM-B3LYP def2-SVP def2/J RIJCOSX Grid4 TightSCF
|  4> %maxcore 5000
|  5> %tddft
|  6>     Mode sTDDFT
|  7>     Ethresh 5.0
|  8>     maxcore 5000
|  9> end
| 10>
| 11> %pal
| 12>   nprocs 6
| 13>   end
| 14> * xyz 0 1
| 15>    C      -11.75314        -0.10101         5.54417
| 16>    C      -11.83794        -0.43418         6.87934
| 17>    C      -11.09912        -1.46896         7.47962
| 18>    N      -10.51519        -2.30101         8.01612
| 19>    C      -12.65092         0.24071         7.80786
| 20>    N      -13.29798         0.75693         8.60491
| 21>    C      -10.93630        -0.79889         4.54639
| 22>    C      -11.05830        -0.12381         3.30923
| 23>    C      -10.47501        -0.57070         2.15130
| 24>    C       -9.73567        -1.75630         2.21343
| 25>    C       -9.59880        -2.41602         3.45506
| 26>    C      -10.18668        -1.95687         4.62974
| 27>    S       -8.62825        -3.85313         3.30535
| 28>    C       -8.43973        -3.55524         1.59773
| 29>    C       -9.06478        -2.43781         1.16071
| 30>   Br       -7.43180        -4.74349         0.54484
| 31>    C      -11.93324         1.05105         3.49038
| 32>    O      -12.05309         1.98831         2.73020
| 33>    C      -12.50388         0.90806         4.85713
| 34>    C      -13.57561         1.66974         5.30080
| 35>    C      -14.54154         2.17824         4.42792
| 36>    C      -14.85999         1.58648         3.21479
| 37>    C      -15.59527         2.11549         2.13752
| 38>    C      -15.61432         1.31769         1.02198
| 39>    C      -14.92555         0.10323         1.18743
| 40>    S      -14.35721        -0.04980         2.82881
| 41>    C      -14.51685        -0.85389         0.27032
| 42>    C      -14.67637        -0.91966        -1.12675
| 43>    C      -13.98481        -1.94339        -1.70784
| 44>    C      -13.25173        -2.74553        -0.79645
| 45>    S      -13.49882        -2.15984         0.83523
| 46>    C      -12.43357        -3.80316        -1.11097
| 47>    C      -11.72809        -4.62165        -0.21078
| 48>    S      -11.97742        -4.53847         1.53195
| 49>    C      -10.90868        -5.86930         1.81340
| 50>    C      -10.38022        -6.32777         0.65778
| 51>    C      -10.81372        -5.63140        -0.49737
| 52>    C      -10.20546        -6.15671        -1.70189
| 53>    C       -9.35260        -7.17376        -1.45362
| 54>    S       -9.23523        -7.68839         0.27195
| 55>    O      -10.02417        -8.92311         0.38468
| 56>    N      -10.56025        -5.68384        -2.95692
| 57>    C      -10.27803        -6.40705        -4.11757
| 58>    C       -9.75729        -5.88108        -5.25936
| 59>    S       -9.61864        -7.05288        -6.50872
| 60>    C      -10.27701        -8.27304        -5.49296
| 61>    C      -10.59428        -7.80458        -4.25197
| 62>    N      -11.20888        -8.51268        -3.22938
| 63>    C      -10.82712        -9.73102        -2.71731
| 64>    C       -9.94896       -10.59648        -3.24587
| 65>    C       -9.57674       -11.84335        -2.60851
| 66>    C       -9.10837       -12.89913        -3.40517
| 67>    C       -8.77425       -14.09871        -2.82470
| 68>    C       -8.83116       -14.24513        -1.42670
| 69>    C       -9.26859       -13.19894        -0.62675
| 70>    C       -9.65011       -12.01273        -1.21985
| 71>    C       -8.32838       -15.55625        -1.07842
| 72>    C       -7.96894       -16.22503        -2.25929
| 73>    C       -8.29802       -15.38011        -3.47268
| 74>    C       -9.44821       -16.10004        -4.21615
| 75>    C      -10.06559       -15.33877        -5.38175
| 76>    C       -7.08141       -15.16295        -4.38251
| 77>    C       -5.89176       -14.58299        -3.62581
| 78>    C       -7.43769       -17.49091        -2.20878
| 79>    C       -7.24239       -18.11894        -0.97109
| 80>    C       -7.60781       -17.43952         0.19562
| 81>    C       -8.14745       -16.16946         0.15310
| 82>    C       -6.66845       -19.45657        -0.95737
| 83>    C       -6.38353       -20.19577         0.10945
| 84>    H      -10.59639        -0.03292         1.22409
| 85>    H      -10.05725        -2.50125         5.55035
| 86>    H       -9.05109        -2.10108         0.14017
| 87>    H      -13.68081         1.88728         6.35581
| 88>    H      -15.11936         3.04103         4.73054
| 89>    H      -16.03057         3.09818         2.18279
| 90>    H      -16.07976         1.59033         0.09130
| 91>    H      -15.27441        -0.20719        -1.66616
| 92>    H      -13.96952        -2.14115        -2.76532
| 93>    H      -12.34680        -4.05191        -2.15988
| 94>    H      -10.75423        -6.22167         2.81324
| 95>    H       -8.77285        -7.70450        -2.18425
| 96>    H      -10.54220        -4.67949        -3.06579
| 97>    H       -9.44449        -4.87195        -5.43801
| 98>    H      -10.43148        -9.25556        -5.88734
| 99>    H      -11.72912        -7.93051        -2.58934
|100>    H      -11.32157        -9.96481        -1.78626
|101>    H       -9.48347       -10.39053        -4.19871
|102>    H       -9.02142       -12.75095        -4.47207
|103>    H       -9.29852       -13.30418         0.44745
|104>    H       -9.95892       -11.18618        -0.59865
|105>    H      -10.23247       -16.31664        -3.48558
|106>    H       -9.06321       -17.05642        -4.57811
|107>    H      -10.53156       -14.41921        -5.03850
|108>    H      -10.83345       -15.95365        -5.84702
|109>    H       -9.32254       -15.09928        -6.13807
|110>    H       -7.35500       -14.48223        -5.19000
|111>    H       -6.79836       -16.11835        -4.83014
|112>    H       -6.15696       -13.63080        -3.17144
|113>    H       -5.05617       -14.42214        -4.30369
|114>    H       -5.57082       -15.25969        -2.83695
|115>    H       -7.15884       -18.00985        -3.11575
|116>    H       -7.46567       -17.91617         1.15302
|117>    H       -8.42229       -15.66133         1.06559
|118>    H       -6.46130       -19.86390        -1.94033
|119>    H       -6.55681       -19.86008         1.11733
|120>    H       -5.95849       -21.17983         0.00941
|121> *
|122>
|123>                          ****END OF INPUT****

CARTESIAN COORDINATES (ANGSTROEM)
---------------------------------
  C    -11.753140   -0.101010    5.544170
  C    -11.837940   -0.434180    6.879340
  C    -11.099120   -1.468960    7.479620
  N    -10.515190   -2.301010    8.016120
  C    -12.650920    0.240710    7.807860
  N    -13.297980    0.756930    8.604910
  C    -10.936300   -0.798890    4.546390
  C    -11.058300   -0.123810    3.309230
  C    -10.475010   -0.570700    2.151300
  C     -9.735670   -1.756300    2.213430
  C     -9.598800   -2.416020    3.455060
  C    -10.186680   -1.956870    4.629740
  S     -8.628250   -3.853130    3.305350
  C     -8.439730   -3.555240    1.597730
  C     -9.064780   -2.437810    1.160710
  Br    -7.431800   -4.743490    0.544840
  C    -11.933240    1.051050    3.490380
  O    -12.053090    1.988310    2.730200
  C    -12.503880    0.908060    4.857130
  C    -13.575610    1.669740    5.300800
  C    -14.541540    2.178240    4.427920
  C    -14.859990    1.586480    3.214790
  C    -15.595270    2.115490    2.137520
  C    -15.614320    1.317690    1.021980
  C    -14.925550    0.103230    1.187430
  S    -14.357210   -0.049800    2.828810
  C    -14.516850   -0.853890    0.270320
  C    -14.676370   -0.919660   -1.126750
  C    -13.984810   -1.943390   -1.707840
  C    -13.251730   -2.745530   -0.796450
  S    -13.498820   -2.159840    0.835230
  C    -12.433570   -3.803160   -1.110970
  C    -11.728090   -4.621650   -0.210780
  S    -11.977420   -4.538470    1.531950
  C    -10.908680   -5.869300    1.813400
  C    -10.380220   -6.327770    0.657780
  C    -10.813720   -5.631400   -0.497370
  C    -10.205460   -6.156710   -1.701890
  C     -9.352600   -7.173760   -1.453620
  S     -9.235230   -7.688390    0.271950
  O    -10.024170   -8.923110    0.384680
  N    -10.560250   -5.683840   -2.956920
  C    -10.278030   -6.407050   -4.117570
  C     -9.757290   -5.881080   -5.259360
  S     -9.618640   -7.052880   -6.508720
  C    -10.277010   -8.273040   -5.492960
  C    -10.594280   -7.804580   -4.251970
  N    -11.208880   -8.512680   -3.229380
  C    -10.827120   -9.731020   -2.717310
  C     -9.948960  -10.596480   -3.245870
  C     -9.576740  -11.843350   -2.608510
  C     -9.108370  -12.899130   -3.405170
  C     -8.774250  -14.098710   -2.824700
  C     -8.831160  -14.245130   -1.426700
  C     -9.268590  -13.198940   -0.626750
  C     -9.650110  -12.012730   -1.219850
  C     -8.328380  -15.556250   -1.078420
  C     -7.968940  -16.225030   -2.259290
  C     -8.298020  -15.380110   -3.472680
  C     -9.448210  -16.100040   -4.216150
  C    -10.065590  -15.338770   -5.381750
  C     -7.081410  -15.162950   -4.382510
  C     -5.891760  -14.582990   -3.625810
  C     -7.437690  -17.490910   -2.208780
  C     -7.242390  -18.118940   -0.971090
  C     -7.607810  -17.439520    0.195620
  C     -8.147450  -16.169460    0.153100
  C     -6.668450  -19.456570   -0.957370
  C     -6.383530  -20.195770    0.109450
  H    -10.596390   -0.032920    1.224090
  H    -10.057250   -2.501250    5.550350
  H     -9.051090   -2.101080    0.140170
  H    -13.680810    1.887280    6.355810
  H    -15.119360    3.041030    4.730540
  H    -16.030570    3.098180    2.182790
  H    -16.079760    1.590330    0.091300
  H    -15.274410   -0.207190   -1.666160
  H    -13.969520   -2.141150   -2.765320
  H    -12.346800   -4.051910   -2.159880
  H    -10.754230   -6.221670    2.813240
  H     -8.772850   -7.704500   -2.184250
  H    -10.542200   -4.679490   -3.065790
  H     -9.444490   -4.871950   -5.438010
  H    -10.431480   -9.255560   -5.887340
  H    -11.729120   -7.930510   -2.589340
  H    -11.321570   -9.964810   -1.786260
  H     -9.483470  -10.390530   -4.198710
  H     -9.021420  -12.750950   -4.472070
  H     -9.298520  -13.304180    0.447450
  H     -9.958920  -11.186180   -0.598650
  H    -10.232470  -16.316640   -3.485580
  H     -9.063210  -17.056420   -4.578110
  H    -10.531560  -14.419210   -5.038500
  H    -10.833450  -15.953650   -5.847020
  H     -9.322540  -15.099280   -6.138070
  H     -7.355000  -14.482230   -5.190000
  H     -6.798360  -16.118350   -4.830140
  H     -6.156960  -13.630800   -3.171440
  H     -5.056170  -14.422140   -4.303690
  H     -5.570820  -15.259690   -2.836950
  H     -7.158840  -18.009850   -3.115750
  H     -7.465670  -17.916170    1.153020
  H     -8.422290  -15.661330    1.065590
  H     -6.461300  -19.863900   -1.940330
  H     -6.556810  -19.860080    1.117330
  H     -5.958490  -21.179830    0.009410

 Total Charge           Charge          ....    0
 Multiplicity           Mult            ....    1
 Number of Electrons    NEL             ....  548
 Basis Dimension        Dim             .... 1193

ORBITAL ENERGIES
----------------

  NO   OCC          E(Eh)            E(eV)
   0   2.0000    -482.892633    -13140.1766
   1   2.0000     -89.048492     -2423.1327
   2   2.0000     -88.982024     -2421.3240
   3   2.0000     -88.978629     -2421.2316
   4   2.0000     -88.975337     -2421.1420
   5   2.0000     -88.966708     -2420.9072
   6   2.0000     -88.959262     -2420.7046
   7   2.0000     -62.569809     -1702.6111
   8   2.0000     -56.403757     -1534.8243
   9   2.0000     -56.401120     -1534.7525
  10   2.0000     -56.401020     -1534.7498
  11   2.0000     -19.206666      -522.6399
  12   2.0000     -19.164844      -521.5019
  13   2.0000     -14.465932      -393.6380
  14   2.0000     -14.433085      -392.7442
  15   2.0000     -14.404628      -391.9699
  16   2.0000     -14.404084      -391.9551
  17   2.0000     -10.361635      -281.9544
  18   2.0000     -10.361403      -281.9481
  19   2.0000     -10.349463      -281.6232
  20   2.0000     -10.343547      -281.4622
  21   2.0000     -10.337941      -281.3097
  22   2.0000     -10.337005      -281.2842
  23   2.0000     -10.336026      -281.2576
  24   2.0000     -10.332765      -281.1688
  25   2.0000     -10.332686      -281.1667
  26   2.0000     -10.327245      -281.0186
  27   2.0000     -10.325723      -280.9772
  28   2.0000     -10.325275      -280.9650
  29   2.0000     -10.324739      -280.9504
  30   2.0000     -10.322263      -280.8831
  31   2.0000     -10.317741      -280.7600
  32   2.0000     -10.317636      -280.7572
  33   2.0000     -10.317183      -280.7448
  34   2.0000     -10.314664      -280.6763
  35   2.0000     -10.312258      -280.6108
  36   2.0000     -10.310369      -280.5594
  37   2.0000     -10.308251      -280.5018
  38   2.0000     -10.307932      -280.4931
  39   2.0000     -10.305529      -280.4277
  40   2.0000     -10.305423      -280.4248
  41   2.0000     -10.305398      -280.4241
  42   2.0000     -10.303058      -280.3605
  43   2.0000     -10.302018      -280.3322
  44   2.0000     -10.300297      -280.2853
  45   2.0000     -10.298907      -280.2475
  46   2.0000     -10.298322      -280.2316
  47   2.0000     -10.293558      -280.1020
  48   2.0000     -10.292669      -280.0778
  49   2.0000     -10.291783      -280.0537
  50   2.0000     -10.289012      -279.9783
  51   2.0000     -10.288302      -279.9589
  52   2.0000     -10.288271      -279.9581
  53   2.0000     -10.260945      -279.2145
  54   2.0000     -10.256211      -279.0857
  55   2.0000     -10.255605      -279.0692
  56   2.0000     -10.253626      -279.0154
  57   2.0000     -10.251216      -278.9498
  58   2.0000     -10.250343      -278.9260
  59   2.0000     -10.249752      -278.9099
  60   2.0000     -10.249427      -278.9011
  61   2.0000     -10.248745      -278.8825
  62   2.0000     -10.248606      -278.8787
  63   2.0000     -10.247208      -278.8407
  64   2.0000     -10.245869      -278.8043
  65   2.0000     -10.245740      -278.8008
  66   2.0000     -10.245521      -278.7948
  67   2.0000     -10.244004      -278.7535
  68   2.0000     -10.243953      -278.7521
  69   2.0000     -10.238852      -278.6133
  70   2.0000     -10.237941      -278.5885
  71   2.0000     -10.236987      -278.5626
  72   2.0000     -10.233103      -278.4569
  73   2.0000      -8.799022      -239.4336
  74   2.0000      -8.130024      -221.2292
  75   2.0000      -8.076684      -219.7777
  76   2.0000      -8.073975      -219.7040
  77   2.0000      -8.071208      -219.6287
  78   2.0000      -8.062273      -219.3856
  79   2.0000      -8.055151      -219.1918
  80   2.0000      -6.635155      -180.5517
  81   2.0000      -6.620844      -180.1623
  82   2.0000      -6.620625      -180.1564
  83   2.0000      -6.099490      -165.9756
  84   2.0000      -6.098574      -165.9506
  85   2.0000      -6.091519      -165.7587
  86   2.0000      -6.046248      -164.5268
  87   2.0000      -6.043712      -164.4578
  88   2.0000      -6.041739      -164.4041
  89   2.0000      -6.040971      -164.3832
  90   2.0000      -6.039414      -164.3408
  91   2.0000      -6.038642      -164.3198
  92   2.0000      -6.036706      -164.2671
  93   2.0000      -6.035249      -164.2275
  94   2.0000      -6.032202      -164.1446
  95   2.0000      -6.032007      -164.1393
  96   2.0000      -6.027908      -164.0277
  97   2.0000      -6.024605      -163.9378
  98   2.0000      -6.023273      -163.9016
  99   2.0000      -6.020279      -163.8201
 100   2.0000      -6.017154      -163.7351
 101   2.0000      -2.751092       -74.8610
 102   2.0000      -2.747035       -74.7506
 103   2.0000      -2.746863       -74.7459
 104   2.0000      -2.735501       -74.4368
 105   2.0000      -2.735497       -74.4367
 106   2.0000      -1.123483       -30.5715
 107   2.0000      -1.113354       -30.2959
 108   2.0000      -1.075658       -29.2701
 109   2.0000      -1.032756       -28.1027
 110   2.0000      -1.025607       -27.9082
 111   2.0000      -1.020623       -27.7726
 112   2.0000      -1.011739       -27.5308
 113   2.0000      -1.005083       -27.3497
 114   2.0000      -0.998516       -27.1710
 115   2.0000      -0.983983       -26.7755
 116   2.0000      -0.983233       -26.7551
 117   2.0000      -0.972774       -26.4705
 118   2.0000      -0.965473       -26.2718
 119   2.0000      -0.942424       -25.6447
 120   2.0000      -0.933655       -25.4060
 121   2.0000      -0.922684       -25.1075
 122   2.0000      -0.920648       -25.0521
 123   2.0000      -0.909688       -24.7539
 124   2.0000      -0.904588       -24.6151
 125   2.0000      -0.898325       -24.4447
 126   2.0000      -0.885531       -24.0965
 127   2.0000      -0.882311       -24.0089
 128   2.0000      -0.871998       -23.7283
 129   2.0000      -0.869066       -23.6485
 130   2.0000      -0.859589       -23.3906
 131   2.0000      -0.850621       -23.1466
 132   2.0000      -0.846827       -23.0433
 133   2.0000      -0.838258       -22.8102
 134   2.0000      -0.828552       -22.5460
 135   2.0000      -0.827805       -22.5257
 136   2.0000      -0.827463       -22.5164
 137   2.0000      -0.822162       -22.3722
 138   2.0000      -0.819083       -22.2884
 139   2.0000      -0.814654       -22.1679
 140   2.0000      -0.808960       -22.0129
 141   2.0000      -0.802337       -21.8327
 142   2.0000      -0.800171       -21.7738
 143   2.0000      -0.781684       -21.2707
 144   2.0000      -0.763310       -20.7707
 145   2.0000      -0.758723       -20.6459
 146   2.0000      -0.751760       -20.4564
 147   2.0000      -0.746456       -20.3121
 148   2.0000      -0.738291       -20.0899
 149   2.0000      -0.712859       -19.3979
 150   2.0000      -0.707741       -19.2586
 151   2.0000      -0.705462       -19.1966
 152   2.0000      -0.698108       -18.9965
 153   2.0000      -0.693445       -18.8696
 154   2.0000      -0.690682       -18.7944
 155   2.0000      -0.683761       -18.6061
 156   2.0000      -0.681177       -18.5358
 157   2.0000      -0.678584       -18.4652
 158   2.0000      -0.674690       -18.3592
 159   2.0000      -0.672719       -18.3056
 160   2.0000      -0.660282       -17.9672
 161   2.0000      -0.659197       -17.9377
 162   2.0000      -0.654653       -17.8140
 163   2.0000      -0.652854       -17.7651
 164   2.0000      -0.645504       -17.5651
 165   2.0000      -0.639988       -17.4150
 166   2.0000      -0.635786       -17.3006
 167   2.0000      -0.629540       -17.1307
 168   2.0000      -0.628453       -17.1011
 169   2.0000      -0.619873       -16.8676
 170   2.0000      -0.619186       -16.8489
 171   2.0000      -0.614922       -16.7329
 172   2.0000      -0.610232       -16.6053
 173   2.0000      -0.593195       -16.1416
 174   2.0000      -0.589395       -16.0383
 175   2.0000      -0.585756       -15.9392
 176   2.0000      -0.582966       -15.8633
 177   2.0000      -0.578786       -15.7496
 178   2.0000      -0.569156       -15.4875
 179   2.0000      -0.559618       -15.2280
 180   2.0000      -0.556838       -15.1523
 181   2.0000      -0.555339       -15.1115
 182   2.0000      -0.550396       -14.9770
 183   2.0000      -0.546855       -14.8807
 184   2.0000      -0.543823       -14.7982
 185   2.0000      -0.542027       -14.7493
 186   2.0000      -0.539607       -14.6834
 187   2.0000      -0.534779       -14.5521
 188   2.0000      -0.533492       -14.5171
 189   2.0000      -0.530630       -14.4392
 190   2.0000      -0.526547       -14.3281
 191   2.0000      -0.525679       -14.3044
 192   2.0000      -0.522847       -14.2274
 193   2.0000      -0.519606       -14.1392
 194   2.0000      -0.518074       -14.0975
 195   2.0000      -0.515435       -14.0257
 196   2.0000      -0.514259       -13.9937
 197   2.0000      -0.512271       -13.9396
 198   2.0000      -0.511052       -13.9064
 199   2.0000      -0.508178       -13.8282
 200   2.0000      -0.505673       -13.7601
 201   2.0000      -0.504419       -13.7259
 202   2.0000      -0.500890       -13.6299
 203   2.0000      -0.497690       -13.5428
 204   2.0000      -0.496396       -13.5076
 205   2.0000      -0.495789       -13.4911
 206   2.0000      -0.494630       -13.4596
 207   2.0000      -0.490696       -13.3525
 208   2.0000      -0.489264       -13.3136
 209   2.0000      -0.486821       -13.2471
 210   2.0000      -0.485671       -13.2158
 211   2.0000      -0.484242       -13.1769
 212   2.0000      -0.480841       -13.0843
 213   2.0000      -0.479377       -13.0445
 214   2.0000      -0.478859       -13.0304
 215   2.0000      -0.473973       -12.8975
 216   2.0000      -0.472323       -12.8526
 217   2.0000      -0.468367       -12.7449
 218   2.0000      -0.461385       -12.5549
 219   2.0000      -0.458478       -12.4758
 220   2.0000      -0.457087       -12.4380
 221   2.0000      -0.454867       -12.3776
 222   2.0000      -0.452390       -12.3102
 223   2.0000      -0.449142       -12.2218
 224   2.0000      -0.444043       -12.0830
 225   2.0000      -0.441525       -12.0145
 226   2.0000      -0.439657       -11.9637
 227   2.0000      -0.438105       -11.9214
 228   2.0000      -0.437888       -11.9155
 229   2.0000      -0.436527       -11.8785
 230   2.0000      -0.434061       -11.8114
 231   2.0000      -0.431158       -11.7324
 232   2.0000      -0.428226       -11.6526
 233   2.0000      -0.425786       -11.5862
 234   2.0000      -0.424221       -11.5437
 235   2.0000      -0.424056       -11.5392
 236   2.0000      -0.419085       -11.4039
 237   2.0000      -0.417090       -11.3496
 238   2.0000      -0.416666       -11.3381
 239   2.0000      -0.415160       -11.2971
 240   2.0000      -0.413614       -11.2550
 241   2.0000      -0.411506       -11.1977
 242   2.0000      -0.404207       -10.9990
 243   2.0000      -0.400840       -10.9074
 244   2.0000      -0.400247       -10.8913
 245   2.0000      -0.396685       -10.7943
 246   2.0000      -0.393825       -10.7165
 247   2.0000      -0.390002       -10.6125
 248   2.0000      -0.388044       -10.5592
 249   2.0000      -0.383404       -10.4329
 250   2.0000      -0.380417       -10.3517
 251   2.0000      -0.374111       -10.1801
 252   2.0000      -0.368845       -10.0368
 253   2.0000      -0.365688        -9.9509
 254   2.0000      -0.363391        -9.8884
 255   2.0000      -0.360502        -9.8098
 256   2.0000      -0.355846        -9.6831
 257   2.0000      -0.350225        -9.5301
 258   2.0000      -0.342046        -9.3075
 259   2.0000      -0.335516        -9.1299
 260   2.0000      -0.334289        -9.0965
 261   2.0000      -0.330603        -8.9962
 262   2.0000      -0.321598        -8.7511
 263   2.0000      -0.313710        -8.5365
 264   2.0000      -0.306059        -8.3283
 265   2.0000      -0.304209        -8.2779
 266   2.0000      -0.299254        -8.1431
 267   2.0000      -0.295224        -8.0334
 268   2.0000      -0.291629        -7.9356
 269   2.0000      -0.289126        -7.8675
 270   2.0000      -0.283098        -7.7035
 271   2.0000      -0.266100        -7.2409
 272   2.0000      -0.237003        -6.4492
 273   2.0000      -0.223969        -6.0945
 274   0.0000      -0.122150        -3.3239
 275   0.0000      -0.069193        -1.8828
 276   0.0000      -0.054921        -1.4945
 277   0.0000      -0.027073        -0.7367
 278   0.0000      -0.012006        -0.3267

MULLIKEN ATOMIC CHARGES
-----------------------
   0 C :    0.322904
   1 C :   -0.360587
   2 C :   -0.181600
   3 N :    0.133689
   4 C :   -0.191757
   5 N :    0.139859
   6 C :    0.034615
   7 C :    0.018780
   8 C :   -0.073197
   9 C :    0.111323
  10 C :   -0.083184
  11 C :   -0.041907
  12 S :    0.169158
  13 C :   -0.134891
  14 C :    0.061029
  15 Br:    0.019017
  16 C :    0.098608
  17 O :   -0.149595
  18 C :   -0.188946
  19 C :    0.046492
  20 C :    0.014360
  21 C :   -0.014249
  22 C :    0.056555
  23 C :    0.043493
  24 C :   -0.044034
  25 S :    0.078854
  26 C :   -0.010632
  27 C :    0.034357
  28 C :    0.037584
  29 C :   -0.040894
  30 S :    0.083222
  31 C :   -0.030283
  32 C :   -0.138846
  33 S :    0.117448
  34 C :   -0.104617
  35 C :   -0.056863
  36 C :    0.152191
  37 C :    0.114461
  38 C :   -0.207064
  39 S :    0.591900
  40 O :   -0.546799
  41 N :   -0.063939
  42 C :    0.112224
  43 C :   -0.190263
  44 S :    0.117268
  45 C :   -0.170543
  46 C :    0.073791
  47 N :   -0.053118
  48 C :    0.068055
  49 C :   -0.061652
  50 C :    0.128360
  51 C :   -0.127047
  52 C :    0.026988
  53 C :    0.103524
  54 C :   -0.060560
  55 C :   -0.035527
  56 C :    0.104165
  57 C :    0.016047
  58 C :   -0.127961
  59 C :    0.083795
  60 C :    0.031936
  61 C :    0.053343
  62 C :    0.027884
  63 C :   -0.110453
  64 C :    0.112440
  65 C :   -0.016097
  66 C :   -0.051078
  67 C :   -0.001607
  68 C :   -0.018797
  69 H :   -0.019607
  70 H :   -0.008334
  71 H :   -0.013769
  72 H :    0.037368
  73 H :    0.005863
  74 H :   -0.000650
  75 H :   -0.002374
  76 H :   -0.002937
  77 H :   -0.000698
  78 H :   -0.016136
  79 H :    0.040702
  80 H :    0.034065
  81 H :    0.138418
  82 H :    0.002296
  83 H :    0.027117
  84 H :    0.131184
  85 H :    0.020628
  86 H :   -0.035318
  87 H :   -0.053929
  88 H :   -0.040783
  89 H :   -0.018475
  90 H :    0.003311
  91 H :   -0.009517
  92 H :    0.020353
  93 H :    0.006865
  94 H :   -0.001714
  95 H :    0.002236
  96 H :   -0.008219
  97 H :    0.019070
  98 H :    0.001831
  99 H :    0.021317
 100 H :   -0.048002
 101 H :   -0.040990
 102 H :   -0.041747
 103 H :   -0.024143
 104 H :    0.008779
 105 H :    0.014808
Sum of atomic charges:   -0.0000000

LOEWDIN ATOMIC CHARGES
----------------------
   0 C :    0.068896
   1 C :   -0.157851
   2 C :   -0.020389
   3 N :   -0.068197
   4 C :   -0.019708
   5 N :   -0.062954
   6 C :   -0.011258
   7 C :   -0.050265
   8 C :    0.016311
   9 C :   -0.041813
  10 C :   -0.145763
  11 C :   -0.016765
  12 S :    0.431371
  13 C :   -0.276176
  14 C :   -0.070332
  15 Br:    0.143126
  16 C :    0.054461
  17 O :   -0.154618
  18 C :   -0.124904
  19 C :    0.058175
  20 C :   -0.066081
  21 C :   -0.084797
  22 C :   -0.030252
  23 C :   -0.002469
  24 C :   -0.183892
  25 S :    0.437955
  26 C :   -0.153300
  27 C :   -0.034754
  28 C :   -0.016770
  29 C :   -0.158917
  30 S :    0.394868
  31 C :   -0.058208
  32 C :   -0.171142
  33 S :    0.448776
  34 C :   -0.159344
  35 C :   -0.210382
  36 C :   -0.068201
  37 C :    0.003567
  38 C :   -0.219649
  39 S :    0.854473
  40 O :   -0.581589
  41 N :   -0.003221
  42 C :   -0.039094
  43 C :   -0.227166
  44 S :    0.438958
  45 C :   -0.207499
  46 C :   -0.030430
  47 N :    0.010406
  48 C :    0.038195
  49 C :   -0.111144
  50 C :   -0.014458
  51 C :   -0.037243
  52 C :    0.000080
  53 C :   -0.029715
  54 C :   -0.019251
  55 C :   -0.026052
  56 C :   -0.014910
  57 C :    0.000796
  58 C :   -0.033975
  59 C :   -0.009345
  60 C :   -0.060380
  61 C :   -0.016642
  62 C :   -0.056789
  63 C :   -0.023864
  64 C :   -0.031885
  65 C :   -0.015442
  66 C :   -0.022331
  67 C :   -0.018833
  68 C :   -0.053943
  69 H :    0.036664
  70 H :    0.040228
  71 H :    0.034720
  72 H :    0.044731
  73 H :    0.040158
  74 H :    0.039092
  75 H :    0.036945
  76 H :    0.037049
  77 H :    0.037453
  78 H :    0.035506
  79 H :    0.031815
  80 H :    0.028447
  81 H :    0.083363
  82 H :    0.019562
  83 H :    0.026461
  84 H :    0.080498
  85 H :    0.031307
  86 H :    0.017753
  87 H :    0.017473
  88 H :    0.024622
  89 H :    0.026896
  90 H :    0.026630
  91 H :    0.017579
  92 H :    0.024634
  93 H :    0.024930
  94 H :    0.017816
  95 H :    0.017972
  96 H :    0.017741
  97 H :    0.025770
  98 H :    0.020516
  99 H :    0.025482
 100 H :    0.020437
 101 H :    0.023159
 102 H :    0.024612
 103 H :    0.025325
 104 H :    0.017797
 105 H :    0.022791

  Mayer bond orders larger than 0.100000
B(  0-C ,  1-C ) :   1.5841 B(  0-C ,  6-C ) :   0.9892 B(  0-C , 18-C ) :   1.1432
B(  1-C ,  2-C ) :   1.1461 B(  1-C ,  4-C ) :   1.1553 B(  2-C ,  3-N ) :   2.9608
B(  4-C ,  5-N ) :   2.9689 B(  6-C ,  7-C ) :   1.2857 B(  6-C , 11-C ) :   1.4114
B(  7-C ,  8-C ) :   1.4258 B(  7-C , 16-C ) :   0.8981 B(  8-C ,  9-C ) :   1.2407
B(  8-C , 69-H ) :   1.0186 B(  9-C , 10-C ) :   1.3184 B(  9-C , 14-C ) :   1.1585
B( 10-C , 11-C ) :   1.3206 B( 10-C , 12-S ) :   1.0774 B( 11-C , 70-H ) :   0.9815
B( 12-S , 13-C ) :   1.0826 B( 13-C , 14-C ) :   1.6138 B( 13-C , 15-Br) :   1.0125
B( 14-C , 71-H ) :   1.0002 B( 16-C , 17-O ) :   2.2599 B( 16-C , 18-C ) :   0.9380
B( 18-C , 19-C ) :   1.4626 B( 19-C , 20-C ) :   1.2973 B( 19-C , 72-H ) :   0.9409
B( 20-C , 21-C ) :   1.4589 B( 20-C , 73-H ) :   0.9590 B( 21-C , 22-C ) :   1.2068
B( 21-C , 25-S ) :   1.0732 B( 22-C , 23-C ) :   1.5367 B( 22-C , 74-H ) :   0.9956
B( 23-C , 24-C ) :   1.2268 B( 23-C , 75-H ) :   0.9931 B( 24-C , 25-S ) :   1.0507
B( 24-C , 26-C ) :   1.4540 B( 26-C , 27-C ) :   1.1986 B( 26-C , 30-S ) :   1.0724
B( 27-C , 28-C ) :   1.5807 B( 27-C , 76-H ) :   0.9944 B( 28-C , 29-C ) :   1.1444
B( 28-C , 77-H ) :   0.9994 B( 29-C , 30-S ) :   1.0368 B( 29-C , 31-C ) :   1.5688
B( 31-C , 32-C ) :   1.1778 B( 31-C , 78-H ) :   0.9607 B( 32-C , 33-S ) :   1.0838
B( 32-C , 36-C ) :   1.4505 B( 33-S , 34-C ) :   1.1583 B( 34-C , 35-C ) :   1.6324
B( 34-C , 79-H ) :   0.9705 B( 35-C , 36-C ) :   1.2386 B( 35-C , 39-S ) :   0.8259
B( 36-C , 37-C ) :   1.0777 B( 37-C , 38-C ) :   1.6669 B( 37-C , 41-N ) :   1.1174
B( 38-C , 39-S ) :   0.9068 B( 38-C , 80-H ) :   0.9479 B( 39-S , 40-O ) :   1.5377
B( 41-N , 42-C ) :   1.0634 B( 41-N , 81-H ) :   0.8992 B( 42-C , 43-C ) :   1.5253
B( 42-C , 46-C ) :   1.2596 B( 43-C , 44-S ) :   1.1556 B( 43-C , 82-H ) :   0.9781
B( 44-S , 45-C ) :   1.1571 B( 45-C , 46-C ) :   1.5466 B( 45-C , 83-H ) :   0.9676
B( 46-C , 47-N ) :   1.1318 B( 47-N , 48-C ) :   1.1208 B( 47-N , 84-H ) :   0.9270
B( 48-C , 49-C ) :   1.7474 B( 48-C , 85-H ) :   0.9576 B( 49-C , 50-C ) :   1.0490
B( 49-C , 86-H ) :   0.9611 B( 50-C , 51-C ) :   1.2964 B( 50-C , 55-C ) :   1.3625
B( 51-C , 52-C ) :   1.3820 B( 51-C , 87-H ) :   1.0050 B( 52-C , 53-C ) :   1.3837
B( 52-C , 58-C ) :   0.9203 B( 53-C , 54-C ) :   1.3266 B( 53-C , 56-C ) :   0.9937
B( 54-C , 55-C ) :   1.3827 B( 54-C , 88-H ) :   0.9950 B( 55-C , 89-H ) :   0.9792
B( 56-C , 57-C ) :   1.3857 B( 56-C , 66-C ) :   1.3322 B( 57-C , 58-C ) :   0.9251
B( 57-C , 63-C ) :   1.3735 B( 58-C , 59-C ) :   1.0152 B( 58-C , 61-C ) :   1.0328
B( 59-C , 60-C ) :   1.1142 B( 59-C , 90-H ) :   0.9381 B( 59-C , 91-H ) :   0.9364
B( 60-C , 92-H ) :   0.9606 B( 60-C , 93-H ) :   0.9595 B( 60-C , 94-H ) :   0.9624
B( 61-C , 62-C ) :   1.1059 B( 61-C , 95-H ) :   0.9378 B( 61-C , 96-H ) :   0.9385
B( 62-C , 97-H ) :   0.9650 B( 62-C , 98-H ) :   0.9645 B( 62-C , 99-H ) :   0.9625
B( 63-C , 64-C ) :   1.3014 B( 63-C ,100-H ) :   1.0071 B( 64-C , 65-C ) :   1.3566
B( 64-C , 67-C ) :   1.0651 B( 65-C , 66-C ) :   1.3947 B( 65-C ,101-H ) :   0.9858
B( 66-C ,102-H ) :   0.9905 B( 67-C , 68-C ) :   1.9483 B( 67-C ,103-H ) :   0.9678
B( 68-C ,104-H ) :   0.9484 B( 68-C ,105-H ) :   0.9478

-----------------------------------------------------------------------------
         ABSORPTION SPECTRUM VIA TRANSITION ELECTRIC DIPOLE MOMENTS
-----------------------------------------------------------------------------
State   Energy  Wavelength   fosc         T2         TX        TY        TZ
        (cm-1)    (nm)                  (au**2)     (au)      (au)      (au)
-----------------------------------------------------------------------------
   0    9556.9   1046.4   0.371865958  12.80988   0.17072   2.21089   2.80940
   1   12256.5    815.9   0.001004622   0.02698   0.12985  -0.10040   0.00663
   2   19400.8    515.4   0.002614119   0.04436   0.00494   0.05370  -0.20359
   3   20197.4    495.1   0.006903074   0.11252   0.28004  -0.18228   0.02953
   4   20937.0    477.6   0.232002199   3.64799   1.11344  -1.25619  -0.91117
   5   21622.7    462.5   0.504849609   7.68648  -1.72158   2.07417  -0.64843
   6   21698.9    460.9   0.014374229   0.21808   0.28119  -0.35505   0.11381
   7   22198.6    450.5   0.034298315   0.50865   0.40084  -0.47741   0.34650
   8   23859.2    419.1   0.076798056   1.05967  -0.73510   0.44709  -0.56516
   9   24075.1    415.4   0.005842368   0.07989  -0.10967   0.26041  -0.00694
  10   24903.0    401.6   0.003259957   0.04310  -0.15123   0.03415   0.13805
  11   25423.7    393.3   0.395737059   5.12441   1.48221  -1.65621  -0.42944
  12   27388.7    365.1   0.158524331   1.90546  -0.97313   0.90572  -0.37168
  13   28049.9    356.5   0.001480453   0.01738   0.06734   0.10519  -0.04215
  14   28247.4    354.0   0.023048327   0.26862   0.24801  -0.24412  -0.38408
  15   28361.8    352.6   0.068517664   0.79533  -0.64939   0.58840  -0.16553
  16   28474.9    351.2   0.072249575   0.83531  -0.67039   0.61958   0.04482
  17   29832.9    335.2   0.007943729   0.08766   0.08971  -0.24764  -0.13524
  18   30141.6    331.8   0.021098389   0.23044   0.12547  -0.21916   0.40825
  19   30269.8    330.4   0.121470585   1.32111   0.33321  -0.98023   0.49923
  20   31443.1    318.0   0.014850982   0.15549  -0.22774   0.23269   0.22244
  21   31658.7    315.9   0.355842233   3.70033   1.07421  -1.42011  -0.72781
  22   31734.6    315.1   0.096071123   0.99663   0.66771  -0.40978  -0.61878
  23   31805.3    314.4   0.000076880   0.00080   0.01546  -0.00372  -0.02330
  24   32189.2    310.7   0.833980057   8.52945   1.13649  -2.68662   0.14109
  25   32348.8    309.1   0.427470564   4.35035   0.06729  -1.20655   1.70002
  26   32562.1    307.1   0.076699047   0.77545  -0.13887   0.84887  -0.18862
  27   33142.2    301.7   0.165594847   1.64490  -0.21599  -0.37791  -1.20641
  28   33512.7    298.4   0.069418887   0.68194   0.01696  -0.06197   0.82329
  29   33711.3    296.6   0.082915773   0.80973   0.33603  -0.60298   0.57726
  30   34197.3    292.4   0.014883971   0.14329  -0.21461  -0.02702  -0.31064
  31   34299.1    291.6   0.010799471   0.10366   0.06248   0.09014   0.30270
  32   34430.2    290.4   0.024915358   0.23823  -0.28552   0.02412  -0.39514
  33   34582.3    289.2   0.063985844   0.60912  -0.36944   0.67846  -0.11102
  34   35637.2    280.6   0.001238099   0.01144   0.03340  -0.07591   0.06753
  35   35877.3    278.7   0.226789573   2.08103  -0.68249   0.60807   1.11602
  36   36027.8    277.6   0.012837232   0.11730   0.18357   0.00449  -0.28911
  37   36238.6    275.9   0.123167420   1.11892  -0.45763   0.93617   0.18186
  38   36580.8    273.4   0.090780840   0.81699   0.54908  -0.05200  -0.71610
  39   36921.4    270.8   0.019804382   0.17659   0.06624  -0.09440  -0.40409
  40   37077.4    269.7   0.044864486   0.39835  -0.00076   0.09108   0.62455
  41   37984.2    263.3   0.042901502   0.37183   0.37593  -0.41160  -0.24716
  42   38116.6    262.4   0.026604282   0.22978   0.19359  -0.25251  -0.35853
  43   38615.0    259.0   0.009318868   0.07945  -0.00177   0.19259   0.20580
  44   39038.4    256.2   0.159420581   1.34440  -0.49784   0.74821  -0.73263
  45   39075.6    255.9   0.003056365   0.02575  -0.01864   0.14631   0.06322
  46   39164.4    255.3   0.015536989   0.13060  -0.12090   0.21880  -0.26099
  47   39377.6    254.0   0.000275456   0.00230   0.04465  -0.00101   0.01756
  48   39843.1    251.0   0.094271998   0.77894   0.09074  -0.15513  -0.86408
  49   40122.7    249.2   0.015540763   0.12751  -0.24250   0.24157   0.10174
  50   40284.5    248.2   0.008001954   0.06539  -0.21788   0.11776   0.06365

FINAL SINGLE POINT ENERGY     -7484.647273265720

DIPOLE MOMENT
-------------
                                X             Y             Z
Electronic contribution:      6.67612     143.69659      64.75087
Nuclear contribution   :     -8.07723    -140.97292     -69.12604
                        -----------------------------------------
Total Dipole Moment    :     -1.40111       2.72366      -4.37517
                        -----------------------------------------
Magnitude (a.u.)       :      5.34075
Magnitude (Debye)      :     13.57510

Rotational constants in cm-1:     0.001752     0.000335     0.000307
Rotational constants in MHz :    52.530571    10.047325     9.209366

                             ****ORCA TERMINATED NORMALLY****
TOTAL RUN TIME: 0 days 0 hours 12 minutes 13 seconds 544 msec
