                         Program Version 4.2.0 -  RELEASE  -
|  1> # ORCA input file
|  2> # SCF done       -198.260058402336          0.000840487528
|  3> ! CAM-B3LYP def2-SVP def2/J RIJCOSX Grid4 TightSCF
|  4> %maxcore 5000
|  5> %tddft
|  6>     Mode sTDDFT
|  7>     Ethresh 5.0
|  8>     maxcore 5000
|  9> end
| 10>
| 11> %pal
| 12>   nprocs 6
| 13>   end
| 14> * xyz 0 1
| 15>    C      -13.62977         6.89393        10.24529
| 16>    C      -14.13230         7.83318        11.10165
| 17>    F      -13.64715         9.08539        11.09296
| 18>    C      -15.16144         7.50424        12.00388
| 19>    F      -15.63350         8.44594        12.83835
| 20>    C      -15.68508         6.24155        12.03233
| 21>    C      -15.19122         5.25104        11.16271
| 22>    C      -14.13922         5.58069        10.26129
| 23>    C      -13.61233         4.59618         9.39201
| 24>    C      -14.13202         3.33123         9.41893
| 25>    C      -15.20949         3.01926        10.29468
| 26>    C      -15.72705         3.94152        11.15486
| 27>    C      -15.63103         1.61838        10.06067
| 28>    O      -16.52149         1.02592        10.64004
| 29>    C      -14.76328         1.12123         8.97932
| 30>    C      -13.80444         2.13319         8.64878
| 31>    C      -12.71369         2.01488         7.81100
| 32>    C      -12.34240         0.86304         7.09858
| 33>    N      -11.93573        -0.02233         6.48488
| 34>    C      -11.76326         3.02330         7.58793
| 35>    N      -10.92123         3.77096         7.34743
| 36>    C      -14.91311        -0.10096         8.34225
| 37>    C      -15.83337        -1.08663         8.65998
| 38>    C      -15.97781        -2.22805         7.88038
| 39>    C      -16.86386        -3.30833         8.05981
| 40>    C      -16.79908        -4.26179         7.07485
| 41>    C      -15.86072        -3.97089         6.07343
| 42>    S      -15.03777        -2.46672         6.42993
| 43>    C      -15.53918        -4.62199         4.88723
| 44>    C      -16.04532        -5.78307         4.27320
| 45>    C      -15.49913        -6.03303         3.04286
| 46>    C      -14.54296        -5.08113         2.61726
| 47>    S      -14.33081        -3.88262         3.87667
| 48>    C      -13.90286        -5.00402         1.39676
| 49>    C      -13.03298        -3.98035         0.99991
| 50>    C      -12.49675        -3.70851        -0.26855
| 51>    C      -12.75476        -4.55361        -1.47525
| 52>    C      -14.10068        -4.20067        -2.11406
| 53>    C      -11.76646        -2.52320        -0.30508
| 54>    C      -11.69895        -1.84871         0.90596
| 55>    S      -12.53902        -2.74562         2.12572
| 56>    C      -11.05793        -0.63765         1.29977
| 57>    C      -11.33559         0.08420         2.46606
| 58>    C      -12.48063        -0.06222         3.39164
| 59>    C      -10.39809         1.16117         2.62518
| 60>    C       -9.58862         1.14746         1.49719
| 61>    C       -9.95946         0.01917         0.65103
| 62>    C       -9.21902        -0.20816        -0.47791
| 63>    C       -8.17170         0.68933        -0.78018
| 64>    C       -7.89564         1.72215         0.06593
| 65>    O       -8.56294         1.94499         1.19047
| 66>    C      -10.33211         1.89908         3.84709
| 67>    C       -9.92326         3.16311         4.11790
| 68>    C       -9.45738         4.14581         3.21769
| 69>    C       -9.39746         5.47930         3.51347
| 70>    C       -8.50713         6.39848         2.77346
| 71>    O       -7.96207         6.19604         1.70927
| 72>    C       -8.36882         7.58529         3.64926
| 73>    C       -7.56840         8.67938         3.49502
| 74>    C       -7.57086         9.68062         4.49310
| 75>    C       -8.40793         9.52840         5.63621
| 76>    C       -8.39781        10.52656         6.63098
| 77>    C       -7.59534        11.62464         6.49710
| 78>    C       -6.76903        11.77462         5.36622
| 79>    C       -6.75654        10.82437         4.38404
| 80>    F       -5.99001        12.86169         5.26068
| 81>    F       -7.58620        12.57303         7.44443
| 82>    C       -9.23580         8.38928         5.76391
| 83>    C       -9.21637         7.43354         4.78489
| 84>    C       -9.96658         6.19000         4.63516
| 85>    C      -11.12258         5.86670         5.29852
| 86>    C      -12.00149         4.84216         4.88745
| 87>    N      -12.78716         4.07572         4.54998
| 88>    C      -11.61751         6.56549         6.41466
| 89>    N      -12.05811         7.07141         7.34714
| 90>    H      -12.85267         7.15921         9.54527
| 91>    H      -16.47929         6.00897        12.72448
| 92>    H      -12.81839         4.88052         8.72008
| 93>    H      -16.53943         3.68174        11.81669
| 94>    H      -14.27154        -0.29627         7.48992
| 95>    H      -16.47372        -0.96299         9.52076
| 96>    H      -17.53061        -3.35313         8.90266
| 97>    H      -17.40726        -5.14884         7.04962
| 98>    H      -16.79966        -6.39470         4.73535
| 99>    H      -15.77316        -6.86885         2.42246
|100>    H      -14.12901        -5.77649         0.67370
|101>    H      -12.74844        -5.61009        -1.19973
|102>    H      -11.95842        -4.38957        -2.20345
|103>    H      -14.91215        -4.35757        -1.40729
|104>    H      -14.27584        -4.82031        -2.99007
|105>    H      -14.11111        -3.15696        -2.41921
|106>    H      -11.32954        -2.14504        -1.21195
|107>    H      -12.21332        -0.66364         4.26298
|108>    H      -13.33335        -0.53109         2.90819
|109>    H      -12.78038         0.91919         3.75493
|110>    H       -9.40730        -1.04562        -1.12954
|111>    H       -7.58194         0.55959        -1.67111
|112>    H       -7.11064         2.44474        -0.09992
|113>    H      -10.72429         1.34430         4.69043
|114>    H      -10.00195         3.47049         5.15373
|115>    H       -9.04666         3.84525         2.26310
|116>    H       -6.93796         8.78134         2.62469
|117>    H       -9.02629        10.42825         7.50232
|118>    H       -6.11738        10.95430         3.52475
|119>    H       -9.85613         8.29166         6.64076
|120> *
|121>
|122>                          ****END OF INPUT****

CARTESIAN COORDINATES (ANGSTROEM)
---------------------------------
  C    -13.629770    6.893930   10.245290
  C    -14.132300    7.833180   11.101650
  F    -13.647150    9.085390   11.092960
  C    -15.161440    7.504240   12.003880
  F    -15.633500    8.445940   12.838350
  C    -15.685080    6.241550   12.032330
  C    -15.191220    5.251040   11.162710
  C    -14.139220    5.580690   10.261290
  C    -13.612330    4.596180    9.392010
  C    -14.132020    3.331230    9.418930
  C    -15.209490    3.019260   10.294680
  C    -15.727050    3.941520   11.154860
  C    -15.631030    1.618380   10.060670
  O    -16.521490    1.025920   10.640040
  C    -14.763280    1.121230    8.979320
  C    -13.804440    2.133190    8.648780
  C    -12.713690    2.014880    7.811000
  C    -12.342400    0.863040    7.098580
  N    -11.935730   -0.022330    6.484880
  C    -11.763260    3.023300    7.587930
  N    -10.921230    3.770960    7.347430
  C    -14.913110   -0.100960    8.342250
  C    -15.833370   -1.086630    8.659980
  C    -15.977810   -2.228050    7.880380
  C    -16.863860   -3.308330    8.059810
  C    -16.799080   -4.261790    7.074850
  C    -15.860720   -3.970890    6.073430
  S    -15.037770   -2.466720    6.429930
  C    -15.539180   -4.621990    4.887230
  C    -16.045320   -5.783070    4.273200
  C    -15.499130   -6.033030    3.042860
  C    -14.542960   -5.081130    2.617260
  S    -14.330810   -3.882620    3.876670
  C    -13.902860   -5.004020    1.396760
  C    -13.032980   -3.980350    0.999910
  C    -12.496750   -3.708510   -0.268550
  C    -12.754760   -4.553610   -1.475250
  C    -14.100680   -4.200670   -2.114060
  C    -11.766460   -2.523200   -0.305080
  C    -11.698950   -1.848710    0.905960
  S    -12.539020   -2.745620    2.125720
  C    -11.057930   -0.637650    1.299770
  C    -11.335590    0.084200    2.466060
  C    -12.480630   -0.062220    3.391640
  C    -10.398090    1.161170    2.625180
  C     -9.588620    1.147460    1.497190
  C     -9.959460    0.019170    0.651030
  C     -9.219020   -0.208160   -0.477910
  C     -8.171700    0.689330   -0.780180
  C     -7.895640    1.722150    0.065930
  O     -8.562940    1.944990    1.190470
  C    -10.332110    1.899080    3.847090
  C     -9.923260    3.163110    4.117900
  C     -9.457380    4.145810    3.217690
  C     -9.397460    5.479300    3.513470
  C     -8.507130    6.398480    2.773460
  O     -7.962070    6.196040    1.709270
  C     -8.368820    7.585290    3.649260
  C     -7.568400    8.679380    3.495020
  C     -7.570860    9.680620    4.493100
  C     -8.407930    9.528400    5.636210
  C     -8.397810   10.526560    6.630980
  C     -7.595340   11.624640    6.497100
  C     -6.769030   11.774620    5.366220
  C     -6.756540   10.824370    4.384040
  F     -5.990010   12.861690    5.260680
  F     -7.586200   12.573030    7.444430
  C     -9.235800    8.389280    5.763910
  C     -9.216370    7.433540    4.784890
  C     -9.966580    6.190000    4.635160
  C    -11.122580    5.866700    5.298520
  C    -12.001490    4.842160    4.887450
  N    -12.787160    4.075720    4.549980
  C    -11.617510    6.565490    6.414660
  N    -12.058110    7.071410    7.347140
  H    -12.852670    7.159210    9.545270
  H    -16.479290    6.008970   12.724480
  H    -12.818390    4.880520    8.720080
  H    -16.539430    3.681740   11.816690
  H    -14.271540   -0.296270    7.489920
  H    -16.473720   -0.962990    9.520760
  H    -17.530610   -3.353130    8.902660
  H    -17.407260   -5.148840    7.049620
  H    -16.799660   -6.394700    4.735350
  H    -15.773160   -6.868850    2.422460
  H    -14.129010   -5.776490    0.673700
  H    -12.748440   -5.610090   -1.199730
  H    -11.958420   -4.389570   -2.203450
  H    -14.912150   -4.357570   -1.407290
  H    -14.275840   -4.820310   -2.990070
  H    -14.111110   -3.156960   -2.419210
  H    -11.329540   -2.145040   -1.211950
  H    -12.213320   -0.663640    4.262980
  H    -13.333350   -0.531090    2.908190
  H    -12.780380    0.919190    3.754930
  H     -9.407300   -1.045620   -1.129540
  H     -7.581940    0.559590   -1.671110
  H     -7.110640    2.444740   -0.099920
  H    -10.724290    1.344300    4.690430
  H    -10.001950    3.470490    5.153730
  H     -9.046660    3.845250    2.263100
  H     -6.937960    8.781340    2.624690
  H     -9.026290   10.428250    7.502320
  H     -6.117380   10.954300    3.524750
  H     -9.856130    8.291660    6.640760

 Total Charge           Charge          ....    0
 Multiplicity           Mult            ....    1
 Number of Electrons    NEL             ....  532
 Basis Dimension        Dim             .... 1212

ORBITAL ENERGIES
----------------

  NO   OCC          E(Eh)            E(eV)
   0   2.0000     -88.959791     -2420.7190
   1   2.0000     -88.959048     -2420.6988
   2   2.0000     -88.951173     -2420.4845
   3   2.0000     -24.789409      -674.5541
   4   2.0000     -24.788397      -674.5266
   5   2.0000     -24.775172      -674.1667
   6   2.0000     -24.771268      -674.0605
   7   2.0000     -19.336688      -526.1780
   8   2.0000     -19.203283      -522.5479
   9   2.0000     -19.187422      -522.1163
  10   2.0000     -14.409787      -392.1102
  11   2.0000     -14.399345      -391.8261
  12   2.0000     -14.398517      -391.8036
  13   2.0000     -14.396101      -391.7378
  14   2.0000     -10.373870      -282.2873
  15   2.0000     -10.371626      -282.2263
  16   2.0000     -10.371171      -282.2139
  17   2.0000     -10.359761      -281.9034
  18   2.0000     -10.355681      -281.7924
  19   2.0000     -10.354655      -281.7645
  20   2.0000     -10.352030      -281.6931
  21   2.0000     -10.338151      -281.3154
  22   2.0000     -10.331002      -281.1209
  23   2.0000     -10.328974      -281.0657
  24   2.0000     -10.325469      -280.9703
  25   2.0000     -10.321992      -280.8757
  26   2.0000     -10.320497      -280.8350
  27   2.0000     -10.318487      -280.7803
  28   2.0000     -10.317231      -280.7461
  29   2.0000     -10.315750      -280.7058
  30   2.0000     -10.314675      -280.6766
  31   2.0000     -10.314610      -280.6748
  32   2.0000     -10.311847      -280.5996
  33   2.0000     -10.309546      -280.5370
  34   2.0000     -10.306463      -280.4531
  35   2.0000     -10.306420      -280.4519
  36   2.0000     -10.306082      -280.4427
  37   2.0000     -10.305850      -280.4364
  38   2.0000     -10.304967      -280.4124
  39   2.0000     -10.304665      -280.4042
  40   2.0000     -10.302323      -280.3405
  41   2.0000     -10.300247      -280.2840
  42   2.0000     -10.299921      -280.2751
  43   2.0000     -10.299036      -280.2510
  44   2.0000     -10.297812      -280.2177
  45   2.0000     -10.297486      -280.2088
  46   2.0000     -10.295994      -280.1682
  47   2.0000     -10.295631      -280.1584
  48   2.0000     -10.293345      -280.0962
  49   2.0000     -10.292069      -280.0614
  50   2.0000     -10.291974      -280.0588
  51   2.0000     -10.290733      -280.0251
  52   2.0000     -10.290522      -280.0193
  53   2.0000     -10.287651      -279.9412
  54   2.0000     -10.286288      -279.9041
  55   2.0000     -10.285289      -279.8769
  56   2.0000     -10.283165      -279.8191
  57   2.0000     -10.282644      -279.8050
  58   2.0000     -10.282498      -279.8010
  59   2.0000     -10.281097      -279.7629
  60   2.0000     -10.279797      -279.7275
  61   2.0000     -10.278995      -279.7057
  62   2.0000     -10.278960      -279.7047
  63   2.0000     -10.278416      -279.6899
  64   2.0000     -10.275461      -279.6095
  65   2.0000     -10.274711      -279.5891
  66   2.0000     -10.273753      -279.5630
  67   2.0000     -10.273532      -279.5570
  68   2.0000     -10.271300      -279.4963
  69   2.0000     -10.267846      -279.4023
  70   2.0000     -10.265269      -279.3322
  71   2.0000     -10.265158      -279.3292
  72   2.0000     -10.263417      -279.2818
  73   2.0000     -10.263200      -279.2759
  74   2.0000     -10.251531      -278.9583
  75   2.0000      -8.056126      -219.2183
  76   2.0000      -8.054691      -219.1793
  77   2.0000      -8.047230      -218.9762
  78   2.0000      -6.025812      -163.9707
  79   2.0000      -6.024062      -163.9230
  80   2.0000      -6.021440      -163.8517
  81   2.0000      -6.019615      -163.8021
  82   2.0000      -6.017259      -163.7379
  83   2.0000      -6.016777      -163.7248
  84   2.0000      -6.016686      -163.7224
  85   2.0000      -6.012694      -163.6137
  86   2.0000      -6.008567      -163.5014
  87   2.0000      -1.311385       -35.6846
  88   2.0000      -1.296576       -35.2816
  89   2.0000      -1.295034       -35.2397
  90   2.0000      -1.279894       -34.8277
  91   2.0000      -1.246487       -33.9186
  92   2.0000      -1.116880       -30.3918
  93   2.0000      -1.100399       -29.9434
  94   2.0000      -1.011454       -27.5231
  95   2.0000      -1.008509       -27.4429
  96   2.0000      -1.001320       -27.2473
  97   2.0000      -0.999403       -27.1951
  98   2.0000      -0.993832       -27.0435
  99   2.0000      -0.986637       -26.8478
 100   2.0000      -0.982645       -26.7391
 101   2.0000      -0.980109       -26.6701
 102   2.0000      -0.978767       -26.6336
 103   2.0000      -0.977070       -26.5874
 104   2.0000      -0.969309       -26.3762
 105   2.0000      -0.954507       -25.9735
 106   2.0000      -0.939752       -25.5719
 107   2.0000      -0.922003       -25.0890
 108   2.0000      -0.912493       -24.8302
 109   2.0000      -0.905831       -24.6489
 110   2.0000      -0.900244       -24.4969
 111   2.0000      -0.896859       -24.4048
 112   2.0000      -0.889613       -24.2076
 113   2.0000      -0.884972       -24.0813
 114   2.0000      -0.879255       -23.9258
 115   2.0000      -0.874670       -23.8010
 116   2.0000      -0.870628       -23.6910
 117   2.0000      -0.865241       -23.5444
 118   2.0000      -0.861621       -23.4459
 119   2.0000      -0.851128       -23.1604
 120   2.0000      -0.837675       -22.7943
 121   2.0000      -0.830504       -22.5992
 122   2.0000      -0.829919       -22.5833
 123   2.0000      -0.824687       -22.4409
 124   2.0000      -0.818928       -22.2842
 125   2.0000      -0.813060       -22.1245
 126   2.0000      -0.809510       -22.0279
 127   2.0000      -0.802300       -21.8317
 128   2.0000      -0.789761       -21.4905
 129   2.0000      -0.781710       -21.2714
 130   2.0000      -0.766816       -20.8661
 131   2.0000      -0.754821       -20.5397
 132   2.0000      -0.745585       -20.2884
 133   2.0000      -0.740855       -20.1597
 134   2.0000      -0.735995       -20.0275
 135   2.0000      -0.729480       -19.8502
 136   2.0000      -0.723559       -19.6890
 137   2.0000      -0.712328       -19.3834
 138   2.0000      -0.706422       -19.2227
 139   2.0000      -0.703945       -19.1553
 140   2.0000      -0.696789       -18.9606
 141   2.0000      -0.694309       -18.8931
 142   2.0000      -0.687707       -18.7134
 143   2.0000      -0.677191       -18.4273
 144   2.0000      -0.670405       -18.2427
 145   2.0000      -0.668771       -18.1982
 146   2.0000      -0.662669       -18.0321
 147   2.0000      -0.657202       -17.8834
 148   2.0000      -0.652481       -17.7549
 149   2.0000      -0.650184       -17.6924
 150   2.0000      -0.644691       -17.5429
 151   2.0000      -0.635286       -17.2870
 152   2.0000      -0.632319       -17.2063
 153   2.0000      -0.629803       -17.1378
 154   2.0000      -0.625529       -17.0215
 155   2.0000      -0.621149       -16.9023
 156   2.0000      -0.616946       -16.7880
 157   2.0000      -0.610951       -16.6248
 158   2.0000      -0.609965       -16.5980
 159   2.0000      -0.607703       -16.5364
 160   2.0000      -0.606371       -16.5002
 161   2.0000      -0.603587       -16.4244
 162   2.0000      -0.599936       -16.3251
 163   2.0000      -0.590886       -16.0788
 164   2.0000      -0.587678       -15.9915
 165   2.0000      -0.582274       -15.8445
 166   2.0000      -0.581302       -15.8180
 167   2.0000      -0.576176       -15.6785
 168   2.0000      -0.569985       -15.5101
 169   2.0000      -0.563973       -15.3465
 170   2.0000      -0.562617       -15.3096
 171   2.0000      -0.560272       -15.2458
 172   2.0000      -0.559981       -15.2379
 173   2.0000      -0.554324       -15.0839
 174   2.0000      -0.550961       -14.9924
 175   2.0000      -0.549095       -14.9416
 176   2.0000      -0.547831       -14.9072
 177   2.0000      -0.544213       -14.8088
 178   2.0000      -0.537999       -14.6397
 179   2.0000      -0.536760       -14.6060
 180   2.0000      -0.533166       -14.5082
 181   2.0000      -0.531418       -14.4606
 182   2.0000      -0.528107       -14.3705
 183   2.0000      -0.524866       -14.2823
 184   2.0000      -0.522182       -14.2093
 185   2.0000      -0.522146       -14.2083
 186   2.0000      -0.520853       -14.1731
 187   2.0000      -0.516942       -14.0667
 188   2.0000      -0.513757       -13.9800
 189   2.0000      -0.512602       -13.9486
 190   2.0000      -0.511036       -13.9060
 191   2.0000      -0.509194       -13.8559
 192   2.0000      -0.507246       -13.8029
 193   2.0000      -0.505330       -13.7507
 194   2.0000      -0.504802       -13.7364
 195   2.0000      -0.504011       -13.7148
 196   2.0000      -0.502588       -13.6761
 197   2.0000      -0.500747       -13.6260
 198   2.0000      -0.495438       -13.4815
 199   2.0000      -0.494035       -13.4434
 200   2.0000      -0.492387       -13.3985
 201   2.0000      -0.491571       -13.3763
 202   2.0000      -0.487351       -13.2615
 203   2.0000      -0.485578       -13.2133
 204   2.0000      -0.480475       -13.0744
 205   2.0000      -0.479542       -13.0490
 206   2.0000      -0.476236       -12.9590
 207   2.0000      -0.474684       -12.9168
 208   2.0000      -0.473693       -12.8898
 209   2.0000      -0.472718       -12.8633
 210   2.0000      -0.468969       -12.7613
 211   2.0000      -0.464310       -12.6345
 212   2.0000      -0.461979       -12.5711
 213   2.0000      -0.461313       -12.5530
 214   2.0000      -0.459985       -12.5168
 215   2.0000      -0.457700       -12.4547
 216   2.0000      -0.457252       -12.4425
 217   2.0000      -0.454612       -12.3706
 218   2.0000      -0.449745       -12.2382
 219   2.0000      -0.446988       -12.1632
 220   2.0000      -0.442513       -12.0414
 221   2.0000      -0.442069       -12.0293
 222   2.0000      -0.440988       -11.9999
 223   2.0000      -0.439940       -11.9714
 224   2.0000      -0.437123       -11.8947
 225   2.0000      -0.435354       -11.8466
 226   2.0000      -0.434153       -11.8139
 227   2.0000      -0.431863       -11.7516
 228   2.0000      -0.430628       -11.7180
 229   2.0000      -0.428993       -11.6735
 230   2.0000      -0.426987       -11.6189
 231   2.0000      -0.425453       -11.5772
 232   2.0000      -0.422606       -11.4997
 233   2.0000      -0.420471       -11.4416
 234   2.0000      -0.418578       -11.3901
 235   2.0000      -0.414344       -11.2749
 236   2.0000      -0.412570       -11.2266
 237   2.0000      -0.410032       -11.1575
 238   2.0000      -0.409367       -11.1394
 239   2.0000      -0.406209       -11.0535
 240   2.0000      -0.405370       -11.0307
 241   2.0000      -0.402134       -10.9426
 242   2.0000      -0.399765       -10.8782
 243   2.0000      -0.389901       -10.6097
 244   2.0000      -0.386379       -10.5139
 245   2.0000      -0.383902       -10.4465
 246   2.0000      -0.380254       -10.3473
 247   2.0000      -0.376073       -10.2335
 248   2.0000      -0.363737        -9.8978
 249   2.0000      -0.357428        -9.7261
 250   2.0000      -0.353596        -9.6218
 251   2.0000      -0.349317        -9.5054
 252   2.0000      -0.333758        -9.0820
 253   2.0000      -0.328746        -8.9456
 254   2.0000      -0.325129        -8.8472
 255   2.0000      -0.318816        -8.6754
 256   2.0000      -0.316674        -8.6171
 257   2.0000      -0.308681        -8.3996
 258   2.0000      -0.306011        -8.3270
 259   2.0000      -0.300071        -8.1653
 260   2.0000      -0.291946        -7.9443
 261   2.0000      -0.289936        -7.8896
 262   2.0000      -0.277247        -7.5443
 263   2.0000      -0.269452        -7.3322
 264   2.0000      -0.250835        -6.8256
 265   2.0000      -0.213888        -5.8202
 266   0.0000      -0.106386        -2.8949
 267   0.0000      -0.078842        -2.1454
 268   0.0000      -0.058038        -1.5793
 269   0.0000      -0.052280        -1.4226
 270   0.0000      -0.044811        -1.2194

MULLIKEN ATOMIC CHARGES
-----------------------
   0 C :   -0.097642
   1 C :    0.236177
   2 F :   -0.179929
   3 C :    0.238053
   4 F :   -0.181801
   5 C :   -0.117384
   6 C :    0.115130
   7 C :    0.107126
   8 C :   -0.078434
   9 C :    0.048688
  10 C :    0.000999
  11 C :   -0.095097
  12 C :    0.140256
  13 O :   -0.167684
  14 C :   -0.096931
  15 C :    0.341784
  16 C :   -0.383302
  17 C :   -0.153491
  18 N :    0.096810
  19 C :   -0.127870
  20 N :    0.083566
  21 C :   -0.049502
  22 C :   -0.019166
  23 C :    0.013314
  24 C :    0.012670
  25 C :    0.046847
  26 C :   -0.052849
  27 S :    0.081576
  28 C :    0.006306
  29 C :    0.016971
  30 C :    0.051946
  31 C :   -0.064155
  32 S :    0.065928
  33 C :    0.051951
  34 C :   -0.108493
  35 C :   -0.007290
  36 C :    0.066637
  37 C :    0.019707
  38 C :   -0.047350
  39 C :   -0.069132
  40 S :    0.070335
  41 C :    0.104468
  42 C :   -0.172830
  43 C :    0.101953
  44 C :    0.000886
  45 C :    0.092842
  46 C :    0.032874
  47 C :    0.016466
  48 C :   -0.038835
  49 C :    0.186464
  50 O :   -0.147698
  51 C :   -0.000548
  52 C :    0.000288
  53 C :    0.060423
  54 C :   -0.135146
  55 C :    0.147653
  56 O :   -0.158260
  57 C :    0.001394
  58 C :   -0.086171
  59 C :    0.113205
  60 C :    0.114201
  61 C :   -0.108043
  62 C :    0.240312
  63 C :    0.235573
  64 C :   -0.104778
  65 F :   -0.176030
  66 F :   -0.174422
  67 C :   -0.088495
  68 C :    0.047120
  69 C :    0.282822
  70 C :   -0.316217
  71 C :   -0.225400
  72 N :    0.166968
  73 C :   -0.126722
  74 N :    0.133723
  75 H :   -0.008559
  76 H :   -0.009984
  77 H :   -0.018714
  78 H :   -0.020291
  79 H :    0.018224
  80 H :    0.012160
  81 H :   -0.003476
  82 H :   -0.008352
  83 H :   -0.010073
  84 H :   -0.005841
  85 H :   -0.007087
  86 H :    0.013560
  87 H :    0.005594
  88 H :    0.014209
  89 H :    0.021105
  90 H :    0.017836
  91 H :   -0.037965
  92 H :    0.061562
  93 H :    0.026872
  94 H :    0.047291
  95 H :   -0.008476
  96 H :    0.016475
  97 H :    0.046275
  98 H :    0.011369
  99 H :    0.015384
 100 H :   -0.004925
 101 H :   -0.014573
 102 H :    0.005260
 103 H :   -0.003881
 104 H :   -0.006296
Sum of atomic charges:   -0.0000000

LOEWDIN ATOMIC CHARGES
----------------------
   0 C :   -0.023380
   1 C :    0.058727
   2 F :   -0.058226
   3 C :    0.064190
   4 F :   -0.058921
   5 C :   -0.041208
   6 C :   -0.010752
   7 C :   -0.008280
   8 C :    0.016356
   9 C :   -0.023393
  10 C :   -0.048554
  11 C :    0.019037
  12 C :    0.080164
  13 O :   -0.163864
  14 C :   -0.118363
  15 C :    0.082111
  16 C :   -0.177350
  17 C :   -0.000448
  18 N :   -0.087683
  19 C :    0.007733
  20 N :   -0.093689
  21 C :    0.044387
  22 C :   -0.079813
  23 C :   -0.100607
  24 C :   -0.055830
  25 C :   -0.007018
  26 C :   -0.205169
  27 S :    0.410562
  28 C :   -0.140290
  29 C :   -0.057629
  30 C :   -0.005314
  31 C :   -0.183395
  32 S :    0.400777
  33 C :   -0.018638
  34 C :   -0.204907
  35 C :   -0.018019
  36 C :   -0.029007
  37 C :   -0.047078
  38 C :   -0.087321
  39 C :   -0.119504
  40 S :    0.472469
  41 C :   -0.114802
  42 C :    0.043357
  43 C :   -0.071156
  44 C :   -0.101245
  45 C :    0.070629
  46 C :   -0.016855
  47 C :    0.033748
  48 C :   -0.076038
  49 C :    0.095494
  50 O :    0.066680
  51 C :    0.041255
  52 C :   -0.049333
  53 C :    0.076032
  54 C :   -0.098351
  55 C :    0.081150
  56 O :   -0.159011
  57 C :   -0.052409
  58 C :    0.025741
  59 C :   -0.011081
  60 C :   -0.006206
  61 C :   -0.030913
  62 C :    0.065423
  63 C :    0.064583
  64 C :   -0.034567
  65 F :   -0.053441
  66 F :   -0.051493
  67 C :    0.010525
  68 C :   -0.016469
  69 C :    0.071824
  70 C :   -0.129779
  71 C :   -0.013574
  72 N :   -0.063858
  73 C :    0.009990
  74 N :   -0.067545
  75 H :    0.040098
  76 H :    0.040773
  77 H :    0.037843
  78 H :    0.035952
  79 H :    0.027435
  80 H :    0.038036
  81 H :    0.036573
  82 H :    0.034816
  83 H :    0.033543
  84 H :    0.035965
  85 H :    0.040938
  86 H :    0.028927
  87 H :    0.031455
  88 H :    0.023319
  89 H :    0.025911
  90 H :    0.027276
  91 H :    0.022251
  92 H :    0.045722
  93 H :    0.023993
  94 H :    0.045621
  95 H :    0.035936
  96 H :    0.043745
  97 H :    0.040905
  98 H :    0.045289
  99 H :    0.037729
 100 H :    0.031417
 101 H :    0.038235
 102 H :    0.046879
 103 H :    0.043305
 104 H :    0.038945

  Mayer bond orders larger than 0.100000
B(  0-C ,  1-C ) :   1.4307 B(  0-C ,  5-C ) :   0.1120 B(  0-C ,  7-C ) :   1.2005
B(  0-C , 75-H ) :   0.9918 B(  1-C ,  2-F ) :   1.1300 B(  1-C ,  3-C ) :   1.1950
B(  3-C ,  4-F ) :   1.1230 B(  3-C ,  5-C ) :   1.4346 B(  5-C ,  6-C ) :   1.1967
B(  5-C , 76-H ) :   1.0086 B(  6-C ,  7-C ) :   1.2571 B(  6-C , 11-C ) :   1.1738
B(  7-C ,  8-C ) :   1.2130 B(  8-C ,  9-C ) :   1.4518 B(  8-C , 77-H ) :   0.9940
B(  9-C , 10-C ) :   1.2160 B(  9-C , 15-C ) :   0.9699 B( 10-C , 11-C ) :   1.4857
B( 10-C , 12-C ) :   0.9274 B( 11-C , 78-H ) :   1.0170 B( 12-C , 13-O ) :   2.1967
B( 12-C , 14-C ) :   0.9731 B( 14-C , 15-C ) :   1.1616 B( 14-C , 21-C ) :   1.4005
B( 15-C , 16-C ) :   1.5181 B( 16-C , 17-C ) :   1.1843 B( 16-C , 19-C ) :   1.1832
B( 17-C , 18-N ) :   2.8387 B( 19-C , 20-N ) :   2.8123 B( 21-C , 22-C ) :   1.3367
B( 21-C , 79-H ) :   0.9424 B( 22-C , 23-C ) :   1.3456 B( 22-C , 80-H ) :   0.9832
B( 23-C , 24-C ) :   1.2279 B( 23-C , 27-S ) :   1.1054 B( 24-C , 25-C ) :   1.4838
B( 24-C , 81-H ) :   1.0007 B( 25-C , 26-C ) :   1.2710 B( 25-C , 82-H ) :   0.9965
B( 26-C , 27-S ) :   1.0476 B( 26-C , 28-C ) :   1.3959 B( 28-C , 29-C ) :   1.2340
B( 28-C , 32-S ) :   1.0961 B( 29-C , 30-C ) :   1.5334 B( 29-C , 83-H ) :   0.9957
B( 30-C , 31-C ) :   1.1915 B( 30-C , 84-H ) :   0.9974 B( 31-C , 32-S ) :   1.0297
B( 31-C , 33-C ) :   1.4964 B( 33-C , 34-C ) :   1.2578 B( 33-C , 85-H ) :   0.9615
B( 34-C , 35-C ) :   1.3797 B( 34-C , 40-S ) :   1.0529 B( 35-C , 36-C ) :   1.0713
B( 35-C , 38-C ) :   1.3504 B( 36-C , 37-C ) :   1.0983 B( 36-C , 86-H ) :   0.9217
B( 36-C , 87-H ) :   0.9254 B( 37-C , 88-H ) :   0.9717 B( 37-C , 89-H ) :   0.9672
B( 37-C , 90-H ) :   0.9689 B( 38-C , 39-C ) :   1.3994 B( 38-C , 91-H ) :   0.9959
B( 39-C , 40-S ) :   1.1695 B( 39-C , 41-C ) :   1.1057 B( 41-C , 42-C ) :   1.4299
B( 41-C , 46-C ) :   1.1297 B( 42-C , 43-C ) :   1.1267 B( 42-C , 44-C ) :   1.2142
B( 43-C , 92-H ) :   0.8983 B( 43-C , 93-H ) :   0.9256 B( 43-C , 94-H ) :   0.9305
B( 44-C , 45-C ) :   1.4247 B( 44-C , 51-C ) :   1.0739 B( 45-C , 46-C ) :   1.1004
B( 45-C , 50-O ) :   1.1408 B( 46-C , 47-C ) :   1.5096 B( 47-C , 48-C ) :   1.2116
B( 47-C , 95-H ) :   0.9861 B( 48-C , 49-C ) :   1.5891 B( 48-C , 96-H ) :   0.9684
B( 49-C , 50-O ) :   1.1578 B( 49-C , 97-H ) :   0.9809 B( 51-C , 52-C ) :   1.7172
B( 51-C , 98-H ) :   0.9429 B( 52-C , 53-C ) :   1.1450 B( 52-C , 99-H ) :   0.9270
B( 53-C , 54-C ) :   1.6151 B( 53-C ,100-H ) :   0.9437 B( 54-C , 55-C ) :   0.9554
B( 54-C , 69-C ) :   1.0518 B( 55-C , 56-O ) :   2.2546 B( 55-C , 57-C ) :   0.9170
B( 57-C , 58-C ) :   1.4800 B( 57-C , 68-C ) :   1.2172 B( 58-C , 59-C ) :   1.1924
B( 58-C ,101-H ) :   1.0148 B( 59-C , 60-C ) :   1.2606 B( 59-C , 64-C ) :   1.1938
B( 60-C , 61-C ) :   1.1905 B( 60-C , 67-C ) :   1.2096 B( 61-C , 62-C ) :   1.4410
B( 61-C , 64-C ) :   0.1091 B( 61-C ,102-H ) :   1.0065 B( 62-C , 63-C ) :   1.1956
B( 62-C , 66-F ) :   1.1304 B( 63-C , 64-C ) :   1.4431 B( 63-C , 65-F ) :   1.1293
B( 64-C ,103-H ) :   1.0062 B( 67-C , 68-C ) :   1.4653 B( 67-C ,104-H ) :   0.9930
B( 68-C , 69-C ) :   0.9980 B( 69-C , 70-C ) :   1.6432 B( 70-C , 71-C ) :   1.1747
B( 70-C , 73-C ) :   1.1382 B( 71-C , 72-N ) :   2.9872 B( 73-C , 74-N ) :   2.9079

-----------------------------------------------------------------------------
         ABSORPTION SPECTRUM VIA TRANSITION ELECTRIC DIPOLE MOMENTS
-----------------------------------------------------------------------------
State   Energy  Wavelength   fosc         T2         TX        TY        TZ
        (cm-1)    (nm)                  (au**2)     (au)      (au)      (au)
-----------------------------------------------------------------------------
   0    8818.2   1134.0   0.456670871  17.04906  -1.20158   1.46766   3.66759
   1   16608.4    602.1   0.245410077   4.86452  -0.18756   1.69984   1.39280
   2   17955.3    556.9   0.651966711  11.95385  -1.37360  -3.08880  -0.72553
   3   18536.1    539.5   0.387862360   6.88867  -0.83941  -2.35107  -0.81028
   4   20734.5    482.3   0.468095604   7.43218   1.28798   2.40198  -0.06159
   5   21861.2    457.4   0.221774135   3.33973  -0.87411   0.99614   1.25832
   6   22241.6    449.6   0.461359503   6.82887  -1.86560  -1.22883   1.35587
   7   23848.3    419.3   0.068637301   0.94750  -0.63832  -0.68949   0.25427
   8   24523.9    407.8   0.042611586   0.57202   0.10507   0.72419   0.19113
   9   24876.0    402.0   0.291650176   3.85973   0.27428   1.83482   0.64648
  10   25293.5    395.4   0.005369786   0.06989  -0.03605  -0.24983  -0.07858
  11   26377.9    379.1   0.003214400   0.04012  -0.08196   0.05933   0.17286
  12   26413.2    378.6   0.137928534   1.71913  -0.33121   0.99209   0.79069
  13   27098.2    369.0   0.057001222   0.69250  -0.60251  -0.01645   0.57377
  14   27659.7    361.5   0.022486489   0.26764  -0.13721  -0.24834   0.43260
  15   28061.4    356.4   0.036838425   0.43218  -0.12247  -0.63927  -0.09231
  16   28206.0    354.5   0.061644545   0.71950  -0.49840  -0.68024  -0.09147
  17   28829.5    346.9   0.112701477   1.28697   0.28849   0.88170   0.65295
  18   29346.1    340.8   0.014976228   0.16801  -0.07056  -0.37207  -0.15683
  19   29584.0    338.0   0.005694793   0.06337  -0.09273  -0.15027  -0.17942
  20   29931.8    334.1   0.057333442   0.63060  -0.63406  -0.21251   0.42827
  21   30044.7    332.8   0.185096799   2.02818   0.07905  -1.04288  -0.96661
  22   30327.1    329.7   0.023207797   0.25193   0.06695  -0.29986  -0.39690
  23   30503.7    327.8   0.077131294   0.83244  -0.18248  -0.87718  -0.17230
  24   30594.7    326.9   0.083766229   0.90136  -0.54688  -0.77468  -0.04647
  25   31203.9    320.5   0.166556451   1.75723  -0.32284   1.01706   0.78651
  26   31432.9    318.1   0.062716575   0.65686  -0.53837  -0.30152   0.52546
  27   31688.0    315.6   0.002037086   0.02116   0.01866  -0.14020   0.03404
  28   32231.2    310.3   0.109138405   1.11475   0.42736  -0.90630  -0.33276
  29   32526.3    307.4   0.014118628   0.14290  -0.15814  -0.21335  -0.26903
  30   32648.5    306.3   0.102227245   1.03081   0.62892  -0.20144  -0.77116
  31   33209.2    301.1   0.080737248   0.80037  -0.03869  -0.79372  -0.41095
  32   33561.9    298.0   0.148540064   1.45705   0.87149   0.83478   0.02637
  33   33949.3    294.6   0.044632357   0.43281  -0.41014   0.23871   0.45564
  34   34245.5    292.0   0.011997041   0.11533   0.12457   0.01366  -0.31564
  35   34543.1    289.5   0.021011270   0.20025   0.35220  -0.18527  -0.20463
  36   34634.2    288.7   0.034132848   0.32445  -0.38536  -0.04714   0.41680
  37   34784.4    287.5   0.152733073   1.44552   0.56660   1.03573   0.22749
  38   35011.2    285.6   0.312529690   2.93873  -1.22844  -1.14761   0.33564
  39   35347.4    282.9   0.012700572   0.11829  -0.29141   0.17739  -0.04361
  40   35397.9    282.5   0.014991351   0.13942  -0.24250   0.09457   0.26773
  41   35654.6    280.5   0.121387108   1.12081   0.51157   0.82455   0.42335
  42   36145.7    276.7   0.131186819   1.19484  -0.44610  -0.99746  -0.03003
  43   36428.5    274.5   0.535048965   4.83535  -1.25909  -1.77685   0.30473
  44   36806.3    271.7   0.212307474   1.89897  -0.82255   0.46662   1.00232
  45   37266.6    268.3   0.026027492   0.22993   0.12369  -0.31046  -0.34386
  46   37562.4    266.2   0.266232679   2.33337  -0.79131   0.77228   1.05393
  47   38165.4    262.0   0.030685869   0.26469  -0.39170  -0.07192   0.32572
  48   38199.2    261.8   0.054620405   0.47073  -0.29357  -0.61842   0.04586
  49   38211.2    261.7   0.070450075   0.60697   0.59397  -0.14222  -0.48368
  50   38311.1    261.0   0.031289020   0.26887   0.27492   0.37461  -0.23013
  51   38461.7    260.0   0.007984199   0.06834   0.18427   0.17976  -0.04551
  52   38681.4    258.5   0.000238894   0.00203  -0.00706   0.04005   0.01948
  53   38917.4    257.0   0.128349065   1.08574  -0.74032   0.00598   0.73323
  54   38946.1    256.8   0.025905648   0.21898  -0.03863   0.29242   0.36329
  55   39026.6    256.2   0.004346848   0.03667  -0.18444   0.02741   0.04356
  56   39050.8    256.1   0.046333415   0.39061   0.20404  -0.44419  -0.38945
  57   39291.5    254.5   0.003612094   0.03026   0.13813  -0.04607  -0.09520
  58   39693.1    251.9   0.033797014   0.28031  -0.47284  -0.01844   0.23746
  59   39916.3    250.5   0.039412161   0.32505   0.23654   0.50851   0.10255
  60   40245.6    248.5   0.018224988   0.14908   0.30789   0.17907  -0.14906
  61   40311.6    248.1   0.025275489   0.20642   0.29309  -0.29073  -0.18971

FINAL SINGLE POINT ENERGY     -4376.704472015907

DIPOLE MOMENT
-------------
                                X             Y             Z
Electronic contribution:     15.86167      81.13946      55.14340
Nuclear contribution   :    -15.33016     -85.77808     -59.88041
                        -----------------------------------------
Total Dipole Moment    :      0.53150      -4.63862      -4.73701
                        -----------------------------------------
Magnitude (a.u.)       :      6.65121
Magnitude (Debye)      :     16.90602

Rotational constants in cm-1:     0.000958     0.000503     0.000336
Rotational constants in MHz :    28.705756    15.093684    10.083246

                             ****ORCA TERMINATED NORMALLY****
TOTAL RUN TIME: 0 days 0 hours 11 minutes 35 seconds 989 msec
