                         Program Version 4.2.0 -  RELEASE  -
|  1> # ORCA input file
|  2> # SCF done       -191.080344362362          0.000526847052
|  3> ! CAM-B3LYP def2-SVP def2/J RIJCOSX Grid4 TightSCF
|  4> %maxcore 5000
|  5> %tddft
|  6>     Mode sTDDFT
|  7>     Ethresh 5.0
|  8>     maxcore 5000
|  9> end
| 10>
| 11> %pal
| 12>   nprocs 6
| 13>   end
| 14> * xyz 0 1
| 15>    C       -3.05062        -2.60518         5.95258
| 16>    O       -2.85215        -3.76916         5.68433
| 17>    C       -2.88090        -1.99042         7.28946
| 18>    C       -3.17036        -0.61732         7.22816
| 19>    C       -3.06914         0.15491         8.37756
| 20>    C       -2.68739        -0.45680         9.56146
| 21>    C       -2.40999        -1.81740         9.59836
| 22>    C       -2.49830        -2.60888         8.46178
| 23>   Br       -1.89680        -2.61223        11.24653
| 24>    C       -3.54789        -0.28120         5.85994
| 25>    C       -4.01903         0.93598         5.44344
| 26>    C       -4.14120         2.06372         6.28242
| 27>    N       -4.25752         3.01610         6.91253
| 28>    C       -4.48143         1.23302         4.14329
| 29>    N       -4.89584         1.55522         3.12195
| 30>    C       -3.42365        -1.48498         5.05212
| 31>    C       -3.44096        -1.50406         3.68856
| 32>    C       -3.43403        -2.62730         2.79971
| 33>    C       -3.99329        -3.87043         3.14155
| 34>    C       -3.95985        -4.89310         2.22958
| 35>    C       -3.38285        -4.71321         0.95849
| 36>    C       -2.85336        -3.47868         0.59803
| 37>    C       -2.89808        -2.44834         1.51037
| 38>    C       -3.50425        -5.94896         0.22055
| 39>    C       -4.15107        -6.89470         1.03645
| 40>    C       -4.48716        -6.29905         2.38212
| 41>    C       -3.76671        -7.03768         3.52627
| 42>    C       -2.25332        -7.06536         3.35276
| 43>    C       -6.00586        -6.30697         2.63727
| 44>    C       -6.79405        -5.58983         1.54762
| 45>    C       -4.40920        -8.15812         0.56720
| 46>    C       -4.04811        -8.50517        -0.74423
| 47>    C       -3.38991        -7.55627        -1.53943
| 48>    C       -3.11345        -6.28981        -1.06808
| 49>    C       -4.40644        -9.81863        -1.22360
| 50>    C       -4.38079       -10.23441        -2.50082
| 51>    N       -4.81410       -11.47868        -2.87655
| 52>    C       -4.98783       -11.91463        -4.14592
| 53>    S       -4.51452       -10.95502        -5.50798
| 54>    C       -5.17506       -12.16442        -6.56944
| 55>    N       -5.06899       -11.93393        -7.93675
| 56>    O       -5.52854       -12.76975        -8.69737
| 57>    O       -4.51400       -10.89762        -8.27752
| 58>    C       -5.72453       -13.22918        -5.90457
| 59>    C       -5.61774       -13.11748        -4.50646
| 60>    C       -6.08893       -14.08533        -3.55727
| 61>    C       -7.10816       -14.95064        -3.79184
| 62>    C       -7.55997       -15.90417        -2.85994
| 63>    C       -8.72274       -16.61973        -2.99373
| 64>    C       -9.24159       -17.58524        -2.09647
| 65>    C      -10.46685       -18.07062        -2.44228
| 66>    C      -10.99197       -17.51184        -3.62686
| 67>    S       -9.85025       -16.37895        -4.32000
| 68>    C      -12.24032       -17.71936        -4.18459
| 69>    C      -13.27360       -18.55530        -3.70467
| 70>    C      -14.43091       -18.47931        -4.41892
| 71>    C      -14.38674       -17.58264        -5.51282
| 72>    S      -12.77400       -16.86859        -5.61120
| 73>    C      -15.33491       -17.20209        -6.42793
| 74>    C      -16.70980       -17.51940        -6.49027
| 75>    C      -17.53254       -17.03713        -7.57408
| 76>    C      -18.83245       -17.44199        -7.37329
| 77>    C      -20.01143       -17.22387        -8.12444
| 78>    C      -21.17667       -17.74737        -7.64097
| 79>    C      -22.52043       -17.70796        -8.13521
| 80>    C      -23.33741       -18.39595        -7.26114
| 81>    C      -22.52426       -18.89045        -6.18812
| 82>    C      -21.21140       -18.50664        -6.40159
| 83>    C      -20.04073       -18.72865        -5.65455
| 84>    C      -18.86469       -18.20148        -6.13507
| 85>    C      -17.54092       -18.22918        -5.62416
| 86>    C      -24.76075       -18.57334        -7.41763
| 87>    C      -25.55645       -19.23044        -6.57792
| 88>    H       -3.27435         1.21264         8.37009
| 89>    H       -2.60388         0.12862        10.46419
| 90>    H       -2.28139        -3.66567         8.48295
| 91>    H       -3.42468        -0.54214         3.18820
| 92>    H       -4.46929        -4.00370         4.09791
| 93>    H       -2.42395        -3.32692        -0.38068
| 94>    H       -2.49287        -1.48182         1.24713
| 95>    H       -4.14836        -8.05994         3.57612
| 96>    H       -4.00627        -6.53964         4.46711
| 97>    H       -1.97807        -7.53652         2.41117
| 98>    H       -1.79701        -7.62493         4.16567
| 99>    H       -1.85120        -6.05538         3.36731
|100>    H       -6.19924        -5.82936         3.59974
|101>    H       -6.34324        -7.34333         2.70593
|102>    H       -6.48895        -4.54835         1.47363
|103>    H       -7.85745        -5.62063         1.77347
|104>    H       -6.63379        -6.06304         0.58122
|105>    H       -4.90889        -8.88619         1.19043
|106>    H       -3.08581        -7.82141        -2.53980
|107>    H       -2.60546        -5.57371        -1.69634
|108>    H       -4.78251       -10.50255        -0.47156
|109>    H       -4.04722        -9.61056        -3.31536
|110>    H       -5.15225       -12.08843        -2.14177
|111>    H       -6.16225       -14.06426        -6.41967
|112>    H       -5.60606       -14.10541        -2.58765
|113>    H       -7.64742       -14.89103        -4.72778
|114>    H       -6.97438       -16.06859        -1.96467
|115>    H       -8.69369       -17.88447        -1.22023
|116>    H      -11.00901       -18.80310        -1.87133
|117>    H      -13.13830       -19.18512        -2.84342
|118>    H      -15.30464       -19.06035        -4.19300
|119>    H      -14.98890       -16.53242        -7.20636
|120>    H      -17.16391       -16.45303        -8.39865
|121>    H      -19.97530       -16.65646        -9.04394
|122>    H      -22.82899       -17.21716        -9.04020
|123>    H      -22.88165       -19.46557        -5.35371
|124>    H      -20.07571       -19.29288        -4.73312
|125>    H      -17.26664       -18.70245        -4.70184
|126>    H      -25.18058       -18.11826        -8.30647
|127>    H      -25.18614       -19.69982        -5.68270
|128>    H      -26.61298       -19.32363        -6.76039
|129> *
|130>
|131>                          ****END OF INPUT****

CARTESIAN COORDINATES (ANGSTROEM)
---------------------------------
  C     -3.050620   -2.605180    5.952580
  O     -2.852150   -3.769160    5.684330
  C     -2.880900   -1.990420    7.289460
  C     -3.170360   -0.617320    7.228160
  C     -3.069140    0.154910    8.377560
  C     -2.687390   -0.456800    9.561460
  C     -2.409990   -1.817400    9.598360
  C     -2.498300   -2.608880    8.461780
  Br    -1.896800   -2.612230   11.246530
  C     -3.547890   -0.281200    5.859940
  C     -4.019030    0.935980    5.443440
  C     -4.141200    2.063720    6.282420
  N     -4.257520    3.016100    6.912530
  C     -4.481430    1.233020    4.143290
  N     -4.895840    1.555220    3.121950
  C     -3.423650   -1.484980    5.052120
  C     -3.440960   -1.504060    3.688560
  C     -3.434030   -2.627300    2.799710
  C     -3.993290   -3.870430    3.141550
  C     -3.959850   -4.893100    2.229580
  C     -3.382850   -4.713210    0.958490
  C     -2.853360   -3.478680    0.598030
  C     -2.898080   -2.448340    1.510370
  C     -3.504250   -5.948960    0.220550
  C     -4.151070   -6.894700    1.036450
  C     -4.487160   -6.299050    2.382120
  C     -3.766710   -7.037680    3.526270
  C     -2.253320   -7.065360    3.352760
  C     -6.005860   -6.306970    2.637270
  C     -6.794050   -5.589830    1.547620
  C     -4.409200   -8.158120    0.567200
  C     -4.048110   -8.505170   -0.744230
  C     -3.389910   -7.556270   -1.539430
  C     -3.113450   -6.289810   -1.068080
  C     -4.406440   -9.818630   -1.223600
  C     -4.380790  -10.234410   -2.500820
  N     -4.814100  -11.478680   -2.876550
  C     -4.987830  -11.914630   -4.145920
  S     -4.514520  -10.955020   -5.507980
  C     -5.175060  -12.164420   -6.569440
  N     -5.068990  -11.933930   -7.936750
  O     -5.528540  -12.769750   -8.697370
  O     -4.514000  -10.897620   -8.277520
  C     -5.724530  -13.229180   -5.904570
  C     -5.617740  -13.117480   -4.506460
  C     -6.088930  -14.085330   -3.557270
  C     -7.108160  -14.950640   -3.791840
  C     -7.559970  -15.904170   -2.859940
  C     -8.722740  -16.619730   -2.993730
  C     -9.241590  -17.585240   -2.096470
  C    -10.466850  -18.070620   -2.442280
  C    -10.991970  -17.511840   -3.626860
  S     -9.850250  -16.378950   -4.320000
  C    -12.240320  -17.719360   -4.184590
  C    -13.273600  -18.555300   -3.704670
  C    -14.430910  -18.479310   -4.418920
  C    -14.386740  -17.582640   -5.512820
  S    -12.774000  -16.868590   -5.611200
  C    -15.334910  -17.202090   -6.427930
  C    -16.709800  -17.519400   -6.490270
  C    -17.532540  -17.037130   -7.574080
  C    -18.832450  -17.441990   -7.373290
  C    -20.011430  -17.223870   -8.124440
  C    -21.176670  -17.747370   -7.640970
  C    -22.520430  -17.707960   -8.135210
  C    -23.337410  -18.395950   -7.261140
  C    -22.524260  -18.890450   -6.188120
  C    -21.211400  -18.506640   -6.401590
  C    -20.040730  -18.728650   -5.654550
  C    -18.864690  -18.201480   -6.135070
  C    -17.540920  -18.229180   -5.624160
  C    -24.760750  -18.573340   -7.417630
  C    -25.556450  -19.230440   -6.577920
  H     -3.274350    1.212640    8.370090
  H     -2.603880    0.128620   10.464190
  H     -2.281390   -3.665670    8.482950
  H     -3.424680   -0.542140    3.188200
  H     -4.469290   -4.003700    4.097910
  H     -2.423950   -3.326920   -0.380680
  H     -2.492870   -1.481820    1.247130
  H     -4.148360   -8.059940    3.576120
  H     -4.006270   -6.539640    4.467110
  H     -1.978070   -7.536520    2.411170
  H     -1.797010   -7.624930    4.165670
  H     -1.851200   -6.055380    3.367310
  H     -6.199240   -5.829360    3.599740
  H     -6.343240   -7.343330    2.705930
  H     -6.488950   -4.548350    1.473630
  H     -7.857450   -5.620630    1.773470
  H     -6.633790   -6.063040    0.581220
  H     -4.908890   -8.886190    1.190430
  H     -3.085810   -7.821410   -2.539800
  H     -2.605460   -5.573710   -1.696340
  H     -4.782510  -10.502550   -0.471560
  H     -4.047220   -9.610560   -3.315360
  H     -5.152250  -12.088430   -2.141770
  H     -6.162250  -14.064260   -6.419670
  H     -5.606060  -14.105410   -2.587650
  H     -7.647420  -14.891030   -4.727780
  H     -6.974380  -16.068590   -1.964670
  H     -8.693690  -17.884470   -1.220230
  H    -11.009010  -18.803100   -1.871330
  H    -13.138300  -19.185120   -2.843420
  H    -15.304640  -19.060350   -4.193000
  H    -14.988900  -16.532420   -7.206360
  H    -17.163910  -16.453030   -8.398650
  H    -19.975300  -16.656460   -9.043940
  H    -22.828990  -17.217160   -9.040200
  H    -22.881650  -19.465570   -5.353710
  H    -20.075710  -19.292880   -4.733120
  H    -17.266640  -18.702450   -4.701840
  H    -25.180580  -18.118260   -8.306470
  H    -25.186140  -19.699820   -5.682700
  H    -26.612980  -19.323630   -6.760390

 Total Charge           Charge          ....    0
 Multiplicity           Mult            ....    1
 Number of Electrons    NEL             ....  548
 Basis Dimension        Dim             .... 1257

ORBITAL ENERGIES
----------------

  NO   OCC          E(Eh)            E(eV)
   0   2.0000    -482.874223    -13139.6756
   1   2.0000     -88.976629     -2421.1772
   2   2.0000     -88.941183     -2420.2126
   3   2.0000     -88.938182     -2420.1310
   4   2.0000     -62.551922     -1702.1243
   5   2.0000     -56.385758     -1534.3345
   6   2.0000     -56.383238     -1534.2659
   7   2.0000     -56.383226     -1534.2656
   8   2.0000     -19.223299      -523.0926
   9   2.0000     -19.222917      -523.0822
  10   2.0000     -19.222545      -523.0720
  11   2.0000     -14.634970      -398.2378
  12   2.0000     -14.480165      -394.0253
  13   2.0000     -14.417465      -392.3192
  14   2.0000     -14.417113      -392.3096
  15   2.0000     -10.375038      -282.3191
  16   2.0000     -10.362616      -281.9811
  17   2.0000     -10.347215      -281.5620
  18   2.0000     -10.345764      -281.5225
  19   2.0000     -10.343884      -281.4714
  20   2.0000     -10.332244      -281.1547
  21   2.0000     -10.329593      -281.0825
  22   2.0000     -10.320071      -280.8234
  23   2.0000     -10.319790      -280.8158
  24   2.0000     -10.319397      -280.8051
  25   2.0000     -10.312266      -280.6110
  26   2.0000     -10.308960      -280.5211
  27   2.0000     -10.306452      -280.4528
  28   2.0000     -10.306221      -280.4465
  29   2.0000     -10.305905      -280.4379
  30   2.0000     -10.305879      -280.4372
  31   2.0000     -10.304571      -280.4016
  32   2.0000     -10.301723      -280.3241
  33   2.0000     -10.301134      -280.3081
  34   2.0000     -10.300260      -280.2843
  35   2.0000     -10.299733      -280.2700
  36   2.0000     -10.297286      -280.2034
  37   2.0000     -10.297109      -280.1986
  38   2.0000     -10.290086      -280.0075
  39   2.0000     -10.289802      -279.9997
  40   2.0000     -10.289606      -279.9944
  41   2.0000     -10.287500      -279.9371
  42   2.0000     -10.287187      -279.9286
  43   2.0000     -10.286194      -279.9016
  44   2.0000     -10.285984      -279.8958
  45   2.0000     -10.284644      -279.8594
  46   2.0000     -10.283685      -279.8333
  47   2.0000     -10.283137      -279.8184
  48   2.0000     -10.281881      -279.7842
  49   2.0000     -10.281707      -279.7795
  50   2.0000     -10.281530      -279.7747
  51   2.0000     -10.281046      -279.7615
  52   2.0000     -10.280335      -279.7421
  53   2.0000     -10.280070      -279.7349
  54   2.0000     -10.279891      -279.7300
  55   2.0000     -10.279288      -279.7137
  56   2.0000     -10.278559      -279.6938
  57   2.0000     -10.275878      -279.6209
  58   2.0000     -10.275693      -279.6158
  59   2.0000     -10.275337      -279.6061
  60   2.0000     -10.274989      -279.5967
  61   2.0000     -10.274398      -279.5806
  62   2.0000     -10.273514      -279.5565
  63   2.0000     -10.271649      -279.5058
  64   2.0000     -10.271588      -279.5041
  65   2.0000     -10.269545      -279.4485
  66   2.0000     -10.268609      -279.4231
  67   2.0000     -10.267597      -279.3955
  68   2.0000     -10.266242      -279.3586
  69   2.0000     -10.265442      -279.3369
  70   2.0000     -10.264987      -279.3245
  71   2.0000     -10.264609      -279.3142
  72   2.0000     -10.263849      -279.2935
  73   2.0000     -10.262882      -279.2672
  74   2.0000     -10.257581      -279.1230
  75   2.0000     -10.248952      -278.8882
  76   2.0000     -10.244905      -278.7780
  77   2.0000      -8.781197      -238.9485
  78   2.0000      -8.072093      -219.6528
  79   2.0000      -8.037504      -218.7116
  80   2.0000      -8.034832      -218.6389
  81   2.0000      -6.617033      -180.0586
  82   2.0000      -6.603316      -179.6854
  83   2.0000      -6.602875      -179.6734
  84   2.0000      -6.041833      -164.4066
  85   2.0000      -6.037446      -164.2873
  86   2.0000      -6.033388      -164.1768
  87   2.0000      -6.007246      -163.4655
  88   2.0000      -6.004614      -163.3938
  89   2.0000      -6.003299      -163.3581
  90   2.0000      -6.000605      -163.2848
  91   2.0000      -5.998325      -163.2227
  92   2.0000      -5.995564      -163.1476
  93   2.0000      -2.732975       -74.3680
  94   2.0000      -2.729209       -74.2656
  95   2.0000      -2.728883       -74.2567
  96   2.0000      -2.717980       -73.9600
  97   2.0000      -2.717961       -73.9595
  98   2.0000      -1.302389       -35.4398
  99   2.0000      -1.138678       -30.9850
 100   2.0000      -1.121158       -30.5083
 101   2.0000      -1.086852       -29.5747
 102   2.0000      -1.022009       -27.8103
 103   2.0000      -1.003667       -27.3112
 104   2.0000      -0.996025       -27.1032
 105   2.0000      -0.995584       -27.0912
 106   2.0000      -0.994382       -27.0585
 107   2.0000      -0.992085       -26.9960
 108   2.0000      -0.985414       -26.8145
 109   2.0000      -0.970214       -26.4009
 110   2.0000      -0.967850       -26.3365
 111   2.0000      -0.958707       -26.0878
 112   2.0000      -0.954701       -25.9787
 113   2.0000      -0.929798       -25.3011
 114   2.0000      -0.917026       -24.9536
 115   2.0000      -0.912620       -24.8337
 116   2.0000      -0.902294       -24.5527
 117   2.0000      -0.900327       -24.4991
 118   2.0000      -0.896481       -24.3945
 119   2.0000      -0.887121       -24.1398
 120   2.0000      -0.878794       -23.9132
 121   2.0000      -0.870994       -23.7009
 122   2.0000      -0.862235       -23.4626
 123   2.0000      -0.861844       -23.4520
 124   2.0000      -0.858268       -23.3547
 125   2.0000      -0.847920       -23.0731
 126   2.0000      -0.845717       -23.0131
 127   2.0000      -0.841628       -22.9018
 128   2.0000      -0.840098       -22.8602
 129   2.0000      -0.838474       -22.8160
 130   2.0000      -0.835657       -22.7394
 131   2.0000      -0.826498       -22.4902
 132   2.0000      -0.816276       -22.2120
 133   2.0000      -0.814517       -22.1641
 134   2.0000      -0.797439       -21.6994
 135   2.0000      -0.791945       -21.5499
 136   2.0000      -0.780715       -21.2443
 137   2.0000      -0.770699       -20.9718
 138   2.0000      -0.765417       -20.8281
 139   2.0000      -0.763502       -20.7760
 140   2.0000      -0.754736       -20.5374
 141   2.0000      -0.746801       -20.3215
 142   2.0000      -0.735266       -20.0076
 143   2.0000      -0.728122       -19.8132
 144   2.0000      -0.723250       -19.6806
 145   2.0000      -0.712513       -19.3885
 146   2.0000      -0.703937       -19.1551
 147   2.0000      -0.698040       -18.9946
 148   2.0000      -0.694641       -18.9021
 149   2.0000      -0.690309       -18.7843
 150   2.0000      -0.684091       -18.6151
 151   2.0000      -0.678457       -18.4617
 152   2.0000      -0.675253       -18.3746
 153   2.0000      -0.670712       -18.2510
 154   2.0000      -0.667633       -18.1672
 155   2.0000      -0.663552       -18.0562
 156   2.0000      -0.653365       -17.7790
 157   2.0000      -0.647873       -17.6295
 158   2.0000      -0.642877       -17.4936
 159   2.0000      -0.636165       -17.3109
 160   2.0000      -0.630764       -17.1640
 161   2.0000      -0.628438       -17.1007
 162   2.0000      -0.624829       -17.0025
 163   2.0000      -0.622465       -16.9381
 164   2.0000      -0.619286       -16.8516
 165   2.0000      -0.616882       -16.7862
 166   2.0000      -0.616200       -16.7677
 167   2.0000      -0.613930       -16.7059
 168   2.0000      -0.604852       -16.4589
 169   2.0000      -0.599508       -16.3134
 170   2.0000      -0.596797       -16.2397
 171   2.0000      -0.594174       -16.1683
 172   2.0000      -0.590205       -16.0603
 173   2.0000      -0.582929       -15.8623
 174   2.0000      -0.577631       -15.7181
 175   2.0000      -0.576251       -15.6806
 176   2.0000      -0.564356       -15.3569
 177   2.0000      -0.563134       -15.3237
 178   2.0000      -0.557350       -15.1663
 179   2.0000      -0.555694       -15.1212
 180   2.0000      -0.553763       -15.0687
 181   2.0000      -0.548008       -14.9121
 182   2.0000      -0.546398       -14.8682
 183   2.0000      -0.544303       -14.8112
 184   2.0000      -0.543780       -14.7970
 185   2.0000      -0.542385       -14.7590
 186   2.0000      -0.540335       -14.7033
 187   2.0000      -0.537684       -14.6311
 188   2.0000      -0.532569       -14.4919
 189   2.0000      -0.531338       -14.4585
 190   2.0000      -0.530640       -14.4394
 191   2.0000      -0.528322       -14.3764
 192   2.0000      -0.523443       -14.2436
 193   2.0000      -0.518574       -14.1111
 194   2.0000      -0.517481       -14.0814
 195   2.0000      -0.516271       -14.0484
 196   2.0000      -0.510335       -13.8869
 197   2.0000      -0.508300       -13.8315
 198   2.0000      -0.503882       -13.7113
 199   2.0000      -0.498429       -13.5630
 200   2.0000      -0.497716       -13.5435
 201   2.0000      -0.496902       -13.5214
 202   2.0000      -0.495714       -13.4891
 203   2.0000      -0.491667       -13.3790
 204   2.0000      -0.491466       -13.3735
 205   2.0000      -0.490887       -13.3577
 206   2.0000      -0.485829       -13.2201
 207   2.0000      -0.483969       -13.1695
 208   2.0000      -0.483550       -13.1581
 209   2.0000      -0.478168       -13.0116
 210   2.0000      -0.477275       -12.9873
 211   2.0000      -0.473322       -12.8798
 212   2.0000      -0.471008       -12.8168
 213   2.0000      -0.470454       -12.8017
 214   2.0000      -0.470171       -12.7940
 215   2.0000      -0.467721       -12.7273
 216   2.0000      -0.465088       -12.6557
 217   2.0000      -0.463242       -12.6055
 218   2.0000      -0.459223       -12.4961
 219   2.0000      -0.456933       -12.4338
 220   2.0000      -0.456146       -12.4124
 221   2.0000      -0.454294       -12.3620
 222   2.0000      -0.451280       -12.2799
 223   2.0000      -0.450105       -12.2480
 224   2.0000      -0.449967       -12.2442
 225   2.0000      -0.447750       -12.1839
 226   2.0000      -0.446973       -12.1628
 227   2.0000      -0.446361       -12.1461
 228   2.0000      -0.444180       -12.0868
 229   2.0000      -0.438686       -11.9373
 230   2.0000      -0.432418       -11.7667
 231   2.0000      -0.432366       -11.7653
 232   2.0000      -0.429062       -11.6754
 233   2.0000      -0.428069       -11.6484
 234   2.0000      -0.426008       -11.5923
 235   2.0000      -0.425434       -11.5767
 236   2.0000      -0.424689       -11.5564
 237   2.0000      -0.423384       -11.5209
 238   2.0000      -0.420239       -11.4353
 239   2.0000      -0.416960       -11.3461
 240   2.0000      -0.412545       -11.2259
 241   2.0000      -0.410908       -11.1814
 242   2.0000      -0.408034       -11.1032
 243   2.0000      -0.404411       -11.0046
 244   2.0000      -0.403045       -10.9674
 245   2.0000      -0.395676       -10.7669
 246   2.0000      -0.392667       -10.6850
 247   2.0000      -0.392179       -10.6717
 248   2.0000      -0.392036       -10.6679
 249   2.0000      -0.386220       -10.5096
 250   2.0000      -0.380749       -10.3607
 251   2.0000      -0.372375       -10.1328
 252   2.0000      -0.371771       -10.1164
 253   2.0000      -0.368873       -10.0375
 254   2.0000      -0.365538        -9.9468
 255   2.0000      -0.363601        -9.8941
 256   2.0000      -0.355166        -9.6646
 257   2.0000      -0.353202        -9.6111
 258   2.0000      -0.351899        -9.5756
 259   2.0000      -0.347300        -9.4505
 260   2.0000      -0.346263        -9.4223
 261   2.0000      -0.335496        -9.1293
 262   2.0000      -0.328765        -8.9462
 263   2.0000      -0.324015        -8.8169
 264   2.0000      -0.321670        -8.7531
 265   2.0000      -0.319921        -8.7055
 266   2.0000      -0.318536        -8.6678
 267   2.0000      -0.309586        -8.4243
 268   2.0000      -0.295102        -8.0301
 269   2.0000      -0.280110        -7.6222
 270   2.0000      -0.268481        -7.3057
 271   2.0000      -0.255815        -6.9611
 272   2.0000      -0.241978        -6.5846
 273   2.0000      -0.200535        -5.4568
 274   0.0000      -0.097870        -2.6632
 275   0.0000      -0.089806        -2.4437
 276   0.0000      -0.070850        -1.9279
 277   0.0000      -0.067016        -1.8236
 278   0.0000      -0.048070        -1.3081

MULLIKEN ATOMIC CHARGES
-----------------------
   0 C :    0.145816
   1 O :   -0.141553
   2 C :   -0.025691
   3 C :    0.037107
   4 C :   -0.026731
   5 C :    0.049556
   6 C :   -0.003218
   7 C :   -0.013495
   8 Br:   -0.019729
   9 C :    0.293502
  10 C :   -0.342960
  11 C :   -0.187346
  12 N :    0.153383
  13 C :   -0.204979
  14 N :    0.167215
  15 C :   -0.083556
  16 C :   -0.028238
  17 C :    0.068758
  18 C :    0.003719
  19 C :   -0.023444
  20 C :    0.123046
  21 C :   -0.048248
  22 C :    0.005435
  23 C :    0.094463
  24 C :    0.026454
  25 C :   -0.146696
  26 C :    0.073384
  27 C :    0.026768
  28 C :    0.067429
  29 C :    0.026048
  30 C :   -0.111212
  31 C :    0.126358
  32 C :   -0.022213
  33 C :   -0.037480
  34 C :   -0.026498
  35 C :    0.075973
  36 N :   -0.028601
  37 C :   -0.108133
  38 S :    0.139933
  39 C :   -0.011104
  40 N :    0.281246
  41 O :   -0.261106
  42 O :   -0.278878
  43 C :    0.008620
  44 C :    0.122606
  45 C :   -0.070456
  46 C :    0.015488
  47 C :   -0.029161
  48 C :   -0.013390
  49 C :    0.031604
  50 C :    0.025222
  51 C :   -0.048440
  52 S :    0.069948
  53 C :   -0.041885
  54 C :    0.014437
  55 C :    0.033903
  56 C :   -0.058440
  57 S :    0.083376
  58 C :    0.033179
  59 C :    0.077094
  60 C :   -0.040986
  61 C :    0.059970
  62 C :   -0.002702
  63 C :    0.062270
  64 C :   -0.030178
  65 C :    0.065629
  66 C :   -0.025298
  67 C :    0.049860
  68 C :   -0.004370
  69 C :    0.057190
  70 C :   -0.048485
  71 C :    0.011908
  72 C :   -0.027248
  73 H :    0.010345
  74 H :    0.006470
  75 H :    0.002469
  76 H :    0.028856
  77 H :   -0.028071
  78 H :   -0.029892
  79 H :   -0.014403
  80 H :   -0.006753
  81 H :    0.009387
  82 H :    0.016095
  83 H :    0.008551
  84 H :    0.026478
  85 H :   -0.000245
  86 H :   -0.003568
  87 H :    0.021309
  88 H :    0.011335
  89 H :    0.020613
  90 H :   -0.043817
  91 H :   -0.032811
  92 H :   -0.031481
  93 H :   -0.029686
  94 H :    0.028804
  95 H :    0.133607
  96 H :    0.010636
  97 H :   -0.023859
  98 H :    0.003946
  99 H :   -0.023259
 100 H :   -0.017120
 101 H :   -0.013630
 102 H :   -0.016721
 103 H :   -0.020829
 104 H :   -0.022440
 105 H :   -0.021911
 106 H :   -0.026955
 107 H :   -0.029053
 108 H :   -0.025303
 109 H :   -0.029018
 110 H :   -0.042443
 111 H :   -0.019452
 112 H :    0.007142
 113 H :    0.020926
Sum of atomic charges:   -0.0000000

LOEWDIN ATOMIC CHARGES
----------------------
   0 C :    0.084671
   1 O :   -0.134403
   2 C :   -0.037491
   3 C :   -0.016628
   4 C :    0.008497
   5 C :   -0.012917
   6 C :   -0.097832
   7 C :   -0.000794
   8 Br:    0.115044
   9 C :    0.075344
  10 C :   -0.136744
  11 C :   -0.018422
  12 N :   -0.050495
  13 C :   -0.025852
  14 N :   -0.046642
  15 C :   -0.103375
  16 C :    0.089565
  17 C :   -0.048044
  18 C :    0.023529
  19 C :   -0.003123
  20 C :    0.011673
  21 C :   -0.026477
  22 C :    0.008654
  23 C :   -0.029976
  24 C :    0.012773
  25 C :   -0.035761
  26 C :   -0.010033
  27 C :   -0.056426
  28 C :   -0.011284
  29 C :   -0.057644
  30 C :   -0.028189
  31 C :   -0.010293
  32 C :   -0.024569
  33 C :   -0.006892
  34 C :   -0.072382
  35 C :    0.028947
  36 N :    0.040806
  37 C :   -0.099141
  38 S :    0.447264
  39 C :   -0.217587
  40 N :    0.274357
  41 O :   -0.226760
  42 O :   -0.245409
  43 C :    0.006423
  44 C :   -0.109346
  45 C :   -0.045827
  46 C :   -0.023453
  47 C :   -0.071424
  48 C :   -0.139398
  49 C :   -0.042869
  50 C :   -0.028529
  51 C :   -0.185435
  52 S :    0.365527
  53 C :   -0.176400
  54 C :   -0.028425
  55 C :   -0.035978
  56 C :   -0.147058
  57 S :    0.369665
  58 C :   -0.047729
  59 C :   -0.057678
  60 C :    0.038966
  61 C :   -0.063179
  62 C :    0.066259
  63 C :   -0.055681
  64 C :    0.010117
  65 C :   -0.056933
  66 C :    0.043152
  67 C :   -0.059505
  68 C :    0.062660
  69 C :   -0.051435
  70 C :   -0.008419
  71 C :   -0.020529
  72 C :   -0.055210
  73 H :    0.043321
  74 H :    0.040638
  75 H :    0.043487
  76 H :    0.046168
  77 H :    0.028081
  78 H :    0.029389
  79 H :    0.032062
  80 H :    0.017851
  81 H :    0.025098
  82 H :    0.022782
  83 H :    0.024863
  84 H :    0.027576
  85 H :    0.021014
  86 H :    0.019584
  87 H :    0.025271
  88 H :    0.025061
  89 H :    0.025151
  90 H :    0.022973
  91 H :    0.024604
  92 H :    0.028936
  93 H :    0.024943
  94 H :    0.023488
  95 H :    0.094932
  96 H :    0.045417
  97 H :    0.019042
  98 H :    0.024160
  99 H :    0.029238
 100 H :    0.031462
 101 H :    0.031376
 102 H :    0.030931
 103 H :    0.030383
 104 H :    0.029200
 105 H :    0.025362
 106 H :    0.034355
 107 H :    0.023627
 108 H :    0.024405
 109 H :    0.033111
 110 H :    0.017598
 111 H :    0.029307
 112 H :    0.017434
 113 H :    0.024453

  Mayer bond orders larger than 0.100000
B(  0-C ,  1-O ) :   2.2172 B(  0-C ,  2-C ) :   0.9423 B(  0-C , 15-C ) :   0.9434
B(  2-C ,  3-C ) :   1.3299 B(  2-C ,  7-C ) :   1.3803 B(  3-C ,  4-C ) :   1.3584
B(  3-C ,  9-C ) :   0.9971 B(  4-C ,  5-C ) :   1.3873 B(  4-C , 73-H ) :   0.9838
B(  5-C ,  6-C ) :   1.3848 B(  5-C , 74-H ) :   0.9849 B(  6-C ,  7-C ) :   1.3384
B(  6-C ,  8-Br) :   0.9931 B(  7-C , 75-H ) :   1.0068 B(  9-C , 10-C ) :   1.6484
B(  9-C , 15-C ) :   1.0584 B( 10-C , 11-C ) :   1.1399 B( 10-C , 13-C ) :   1.1392
B( 11-C , 12-N ) :   2.9776 B( 13-C , 14-N ) :   2.9958 B( 15-C , 16-C ) :   1.5920
B( 16-C , 17-C ) :   1.1067 B( 16-C , 76-H ) :   0.9528 B( 17-C , 18-C ) :   1.2922
B( 17-C , 22-C ) :   1.2949 B( 18-C , 19-C ) :   1.4390 B( 18-C , 77-H ) :   0.9859
B( 19-C , 20-C ) :   1.3498 B( 19-C , 25-C ) :   0.9112 B( 20-C , 21-C ) :   1.3255
B( 20-C , 23-C ) :   1.0062 B( 21-C , 22-C ) :   1.3977 B( 21-C , 78-H ) :   0.9924
B( 22-C , 79-H ) :   0.9924 B( 23-C , 24-C ) :   1.3656 B( 23-C , 33-C ) :   1.3263
B( 24-C , 25-C ) :   0.9190 B( 24-C , 30-C ) :   1.3864 B( 25-C , 26-C ) :   1.0388
B( 25-C , 28-C ) :   1.0401 B( 26-C , 27-C ) :   1.1019 B( 26-C , 80-H ) :   0.9391
B( 26-C , 81-H ) :   0.9379 B( 27-C , 82-H ) :   0.9652 B( 27-C , 83-H ) :   0.9632
B( 27-C , 84-H ) :   0.9631 B( 28-C , 29-C ) :   1.1012 B( 28-C , 85-H ) :   0.9394
B( 28-C , 86-H ) :   0.9386 B( 29-C , 87-H ) :   0.9643 B( 29-C , 88-H ) :   0.9640
B( 29-C , 89-H ) :   0.9642 B( 30-C , 31-C ) :   1.2948 B( 30-C , 90-H ) :   1.0103
B( 31-C , 32-C ) :   1.3379 B( 31-C , 34-C ) :   1.0958 B( 32-C , 33-C ) :   1.4099
B( 32-C , 91-H ) :   0.9827 B( 33-C , 92-H ) :   0.9888 B( 34-C , 35-C ) :   1.6963
B( 34-C , 93-H ) :   0.9729 B( 35-C , 36-N ) :   1.1102 B( 35-C , 94-H ) :   0.9551
B( 36-N , 37-C ) :   1.2371 B( 36-N , 95-H ) :   0.9131 B( 37-C , 38-S ) :   1.1333
B( 37-C , 44-C ) :   1.3419 B( 38-S , 39-C ) :   1.0593 B( 39-C , 40-N ) :   0.9926
B( 39-C , 43-C ) :   1.4715 B( 40-N , 41-O ) :   1.5231 B( 40-N , 42-O ) :   1.4958
B( 41-O , 42-O ) :   0.2488 B( 43-C , 44-C ) :   1.2494 B( 43-C , 96-H ) :   1.0023
B( 44-C , 45-C ) :   1.0434 B( 45-C , 46-C ) :   1.6912 B( 45-C , 97-H ) :   0.9705
B( 46-C , 47-C ) :   1.1472 B( 46-C , 98-H ) :   0.9713 B( 47-C , 48-C ) :   1.5691
B( 47-C , 99-H ) :   0.9825 B( 48-C , 49-C ) :   1.1421 B( 48-C , 52-S ) :   1.0357
B( 49-C , 50-C ) :   1.5836 B( 49-C ,100-H ) :   0.9994 B( 50-C , 51-C ) :   1.1988
B( 50-C ,101-H ) :   0.9934 B( 51-C , 52-S ) :   1.0390 B( 51-C , 53-C ) :   1.4888
B( 53-C , 54-C ) :   1.1932 B( 53-C , 57-S ) :   1.0623 B( 54-C , 55-C ) :   1.5965
B( 54-C ,102-H ) :   0.9932 B( 55-C , 56-C ) :   1.1520 B( 55-C ,103-H ) :   0.9947
B( 56-C , 57-S ) :   1.0274 B( 56-C , 58-C ) :   1.5675 B( 58-C , 59-C ) :   1.1670
B( 58-C ,104-H ) :   0.9489 B( 59-C , 60-C ) :   1.1157 B( 59-C , 70-C ) :   1.4486
B( 60-C , 61-C ) :   1.4505 B( 60-C ,105-H ) :   1.0157 B( 61-C , 62-C ) :   1.1122
B( 61-C , 69-C ) :   1.1245 B( 62-C , 63-C ) :   1.4818 B( 62-C ,106-H ) :   1.0050
B( 63-C , 64-C ) :   1.0783 B( 63-C , 67-C ) :   1.1226 B( 64-C , 65-C ) :   1.5157
B( 64-C ,107-H ) :   1.0174 B( 65-C , 66-C ) :   1.1380 B( 65-C , 71-C ) :   1.0854
B( 66-C , 67-C ) :   1.4427 B( 66-C ,108-H ) :   1.0076 B( 67-C , 68-C ) :   1.1339
B( 68-C , 69-C ) :   1.4381 B( 68-C ,109-H ) :   1.0030 B( 69-C , 70-C ) :   1.1275
B( 70-C ,110-H ) :   1.0105 B( 71-C , 72-C ) :   1.9322 B( 71-C ,111-H ) :   0.9665
B( 72-C ,112-H ) :   0.9526 B( 72-C ,113-H ) :   0.9496

-----------------------------------------------------------------------------
         ABSORPTION SPECTRUM VIA TRANSITION ELECTRIC DIPOLE MOMENTS
-----------------------------------------------------------------------------
State   Energy  Wavelength   fosc         T2         TX        TY        TZ
        (cm-1)    (nm)                  (au**2)     (au)      (au)      (au)
-----------------------------------------------------------------------------
   0    7044.1   1419.6   0.101598117   4.74829   2.04455   0.58071   0.48051
   1   14358.2    696.5   2.103461172  48.22933   6.19881   2.58501   1.76685
   2   15704.5    636.8   0.059029239   1.23742   0.86011   0.23832   0.66395
   3   17744.0    563.6   0.216005111   4.00763   0.53973  -1.36898  -1.35728
   4   20778.2    481.3   0.204682768   3.24302   0.33708   0.79947   1.57805
   5   21714.3    460.5   1.031497887  15.63860   0.13833  -3.09606  -2.45640
   6   22382.3    446.8   0.177260305   2.60725  -1.60245   0.08810   0.17788
   7   23038.5    434.1   0.048794385   0.69726  -0.29734  -0.07470  -0.77670
   8   23418.8    427.0   0.036120095   0.50776  -0.38299   0.07638  -0.59603
   9   25406.6    393.6   0.220343501   2.85515  -0.97226   1.17838  -0.72201
  10   25714.8    388.9   0.061152630   0.78290  -0.42640   0.59349  -0.49886
  11   26522.4    377.0   0.162247683   2.01391   0.46853   0.21129   1.32278
  12   27312.1    366.1   0.072059556   0.86859   0.37072  -0.09294   0.85001
  13   27952.4    357.8   0.018544359   0.21841  -0.32620   0.17256  -0.28675
  14   28511.9    350.7   0.028558788   0.32975   0.19665   0.40280   0.35894
  15   28593.6    349.7   0.307627379   3.54187   0.02505  -0.93953  -1.63050
  16   29366.0    340.5   0.040172368   0.45036   0.08341   0.47132   0.47038
  17   29749.2    336.1   0.036068664   0.39914   0.46339   0.29095  -0.31585
  18   30834.7    324.3   0.083119129   0.88744   0.18393  -0.76163   0.52299
  19   31017.2    322.4   0.095063965   1.00899  -0.87967  -0.19344  -0.44469
  20   31115.9    321.4   0.025623106   0.27110  -0.13173   0.21589  -0.45512
  21   31461.7    317.8   0.069373075   0.72591  -0.10436  -0.62096   0.57396
  22   31827.9    314.2   0.089452323   0.92525  -0.05257  -0.17439  -0.94450
  23   32495.7    307.7   0.161735620   1.63853  -1.27602  -0.10058  -0.01368
  24   32788.8    305.0   0.010519178   0.10562  -0.31868  -0.06358   0.00445
  25   33314.4    300.2   0.082146665   0.81177   0.20298  -0.10173   0.87191
  26   33478.2    298.7   0.001190374   0.01171   0.00614  -0.04415   0.09858
  27   33857.4    295.4   0.209729262   2.03930   1.11478   0.81365  -0.36678
  28   33879.4    295.2   0.064841207   0.63007   0.58164  -0.53293   0.08806
  29   34375.0    290.9   0.409591166   3.92269  -0.76042   1.35029  -1.23336
  30   34483.4    290.0   0.034252718   0.32701   0.28083   0.09239   0.48950
  31   34740.1    287.9   0.009021398   0.08549  -0.13155   0.00157  -0.26112
  32   35284.1    283.4   0.152394769   1.42189   1.01263   0.49101  -0.39417
  33   35318.2    283.1   0.053688107   0.50044  -0.06154   0.19171  -0.67816
  34   35475.6    281.9   0.017678007   0.16405   0.25739   0.24542   0.19383
  35   36072.9    277.2   0.279121091   2.54735   0.96826   1.00353  -0.77637
  36   36194.8    276.3   0.217717417   1.98026  -0.66282  -1.19957   0.31932
  37   36310.1    275.4   0.074001119   0.67094  -0.36956  -0.53215  -0.50118
  38   36890.8    271.1   0.111258010   0.99286   0.39717   0.13489   0.90384
  39   37228.3    268.6   0.096158123   0.85033   0.66516   0.59869  -0.22242
  40   37583.9    266.1   0.013750275   0.12044  -0.30611   0.06826   0.14860
  41   37807.1    264.5   0.094786883   0.82537   0.77060  -0.45157  -0.16621
  42   38262.5    261.4   0.157325347   1.35363  -0.13049   1.02170  -0.54106
  43   38369.0    260.6   0.012228287   0.10492  -0.20569   0.07192  -0.23967
  44   38523.6    259.6   0.070191606   0.59984  -0.69893  -0.21837   0.25230
  45   38597.3    259.1   0.116297605   0.99195   0.56799  -0.79319  -0.20045
  46   38688.2    258.5   0.142512182   1.21269   0.21828  -0.21895  -1.05693
  47   38915.2    257.0   0.007840030   0.06632   0.24822  -0.03331   0.06003
  48   39143.2    255.5   0.025796528   0.21696   0.31213   0.28229  -0.19961
  49   39567.5    252.7   0.022026510   0.18327  -0.05937   0.24638  -0.34502
  50   39706.5    251.8   0.026464364   0.21942  -0.04022  -0.22808   0.40716
  51   39767.4    251.5   0.065157134   0.53940  -0.68382  -0.20755   0.16945

FINAL SINGLE POINT ENERGY     -6596.265969747904

DIPOLE MOMENT
-------------
                                X             Y             Z
Electronic contribution:    101.67894     106.55216     130.44352
Nuclear contribution   :   -102.66434    -109.68120    -128.05620
                        -----------------------------------------
Total Dipole Moment    :     -0.98540      -3.12905       2.38732
                        -----------------------------------------
Magnitude (a.u.)       :      4.05725
Magnitude (Debye)      :     10.31270

Rotational constants in cm-1:     0.000875     0.000138     0.000129
Rotational constants in MHz :    26.245815     4.142279     3.860427

                             ****ORCA TERMINATED NORMALLY****
TOTAL RUN TIME: 0 days 0 hours 12 minutes 59 seconds 124 msec
