                         Program Version 4.2.0 -  RELEASE  -
|  1> # ORCA input file
|  2> # SCF done       -179.404346903385          0.000541593805
|  3> ! CAM-B3LYP def2-SVP def2/J RIJCOSX Grid4 TightSCF
|  4> %maxcore 5000
|  5> %tddft
|  6>     Mode sTDDFT
|  7>     Ethresh 5.0
|  8>     maxcore 5000
|  9> end
| 10>
| 11> %pal
| 12>   nprocs 6
| 13>   end
| 14> * xyz 0 1
| 15>    C       -3.35965         0.49549         0.35549
| 16>    O       -3.20549        -0.46348         1.07878
| 17>    C       -3.13918         1.90750         0.74709
| 18>    C       -3.38081         2.75281        -0.34758
| 19>    C       -3.22556         4.12440        -0.19925
| 20>    C       -2.83796         4.62308         1.03483
| 21>    C       -2.60793         3.76691         2.10385
| 22>    C       -2.75125         2.39225         1.97894
| 23>   Br       -2.08310         4.49887         3.77746
| 24>    C       -3.77608         1.93388        -1.48928
| 25>    C       -4.20356         2.42153        -2.69706
| 26>    C       -4.26021         3.79425        -3.01809
| 27>    N       -4.32579         4.89390        -3.34135
| 28>    C       -4.67663         1.65017        -3.78026
| 29>    N       -5.09165         1.10895        -4.70481
| 30>    C       -3.71966         0.53829        -1.08224
| 31>    C       -3.80690        -0.50916        -1.95510
| 32>    C       -3.89551        -1.91877        -1.73663
| 33>    C       -3.55251        -2.75918        -2.81875
| 34>    C       -3.66841        -4.11630        -2.69155
| 35>    C       -4.15364        -4.68215        -1.49560
| 36>    C       -4.51320        -3.86582        -0.42951
| 37>    C       -4.38072        -2.50008        -0.55263
| 38>    C       -4.23797        -6.11084        -1.66772
| 39>    C       -3.80216        -6.43726        -2.96644
| 40>    C       -3.32568        -5.19958        -3.69245
| 41>    C       -4.04216        -4.99936        -5.03574
| 42>    C       -5.55402        -4.88519        -4.87642
| 43>    C       -1.78704        -5.18786        -3.85728
| 44>    C       -1.20132        -6.32955        -4.67723
| 45>    C       -3.88935        -7.73117        -3.41686
| 46>    C       -4.39640        -8.73825        -2.57785
| 47>    C       -4.77542        -8.40046        -1.26999
| 48>    C       -4.70566        -7.10230        -0.81362
| 49>    C       -4.53065       -10.06979        -3.11422
| 50>    C       -5.25978       -11.07294        -2.58381
| 51>    C       -5.43215       -12.35339        -3.18348
| 52>    N       -6.32099       -13.26145        -2.68138
| 53>    C       -6.34855       -14.37781        -3.46558
| 54>    C       -5.42600       -14.18845        -4.49224
| 55>    C       -4.85927       -12.93159        -4.31592
| 56>    C       -7.21770       -15.43753        -3.23624
| 57>    C       -8.01976       -16.33274        -3.06347
| 58>    C       -8.98131       -17.32207        -2.89239
| 59>    C       -9.24520       -18.25890        -3.83114
| 60>    C      -10.27762       -19.23433        -3.73689
| 61>    C      -11.16174       -19.50156        -2.71419
| 62>    C      -12.08510       -20.50289        -3.02333
| 63>    C      -11.93409       -21.03190        -4.28464
| 64>    S      -10.59780       -20.27238        -5.09797
| 65>    C      -12.72843       -22.04090        -4.94477
| 66>    C      -13.97757       -22.41396        -4.42609
| 67>    C      -14.72921       -23.35313        -5.08753
| 68>    C      -14.26123       -23.94789        -6.27121
| 69>    C      -13.02593       -23.58971        -6.78933
| 70>    C      -12.27499       -22.64086        -6.12511
| 71>    C      -15.26374       -24.88072        -6.74488
| 72>    C      -16.34963       -24.85875        -5.85528
| 73>    C      -16.09741       -23.88445        -4.72824
| 74>    C      -16.08416       -24.59483        -3.36243
| 75>    C      -15.06330       -25.72426        -3.29551
| 76>    C      -17.14875       -22.75918        -4.71557
| 77>    C      -17.22165       -22.00394        -6.03721
| 78>    C      -17.44811       -25.65430        -6.07515
| 79>    C      -17.49078       -26.49137        -7.19787
| 80>    C      -16.39946       -26.50474        -8.07156
| 81>    C      -15.29015       -25.71015        -7.85572
| 82>    C      -18.67547       -27.31318        -7.40359
| 83>    C      -18.94688       -28.07547        -8.45699
| 84>    H       -3.39276         4.80653        -1.01624
| 85>    H       -2.71209         5.68667         1.16731
| 86>    H       -2.57208         1.72081         2.80436
| 87>    H       -3.78946        -0.24274        -3.00651
| 88>    H       -3.19655        -2.31569        -3.73783
| 89>    H       -4.90180        -4.29331         0.48225
| 90>    H       -4.68093        -1.86662         0.26377
| 91>    H       -3.81718        -5.84280        -5.68956
| 92>    H       -3.65741        -4.09452        -5.51050
| 93>    H       -5.95912        -5.78112        -4.41045
| 94>    H       -6.02415        -4.76005        -5.84894
| 95>    H       -5.81383        -4.02936        -4.25747
| 96>    H       -1.34307        -5.21118        -2.85835
| 97>    H       -1.51017        -4.23714        -4.31867
| 98>    H       -1.38820        -7.28641        -4.19761
| 99>    H       -0.12446        -6.19753        -4.75866
|100>    H       -1.61419        -6.34914        -5.68232
|101>    H       -3.60680        -7.98923        -4.42684
|102>    H       -5.13133        -9.17205        -0.60467
|103>    H       -5.01962        -6.85730         0.19017
|104>    H       -4.03670       -10.24186        -4.06106
|105>    H       -5.80446       -10.91687        -1.66107
|106>    H       -6.90248       -13.11726        -1.87199
|107>    H       -5.20847       -14.89404        -5.26940
|108>    H       -4.10973       -12.48456        -4.93792
|109>    H       -9.54642       -17.28534        -1.97012
|110>    H       -8.66523       -18.26200        -4.74458
|111>    H      -11.14405       -18.98928        -1.76877
|112>    H      -12.83669       -20.83597        -2.33006
|113>    H      -14.34925       -21.94917        -3.52591
|114>    H      -12.65567       -24.03960        -7.69832
|115>    H      -11.31132       -22.34924        -6.51838
|116>    H      -17.08124       -24.99525        -3.16654
|117>    H      -15.86226       -23.85864        -2.58656
|118>    H      -15.27697       -26.47892        -4.04921
|119>    H      -15.09052       -26.19724        -2.31641
|120>    H      -14.05869       -25.34396        -3.46728
|121>    H      -16.90508       -22.06054        -3.91207
|122>    H      -18.12505       -23.19553        -4.49342
|123>    H      -16.26505       -21.54010        -6.26762
|124>    H      -17.97838       -21.22455        -5.98233
|125>    H      -17.47976       -22.67848        -6.85059
|126>    H      -18.28625       -25.63871        -5.39203
|127>    H      -16.41877       -27.15372        -8.93329
|128>    H      -14.45751       -25.73672        -8.54317
|129>    H      -19.39758       -27.26636        -6.59666
|130>    H      -18.28536       -28.16326        -9.30155
|131>    H      -19.85864       -28.64507        -8.51395
|132> *
|133>
|134>                          ****END OF INPUT****

CARTESIAN COORDINATES (ANGSTROEM)
---------------------------------
  C     -3.359650    0.495490    0.355490
  O     -3.205490   -0.463480    1.078780
  C     -3.139180    1.907500    0.747090
  C     -3.380810    2.752810   -0.347580
  C     -3.225560    4.124400   -0.199250
  C     -2.837960    4.623080    1.034830
  C     -2.607930    3.766910    2.103850
  C     -2.751250    2.392250    1.978940
  Br    -2.083100    4.498870    3.777460
  C     -3.776080    1.933880   -1.489280
  C     -4.203560    2.421530   -2.697060
  C     -4.260210    3.794250   -3.018090
  N     -4.325790    4.893900   -3.341350
  C     -4.676630    1.650170   -3.780260
  N     -5.091650    1.108950   -4.704810
  C     -3.719660    0.538290   -1.082240
  C     -3.806900   -0.509160   -1.955100
  C     -3.895510   -1.918770   -1.736630
  C     -3.552510   -2.759180   -2.818750
  C     -3.668410   -4.116300   -2.691550
  C     -4.153640   -4.682150   -1.495600
  C     -4.513200   -3.865820   -0.429510
  C     -4.380720   -2.500080   -0.552630
  C     -4.237970   -6.110840   -1.667720
  C     -3.802160   -6.437260   -2.966440
  C     -3.325680   -5.199580   -3.692450
  C     -4.042160   -4.999360   -5.035740
  C     -5.554020   -4.885190   -4.876420
  C     -1.787040   -5.187860   -3.857280
  C     -1.201320   -6.329550   -4.677230
  C     -3.889350   -7.731170   -3.416860
  C     -4.396400   -8.738250   -2.577850
  C     -4.775420   -8.400460   -1.269990
  C     -4.705660   -7.102300   -0.813620
  C     -4.530650  -10.069790   -3.114220
  C     -5.259780  -11.072940   -2.583810
  C     -5.432150  -12.353390   -3.183480
  N     -6.320990  -13.261450   -2.681380
  C     -6.348550  -14.377810   -3.465580
  C     -5.426000  -14.188450   -4.492240
  C     -4.859270  -12.931590   -4.315920
  C     -7.217700  -15.437530   -3.236240
  C     -8.019760  -16.332740   -3.063470
  C     -8.981310  -17.322070   -2.892390
  C     -9.245200  -18.258900   -3.831140
  C    -10.277620  -19.234330   -3.736890
  C    -11.161740  -19.501560   -2.714190
  C    -12.085100  -20.502890   -3.023330
  C    -11.934090  -21.031900   -4.284640
  S    -10.597800  -20.272380   -5.097970
  C    -12.728430  -22.040900   -4.944770
  C    -13.977570  -22.413960   -4.426090
  C    -14.729210  -23.353130   -5.087530
  C    -14.261230  -23.947890   -6.271210
  C    -13.025930  -23.589710   -6.789330
  C    -12.274990  -22.640860   -6.125110
  C    -15.263740  -24.880720   -6.744880
  C    -16.349630  -24.858750   -5.855280
  C    -16.097410  -23.884450   -4.728240
  C    -16.084160  -24.594830   -3.362430
  C    -15.063300  -25.724260   -3.295510
  C    -17.148750  -22.759180   -4.715570
  C    -17.221650  -22.003940   -6.037210
  C    -17.448110  -25.654300   -6.075150
  C    -17.490780  -26.491370   -7.197870
  C    -16.399460  -26.504740   -8.071560
  C    -15.290150  -25.710150   -7.855720
  C    -18.675470  -27.313180   -7.403590
  C    -18.946880  -28.075470   -8.456990
  H     -3.392760    4.806530   -1.016240
  H     -2.712090    5.686670    1.167310
  H     -2.572080    1.720810    2.804360
  H     -3.789460   -0.242740   -3.006510
  H     -3.196550   -2.315690   -3.737830
  H     -4.901800   -4.293310    0.482250
  H     -4.680930   -1.866620    0.263770
  H     -3.817180   -5.842800   -5.689560
  H     -3.657410   -4.094520   -5.510500
  H     -5.959120   -5.781120   -4.410450
  H     -6.024150   -4.760050   -5.848940
  H     -5.813830   -4.029360   -4.257470
  H     -1.343070   -5.211180   -2.858350
  H     -1.510170   -4.237140   -4.318670
  H     -1.388200   -7.286410   -4.197610
  H     -0.124460   -6.197530   -4.758660
  H     -1.614190   -6.349140   -5.682320
  H     -3.606800   -7.989230   -4.426840
  H     -5.131330   -9.172050   -0.604670
  H     -5.019620   -6.857300    0.190170
  H     -4.036700  -10.241860   -4.061060
  H     -5.804460  -10.916870   -1.661070
  H     -6.902480  -13.117260   -1.871990
  H     -5.208470  -14.894040   -5.269400
  H     -4.109730  -12.484560   -4.937920
  H     -9.546420  -17.285340   -1.970120
  H     -8.665230  -18.262000   -4.744580
  H    -11.144050  -18.989280   -1.768770
  H    -12.836690  -20.835970   -2.330060
  H    -14.349250  -21.949170   -3.525910
  H    -12.655670  -24.039600   -7.698320
  H    -11.311320  -22.349240   -6.518380
  H    -17.081240  -24.995250   -3.166540
  H    -15.862260  -23.858640   -2.586560
  H    -15.276970  -26.478920   -4.049210
  H    -15.090520  -26.197240   -2.316410
  H    -14.058690  -25.343960   -3.467280
  H    -16.905080  -22.060540   -3.912070
  H    -18.125050  -23.195530   -4.493420
  H    -16.265050  -21.540100   -6.267620
  H    -17.978380  -21.224550   -5.982330
  H    -17.479760  -22.678480   -6.850590
  H    -18.286250  -25.638710   -5.392030
  H    -16.418770  -27.153720   -8.933290
  H    -14.457510  -25.736720   -8.543170
  H    -19.397580  -27.266360   -6.596660
  H    -18.285360  -28.163260   -9.301550
  H    -19.858640  -28.645070   -8.513950

 Total Charge           Charge          ....    0
 Multiplicity           Mult            ....    1
 Number of Electrons    NEL             ....  506
 Basis Dimension        Dim             .... 1228

ORBITAL ENERGIES
----------------

  NO   OCC          E(Eh)            E(eV)
   0   2.0000    -482.871426    -13139.5995
   1   2.0000     -88.948436     -2420.4100
   2   2.0000     -62.549124     -1702.0482
   3   2.0000     -56.382959     -1534.2583
   4   2.0000     -56.380440     -1534.1898
   5   2.0000     -56.380431     -1534.1895
   6   2.0000     -19.218646      -522.9659
   7   2.0000     -14.460636      -393.4939
   8   2.0000     -14.415554      -392.2672
   9   2.0000     -14.414234      -392.2313
  10   2.0000     -10.370782      -282.2033
  11   2.0000     -10.344103      -281.4774
  12   2.0000     -10.342468      -281.4329
  13   2.0000     -10.341161      -281.3973
  14   2.0000     -10.318536      -280.7816
  15   2.0000     -10.317233      -280.7462
  16   2.0000     -10.316590      -280.7287
  17   2.0000     -10.308896      -280.5193
  18   2.0000     -10.307821      -280.4901
  19   2.0000     -10.303007      -280.3591
  20   2.0000     -10.302655      -280.3495
  21   2.0000     -10.301378      -280.3148
  22   2.0000     -10.299335      -280.2591
  23   2.0000     -10.297542      -280.2104
  24   2.0000     -10.296924      -280.1936
  25   2.0000     -10.295427      -280.1528
  26   2.0000     -10.294454      -280.1263
  27   2.0000     -10.288313      -279.9592
  28   2.0000     -10.285305      -279.8774
  29   2.0000     -10.284685      -279.8605
  30   2.0000     -10.283287      -279.8225
  31   2.0000     -10.283034      -279.8156
  32   2.0000     -10.282999      -279.8146
  33   2.0000     -10.282828      -279.8100
  34   2.0000     -10.281653      -279.7780
  35   2.0000     -10.280889      -279.7572
  36   2.0000     -10.278328      -279.6875
  37   2.0000     -10.277145      -279.6553
  38   2.0000     -10.275664      -279.6150
  39   2.0000     -10.274254      -279.5767
  40   2.0000     -10.274011      -279.5701
  41   2.0000     -10.273735      -279.5625
  42   2.0000     -10.273203      -279.5481
  43   2.0000     -10.272776      -279.5364
  44   2.0000     -10.272539      -279.5300
  45   2.0000     -10.271494      -279.5016
  46   2.0000     -10.270167      -279.4655
  47   2.0000     -10.268567      -279.4219
  48   2.0000     -10.268131      -279.4100
  49   2.0000     -10.268004      -279.4066
  50   2.0000     -10.267833      -279.4019
  51   2.0000     -10.267036      -279.3802
  52   2.0000     -10.266948      -279.3779
  53   2.0000     -10.266855      -279.3753
  54   2.0000     -10.266147      -279.3561
  55   2.0000     -10.265920      -279.3499
  56   2.0000     -10.265570      -279.3404
  57   2.0000     -10.265568      -279.3403
  58   2.0000     -10.264780      -279.3189
  59   2.0000     -10.264268      -279.3049
  60   2.0000     -10.264111      -279.3007
  61   2.0000     -10.263327      -279.2793
  62   2.0000     -10.262877      -279.2671
  63   2.0000     -10.261631      -279.2332
  64   2.0000     -10.259644      -279.1791
  65   2.0000     -10.259346      -279.1710
  66   2.0000     -10.257436      -279.1190
  67   2.0000     -10.256956      -279.1060
  68   2.0000     -10.254866      -279.0491
  69   2.0000     -10.253737      -279.0184
  70   2.0000     -10.247115      -278.8382
  71   2.0000     -10.242460      -278.7115
  72   2.0000     -10.241910      -278.6966
  73   2.0000      -8.778397      -238.8723
  74   2.0000      -8.044210      -218.8941
  75   2.0000      -6.614215      -179.9819
  76   2.0000      -6.600521      -179.6093
  77   2.0000      -6.600087      -179.5975
  78   2.0000      -6.013349      -163.6315
  79   2.0000      -6.009371      -163.5233
  80   2.0000      -6.006467      -163.4443
  81   2.0000      -2.730173       -74.2918
  82   2.0000      -2.726394       -74.1890
  83   2.0000      -2.726071       -74.1802
  84   2.0000      -2.715185       -73.8839
  85   2.0000      -2.715172       -73.8836
  86   2.0000      -1.134268       -30.8650
  87   2.0000      -1.077950       -29.3325
  88   2.0000      -1.019292       -27.7363
  89   2.0000      -1.000882       -27.2354
  90   2.0000      -0.993694       -27.0398
  91   2.0000      -0.992984       -27.0205
  92   2.0000      -0.985257       -26.8102
  93   2.0000      -0.976957       -26.5844
  94   2.0000      -0.964763       -26.2525
  95   2.0000      -0.951745       -25.8983
  96   2.0000      -0.938984       -25.5510
  97   2.0000      -0.926877       -25.2216
  98   2.0000      -0.914302       -24.8794
  99   2.0000      -0.909688       -24.7539
 100   2.0000      -0.901217       -24.5234
 101   2.0000      -0.899778       -24.4842
 102   2.0000      -0.895012       -24.3545
 103   2.0000      -0.882561       -24.0157
 104   2.0000      -0.879531       -23.9333
 105   2.0000      -0.869068       -23.6485
 106   2.0000      -0.865038       -23.5389
 107   2.0000      -0.856334       -23.3020
 108   2.0000      -0.851141       -23.1607
 109   2.0000      -0.842528       -22.9263
 110   2.0000      -0.839665       -22.8484
 111   2.0000      -0.837187       -22.7810
 112   2.0000      -0.835576       -22.7372
 113   2.0000      -0.833230       -22.6734
 114   2.0000      -0.832258       -22.6469
 115   2.0000      -0.825821       -22.4717
 116   2.0000      -0.821668       -22.3587
 117   2.0000      -0.819435       -22.2980
 118   2.0000      -0.806656       -21.9502
 119   2.0000      -0.788725       -21.4623
 120   2.0000      -0.773324       -21.0432
 121   2.0000      -0.768057       -20.8999
 122   2.0000      -0.767604       -20.8876
 123   2.0000      -0.760460       -20.6932
 124   2.0000      -0.756219       -20.5778
 125   2.0000      -0.732326       -19.9276
 126   2.0000      -0.723198       -19.6792
 127   2.0000      -0.718738       -19.5578
 128   2.0000      -0.713476       -19.4147
 129   2.0000      -0.705368       -19.1940
 130   2.0000      -0.700521       -19.0622
 131   2.0000      -0.695456       -18.9243
 132   2.0000      -0.692334       -18.8394
 133   2.0000      -0.685833       -18.6625
 134   2.0000      -0.681246       -18.5377
 135   2.0000      -0.676422       -18.4064
 136   2.0000      -0.674080       -18.3427
 137   2.0000      -0.671615       -18.2756
 138   2.0000      -0.670300       -18.2398
 139   2.0000      -0.664624       -18.0853
 140   2.0000      -0.660939       -17.9851
 141   2.0000      -0.658145       -17.9090
 142   2.0000      -0.648381       -17.6434
 143   2.0000      -0.641255       -17.4494
 144   2.0000      -0.633872       -17.2485
 145   2.0000      -0.617931       -16.8147
 146   2.0000      -0.615298       -16.7431
 147   2.0000      -0.613890       -16.7048
 148   2.0000      -0.609141       -16.5756
 149   2.0000      -0.603668       -16.4266
 150   2.0000      -0.595224       -16.1969
 151   2.0000      -0.590861       -16.0781
 152   2.0000      -0.587207       -15.9787
 153   2.0000      -0.586953       -15.9718
 154   2.0000      -0.583448       -15.8764
 155   2.0000      -0.575616       -15.6633
 156   2.0000      -0.565604       -15.3909
 157   2.0000      -0.560715       -15.2578
 158   2.0000      -0.557953       -15.1827
 159   2.0000      -0.547513       -14.8986
 160   2.0000      -0.544594       -14.8192
 161   2.0000      -0.543197       -14.7811
 162   2.0000      -0.542295       -14.7566
 163   2.0000      -0.539304       -14.6752
 164   2.0000      -0.538861       -14.6632
 165   2.0000      -0.537184       -14.6175
 166   2.0000      -0.536089       -14.5877
 167   2.0000      -0.531698       -14.4682
 168   2.0000      -0.527792       -14.3619
 169   2.0000      -0.525552       -14.3010
 170   2.0000      -0.522652       -14.2221
 171   2.0000      -0.519960       -14.1488
 172   2.0000      -0.519241       -14.1293
 173   2.0000      -0.516888       -14.0652
 174   2.0000      -0.516208       -14.0467
 175   2.0000      -0.515039       -14.0149
 176   2.0000      -0.513474       -13.9723
 177   2.0000      -0.512221       -13.9383
 178   2.0000      -0.510814       -13.9000
 179   2.0000      -0.505970       -13.7681
 180   2.0000      -0.504758       -13.7352
 181   2.0000      -0.499031       -13.5793
 182   2.0000      -0.496773       -13.5179
 183   2.0000      -0.494665       -13.4605
 184   2.0000      -0.489439       -13.3183
 185   2.0000      -0.483532       -13.1576
 186   2.0000      -0.482737       -13.1359
 187   2.0000      -0.481177       -13.0935
 188   2.0000      -0.479082       -13.0365
 189   2.0000      -0.478545       -13.0219
 190   2.0000      -0.476006       -12.9528
 191   2.0000      -0.475343       -12.9347
 192   2.0000      -0.471111       -12.8196
 193   2.0000      -0.469942       -12.7878
 194   2.0000      -0.466380       -12.6908
 195   2.0000      -0.464562       -12.6414
 196   2.0000      -0.460869       -12.5409
 197   2.0000      -0.459610       -12.5066
 198   2.0000      -0.458569       -12.4783
 199   2.0000      -0.454458       -12.3664
 200   2.0000      -0.452327       -12.3084
 201   2.0000      -0.448900       -12.2152
 202   2.0000      -0.448035       -12.1917
 203   2.0000      -0.447789       -12.1850
 204   2.0000      -0.444503       -12.0955
 205   2.0000      -0.443477       -12.0676
 206   2.0000      -0.442482       -12.0405
 207   2.0000      -0.439322       -11.9546
 208   2.0000      -0.437971       -11.9178
 209   2.0000      -0.437240       -11.8979
 210   2.0000      -0.434401       -11.8207
 211   2.0000      -0.430479       -11.7139
 212   2.0000      -0.429316       -11.6823
 213   2.0000      -0.426723       -11.6117
 214   2.0000      -0.426278       -11.5996
 215   2.0000      -0.421805       -11.4779
 216   2.0000      -0.421467       -11.4687
 217   2.0000      -0.421040       -11.4571
 218   2.0000      -0.420850       -11.4519
 219   2.0000      -0.416589       -11.3360
 220   2.0000      -0.414205       -11.2711
 221   2.0000      -0.411075       -11.1859
 222   2.0000      -0.408117       -11.1054
 223   2.0000      -0.405614       -11.0373
 224   2.0000      -0.405263       -11.0278
 225   2.0000      -0.403004       -10.9663
 226   2.0000      -0.394999       -10.7485
 227   2.0000      -0.392489       -10.6802
 228   2.0000      -0.389184       -10.5902
 229   2.0000      -0.386752       -10.5241
 230   2.0000      -0.382773       -10.4158
 231   2.0000      -0.382136       -10.3984
 232   2.0000      -0.380133       -10.3439
 233   2.0000      -0.377863       -10.2822
 234   2.0000      -0.366347        -9.9688
 235   2.0000      -0.365971        -9.9586
 236   2.0000      -0.353080        -9.6078
 237   2.0000      -0.349956        -9.5228
 238   2.0000      -0.342502        -9.3200
 239   2.0000      -0.341151        -9.2832
 240   2.0000      -0.331428        -9.0186
 241   2.0000      -0.326457        -8.8834
 242   2.0000      -0.325236        -8.8501
 243   2.0000      -0.320600        -8.7240
 244   2.0000      -0.319415        -8.6917
 245   2.0000      -0.316832        -8.6214
 246   2.0000      -0.313798        -8.5389
 247   2.0000      -0.309077        -8.4104
 248   2.0000      -0.306741        -8.3469
 249   2.0000      -0.287913        -7.8345
 250   2.0000      -0.271377        -7.3845
 251   2.0000      -0.248783        -6.7697
 252   2.0000      -0.220903        -6.0111
 253   0.0000      -0.088099        -2.3973
 254   0.0000      -0.064080        -1.7437
 255   0.0000      -0.046395        -1.2625
 256   0.0000      -0.025387        -0.6908
 257   0.0000      -0.007786        -0.2119

MULLIKEN ATOMIC CHARGES
-----------------------
   0 C :    0.147026
   1 O :   -0.142256
   2 C :   -0.027839
   3 C :    0.034175
   4 C :   -0.025328
   5 C :    0.045723
   6 C :   -0.001456
   7 C :   -0.012496
   8 Br:   -0.021307
   9 C :    0.297859
  10 C :   -0.346493
  11 C :   -0.186170
  12 N :    0.149013
  13 C :   -0.203242
  14 N :    0.160762
  15 C :   -0.066498
  16 C :   -0.035802
  17 C :    0.080307
  18 C :   -0.092487
  19 C :    0.018193
  20 C :    0.115402
  21 C :   -0.060291
  22 C :    0.049042
  23 C :    0.093662
  24 C :    0.028562
  25 C :   -0.127486
  26 C :    0.047726
  27 C :    0.028383
  28 C :    0.081512
  29 C :    0.029644
  30 C :   -0.114925
  31 C :    0.132639
  32 C :   -0.018555
  33 C :   -0.039021
  34 C :   -0.023881
  35 C :    0.043189
  36 C :    0.087189
  37 N :   -0.043266
  38 C :    0.013699
  39 C :   -0.003627
  40 C :   -0.051206
  41 C :    0.084485
  42 C :   -0.081580
  43 C :   -0.093915
  44 C :    0.074192
  45 C :   -0.083100
  46 C :    0.019130
  47 C :    0.000719
  48 C :   -0.088985
  49 S :    0.112477
  50 C :    0.173531
  51 C :   -0.106487
  52 C :    0.010576
  53 C :    0.109240
  54 C :   -0.049432
  55 C :   -0.046209
  56 C :    0.111796
  57 C :    0.013050
  58 C :   -0.144137
  59 C :    0.070788
  60 C :    0.026665
  61 C :    0.068476
  62 C :    0.025650
  63 C :   -0.106376
  64 C :    0.113450
  65 C :   -0.014768
  66 C :   -0.050978
  67 C :   -0.006053
  68 C :   -0.015321
  69 H :    0.009381
  70 H :    0.006225
  71 H :    0.002682
  72 H :    0.022463
  73 H :   -0.025240
  74 H :   -0.030528
  75 H :   -0.009259
  76 H :    0.007512
  77 H :    0.002293
  78 H :    0.019298
  79 H :    0.012580
  80 H :    0.020774
  81 H :    0.005219
  82 H :   -0.003408
  83 H :    0.019564
  84 H :    0.014824
  85 H :    0.004595
  86 H :   -0.037629
  87 H :   -0.030035
  88 H :   -0.033815
  89 H :   -0.024963
  90 H :   -0.034171
  91 H :    0.119667
  92 H :   -0.027515
  93 H :   -0.026071
  94 H :    0.018203
  95 H :   -0.004449
  96 H :   -0.023394
  97 H :   -0.021417
  98 H :   -0.045768
  99 H :   -0.036578
 100 H :   -0.018886
 101 H :   -0.004093
 102 H :   -0.006260
 103 H :    0.022957
 104 H :    0.006337
 105 H :    0.021348
 106 H :   -0.004193
 107 H :   -0.004005
 108 H :    0.021611
 109 H :    0.008295
 110 H :    0.022206
 111 H :   -0.042857
 112 H :   -0.035419
 113 H :   -0.037991
 114 H :   -0.018428
 115 H :    0.011453
 116 H :    0.019926
Sum of atomic charges:   -0.0000000

LOEWDIN ATOMIC CHARGES
----------------------
   0 C :    0.083347
   1 O :   -0.133049
   2 C :   -0.036936
   3 C :   -0.017185
   4 C :    0.008019
   5 C :   -0.014180
   6 C :   -0.097809
   7 C :   -0.000954
   8 Br:    0.113879
   9 C :    0.076826
  10 C :   -0.139645
  11 C :   -0.018135
  12 N :   -0.052997
  13 C :   -0.025278
  14 N :   -0.050623
  15 C :   -0.104293
  16 C :    0.088027
  17 C :   -0.047951
  18 C :    0.004762
  19 C :   -0.001869
  20 C :    0.012798
  21 C :   -0.024524
  22 C :    0.026246
  23 C :   -0.027734
  24 C :    0.010147
  25 C :   -0.034476
  26 C :   -0.015562
  27 C :   -0.055718
  28 C :   -0.008870
  29 C :   -0.058999
  30 C :   -0.024419
  31 C :   -0.013764
  32 C :   -0.019554
  33 C :   -0.009982
  34 C :   -0.024028
  35 C :   -0.026929
  36 C :   -0.015793
  37 N :    0.103246
  38 C :   -0.034578
  39 C :   -0.042689
  40 C :   -0.062820
  41 C :   -0.057487
  42 C :   -0.034858
  43 C :   -0.046040
  44 C :   -0.020019
  45 C :   -0.176410
  46 C :   -0.053638
  47 C :   -0.059765
  48 C :   -0.160472
  49 S :    0.436365
  50 C :   -0.035359
  51 C :   -0.019084
  52 C :    0.005402
  53 C :   -0.018718
  54 C :   -0.016360
  55 C :   -0.028412
  56 C :   -0.019272
  57 C :    0.001567
  58 C :   -0.035527
  59 C :   -0.011830
  60 C :   -0.057633
  61 C :   -0.011815
  62 C :   -0.057628
  63 C :   -0.022778
  64 C :   -0.025416
  65 C :   -0.013790
  66 C :   -0.018501
  67 C :   -0.020328
  68 C :   -0.046719
  69 H :    0.042966
  70 H :    0.040339
  71 H :    0.043626
  72 H :    0.045540
  73 H :    0.029399
  74 H :    0.029341
  75 H :    0.031461
  76 H :    0.020439
  77 H :    0.021706
  78 H :    0.025142
  79 H :    0.025831
  80 H :    0.025130
  81 H :    0.026711
  82 H :    0.020217
  83 H :    0.024235
  84 H :    0.028541
  85 H :    0.020375
  86 H :    0.024208
  87 H :    0.024472
  88 H :    0.027962
  89 H :    0.027499
  90 H :    0.023762
  91 H :    0.091449
  92 H :    0.028401
  93 H :    0.023340
  94 H :    0.039418
  95 H :    0.033462
  96 H :    0.026824
  97 H :    0.027245
  98 H :    0.022911
  99 H :    0.027036
 100 H :    0.019246
 101 H :    0.019321
 102 H :    0.018412
 103 H :    0.026165
 104 H :    0.023014
 105 H :    0.025459
 106 H :    0.018849
 107 H :    0.019286
 108 H :    0.025706
 109 H :    0.023472
 110 H :    0.026020
 111 H :    0.022740
 112 H :    0.025078
 113 H :    0.025843
 114 H :    0.026942
 115 H :    0.019013
 116 H :    0.025022

  Mayer bond orders larger than 0.100000
B(  0-C ,  1-O ) :   2.2225 B(  0-C ,  2-C ) :   0.9405 B(  0-C , 15-C ) :   0.9404
B(  2-C ,  3-C ) :   1.3327 B(  2-C ,  7-C ) :   1.3801 B(  3-C ,  4-C ) :   1.3576
B(  3-C ,  9-C ) :   0.9937 B(  4-C ,  5-C ) :   1.3870 B(  4-C , 69-H ) :   0.9839
B(  5-C ,  6-C ) :   1.3858 B(  5-C , 70-H ) :   0.9849 B(  6-C ,  7-C ) :   1.3371
B(  6-C ,  8-Br) :   0.9920 B(  7-C , 71-H ) :   1.0072 B(  9-C , 10-C ) :   1.6349
B(  9-C , 15-C ) :   1.0714 B( 10-C , 11-C ) :   1.1404 B( 10-C , 13-C ) :   1.1409
B( 11-C , 12-N ) :   2.9758 B( 13-C , 14-N ) :   2.9913 B( 15-C , 16-C ) :   1.5553
B( 16-C , 17-C ) :   1.1343 B( 16-C , 72-H ) :   0.9512 B( 17-C , 18-C ) :   1.2319
B( 17-C , 22-C ) :   1.3320 B( 18-C , 19-C ) :   1.4053 B( 18-C , 73-H ) :   1.0106
B( 19-C , 20-C ) :   1.3532 B( 19-C , 25-C ) :   0.9225 B( 20-C , 21-C ) :   1.3208
B( 20-C , 23-C ) :   1.0115 B( 21-C , 22-C ) :   1.4117 B( 21-C , 74-H ) :   0.9922
B( 22-C , 75-H ) :   0.9757 B( 23-C , 24-C ) :   1.3750 B( 23-C , 33-C ) :   1.3207
B( 24-C , 25-C ) :   0.9176 B( 24-C , 30-C ) :   1.3889 B( 25-C , 26-C ) :   1.0344
B( 25-C , 28-C ) :   1.0125 B( 26-C , 27-C ) :   1.1045 B( 26-C , 76-H ) :   0.9381
B( 26-C , 77-H ) :   0.9388 B( 27-C , 78-H ) :   0.9650 B( 27-C , 79-H ) :   0.9644
B( 27-C , 80-H ) :   0.9632 B( 28-C , 29-C ) :   1.1156 B( 28-C , 81-H ) :   0.9383
B( 28-C , 82-H ) :   0.9372 B( 29-C , 83-H ) :   0.9609 B( 29-C , 84-H ) :   0.9596
B( 29-C , 85-H ) :   0.9631 B( 30-C , 31-C ) :   1.2849 B( 30-C , 86-H ) :   1.0062
B( 31-C , 32-C ) :   1.3375 B( 31-C , 34-C ) :   1.0698 B( 32-C , 33-C ) :   1.4070
B( 32-C , 87-H ) :   0.9838 B( 33-C , 88-H ) :   0.9885 B( 34-C , 35-C ) :   1.7068
B( 34-C , 89-H ) :   0.9866 B( 35-C , 36-C ) :   1.0865 B( 35-C , 90-H ) :   0.9527
B( 36-C , 37-N ) :   1.2050 B( 36-C , 38-C ) :   0.1185 B( 36-C , 40-C ) :   1.4135
B( 37-N , 38-C ) :   1.2373 B( 37-N , 91-H ) :   0.9367 B( 38-C , 39-C ) :   1.4294
B( 38-C , 41-C ) :   0.8279 B( 39-C , 40-C ) :   1.3327 B( 39-C , 92-H ) :   1.0144
B( 40-C , 93-H ) :   1.0041 B( 41-C , 42-C ) :   2.2305 B( 42-C , 43-C ) :   1.0224
B( 43-C , 44-C ) :   1.7293 B( 43-C , 94-H ) :   0.9533 B( 44-C , 45-C ) :   1.1142
B( 44-C , 95-H ) :   0.9655 B( 45-C , 46-C ) :   1.5069 B( 45-C , 49-S ) :   1.1114
B( 46-C , 47-C ) :   1.2690 B( 46-C , 96-H ) :   0.9891 B( 47-C , 48-C ) :   1.5190
B( 47-C , 97-H ) :   0.9906 B( 48-C , 49-S ) :   1.1337 B( 48-C , 50-C ) :   1.0477
B( 50-C , 51-C ) :   1.3119 B( 50-C , 55-C ) :   1.3421 B( 51-C , 52-C ) :   1.4019
B( 51-C , 98-H ) :   1.0037 B( 52-C , 53-C ) :   1.3640 B( 52-C , 58-C ) :   0.9152
B( 53-C , 54-C ) :   1.3411 B( 53-C , 56-C ) :   0.9925 B( 54-C , 55-C ) :   1.3924
B( 54-C , 99-H ) :   0.9914 B( 55-C ,100-H ) :   0.9814 B( 56-C , 57-C ) :   1.3751
B( 56-C , 66-C ) :   1.3344 B( 57-C , 58-C ) :   0.9158 B( 57-C , 63-C ) :   1.3781
B( 58-C , 59-C ) :   1.0380 B( 58-C , 61-C ) :   1.0382 B( 59-C , 60-C ) :   1.1006
B( 59-C ,101-H ) :   0.9389 B( 59-C ,102-H ) :   0.9387 B( 60-C ,103-H ) :   0.9644
B( 60-C ,104-H ) :   0.9639 B( 60-C ,105-H ) :   0.9642 B( 61-C , 62-C ) :   1.1028
B( 61-C ,106-H ) :   0.9388 B( 61-C ,107-H ) :   0.9389 B( 62-C ,108-H ) :   0.9642
B( 62-C ,109-H ) :   0.9637 B( 62-C ,110-H ) :   0.9643 B( 63-C , 64-C ) :   1.3023
B( 63-C ,111-H ) :   1.0101 B( 64-C , 65-C ) :   1.3559 B( 64-C , 67-C ) :   1.0624
B( 65-C , 66-C ) :   1.3977 B( 65-C ,112-H ) :   0.9854 B( 66-C ,113-H ) :   0.9901
B( 67-C , 68-C ) :   1.9529 B( 67-C ,114-H ) :   0.9681 B( 68-C ,115-H ) :   0.9486
B( 68-C ,116-H ) :   0.9476

-----------------------------------------------------------------------------
         ABSORPTION SPECTRUM VIA TRANSITION ELECTRIC DIPOLE MOMENTS
-----------------------------------------------------------------------------
State   Energy  Wavelength   fosc         T2         TX        TY        TZ
        (cm-1)    (nm)                  (au**2)     (au)      (au)      (au)
-----------------------------------------------------------------------------
   0   19017.8    525.8   1.951438720  33.78081   1.54050   5.55643   0.73059
   1   23630.8    423.2   1.618490111  22.54793   3.06416   3.46044   1.08821
   2   25156.8    397.5   0.464043240   6.07266  -0.09078  -2.46260  -0.00253
   3   25522.1    391.8   0.093683481   1.20843  -0.84884  -0.68477   0.13782
   4   28623.5    349.4   0.022504502   0.25883   0.41693  -0.29032   0.02683
   5   29686.2    336.9   0.015260118   0.16923   0.09213   0.29800  -0.26821
   6   30283.3    330.2   0.097379464   1.05862   0.85032   0.00289   0.57928
   7   30747.6    325.2   0.106616255   1.14153   0.56562  -0.24723   0.87205
   8   31419.9    318.3   0.103158737   1.08088   0.66181   0.59651   0.53579
   9   31615.5    316.3   0.389733024   4.05828   0.31588   1.59809   1.18516
  10   32055.5    312.0   0.091841329   0.94321   0.52903   0.60943   0.54032
  11   33419.6    299.2   0.036108000   0.35569  -0.15054   0.06234   0.57371
  12   34227.7    292.2   0.154044257   1.48164  -0.35792  -0.90436  -0.73190
  13   34480.9    290.0   0.535771613   5.11536   0.68604   0.11828   2.15191
  14   35180.6    284.2   0.023185786   0.21697   0.26750   0.34876   0.15419
  15   35719.6    280.0   0.003741867   0.03449   0.12484   0.12203  -0.06334
  16   35780.3    279.5   0.024826376   0.22843   0.04513   0.19225   0.43524
  17   36694.2    272.5   0.242825766   2.17858   0.38555   1.32458   0.52481
  18   38034.8    262.9   0.005250336   0.04544   0.02624  -0.09033   0.19130
  19   38228.4    261.6   0.179147810   1.54277  -0.32408   0.55044  -1.06525
  20   39212.2    255.0   0.000673741   0.00566  -0.06361  -0.03938  -0.00768
  21   39446.0    253.5   0.013202199   0.11018  -0.15314  -0.14604   0.25575
  22   39665.5    252.1   0.260806138   2.16461  -0.66392  -1.23180  -0.45440
  23   40043.5    249.7   0.092120063   0.75735   0.80106   0.18040   0.28828

FINAL SINGLE POINT ENERGY     -5637.593867916416

DIPOLE MOMENT
-------------
                                X             Y             Z
Electronic contribution:    125.76410     306.81790     115.17235
Nuclear contribution   :   -126.01241    -308.94098    -113.95759
                        -----------------------------------------
Total Dipole Moment    :     -0.24832      -2.12308       1.21476
                        -----------------------------------------
Magnitude (a.u.)       :      2.45861
Magnitude (Debye)      :      6.24928

Rotational constants in cm-1:     0.002426     0.000112     0.000111
Rotational constants in MHz :    72.725198     3.342839     3.327105

                             ****ORCA TERMINATED NORMALLY****
TOTAL RUN TIME: 0 days 0 hours 10 minutes 6 seconds 613 msec
