                         Program Version 4.2.0 -  RELEASE  -
|  1> # ORCA input file
|  2> # SCF done       -151.429249276416          0.000400183613
|  3> ! CAM-B3LYP def2-SVP def2/J RIJCOSX Grid4 TightSCF
|  4> %maxcore 5000
|  5> %tddft
|  6>     Mode sTDDFT
|  7>     Ethresh 5.0
|  8>     maxcore 5000
|  9> end
| 10>
| 11> %pal
| 12>   nprocs 6
| 13>   end
| 14> * xyz 0 1
| 15>    C       -3.68042        -1.17636         3.09053
| 16>    C       -4.03929        -2.43583         2.66055
| 17>    C       -3.30205        -3.60151         2.94263
| 18>    N       -2.74499        -4.58816         3.13587
| 19>    C       -5.14669        -2.75155         1.85013
| 20>    N       -6.00333        -3.11270         1.17247
| 21>    C       -2.47041        -0.86070         3.84963
| 22>    C       -2.38257         0.54525         3.99345
| 23>    C       -1.34845         1.15902         4.65404
| 24>    C       -0.35244         0.34562         5.20763
| 25>    C       -0.45278        -1.05656         5.06578
| 26>    C       -1.49840        -1.67811         4.39194
| 27>    S        0.87795        -1.87345         5.83111
| 28>    C        1.54088        -0.33782         6.32276
| 29>    C        0.80722         0.73153         5.93548
| 30>   Br        3.14203        -0.29129         7.30090
| 31>    C       -3.55745         1.17389         3.34697
| 32>    O       -3.78624         2.36688         3.27835
| 33>    C       -4.36850         0.05830         2.83475
| 34>    C       -5.61617         0.19138         2.25324
| 35>    C       -6.24775         1.38854         1.94866
| 36>    C       -7.50901         1.42286         1.37552
| 37>    C       -8.20580         2.55421         0.89586
| 38>    C       -9.40435         2.26148         0.30826
| 39>    C       -9.71614         0.88761         0.32191
| 40>    S       -8.44896        -0.02160         1.10768
| 41>    C      -10.79391         0.21930        -0.23244
| 42>    C      -11.82138         0.71465        -1.06917
| 43>    C      -12.61384        -0.26204        -1.58800
| 44>    C      -12.26225        -1.57689        -1.17596
| 45>    S      -10.94725        -1.49907        -0.02040
| 46>    C      -12.71802        -2.74784        -1.71928
| 47>    C      -12.26951        -4.03753        -1.35220
| 48>    S      -12.12553        -5.29698        -2.56468
| 49>    C      -11.28096        -6.35424        -1.47852
| 50>    C      -11.25336        -5.80489        -0.20113
| 51>    C      -11.78791        -4.49511        -0.13300
| 52>    O      -11.88397        -3.77431         1.00010
| 53>    C      -10.68861        -6.41232         0.93020
| 54>    N      -10.25915        -6.82648         1.91127
| 55>    C      -10.77538        -7.62823        -1.85424
| 56>    S      -11.08523        -8.95689        -0.76724
| 57>    C      -10.36790       -10.07342        -1.82104
| 58>    C       -9.86241        -9.47818        -2.95494
| 59>    C      -10.06629        -8.05457        -2.98135
| 60>    C       -9.48555        -7.29388        -4.03155
| 61>    C       -8.82297        -7.96630        -5.05616
| 62>    C       -8.71751        -9.38452        -5.04870
| 63>    C       -9.20044       -10.12666        -4.02313
| 64>    N       -8.26581        -7.29963        -6.11272
| 65>    C       -9.51426        -5.83312        -4.03992
| 66>    S      -10.20975        -4.95102        -5.38011
| 67>    C       -9.85226        -3.45055        -4.65623
| 68>    C       -9.23205        -3.59582        -3.44237
| 69>    C       -9.03711        -4.96913        -3.08574
| 70>    O       -8.46036        -5.39864        -1.94159
| 71>    C       -8.83654        -2.50855        -2.64744
| 72>    N       -8.51782        -1.62110        -1.99388
| 73>    H       -1.30760         2.23329         4.74439
| 74>    H       -1.52977        -2.75192         4.31395
| 75>    H        1.06988         1.75083         6.15296
| 76>    H       -6.15480        -0.71612         2.00632
| 77>    H       -5.73643         2.32168         2.13351
| 78>    H       -7.79237         3.54374         0.97862
| 79>    H      -10.06171         2.99270        -0.12770
| 80>    H      -11.92194         1.76195        -1.29105
| 81>    H      -13.42368        -0.09127        -2.27557
| 82>    H      -13.38675        -2.68495        -2.56767
| 83>    H      -11.44978        -4.23613         1.73139
| 84>    H      -10.34242       -11.11442        -1.56649
| 85>    H       -8.20513        -9.85554        -5.87482
| 86>    H       -9.08187       -11.19845        -3.99664
| 87>    H       -8.08347        -6.31501        -6.02015
| 88>    H       -7.63039        -7.81338        -6.69844
| 89>    H      -10.10736        -2.53230        -5.14653
| 90>    H       -8.10021        -4.65729        -1.43512
| 91> *
| 92>
| 93>                          ****END OF INPUT****

CARTESIAN COORDINATES (ANGSTROEM)
---------------------------------
  C     -3.680420   -1.176360    3.090530
  C     -4.039290   -2.435830    2.660550
  C     -3.302050   -3.601510    2.942630
  N     -2.744990   -4.588160    3.135870
  C     -5.146690   -2.751550    1.850130
  N     -6.003330   -3.112700    1.172470
  C     -2.470410   -0.860700    3.849630
  C     -2.382570    0.545250    3.993450
  C     -1.348450    1.159020    4.654040
  C     -0.352440    0.345620    5.207630
  C     -0.452780   -1.056560    5.065780
  C     -1.498400   -1.678110    4.391940
  S      0.877950   -1.873450    5.831110
  C      1.540880   -0.337820    6.322760
  C      0.807220    0.731530    5.935480
  Br     3.142030   -0.291290    7.300900
  C     -3.557450    1.173890    3.346970
  O     -3.786240    2.366880    3.278350
  C     -4.368500    0.058300    2.834750
  C     -5.616170    0.191380    2.253240
  C     -6.247750    1.388540    1.948660
  C     -7.509010    1.422860    1.375520
  C     -8.205800    2.554210    0.895860
  C     -9.404350    2.261480    0.308260
  C     -9.716140    0.887610    0.321910
  S     -8.448960   -0.021600    1.107680
  C    -10.793910    0.219300   -0.232440
  C    -11.821380    0.714650   -1.069170
  C    -12.613840   -0.262040   -1.588000
  C    -12.262250   -1.576890   -1.175960
  S    -10.947250   -1.499070   -0.020400
  C    -12.718020   -2.747840   -1.719280
  C    -12.269510   -4.037530   -1.352200
  S    -12.125530   -5.296980   -2.564680
  C    -11.280960   -6.354240   -1.478520
  C    -11.253360   -5.804890   -0.201130
  C    -11.787910   -4.495110   -0.133000
  O    -11.883970   -3.774310    1.000100
  C    -10.688610   -6.412320    0.930200
  N    -10.259150   -6.826480    1.911270
  C    -10.775380   -7.628230   -1.854240
  S    -11.085230   -8.956890   -0.767240
  C    -10.367900  -10.073420   -1.821040
  C     -9.862410   -9.478180   -2.954940
  C    -10.066290   -8.054570   -2.981350
  C     -9.485550   -7.293880   -4.031550
  C     -8.822970   -7.966300   -5.056160
  C     -8.717510   -9.384520   -5.048700
  C     -9.200440  -10.126660   -4.023130
  N     -8.265810   -7.299630   -6.112720
  C     -9.514260   -5.833120   -4.039920
  S    -10.209750   -4.951020   -5.380110
  C     -9.852260   -3.450550   -4.656230
  C     -9.232050   -3.595820   -3.442370
  C     -9.037110   -4.969130   -3.085740
  O     -8.460360   -5.398640   -1.941590
  C     -8.836540   -2.508550   -2.647440
  N     -8.517820   -1.621100   -1.993880
  H     -1.307600    2.233290    4.744390
  H     -1.529770   -2.751920    4.313950
  H      1.069880    1.750830    6.152960
  H     -6.154800   -0.716120    2.006320
  H     -5.736430    2.321680    2.133510
  H     -7.792370    3.543740    0.978620
  H    -10.061710    2.992700   -0.127700
  H    -11.921940    1.761950   -1.291050
  H    -13.423680   -0.091270   -2.275570
  H    -13.386750   -2.684950   -2.567670
  H    -11.449780   -4.236130    1.731390
  H    -10.342420  -11.114420   -1.566490
  H     -8.205130   -9.855540   -5.874820
  H     -9.081870  -11.198450   -3.996640
  H     -8.083470   -6.315010   -6.020150
  H     -7.630390   -7.813380   -6.698440
  H    -10.107360   -2.532300   -5.146530
  H     -8.100210   -4.657290   -1.435120

 Total Charge           Charge          ....    0
 Multiplicity           Mult            ....    1
 Number of Electrons    NEL             ....  466
 Basis Dimension        Dim             ....  944

ORBITAL ENERGIES
----------------

  NO   OCC          E(Eh)            E(eV)
   0   2.0000    -482.871544    -13139.6027
   1   2.0000     -88.975887     -2421.1570
   2   2.0000     -88.971854     -2421.0472
   3   2.0000     -88.969382     -2420.9800
   4   2.0000     -88.958111     -2420.6733
   5   2.0000     -88.948218     -2420.4041
   6   2.0000     -88.945732     -2420.3364
   7   2.0000     -62.549261     -1702.0519
   8   2.0000     -56.383193     -1534.2647
   9   2.0000     -56.380514     -1534.1918
  10   2.0000     -56.380471     -1534.1906
  11   2.0000     -19.269217      -524.3420
  12   2.0000     -19.258509      -524.0507
  13   2.0000     -19.189351      -522.1688
  14   2.0000     -14.430055      -392.6618
  15   2.0000     -14.411520      -392.1574
  16   2.0000     -14.409865      -392.1124
  17   2.0000     -14.393417      -391.6648
  18   2.0000     -14.388953      -391.5433
  19   2.0000     -10.359415      -281.8940
  20   2.0000     -10.352518      -281.7063
  21   2.0000     -10.341807      -281.4149
  22   2.0000     -10.339709      -281.3578
  23   2.0000     -10.336768      -281.2778
  24   2.0000     -10.329421      -281.0778
  25   2.0000     -10.324099      -280.9330
  26   2.0000     -10.322936      -280.9014
  27   2.0000     -10.317919      -280.7649
  28   2.0000     -10.315723      -280.7051
  29   2.0000     -10.314022      -280.6588
  30   2.0000     -10.313489      -280.6443
  31   2.0000     -10.311157      -280.5808
  32   2.0000     -10.311038      -280.5776
  33   2.0000     -10.310819      -280.5717
  34   2.0000     -10.310334      -280.5585
  35   2.0000     -10.308236      -280.5014
  36   2.0000     -10.307013      -280.4681
  37   2.0000     -10.305617      -280.4301
  38   2.0000     -10.305468      -280.4260
  39   2.0000     -10.304854      -280.4093
  40   2.0000     -10.304598      -280.4024
  41   2.0000     -10.304376      -280.3963
  42   2.0000     -10.298954      -280.2488
  43   2.0000     -10.297911      -280.2204
  44   2.0000     -10.295918      -280.1662
  45   2.0000     -10.293925      -280.1119
  46   2.0000     -10.293390      -280.0974
  47   2.0000     -10.293217      -280.0927
  48   2.0000     -10.289333      -279.9870
  49   2.0000     -10.287442      -279.9355
  50   2.0000     -10.286629      -279.9134
  51   2.0000     -10.285320      -279.8778
  52   2.0000     -10.283697      -279.8336
  53   2.0000     -10.283176      -279.8194
  54   2.0000     -10.281623      -279.7772
  55   2.0000     -10.281402      -279.7712
  56   2.0000     -10.281068      -279.7621
  57   2.0000     -10.280422      -279.7445
  58   2.0000     -10.279792      -279.7273
  59   2.0000     -10.269187      -279.4388
  60   2.0000     -10.263148      -279.2745
  61   2.0000     -10.261501      -279.2296
  62   2.0000      -8.778680      -238.8800
  63   2.0000      -8.070955      -219.6218
  64   2.0000      -8.066095      -219.4896
  65   2.0000      -8.064474      -219.4455
  66   2.0000      -8.054055      -219.1620
  67   2.0000      -8.043850      -218.8843
  68   2.0000      -8.041812      -218.8288
  69   2.0000      -6.614907      -180.0008
  70   2.0000      -6.600423      -179.6066
  71   2.0000      -6.600297      -179.6032
  72   2.0000      -6.040158      -164.3611
  73   2.0000      -6.035923      -164.2458
  74   2.0000      -6.035561      -164.2360
  75   2.0000      -6.033534      -164.1808
  76   2.0000      -6.033404      -164.1773
  77   2.0000      -6.031583      -164.1277
  78   2.0000      -6.029099      -164.0601
  79   2.0000      -6.027837      -164.0258
  80   2.0000      -6.027396      -164.0138
  81   2.0000      -6.023742      -163.9144
  82   2.0000      -6.019508      -163.7991
  83   2.0000      -6.015282      -163.6841
  84   2.0000      -6.013549      -163.6370
  85   2.0000      -6.011373      -163.5778
  86   2.0000      -6.009357      -163.5229
  87   2.0000      -6.007302      -163.4670
  88   2.0000      -6.004848      -163.4002
  89   2.0000      -6.003034      -163.3509
  90   2.0000      -2.730777       -74.3082
  91   2.0000      -2.726733       -74.1982
  92   2.0000      -2.726613       -74.1949
  93   2.0000      -2.715121       -73.8822
  94   2.0000      -2.715097       -73.8816
  95   2.0000      -1.167401       -31.7666
  96   2.0000      -1.153267       -31.3820
  97   2.0000      -1.102336       -29.9961
  98   2.0000      -1.029330       -28.0095
  99   2.0000      -1.011806       -27.5326
 100   2.0000      -1.004395       -27.3310
 101   2.0000      -1.001832       -27.2612
 102   2.0000      -1.001373       -27.2488
 103   2.0000      -0.992002       -26.9938
 104   2.0000      -0.990628       -26.9564
 105   2.0000      -0.986125       -26.8338
 106   2.0000      -0.984321       -26.7847
 107   2.0000      -0.976821       -26.5807
 108   2.0000      -0.970132       -26.3986
 109   2.0000      -0.965658       -26.2769
 110   2.0000      -0.923038       -25.1171
 111   2.0000      -0.922151       -25.0930
 112   2.0000      -0.908685       -24.7266
 113   2.0000      -0.894348       -24.3365
 114   2.0000      -0.887981       -24.1632
 115   2.0000      -0.886061       -24.1109
 116   2.0000      -0.868145       -23.6234
 117   2.0000      -0.865067       -23.5397
 118   2.0000      -0.859851       -23.3977
 119   2.0000      -0.854863       -23.2620
 120   2.0000      -0.852181       -23.1890
 121   2.0000      -0.844087       -22.9688
 122   2.0000      -0.826975       -22.5031
 123   2.0000      -0.825177       -22.4542
 124   2.0000      -0.823826       -22.4174
 125   2.0000      -0.813942       -22.1485
 126   2.0000      -0.809048       -22.0153
 127   2.0000      -0.792290       -21.5593
 128   2.0000      -0.778802       -21.1923
 129   2.0000      -0.755474       -20.5575
 130   2.0000      -0.735951       -20.0262
 131   2.0000      -0.735477       -20.0134
 132   2.0000      -0.724715       -19.7205
 133   2.0000      -0.719183       -19.5700
 134   2.0000      -0.712533       -19.3890
 135   2.0000      -0.696484       -18.9523
 136   2.0000      -0.687350       -18.7037
 137   2.0000      -0.675602       -18.3841
 138   2.0000      -0.674255       -18.3474
 139   2.0000      -0.670594       -18.2478
 140   2.0000      -0.667494       -18.1634
 141   2.0000      -0.666314       -18.1313
 142   2.0000      -0.658635       -17.9224
 143   2.0000      -0.648449       -17.6452
 144   2.0000      -0.639470       -17.4009
 145   2.0000      -0.636970       -17.3328
 146   2.0000      -0.629143       -17.1199
 147   2.0000      -0.624560       -16.9951
 148   2.0000      -0.620056       -16.8726
 149   2.0000      -0.610573       -16.6145
 150   2.0000      -0.608125       -16.5479
 151   2.0000      -0.601414       -16.3653
 152   2.0000      -0.599097       -16.3022
 153   2.0000      -0.582036       -15.8380
 154   2.0000      -0.577682       -15.7195
 155   2.0000      -0.573480       -15.6052
 156   2.0000      -0.571808       -15.5597
 157   2.0000      -0.563798       -15.3417
 158   2.0000      -0.555891       -15.1266
 159   2.0000      -0.547882       -14.9086
 160   2.0000      -0.544380       -14.8133
 161   2.0000      -0.542927       -14.7738
 162   2.0000      -0.540048       -14.6955
 163   2.0000      -0.529342       -14.4041
 164   2.0000      -0.523216       -14.2374
 165   2.0000      -0.522804       -14.2262
 166   2.0000      -0.521090       -14.1796
 167   2.0000      -0.516239       -14.0476
 168   2.0000      -0.516098       -14.0437
 169   2.0000      -0.512767       -13.9531
 170   2.0000      -0.509850       -13.8737
 171   2.0000      -0.507253       -13.8031
 172   2.0000      -0.502641       -13.6776
 173   2.0000      -0.499945       -13.6042
 174   2.0000      -0.497801       -13.5459
 175   2.0000      -0.493050       -13.4166
 176   2.0000      -0.488835       -13.3019
 177   2.0000      -0.486453       -13.2371
 178   2.0000      -0.483662       -13.1611
 179   2.0000      -0.478611       -13.0237
 180   2.0000      -0.473887       -12.8951
 181   2.0000      -0.473325       -12.8798
 182   2.0000      -0.472554       -12.8588
 183   2.0000      -0.469930       -12.7874
 184   2.0000      -0.467979       -12.7343
 185   2.0000      -0.463897       -12.6233
 186   2.0000      -0.457427       -12.4472
 187   2.0000      -0.456635       -12.4257
 188   2.0000      -0.454682       -12.3725
 189   2.0000      -0.451171       -12.2770
 190   2.0000      -0.450325       -12.2540
 191   2.0000      -0.449682       -12.2365
 192   2.0000      -0.445267       -12.1163
 193   2.0000      -0.443821       -12.0770
 194   2.0000      -0.440082       -11.9752
 195   2.0000      -0.438576       -11.9343
 196   2.0000      -0.437949       -11.9172
 197   2.0000      -0.436220       -11.8702
 198   2.0000      -0.431855       -11.7514
 199   2.0000      -0.429913       -11.6985
 200   2.0000      -0.429034       -11.6746
 201   2.0000      -0.427603       -11.6357
 202   2.0000      -0.421389       -11.4666
 203   2.0000      -0.420523       -11.4430
 204   2.0000      -0.419190       -11.4067
 205   2.0000      -0.415532       -11.3072
 206   2.0000      -0.412292       -11.2190
 207   2.0000      -0.411047       -11.1852
 208   2.0000      -0.405882       -11.0446
 209   2.0000      -0.403581       -10.9820
 210   2.0000      -0.400659       -10.9025
 211   2.0000      -0.394016       -10.7217
 212   2.0000      -0.390709       -10.6317
 213   2.0000      -0.384395       -10.4599
 214   2.0000      -0.382931       -10.4201
 215   2.0000      -0.371946       -10.1212
 216   2.0000      -0.365018        -9.9326
 217   2.0000      -0.361288        -9.8312
 218   2.0000      -0.358983        -9.7684
 219   2.0000      -0.345024        -9.3886
 220   2.0000      -0.337620        -9.1871
 221   2.0000      -0.329435        -8.9644
 222   2.0000      -0.321578        -8.7506
 223   2.0000      -0.319356        -8.6901
 224   2.0000      -0.311457        -8.4752
 225   2.0000      -0.310165        -8.4400
 226   2.0000      -0.296105        -8.0574
 227   2.0000      -0.295544        -8.0422
 228   2.0000      -0.292899        -7.9702
 229   2.0000      -0.277458        -7.5500
 230   2.0000      -0.272223        -7.4076
 231   2.0000      -0.247910        -6.7460
 232   2.0000      -0.216121        -5.8809
 233   0.0000      -0.097668        -2.6577
 234   0.0000      -0.052208        -1.4207
 235   0.0000      -0.043518        -1.1842
 236   0.0000      -0.026417        -0.7188
 237   0.0000      -0.019806        -0.5390

MULLIKEN ATOMIC CHARGES
-----------------------
   0 C :    0.328777
   1 C :   -0.367537
   2 C :   -0.190164
   3 N :    0.128561
   4 C :   -0.196179
   5 N :    0.123407
   6 C :    0.012320
   7 C :   -0.008887
   8 C :   -0.082684
   9 C :    0.118510
  10 C :   -0.092548
  11 C :   -0.028250
  12 S :    0.175416
  13 C :   -0.123225
  14 C :    0.035362
  15 Br:    0.008914
  16 C :    0.135592
  17 O :   -0.169514
  18 C :   -0.093588
  19 C :   -0.045581
  20 C :   -0.025471
  21 C :    0.011225
  22 C :    0.016618
  23 C :    0.049952
  24 C :   -0.044539
  25 S :    0.119073
  26 C :   -0.023656
  27 C :    0.031174
  28 C :    0.046013
  29 C :   -0.043245
  30 S :    0.129145
  31 C :    0.047765
  32 C :   -0.206184
  33 S :    0.177083
  34 C :   -0.055683
  35 C :   -0.037891
  36 C :    0.134968
  37 O :   -0.166579
  38 C :   -0.293355
  39 N :    0.168311
  40 C :   -0.293335
  41 S :    0.198096
  42 C :   -0.105588
  43 C :    0.059635
  44 C :    0.216874
  45 C :    0.076160
  46 C :    0.002841
  47 C :   -0.019317
  48 C :    0.017293
  49 N :   -0.050724
  50 C :   -0.438792
  51 S :    0.165758
  52 C :   -0.071780
  53 C :   -0.109740
  54 C :    0.260039
  55 O :   -0.165922
  56 C :   -0.203244
  57 N :    0.149024
  58 H :   -0.016826
  59 H :   -0.009828
  60 H :   -0.008038
  61 H :    0.019452
  62 H :    0.011414
  63 H :   -0.005339
  64 H :   -0.009380
  65 H :   -0.011477
  66 H :   -0.006564
  67 H :   -0.004919
  68 H :    0.203850
  69 H :    0.024073
  70 H :   -0.035661
  71 H :   -0.018656
  72 H :    0.126182
  73 H :    0.112193
  74 H :    0.030277
  75 H :    0.208542
Sum of atomic charges:   -0.0000000

LOEWDIN ATOMIC CHARGES
----------------------
   0 C :    0.074308
   1 C :   -0.165021
   2 C :   -0.019140
   3 N :   -0.076248
   4 C :   -0.017904
   5 N :   -0.082323
   6 C :   -0.017171
   7 C :   -0.047424
   8 C :    0.014511
   9 C :   -0.037459
  10 C :   -0.146891
  11 C :   -0.015324
  12 S :    0.424012
  13 C :   -0.276664
  14 C :   -0.071202
  15 Br:    0.125462
  16 C :    0.080282
  17 O :   -0.163420
  18 C :   -0.118018
  19 C :    0.049594
  20 C :   -0.080256
  21 C :   -0.099523
  22 C :   -0.049024
  23 C :   -0.005114
  24 C :   -0.193091
  25 S :    0.429302
  26 C :   -0.139602
  27 C :   -0.042946
  28 C :   -0.010578
  29 C :   -0.157641
  30 S :    0.441982
  31 C :   -0.042952
  32 C :   -0.235528
  33 S :    0.480235
  34 C :   -0.134010
  35 C :   -0.155455
  36 C :    0.034566
  37 O :   -0.029717
  38 C :   -0.058257
  39 N :   -0.051325
  40 C :   -0.234171
  41 S :    0.516648
  42 C :   -0.172477
  43 C :   -0.066812
  44 C :   -0.011158
  45 C :   -0.112678
  46 C :    0.048673
  47 C :   -0.050456
  48 C :    0.011687
  49 N :   -0.011187
  50 C :   -0.236635
  51 S :    0.469947
  52 C :   -0.153149
  53 C :   -0.142298
  54 C :    0.029099
  55 O :   -0.030915
  56 C :   -0.044934
  57 N :   -0.051528
  58 H :    0.037961
  59 H :    0.039643
  60 H :    0.036740
  61 H :    0.029825
  62 H :    0.037148
  63 H :    0.036362
  64 H :    0.033908
  65 H :    0.032369
  66 H :    0.034970
  67 H :    0.035304
  68 H :    0.105272
  69 H :    0.027932
  70 H :    0.027177
  71 H :    0.034431
  72 H :    0.061487
  73 H :    0.074985
  74 H :    0.032601
  75 H :    0.109204

  Mayer bond orders larger than 0.100000
B(  0-C ,  1-C ) :   1.5638 B(  0-C ,  6-C ) :   0.9848 B(  0-C , 18-C ) :   1.1333
B(  1-C ,  2-C ) :   1.1517 B(  1-C ,  4-C ) :   1.1568 B(  2-C ,  3-N ) :   2.9607
B(  4-C ,  5-N ) :   2.9732 B(  6-C ,  7-C ) :   1.2801 B(  6-C , 11-C ) :   1.4222
B(  7-C ,  8-C ) :   1.4340 B(  7-C , 16-C ) :   0.9301 B(  8-C ,  9-C ) :   1.2345
B(  8-C , 58-H ) :   1.0166 B(  9-C , 10-C ) :   1.3218 B(  9-C , 14-C ) :   1.1597
B( 10-C , 11-C ) :   1.3156 B( 10-C , 12-S ) :   1.0807 B( 11-C , 59-H ) :   0.9802
B( 12-S , 13-C ) :   1.0855 B( 13-C , 14-C ) :   1.6205 B( 13-C , 15-Br) :   1.0097
B( 14-C , 60-H ) :   1.0006 B( 16-C , 17-O ) :   2.1894 B( 16-C , 18-C ) :   0.9740
B( 18-C , 19-C ) :   1.4425 B( 19-C , 20-C ) :   1.2957 B( 19-C , 61-H ) :   0.9428
B( 20-C , 21-C ) :   1.3801 B( 20-C , 62-H ) :   0.9830 B( 21-C , 22-C ) :   1.1905
B( 21-C , 25-S ) :   1.1150 B( 22-C , 23-C ) :   1.5266 B( 22-C , 63-H ) :   1.0021
B( 23-C , 24-C ) :   1.2269 B( 23-C , 64-H ) :   0.9950 B( 24-C , 25-S ) :   1.0528
B( 24-C , 26-C ) :   1.4572 B( 26-C , 27-C ) :   1.1841 B( 26-C , 30-S ) :   1.0994
B( 27-C , 28-C ) :   1.5986 B( 27-C , 65-H ) :   0.9937 B( 28-C , 29-C ) :   1.1329
B( 28-C , 66-H ) :   0.9972 B( 29-C , 30-S ) :   1.0499 B( 29-C , 31-C ) :   1.6188
B( 31-C , 32-C ) :   1.1224 B( 31-C , 67-H ) :   0.9530 B( 32-C , 33-S ) :   1.0692
B( 32-C , 36-C ) :   1.4517 B( 33-S , 34-C ) :   1.1865 B( 34-C , 35-C ) :   1.4390
B( 34-C , 40-C ) :   1.1299 B( 35-C , 36-C ) :   1.2139 B( 35-C , 38-C ) :   1.1032
B( 36-C , 37-O ) :   1.2876 B( 37-O , 68-H ) :   0.9379 B( 38-C , 39-N ) :   3.0192
B( 40-C , 41-S ) :   1.1547 B( 40-C , 42-C ) :   0.1185 B( 40-C , 44-C ) :   1.3712
B( 41-S , 42-C ) :   1.2405 B( 42-C , 43-C ) :   1.4161 B( 42-C , 69-H ) :   0.9709
B( 43-C , 44-C ) :   1.1741 B( 43-C , 48-C ) :   1.1474 B( 44-C , 45-C ) :   1.2399
B( 45-C , 46-C ) :   1.4671 B( 45-C , 50-C ) :   0.8919 B( 46-C , 47-C ) :   1.1557
B( 46-C , 49-N ) :   1.2848 B( 47-C , 48-C ) :   1.5670 B( 47-C , 70-H ) :   0.9896
B( 48-C , 71-H ) :   0.9996 B( 49-N , 72-H ) :   0.9327 B( 49-N , 73-H ) :   0.9438
B( 50-C , 51-S ) :   1.1272 B( 50-C , 54-C ) :   1.5297 B( 51-S , 52-C ) :   1.1909
B( 51-S , 53-C ) :   0.1068 B( 52-C , 53-C ) :   1.5185 B( 52-C , 74-H ) :   0.9778
B( 53-C , 54-C ) :   1.1846 B( 53-C , 56-C ) :   1.0933 B( 54-C , 55-O ) :   1.3178
B( 55-O , 75-H ) :   0.9363 B( 56-C , 57-N ) :   3.0103

-----------------------------------------------------------------------------
         ABSORPTION SPECTRUM VIA TRANSITION ELECTRIC DIPOLE MOMENTS
-----------------------------------------------------------------------------
State   Energy  Wavelength   fosc         T2         TX        TY        TZ
        (cm-1)    (nm)                  (au**2)     (au)      (au)      (au)
-----------------------------------------------------------------------------
   0   11294.5    885.4   0.923093303  26.90635   4.16778   1.86618   2.46036
   1   19335.5    517.2   0.401675830   6.83905   1.82126  -1.87651   0.02818
   2   21093.5    474.1   0.300089616   4.68359  -0.49790   2.05673   0.45335
   3   23036.9    434.1   0.074355326   1.06259   0.99599   0.01891  -0.26501
   4   23881.5    418.7   0.323803258   4.46370  -0.57217   2.03379  -0.00287
   5   25469.0    392.6   0.226963509   2.93372  -1.31058  -0.49462  -0.98563
   6   26026.6    384.2   0.015808392   0.19996  -0.22019  -0.24319   0.30387
   7   26571.0    376.3   0.040016847   0.49580   0.60857  -0.17109  -0.31011
   8   27138.0    368.5   0.078709435   0.95483  -0.20410   0.22742   0.92814
   9   27687.0    361.2   0.002186127   0.02599   0.00702  -0.15893  -0.02617
  10   27781.9    359.9   0.189901773   2.25032  -0.69948   1.29757  -0.27812
  11   29047.3    344.3   0.048653721   0.55142  -0.08463   0.71438  -0.18418
  12   29272.0    341.6   0.010635814   0.11962  -0.29226   0.09349  -0.15956
  13   29946.7    333.9   0.088105584   0.96857  -0.03246  -0.98354  -0.01255
  14   30710.5    325.6   0.138491620   1.48461  -0.92895   0.64220  -0.45742
  15   31308.3    319.4   0.011261820   0.11842   0.23252  -0.12709   0.21956
  16   31421.8    318.3   0.024500321   0.25669  -0.30848   0.35326  -0.19169
  17   31779.1    314.7   0.161266221   1.67062  -0.92196  -0.20568  -0.88221
  18   32304.2    309.6   0.044773150   0.45628  -0.46249  -0.30567  -0.38594
  19   32473.2    307.9   0.224351250   2.27446  -0.91042  -0.75906  -0.93243
  20   32541.5    307.3   0.189280547   1.91489   1.29726  -0.05692   0.47829
  21   33101.8    302.1   0.032176697   0.32001   0.24061   0.07888   0.50586
  22   33927.0    294.8   0.094224710   0.91431   0.81474   0.34181   0.36562
  23   34292.9    291.6   0.016597877   0.15934   0.00735  -0.32767  -0.22786
  24   34479.9    290.0   0.085595807   0.81726  -0.61181  -0.49641  -0.44331
  25   35445.2    282.1   0.026601873   0.24708  -0.23055   0.34914   0.26837
  26   35954.3    278.1   0.024259968   0.22213   0.08117   0.41488  -0.20837
  27   36287.5    275.6   0.016650974   0.15106  -0.12380  -0.34941   0.11683
  28   36581.8    273.4   0.144918942   1.30418  -0.56633  -0.99049   0.04864
  29   36692.9    272.5   0.039751783   0.35666  -0.19588  -0.45024   0.33995
  30   37186.0    268.9   0.126439185   1.11938  -0.03632  -1.04314  -0.17301
  31   37696.6    265.3   0.025830823   0.22559  -0.24165  -0.40158   0.07695
  32   37821.5    264.4   0.127967220   1.11387  -0.05476   1.04838  -0.10853
  33   38478.2    259.9   0.041075489   0.35143  -0.21467   0.37094   0.40958
  34   39045.4    256.1   0.067351954   0.56788   0.25986  -0.60716   0.36292
  35   39235.9    254.9   0.040574682   0.34044   0.27765   0.07213   0.50809
  36   39682.1    252.0   0.078621344   0.65226   0.47538   0.65220   0.03029
  37   40175.6    248.9   0.068728702   0.56319  -0.31481   0.68082  -0.02372
  38   40268.8    248.3   0.065637813   0.53661   0.00338   0.73071  -0.05165

FINAL SINGLE POINT ENERGY     -7108.412367620000

DIPOLE MOMENT
-------------
                                X             Y             Z
Electronic contribution:    109.04157      21.28980      82.90901
Nuclear contribution   :   -111.78541     -21.25569     -86.89299
                        -----------------------------------------
Total Dipole Moment    :     -2.74384       0.03412      -3.98398
                        -----------------------------------------
Magnitude (a.u.)       :      4.83755
Magnitude (Debye)      :     12.29609

Rotational constants in cm-1:     0.001837     0.000434     0.000382
Rotational constants in MHz :    55.083752    13.023564    11.461992

                             ****ORCA TERMINATED NORMALLY****
TOTAL RUN TIME: 0 days 0 hours 7 minutes 55 seconds 672 msec
