                         Program Version 4.2.0 -  RELEASE  -
|  1> # ORCA input file
|  2> # SCF done       -190.028761486716          0.000760908783
|  3> ! CAM-B3LYP def2-SVP def2/J RIJCOSX Grid4 TightSCF
|  4> %maxcore 5000
|  5> %tddft
|  6>     Mode sTDDFT
|  7>     Ethresh 5.0
|  8>     maxcore 5000
|  9> end
| 10>
| 11> %pal
| 12>   nprocs 6
| 13>   end
| 14> * xyz 0 1
| 15>    C       -3.60776        -4.05076        -1.55753
| 16>    C       -2.26843        -4.15746        -1.28915
| 17>    C       -1.64790        -5.33086        -0.81008
| 18>    N       -1.08454        -6.25386        -0.42541
| 19>    C       -1.32084        -3.13071        -1.48231
| 20>    N       -0.49900        -2.34093        -1.62160
| 21>    C       -4.60044        -5.10230        -1.38052
| 22>    C       -5.84881        -4.65243        -1.87923
| 23>    C       -6.98302        -5.42596        -1.84441
| 24>    C       -6.88714        -6.69908        -1.27397
| 25>    C       -5.63705        -7.13968        -0.77445
| 26>    C       -4.48720        -6.36274        -0.82104
| 27>    S       -5.74281        -8.74191        -0.11143
| 28>    C       -7.44017        -8.79789        -0.50672
| 29>    C       -7.90605        -7.67562        -1.10525
| 30>   Br       -8.43610       -10.33086        -0.09257
| 31>    C       -5.69861        -3.28861        -2.41139
| 32>    O       -6.47200        -2.69127        -3.12397
| 33>    C       -4.30777        -2.87426        -2.04577
| 34>    C       -3.81975        -1.61603        -2.18304
| 35>    C       -4.65210        -0.47548        -2.36772
| 36>    S       -4.09014         0.94126        -3.23293
| 37>    C       -5.90619        -0.23146        -1.86081
| 38>    C       -6.86554        -0.90061        -0.96303
| 39>    O       -6.79790        -1.96533        -0.39713
| 40>    N       -7.91938        -0.00719        -0.84548
| 41>    C       -9.09753        -0.28308        -0.06196
| 42>    C       -7.73669         1.18389        -1.54722
| 43>    O       -8.52827         2.09222        -1.58272
| 44>    C       -6.41673         1.04362        -2.17609
| 45>    C       -5.57279         1.82824        -2.93122
| 46>    C       -5.81172         3.14810        -3.39387
| 47>    C       -4.91947         3.89289        -4.08126
| 48>    C       -5.19079         5.23137        -4.50206
| 49>    C       -4.31919         6.04180        -5.12752
| 50>    C       -2.92420         5.63972        -5.49509
| 51>    C       -4.70242         7.46158        -5.45285
| 52>    N       -4.48298         7.77998        -6.84595
| 53>    C       -4.84657         6.98401        -7.86322
| 54>    C       -4.74771         7.35065        -9.17292
| 55>    C       -5.10857         6.53168       -10.25019
| 56>    C       -5.04267         6.93533       -11.56216
| 57>    C       -5.43184         6.22544       -12.71963
| 58>    C       -5.29909         6.92937       -13.88153
| 59>    C       -4.79109         8.23308       -13.69998
| 60>    S       -4.46553         8.53541       -12.01786
| 61>    C       -4.59400         9.23426       -14.63891
| 62>    C       -4.91829         9.27573       -16.00601
| 63>    C       -4.70593        10.49917       -16.57801
| 64>    C       -4.22157        11.48712       -15.69101
| 65>    S       -3.97098        10.78483       -14.12075
| 66>    C       -3.91354        12.79791       -16.03780
| 67>    C       -3.45846        13.84346       -15.24940
| 68>    C       -3.40042        14.02417       -13.87120
| 69>    C       -4.11977        13.46431       -12.77700
| 70>    C       -5.36657        12.86529       -12.81931
| 71>    C       -5.99978        12.28594       -11.70840
| 72>    N       -6.54249        11.76339       -10.83924
| 73>    C       -6.16322        12.84478       -13.97727
| 74>    N       -6.84551        12.82276       -14.90154
| 75>    C       -3.39364        13.78673       -11.54902
| 76>    C       -2.36353        14.70377       -11.86522
| 77>    C       -2.37607        14.94303       -13.32950
| 78>    O       -1.66541        15.70489       -13.95111
| 79>    C       -1.51638        15.21619       -10.91590
| 80>    C       -1.67919        14.78197        -9.59344
| 81>    C       -2.69687        13.85073        -9.29581
| 82>    C       -3.57027        13.34751       -10.25385
| 83>    S       -2.70154        13.42840        -7.60797
| 84>    C       -1.35552        14.50317        -7.33006
| 85>    C       -0.92475        15.14273        -8.44089
| 86>   Br       -0.64836        14.66692        -5.59752
| 87>    H       -7.91752        -5.05529        -2.23449
| 88>    H       -3.55962        -6.74289        -0.42666
| 89>    H       -8.92623        -7.54052        -1.41494
| 90>    H       -2.75739        -1.42449        -2.11017
| 91>    H       -9.46391        -1.28196        -0.29675
| 92>    H       -9.84763         0.46524        -0.31146
| 93>    H       -8.86749        -0.23200         1.00383
| 94>    H       -6.78555         3.54623        -3.13875
| 95>    H       -3.95138         3.46863        -4.31062
| 96>    H       -6.17921         5.60487        -4.26641
| 97>    H       -2.91550         4.69794        -6.03950
| 98>    H       -2.32162         5.50877        -4.59689
| 99>    H       -2.45471         6.39896        -6.11406
|100>    H       -4.07910         8.13878        -4.85913
|101>    H       -5.75052         7.63944        -5.17699
|102>    H       -4.22008         8.72776        -7.07269
|103>    H       -5.20673         6.00314        -7.58345
|104>    H       -4.38775         8.34416        -9.40729
|105>    H       -5.47900         5.53572       -10.04617
|106>    H       -5.81133         5.22030       -12.65996
|107>    H       -5.55697         6.55235       -14.85471
|108>    H       -5.31987         8.42458       -16.52589
|109>    H       -4.91706        10.73086       -17.60660
|110>    H       -3.96937        12.99754       -17.10106
|111>    H       -2.97999        14.65376       -15.79309
|112>    H       -0.74596        15.92374       -11.17945
|113>    H       -4.33461        12.63966        -9.98021
|114>    H       -0.10711        15.84025        -8.45240
|115> *
|116>
|117>                          ****END OF INPUT****

CARTESIAN COORDINATES (ANGSTROEM)
---------------------------------
  C     -3.607760   -4.050760   -1.557530
  C     -2.268430   -4.157460   -1.289150
  C     -1.647900   -5.330860   -0.810080
  N     -1.084540   -6.253860   -0.425410
  C     -1.320840   -3.130710   -1.482310
  N     -0.499000   -2.340930   -1.621600
  C     -4.600440   -5.102300   -1.380520
  C     -5.848810   -4.652430   -1.879230
  C     -6.983020   -5.425960   -1.844410
  C     -6.887140   -6.699080   -1.273970
  C     -5.637050   -7.139680   -0.774450
  C     -4.487200   -6.362740   -0.821040
  S     -5.742810   -8.741910   -0.111430
  C     -7.440170   -8.797890   -0.506720
  C     -7.906050   -7.675620   -1.105250
  Br    -8.436100  -10.330860   -0.092570
  C     -5.698610   -3.288610   -2.411390
  O     -6.472000   -2.691270   -3.123970
  C     -4.307770   -2.874260   -2.045770
  C     -3.819750   -1.616030   -2.183040
  C     -4.652100   -0.475480   -2.367720
  S     -4.090140    0.941260   -3.232930
  C     -5.906190   -0.231460   -1.860810
  C     -6.865540   -0.900610   -0.963030
  O     -6.797900   -1.965330   -0.397130
  N     -7.919380   -0.007190   -0.845480
  C     -9.097530   -0.283080   -0.061960
  C     -7.736690    1.183890   -1.547220
  O     -8.528270    2.092220   -1.582720
  C     -6.416730    1.043620   -2.176090
  C     -5.572790    1.828240   -2.931220
  C     -5.811720    3.148100   -3.393870
  C     -4.919470    3.892890   -4.081260
  C     -5.190790    5.231370   -4.502060
  C     -4.319190    6.041800   -5.127520
  C     -2.924200    5.639720   -5.495090
  C     -4.702420    7.461580   -5.452850
  N     -4.482980    7.779980   -6.845950
  C     -4.846570    6.984010   -7.863220
  C     -4.747710    7.350650   -9.172920
  C     -5.108570    6.531680  -10.250190
  C     -5.042670    6.935330  -11.562160
  C     -5.431840    6.225440  -12.719630
  C     -5.299090    6.929370  -13.881530
  C     -4.791090    8.233080  -13.699980
  S     -4.465530    8.535410  -12.017860
  C     -4.594000    9.234260  -14.638910
  C     -4.918290    9.275730  -16.006010
  C     -4.705930   10.499170  -16.578010
  C     -4.221570   11.487120  -15.691010
  S     -3.970980   10.784830  -14.120750
  C     -3.913540   12.797910  -16.037800
  C     -3.458460   13.843460  -15.249400
  C     -3.400420   14.024170  -13.871200
  C     -4.119770   13.464310  -12.777000
  C     -5.366570   12.865290  -12.819310
  C     -5.999780   12.285940  -11.708400
  N     -6.542490   11.763390  -10.839240
  C     -6.163220   12.844780  -13.977270
  N     -6.845510   12.822760  -14.901540
  C     -3.393640   13.786730  -11.549020
  C     -2.363530   14.703770  -11.865220
  C     -2.376070   14.943030  -13.329500
  O     -1.665410   15.704890  -13.951110
  C     -1.516380   15.216190  -10.915900
  C     -1.679190   14.781970   -9.593440
  C     -2.696870   13.850730   -9.295810
  C     -3.570270   13.347510  -10.253850
  S     -2.701540   13.428400   -7.607970
  C     -1.355520   14.503170   -7.330060
  C     -0.924750   15.142730   -8.440890
  Br    -0.648360   14.666920   -5.597520
  H     -7.917520   -5.055290   -2.234490
  H     -3.559620   -6.742890   -0.426660
  H     -8.926230   -7.540520   -1.414940
  H     -2.757390   -1.424490   -2.110170
  H     -9.463910   -1.281960   -0.296750
  H     -9.847630    0.465240   -0.311460
  H     -8.867490   -0.232000    1.003830
  H     -6.785550    3.546230   -3.138750
  H     -3.951380    3.468630   -4.310620
  H     -6.179210    5.604870   -4.266410
  H     -2.915500    4.697940   -6.039500
  H     -2.321620    5.508770   -4.596890
  H     -2.454710    6.398960   -6.114060
  H     -4.079100    8.138780   -4.859130
  H     -5.750520    7.639440   -5.176990
  H     -4.220080    8.727760   -7.072690
  H     -5.206730    6.003140   -7.583450
  H     -4.387750    8.344160   -9.407290
  H     -5.479000    5.535720  -10.046170
  H     -5.811330    5.220300  -12.659960
  H     -5.556970    6.552350  -14.854710
  H     -5.319870    8.424580  -16.525890
  H     -4.917060   10.730860  -17.606600
  H     -3.969370   12.997540  -17.101060
  H     -2.979990   14.653760  -15.793090
  H     -0.745960   15.923740  -11.179450
  H     -4.334610   12.639660   -9.980210
  H     -0.107110   15.840250   -8.452400

 Total Charge           Charge          ....    0
 Multiplicity           Mult            ....    1
 Number of Electrons    NEL             ....  582
 Basis Dimension        Dim             .... 1204

ORBITAL ENERGIES
----------------

  NO   OCC          E(Eh)            E(eV)
   0   2.0000    -482.890772    -13140.1259
   1   2.0000    -482.875405    -13139.7078
   2   2.0000     -88.990748     -2421.5614
   3   2.0000     -88.980987     -2421.2958
   4   2.0000     -88.961235     -2420.7583
   5   2.0000     -88.955312     -2420.5971
   6   2.0000     -88.951312     -2420.4883
   7   2.0000     -62.568493     -1702.5752
   8   2.0000     -62.553143     -1702.1575
   9   2.0000     -56.402448     -1534.7886
  10   2.0000     -56.399719     -1534.7144
  11   2.0000     -56.399695     -1534.7137
  12   2.0000     -56.387071     -1534.3702
  13   2.0000     -56.384412     -1534.2979
  14   2.0000     -56.384346     -1534.2961
  15   2.0000     -19.224766      -523.1325
  16   2.0000     -19.224347      -523.1211
  17   2.0000     -19.221499      -523.0436
  18   2.0000     -19.185309      -522.0588
  19   2.0000     -14.470697      -393.7677
  20   2.0000     -14.469198      -393.7269
  21   2.0000     -14.426493      -392.5648
  22   2.0000     -14.423653      -392.4876
  23   2.0000     -14.388343      -391.5267
  24   2.0000     -14.381603      -391.3433
  25   2.0000     -10.406996      -283.1888
  26   2.0000     -10.406749      -283.1820
  27   2.0000     -10.376580      -282.3611
  28   2.0000     -10.364929      -282.0441
  29   2.0000     -10.352855      -281.7155
  30   2.0000     -10.351731      -281.6849
  31   2.0000     -10.350071      -281.6397
  32   2.0000     -10.346589      -281.5450
  33   2.0000     -10.343298      -281.4554
  34   2.0000     -10.343136      -281.4510
  35   2.0000     -10.340656      -281.3836
  36   2.0000     -10.335336      -281.2388
  37   2.0000     -10.331904      -281.1454
  38   2.0000     -10.331480      -281.1339
  39   2.0000     -10.329882      -281.0904
  40   2.0000     -10.328803      -281.0610
  41   2.0000     -10.326032      -280.9856
  42   2.0000     -10.315789      -280.7069
  43   2.0000     -10.315047      -280.6867
  44   2.0000     -10.314139      -280.6620
  45   2.0000     -10.313740      -280.6511
  46   2.0000     -10.312388      -280.6143
  47   2.0000     -10.312195      -280.6091
  48   2.0000     -10.311554      -280.5916
  49   2.0000     -10.310583      -280.5652
  50   2.0000     -10.310067      -280.5512
  51   2.0000     -10.308374      -280.5051
  52   2.0000     -10.308200      -280.5004
  53   2.0000     -10.307424      -280.4793
  54   2.0000     -10.306651      -280.4582
  55   2.0000     -10.306613      -280.4572
  56   2.0000     -10.306532      -280.4550
  57   2.0000     -10.305697      -280.4323
  58   2.0000     -10.302491      -280.3450
  59   2.0000     -10.302099      -280.3344
  60   2.0000     -10.301796      -280.3261
  61   2.0000     -10.299931      -280.2754
  62   2.0000     -10.298695      -280.2417
  63   2.0000     -10.296610      -280.1850
  64   2.0000     -10.294287      -280.1218
  65   2.0000     -10.290060      -280.0068
  66   2.0000     -10.289553      -279.9930
  67   2.0000     -10.286268      -279.9036
  68   2.0000     -10.284923      -279.8670
  69   2.0000     -10.284306      -279.8502
  70   2.0000     -10.283462      -279.8272
  71   2.0000     -10.282970      -279.8138
  72   2.0000     -10.282162      -279.7919
  73   2.0000     -10.281602      -279.7766
  74   2.0000     -10.279637      -279.7231
  75   2.0000     -10.276889      -279.6484
  76   2.0000     -10.271057      -279.4897
  77   2.0000     -10.266791      -279.3736
  78   2.0000     -10.264625      -279.3147
  79   2.0000     -10.258726      -279.1541
  80   2.0000      -8.797929      -239.4038
  81   2.0000      -8.782556      -238.9855
  82   2.0000      -8.085943      -220.0297
  83   2.0000      -8.077051      -219.7877
  84   2.0000      -8.057273      -219.2496
  85   2.0000      -8.051441      -219.0908
  86   2.0000      -8.046098      -218.9454
  87   2.0000      -6.634264      -180.5275
  88   2.0000      -6.619672      -180.1304
  89   2.0000      -6.619415      -180.1234
  90   2.0000      -6.618738      -180.1050
  91   2.0000      -6.604286      -179.7118
  92   2.0000      -6.604241      -179.7105
  93   2.0000      -6.055253      -164.7718
  94   2.0000      -6.051091      -164.6585
  95   2.0000      -6.048023      -164.5751
  96   2.0000      -6.046755      -164.5406
  97   2.0000      -6.042452      -164.4235
  98   2.0000      -6.038241      -164.3089
  99   2.0000      -6.026950      -164.0016
 100   2.0000      -6.022802      -163.8888
 101   2.0000      -6.021035      -163.8407
 102   2.0000      -6.018478      -163.7711
 103   2.0000      -6.017001      -163.7309
 104   2.0000      -6.015450      -163.6887
 105   2.0000      -6.012627      -163.6119
 106   2.0000      -6.011272      -163.5750
 107   2.0000      -6.008086      -163.4883
 108   2.0000      -2.750118       -74.8345
 109   2.0000      -2.746013       -74.7228
 110   2.0000      -2.745895       -74.7196
 111   2.0000      -2.734606       -74.4124
 112   2.0000      -2.734268       -74.4032
 113   2.0000      -2.734250       -74.4027
 114   2.0000      -2.730555       -74.3022
 115   2.0000      -2.730514       -74.3011
 116   2.0000      -2.719037       -73.9888
 117   2.0000      -2.719017       -73.9882
 118   2.0000      -1.170774       -31.8584
 119   2.0000      -1.148343       -31.2480
 120   2.0000      -1.137193       -30.9446
 121   2.0000      -1.098985       -29.9049
 122   2.0000      -1.070408       -29.1273
 123   2.0000      -1.062385       -28.9090
 124   2.0000      -1.030765       -28.0485
 125   2.0000      -1.021440       -27.7948
 126   2.0000      -1.016751       -27.6672
 127   2.0000      -1.003533       -27.3075
 128   2.0000      -1.002547       -27.2807
 129   2.0000      -1.001275       -27.2461
 130   2.0000      -0.997354       -27.1394
 131   2.0000      -0.987164       -26.8621
 132   2.0000      -0.975150       -26.5352
 133   2.0000      -0.964406       -26.2428
 134   2.0000      -0.961653       -26.1679
 135   2.0000      -0.953012       -25.9328
 136   2.0000      -0.948261       -25.8035
 137   2.0000      -0.927385       -25.2354
 138   2.0000      -0.921180       -25.0666
 139   2.0000      -0.917404       -24.9638
 140   2.0000      -0.915297       -24.9065
 141   2.0000      -0.909268       -24.7424
 142   2.0000      -0.894082       -24.3292
 143   2.0000      -0.892378       -24.2828
 144   2.0000      -0.889925       -24.2161
 145   2.0000      -0.883912       -24.0525
 146   2.0000      -0.873518       -23.7696
 147   2.0000      -0.866161       -23.5694
 148   2.0000      -0.863344       -23.4928
 149   2.0000      -0.851316       -23.1655
 150   2.0000      -0.850307       -23.1380
 151   2.0000      -0.837982       -22.8026
 152   2.0000      -0.834843       -22.7172
 153   2.0000      -0.823785       -22.4163
 154   2.0000      -0.820545       -22.3282
 155   2.0000      -0.810495       -22.0547
 156   2.0000      -0.809093       -22.0165
 157   2.0000      -0.803889       -21.8749
 158   2.0000      -0.797208       -21.6931
 159   2.0000      -0.784406       -21.3448
 160   2.0000      -0.775471       -21.1017
 161   2.0000      -0.766896       -20.8683
 162   2.0000      -0.757368       -20.6090
 163   2.0000      -0.747541       -20.3416
 164   2.0000      -0.733982       -19.9727
 165   2.0000      -0.726744       -19.7757
 166   2.0000      -0.723208       -19.6795
 167   2.0000      -0.707480       -19.2515
 168   2.0000      -0.705247       -19.1907
 169   2.0000      -0.697970       -18.9927
 170   2.0000      -0.693981       -18.8842
 171   2.0000      -0.689981       -18.7753
 172   2.0000      -0.684926       -18.6378
 173   2.0000      -0.677463       -18.4347
 174   2.0000      -0.671011       -18.2591
 175   2.0000      -0.663061       -18.0428
 176   2.0000      -0.660077       -17.9616
 177   2.0000      -0.654155       -17.8005
 178   2.0000      -0.644865       -17.5477
 179   2.0000      -0.639988       -17.4150
 180   2.0000      -0.637309       -17.3421
 181   2.0000      -0.634387       -17.2625
 182   2.0000      -0.630667       -17.1613
 183   2.0000      -0.625897       -17.0315
 184   2.0000      -0.614797       -16.7295
 185   2.0000      -0.614294       -16.7158
 186   2.0000      -0.607378       -16.5276
 187   2.0000      -0.605261       -16.4700
 188   2.0000      -0.601994       -16.3811
 189   2.0000      -0.598954       -16.2984
 190   2.0000      -0.594828       -16.1861
 191   2.0000      -0.591383       -16.0923
 192   2.0000      -0.590368       -16.0647
 193   2.0000      -0.578946       -15.7539
 194   2.0000      -0.577199       -15.7064
 195   2.0000      -0.572098       -15.5676
 196   2.0000      -0.566464       -15.4143
 197   2.0000      -0.562898       -15.3172
 198   2.0000      -0.557102       -15.1595
 199   2.0000      -0.556045       -15.1307
 200   2.0000      -0.554494       -15.0886
 201   2.0000      -0.546368       -14.8674
 202   2.0000      -0.545078       -14.8323
 203   2.0000      -0.544158       -14.8073
 204   2.0000      -0.540257       -14.7011
 205   2.0000      -0.534893       -14.5552
 206   2.0000      -0.530373       -14.4322
 207   2.0000      -0.529035       -14.3958
 208   2.0000      -0.527829       -14.3630
 209   2.0000      -0.525607       -14.3025
 210   2.0000      -0.522611       -14.2210
 211   2.0000      -0.518337       -14.1047
 212   2.0000      -0.516910       -14.0658
 213   2.0000      -0.515780       -14.0351
 214   2.0000      -0.515014       -14.0142
 215   2.0000      -0.514429       -13.9983
 216   2.0000      -0.512074       -13.9342
 217   2.0000      -0.507777       -13.8173
 218   2.0000      -0.506371       -13.7790
 219   2.0000      -0.504107       -13.7174
 220   2.0000      -0.502927       -13.6853
 221   2.0000      -0.500530       -13.6201
 222   2.0000      -0.497588       -13.5401
 223   2.0000      -0.495788       -13.4911
 224   2.0000      -0.491760       -13.3815
 225   2.0000      -0.488915       -13.3040
 226   2.0000      -0.488321       -13.2879
 227   2.0000      -0.487883       -13.2760
 228   2.0000      -0.484999       -13.1975
 229   2.0000      -0.483432       -13.1549
 230   2.0000      -0.481403       -13.0996
 231   2.0000      -0.480097       -13.0641
 232   2.0000      -0.479817       -13.0565
 233   2.0000      -0.477707       -12.9991
 234   2.0000      -0.475257       -12.9324
 235   2.0000      -0.474748       -12.9186
 236   2.0000      -0.464677       -12.6445
 237   2.0000      -0.464210       -12.6318
 238   2.0000      -0.461778       -12.5656
 239   2.0000      -0.459200       -12.4955
 240   2.0000      -0.458168       -12.4674
 241   2.0000      -0.455051       -12.3826
 242   2.0000      -0.452564       -12.3149
 243   2.0000      -0.451607       -12.2888
 244   2.0000      -0.449999       -12.2451
 245   2.0000      -0.445927       -12.1343
 246   2.0000      -0.444911       -12.1066
 247   2.0000      -0.441617       -12.0170
 248   2.0000      -0.436991       -11.8911
 249   2.0000      -0.436065       -11.8659
 250   2.0000      -0.435704       -11.8561
 251   2.0000      -0.432889       -11.7795
 252   2.0000      -0.430094       -11.7035
 253   2.0000      -0.426909       -11.6168
 254   2.0000      -0.425472       -11.5777
 255   2.0000      -0.422674       -11.5016
 256   2.0000      -0.422311       -11.4917
 257   2.0000      -0.420653       -11.4465
 258   2.0000      -0.417944       -11.3728
 259   2.0000      -0.415118       -11.2959
 260   2.0000      -0.411962       -11.2101
 261   2.0000      -0.404415       -11.0047
 262   2.0000      -0.397653       -10.8207
 263   2.0000      -0.394832       -10.7439
 264   2.0000      -0.391693       -10.6585
 265   2.0000      -0.389595       -10.6014
 266   2.0000      -0.383467       -10.4347
 267   2.0000      -0.382428       -10.4064
 268   2.0000      -0.380062       -10.3420
 269   2.0000      -0.377096       -10.2613
 270   2.0000      -0.371253       -10.1023
 271   2.0000      -0.369373       -10.0511
 272   2.0000      -0.365547        -9.9470
 273   2.0000      -0.364600        -9.9213
 274   2.0000      -0.360975        -9.8226
 275   2.0000      -0.359053        -9.7703
 276   2.0000      -0.348017        -9.4700
 277   2.0000      -0.343528        -9.3479
 278   2.0000      -0.340851        -9.2750
 279   2.0000      -0.337358        -9.1800
 280   2.0000      -0.331443        -9.0190
 281   2.0000      -0.322533        -8.7766
 282   2.0000      -0.320508        -8.7215
 283   2.0000      -0.314200        -8.5498
 284   2.0000      -0.304085        -8.2746
 285   2.0000      -0.299995        -8.1633
 286   2.0000      -0.294849        -8.0233
 287   2.0000      -0.283144        -7.7047
 288   2.0000      -0.273467        -7.4414
 289   2.0000      -0.266860        -7.2616
 290   2.0000      -0.216081        -5.8799
 291   0.0000      -0.108846        -2.9618
 292   0.0000      -0.089400        -2.4327
 293   0.0000      -0.071281        -1.9397
 294   0.0000      -0.065644        -1.7863
 295   0.0000      -0.041213        -1.1215

MULLIKEN ATOMIC CHARGES
-----------------------
   0 C :    0.298355
   1 C :   -0.346637
   2 C :   -0.185048
   3 N :    0.157483
   4 C :   -0.182940
   5 N :    0.150792
   6 C :    0.026923
   7 C :    0.011703
   8 C :   -0.064439
   9 C :    0.118528
  10 C :   -0.085846
  11 C :   -0.027876
  12 S :    0.189306
  13 C :   -0.123744
  14 C :    0.039280
  15 Br:    0.028003
  16 C :    0.142688
  17 O :   -0.150742
  18 C :   -0.050184
  19 C :   -0.002089
  20 C :   -0.151398
  21 S :    0.161522
  22 C :    0.076770
  23 C :    0.194369
  24 O :   -0.175211
  25 N :   -0.309302
  26 C :    0.139135
  27 C :    0.191508
  28 O :   -0.157950
  29 C :   -0.009044
  30 C :   -0.113446
  31 C :   -0.002692
  32 C :    0.012859
  33 C :    0.019492
  34 C :   -0.260163
  35 C :    0.098136
  36 C :    0.235835
  37 N :   -0.157476
  38 C :    0.080931
  39 C :   -0.029896
  40 C :    0.031668
  41 C :   -0.060289
  42 C :    0.066442
  43 C :    0.004254
  44 C :   -0.004427
  45 S :    0.100838
  46 C :   -0.072024
  47 C :    0.042809
  48 C :    0.043478
  49 C :   -0.035318
  50 S :    0.117212
  51 C :    0.000636
  52 C :    0.023811
  53 C :   -0.150711
  54 C :    0.276260
  55 C :   -0.380146
  56 C :   -0.170526
  57 N :    0.118383
  58 C :   -0.211148
  59 N :    0.151763
  60 C :    0.013013
  61 C :    0.008760
  62 C :    0.128423
  63 O :   -0.158877
  64 C :   -0.085115
  65 C :    0.111895
  66 C :   -0.082617
  67 C :   -0.043725
  68 S :    0.141549
  69 C :   -0.124406
  70 C :    0.037925
  71 Br:    0.000306
  72 H :   -0.011647
  73 H :   -0.004731
  74 H :   -0.002681
  75 H :    0.026697
  76 H :    0.040468
  77 H :    0.053638
  78 H :    0.042214
  79 H :    0.016304
  80 H :   -0.002202
  81 H :   -0.014114
  82 H :    0.035767
  83 H :    0.044709
  84 H :    0.023752
  85 H :    0.033392
  86 H :    0.023174
  87 H :    0.136549
  88 H :    0.024211
  89 H :    0.004352
  90 H :   -0.008905
  91 H :   -0.008056
  92 H :   -0.009953
  93 H :   -0.015659
  94 H :   -0.013185
  95 H :   -0.009685
  96 H :    0.016470
  97 H :   -0.017381
  98 H :   -0.023920
  99 H :   -0.007165
Sum of atomic charges:   -0.0000000

LOEWDIN ATOMIC CHARGES
----------------------
   0 C :    0.076559
   1 C :   -0.134206
   2 C :   -0.018679
   3 N :   -0.046658
   4 C :   -0.018434
   5 N :   -0.048765
   6 C :   -0.018203
   7 C :   -0.040703
   8 C :    0.026758
   9 C :   -0.028963
  10 C :   -0.141688
  11 C :   -0.008679
  12 S :    0.434494
  13 C :   -0.269460
  14 C :   -0.070257
  15 Br:    0.140638
  16 C :    0.089042
  17 O :   -0.141106
  18 C :   -0.056916
  19 C :    0.034375
  20 C :   -0.145035
  21 S :    0.459772
  22 C :   -0.060799
  23 C :    0.095330
  24 O :   -0.158688
  25 N :   -0.033167
  26 C :    0.037819
  27 C :    0.092295
  28 O :   -0.159571
  29 C :   -0.092244
  30 C :   -0.121781
  31 C :   -0.033147
  32 C :   -0.007504
  33 C :   -0.044329
  34 C :   -0.031353
  35 C :   -0.054094
  36 C :    0.047798
  37 N :    0.017467
  38 C :    0.077063
  39 C :   -0.120181
  40 C :    0.010577
  41 C :   -0.187225
  42 C :    0.000828
  43 C :   -0.058589
  44 C :   -0.126561
  45 S :    0.403066
  46 C :   -0.218404
  47 C :   -0.018724
  48 C :   -0.047428
  49 C :   -0.113187
  50 S :    0.475333
  51 C :   -0.079263
  52 C :    0.032141
  53 C :   -0.126200
  54 C :    0.031204
  55 C :   -0.184102
  56 C :   -0.019848
  57 N :   -0.092458
  58 C :   -0.028545
  59 N :   -0.070486
  60 C :   -0.006437
  61 C :   -0.050822
  62 C :    0.081043
  63 O :   -0.159108
  64 C :    0.016406
  65 C :   -0.044765
  66 C :   -0.146124
  67 C :   -0.030540
  68 S :    0.400225
  69 C :   -0.282373
  70 C :   -0.067105
  71 Br:    0.117753
  72 H :    0.041152
  73 H :    0.041324
  74 H :    0.039250
  75 H :    0.045541
  76 H :    0.034514
  77 H :    0.038554
  78 H :    0.033000
  79 H :    0.044971
  80 H :    0.023175
  81 H :    0.031064
  82 H :    0.038416
  83 H :    0.044789
  84 H :    0.032095
  85 H :    0.040309
  86 H :    0.027095
  87 H :    0.089454
  88 H :    0.035579
  89 H :    0.022952
  90 H :    0.036610
  91 H :    0.036002
  92 H :    0.033387
  93 H :    0.032041
  94 H :    0.033892
  95 H :    0.037619
  96 H :    0.042854
  97 H :    0.037849
  98 H :    0.034259
  99 H :    0.037170

  Mayer bond orders larger than 0.100000
B(  0-C ,  1-C ) :   1.6382 B(  0-C ,  6-C ) :   1.0182 B(  0-C , 18-C ) :   1.0689
B(  1-C ,  2-C ) :   1.1403 B(  1-C ,  4-C ) :   1.1442 B(  2-C ,  3-N ) :   2.9732
B(  4-C ,  5-N ) :   2.9648 B(  6-C ,  7-C ) :   1.2726 B(  6-C , 11-C ) :   1.3950
B(  7-C ,  8-C ) :   1.4232 B(  7-C , 16-C ) :   0.9349 B(  8-C ,  9-C ) :   1.2533
B(  8-C , 72-H ) :   1.0154 B(  9-C , 10-C ) :   1.2966 B(  9-C , 14-C ) :   1.1619
B( 10-C , 11-C ) :   1.3427 B( 10-C , 12-S ) :   1.0860 B( 11-C , 73-H ) :   0.9799
B( 12-S , 13-C ) :   1.0870 B( 13-C , 14-C ) :   1.6173 B( 13-C , 15-Br) :   1.0217
B( 14-C , 74-H ) :   1.0006 B( 16-C , 17-O ) :   2.2384 B( 16-C , 18-C ) :   0.9045
B( 18-C , 19-C ) :   1.7006 B( 19-C , 20-C ) :   1.0931 B( 19-C , 75-H ) :   0.9277
B( 20-C , 21-S ) :   1.1178 B( 20-C , 22-C ) :   1.5313 B( 21-S , 30-C ) :   1.1221
B( 22-C , 23-C ) :   0.8882 B( 22-C , 29-C ) :   1.2835 B( 23-C , 24-O ) :   2.1546
B( 23-C , 25-N ) :   1.0929 B( 25-N , 26-C ) :   0.9392 B( 25-N , 27-C ) :   1.0624
B( 26-C , 76-H ) :   0.9718 B( 26-C , 77-H ) :   0.9611 B( 26-C , 78-H ) :   0.9784
B( 27-C , 28-O ) :   2.1943 B( 27-C , 29-C ) :   0.9044 B( 29-C , 30-C ) :   1.4899
B( 30-C , 31-C ) :   1.1440 B( 31-C , 32-C ) :   1.6570 B( 31-C , 79-H ) :   0.9804
B( 32-C , 33-C ) :   1.1163 B( 32-C , 80-H ) :   0.9699 B( 33-C , 34-C ) :   1.7436
B( 33-C , 81-H ) :   0.9806 B( 34-C , 35-C ) :   1.0700 B( 34-C , 36-C ) :   1.0434
B( 35-C , 82-H ) :   0.9457 B( 35-C , 83-H ) :   0.9455 B( 35-C , 84-H ) :   0.9494
B( 36-C , 37-N ) :   0.9769 B( 36-C , 85-H ) :   0.9288 B( 36-C , 86-H ) :   0.9419
B( 37-N , 38-C ) :   1.2745 B( 37-N , 87-H ) :   0.9339 B( 38-C , 39-C ) :   1.5307
B( 38-C , 88-H ) :   0.9674 B( 39-C , 40-C ) :   1.2296 B( 39-C , 89-H ) :   0.9618
B( 40-C , 41-C ) :   1.5252 B( 40-C , 90-H ) :   0.9795 B( 41-C , 42-C ) :   1.1837
B( 41-C , 45-S ) :   1.0212 B( 42-C , 43-C ) :   1.5404 B( 42-C , 91-H ) :   0.9972
B( 43-C , 44-C ) :   1.2284 B( 43-C , 92-H ) :   0.9967 B( 44-C , 45-S ) :   1.1180
B( 44-C , 46-C ) :   1.4056 B( 46-C , 47-C ) :   1.2456 B( 46-C , 50-S ) :   1.0439
B( 47-C , 48-C ) :   1.5212 B( 47-C , 93-H ) :   0.9909 B( 48-C , 49-C ) :   1.2168
B( 48-C , 94-H ) :   0.9966 B( 49-C , 50-S ) :   1.1366 B( 49-C , 51-C ) :   1.3693
B( 51-C , 52-C ) :   1.4124 B( 51-C , 95-H ) :   0.9554 B( 52-C , 53-C ) :   1.3864
B( 52-C , 96-H ) :   0.9328 B( 53-C , 54-C ) :   1.1824 B( 53-C , 62-C ) :   0.9781
B( 54-C , 55-C ) :   1.5089 B( 54-C , 60-C ) :   0.9989 B( 55-C , 56-C ) :   1.1521
B( 55-C , 58-C ) :   1.1721 B( 56-C , 57-N ) :   2.9599 B( 58-C , 59-N ) :   3.0077
B( 60-C , 61-C ) :   1.2835 B( 60-C , 67-C ) :   1.4383 B( 61-C , 62-C ) :   0.9083
B( 61-C , 64-C ) :   1.4381 B( 62-C , 63-O ) :   2.2482 B( 64-C , 65-C ) :   1.2353
B( 64-C , 97-H ) :   1.0168 B( 65-C , 66-C ) :   1.3378 B( 65-C , 70-C ) :   1.1541
B( 66-C , 67-C ) :   1.2998 B( 66-C , 68-S ) :   1.0709 B( 67-C , 98-H ) :   0.9824
B( 68-S , 69-C ) :   1.0762 B( 69-C , 70-C ) :   1.6312 B( 69-C , 71-Br) :   1.0039
B( 70-C , 99-H ) :   1.0009

-----------------------------------------------------------------------------
         ABSORPTION SPECTRUM VIA TRANSITION ELECTRIC DIPOLE MOMENTS
-----------------------------------------------------------------------------
State   Energy  Wavelength   fosc         T2         TX        TY        TZ
        (cm-1)    (nm)                  (au**2)     (au)      (au)      (au)
-----------------------------------------------------------------------------
   0   12492.1    800.5   0.696237077  18.34829  -0.39583  -3.84423   1.84757
   1   15952.2    626.9   0.001928292   0.03979  -0.01569   0.15929  -0.11906
   2   20891.3    478.7   0.547642954   8.62993   0.29586  -2.56143   1.40765
   3   20991.4    476.4   0.180748441   2.83470   0.72889  -1.51769  -0.00647
   4   22882.8    437.0   0.120543651   1.73424   0.66785   0.34015  -1.08283
   5   22941.3    435.9   0.025126113   0.36056   0.35281   0.11131  -0.47297
   6   24179.5    413.6   0.039650138   0.53985  -0.17096  -0.03825  -0.71356
   7   25271.4    395.7   0.142992341   1.86277  -1.16290  -0.70740   0.10008
   8   25865.9    386.6   0.001775511   0.02260   0.02664  -0.08578   0.12054
   9   26264.3    380.7   0.500037443   6.26775   0.26696   1.27169  -2.13993
  10   26714.0    374.3   0.883863285  10.89235   0.20806  -0.88665  -3.17221
  11   27608.5    362.2   0.002731478   0.03257  -0.05837   0.13208  -0.10826
  12   28027.3    356.8   0.038787232   0.45560   0.53973   0.40512   0.01267
  13   28678.1    348.7   0.035393804   0.40631  -0.57159  -0.17137  -0.22409
  14   28952.8    345.4   0.000130579   0.00148   0.01549   0.03392   0.00972
  15   29231.3    342.1   0.027651833   0.31142  -0.29217  -0.06570  -0.47090
  16   30088.9    332.3   0.016579951   0.18141  -0.19211  -0.29487   0.23990
  17   30493.6    327.9   0.530584340   5.72825   0.68850   2.04107  -1.04319
  18   31142.6    321.1   0.133980958   1.41633  -0.25460  -0.87447  -0.76603
  19   31347.5    319.0   0.151278387   1.58873  -0.65713  -0.92743  -0.54477
  20   31639.1    316.1   0.002422702   0.02521   0.08841   0.09098   0.09548
  21   31772.5    314.7   0.041079860   0.42565   0.40700   0.48838  -0.14658
  22   31987.3    312.6   0.304866660   3.13767  -0.92288  -0.69513  -1.34267
  23   32253.5    310.0   0.208540854   2.12858   0.95977   0.50291   0.97698
  24   32386.7    308.8   0.560176926   5.69422  -1.85883  -1.49630   0.00683
  25   32927.8    303.7   0.181132011   1.81096  -0.10288  -0.40751  -1.27840
  26   33038.0    302.7   0.158026700   1.57468  -1.19524  -0.36131  -0.12462
  27   33610.3    297.5   0.070724127   0.69274   0.56989  -0.04020   0.60527
  28   33657.5    297.1   0.034808594   0.34047   0.29002   0.47749  -0.16841
  29   34020.5    293.9   0.035769430   0.34614   0.31442  -0.48508   0.10940
  30   34160.6    292.7   0.000835852   0.00806  -0.06817   0.04831   0.03277
  31   34510.1    289.8   0.059137386   0.56415   0.45899  -0.16440   0.57135
  32   34572.6    289.2   0.000298280   0.00284   0.03825   0.03600  -0.00901
  33   35106.8    284.8   0.042501140   0.39855   0.37036   0.50459   0.08232
  34   35543.0    281.3   0.000099222   0.00092  -0.02243  -0.01908   0.00718
  35   35994.7    277.8   0.000660599   0.00604  -0.02478   0.06985  -0.02342
  36   36198.5    276.3   0.028223096   0.25668   0.13786   0.48719  -0.01783
  37   36292.0    275.5   0.009319681   0.08454   0.05810  -0.26539   0.10360
  38   36480.6    274.1   0.290782827   2.62412   0.70274  -1.30752   0.64859
  39   36761.4    272.0   0.160106340   1.43381   0.70110   0.94882  -0.20497
  40   37312.2    268.0   0.085882804   0.75776   0.69057   0.37562   0.37388
  41   37400.2    267.4   0.000505524   0.00445  -0.03938   0.04904  -0.02224
  42   37541.0    266.4   0.040481739   0.35500  -0.58733   0.09217  -0.03940
  43   37789.0    264.6   0.023851735   0.20779  -0.41993  -0.10084   0.14589
  44   38410.4    260.3   0.012239728   0.10491   0.31149  -0.07678  -0.04456
  45   38678.5    258.5   0.002798983   0.02382  -0.06585  -0.12424   0.06364
  46   38772.1    257.9   0.002871646   0.02438  -0.12403   0.06007  -0.07342
  47   38820.1    257.6   0.037933917   0.32170   0.45701   0.28699  -0.17456
  48   38884.6    257.2   0.038029493   0.32197  -0.04856   0.44778  -0.34513
  49   38941.7    256.8   0.011999621   0.10144   0.02718  -0.03444  -0.31547
  50   39097.8    255.8   0.247088600   2.08054  -0.36538  -1.27447   0.56812
  51   39605.1    252.5   0.003444971   0.02864  -0.16741   0.02143   0.01222
  52   39645.5    252.2   0.001268122   0.01053  -0.08717  -0.04850   0.02409
  53   39917.2    250.5   0.148778395   1.22703   1.08390   0.18653  -0.13191
  54   40122.7    249.2   0.009285473   0.07619   0.16356   0.22039  -0.02947
  55   40139.8    249.1   0.000088132   0.00072   0.02067   0.01613   0.00593

FINAL SINGLE POINT ENERGY     -9876.818044371372

DIPOLE MOMENT
-------------
                                X             Y             Z
Electronic contribution:      9.50341     -74.93995      90.41897
Nuclear contribution   :    -10.54228      70.98025     -87.94267
                        -----------------------------------------
Total Dipole Moment    :     -1.03886      -3.95970       2.47630
                        -----------------------------------------
Magnitude (a.u.)       :      4.78440
Magnitude (Debye)      :     12.16099

Rotational constants in cm-1:     0.001272     0.000150     0.000141
Rotational constants in MHz :    38.147471     4.486089     4.219149

                             ****ORCA TERMINATED NORMALLY****
TOTAL RUN TIME: 0 days 0 hours 17 minutes 26 seconds 926 msec
