                         Program Version 4.2.0 -  RELEASE  -
|  1> # ORCA input file
|  2> # SCF done       -154.359345204835          0.000799425634
|  3> ! CAM-B3LYP def2-SVP def2/J RIJCOSX Grid4 TightSCF
|  4> %maxcore 5000
|  5> %tddft
|  6>     Mode sTDDFT
|  7>     Ethresh 5.0
|  8>     maxcore 5000
|  9> end
| 10>
| 11> %pal
| 12>   nprocs 6
| 13>   end
| 14> * xyz 0 1
| 15>    C        1.89898         3.83487         0.94988
| 16>    C        2.56649         3.00089         1.75840
| 17>    C        3.36039         3.33776         2.90592
| 18>    C        3.92104         2.27853         3.52823
| 19>    C        3.62264         1.02052         2.93044
| 20>    S        2.58553         1.24417         1.53482
| 21>    C        4.04829        -0.21804         3.34150
| 22>    C        4.88465        -0.53608         4.44166
| 23>    C        5.11573        -1.86390         4.59309
| 24>    C        4.49243        -2.69376         3.61720
| 25>    S        3.57540        -1.68779         2.50587
| 26>    C        4.53551        -4.06047         3.63366
| 27>    C        4.00867        -5.00677         2.72457
| 28>    S        3.55018        -6.55873         3.39158
| 29>    C        3.04739        -7.15108         1.83161
| 30>    C        3.25707        -6.18484         0.85310
| 31>    C        3.80656        -4.99433         1.35005
| 32>    C        4.25156        -3.90388         0.43168
| 33>    C        4.50231        -4.44830        -0.97030
| 34>    F        4.77864        -3.38912        -1.80723
| 35>    C        3.25856        -5.18400        -1.46360
| 36>    F        3.45250        -5.61769        -2.75867
| 37>    C        2.96881        -6.40779        -0.59640
| 38>    C        2.53607        -8.46253         1.72740
| 39>    S        1.98704        -9.17585         0.22203
| 40>    C        1.56623       -10.70110         0.97054
| 41>    C        1.84591       -10.64417         2.33406
| 42>    C        2.38103        -9.39719         2.73847
| 43>    S        2.71870        -9.36471         4.43941
| 44>    C        2.14681       -11.00320         4.58433
| 45>    C        1.72313       -11.54894         3.42440
| 46>    C        1.03516       -11.78253         0.24507
| 47>    C        0.76920       -11.76684        -1.08894
| 48>    C        0.24377       -12.85781        -1.81298
| 49>    S       -0.07918       -14.39719        -1.06385
| 50>    C       -0.63734       -15.08870        -2.57231
| 51>    C       -0.60109       -14.13321        -3.58325
| 52>    C       -0.10034       -12.89581        -3.15998
| 53>    C       -0.00241       -11.69758        -4.05268
| 54>    C       -0.36966       -12.01028        -5.50145
| 55>    F       -0.69872       -10.82444        -6.12457
| 56>    C       -1.55368       -12.97349        -5.56171
| 57>    F       -1.92234       -13.17795        -6.87349
| 58>    C       -1.15617       -14.31597        -4.95738
| 59>    C       -1.07609       -16.43122        -2.53178
| 60>    C       -1.07221       -17.39656        -3.50190
| 61>    C       -1.61815       -18.70101        -3.33363
| 62>    C       -1.44802       -19.52996        -4.39412
| 63>    C       -0.73717       -18.94672        -5.47307
| 64>    S       -0.29923       -17.29407        -5.07660
| 65>    C       -0.40028       -19.51693        -6.67581
| 66>    C       -0.68140       -20.84275        -7.11305
| 67>    C       -0.22470       -21.12934        -8.35129
| 68>    C        0.46176       -20.04644        -8.99702
| 69>    S        0.47977       -18.64419        -7.91519
| 70>    C        1.01813       -20.03851       -10.21552
| 71>    H        1.91484         4.89621         1.12294
| 72>    H        1.33246         3.47600         0.11065
| 73>    H        3.47523         4.36288         3.21075
| 74>    H        4.54496         2.34817         4.40176
| 75>    H        5.28696         0.22534         5.08544
| 76>    H        5.72324        -2.29082         5.37186
| 77>    H        4.97892        -4.49358         4.52308
| 78>    H        5.16197        -3.43694         0.81162
| 79>    H        3.48996        -3.12189         0.35389
| 80>    H        5.37685        -5.10955        -1.01182
| 81>    H        2.41256        -4.48694        -1.50049
| 82>    H        3.58776        -7.23178        -0.96871
| 83>    H        1.92642        -6.70852        -0.73295
| 84>    H        2.16745       -11.45902         5.55517
| 85>    H        1.33886       -12.54846         3.33423
| 86>    H        0.83009       -12.68122         0.81244
| 87>    H        0.96813       -10.86254        -1.64859
| 88>    H        1.00478       -11.27538        -4.01693
| 89>    H       -0.69131       -10.92357        -3.69710
| 90>    H        0.47258       -12.42768        -6.06679
| 91>    H       -2.42619       -12.53349        -5.06235
| 92>    H       -0.41350       -14.77160        -5.61983
| 93>    H       -2.02350       -14.97817        -4.93365
| 94>    H       -1.40713       -16.76612        -1.55511
| 95>    H       -2.13179       -18.97097        -2.42745
| 96>    H       -1.81033       -20.54141        -4.43553
| 97>    H       -1.21606       -21.53579        -6.48772
| 98>    H       -0.34436       -22.07547        -8.84880
| 99>    H        0.98485       -20.91383       -10.83983
|100>    H        1.51104       -19.16757       -10.60670
|101> *
|102>
|103>                          ****END OF INPUT****

CARTESIAN COORDINATES (ANGSTROEM)
---------------------------------
  C      1.898980    3.834870    0.949880
  C      2.566490    3.000890    1.758400
  C      3.360390    3.337760    2.905920
  C      3.921040    2.278530    3.528230
  C      3.622640    1.020520    2.930440
  S      2.585530    1.244170    1.534820
  C      4.048290   -0.218040    3.341500
  C      4.884650   -0.536080    4.441660
  C      5.115730   -1.863900    4.593090
  C      4.492430   -2.693760    3.617200
  S      3.575400   -1.687790    2.505870
  C      4.535510   -4.060470    3.633660
  C      4.008670   -5.006770    2.724570
  S      3.550180   -6.558730    3.391580
  C      3.047390   -7.151080    1.831610
  C      3.257070   -6.184840    0.853100
  C      3.806560   -4.994330    1.350050
  C      4.251560   -3.903880    0.431680
  C      4.502310   -4.448300   -0.970300
  F      4.778640   -3.389120   -1.807230
  C      3.258560   -5.184000   -1.463600
  F      3.452500   -5.617690   -2.758670
  C      2.968810   -6.407790   -0.596400
  C      2.536070   -8.462530    1.727400
  S      1.987040   -9.175850    0.222030
  C      1.566230  -10.701100    0.970540
  C      1.845910  -10.644170    2.334060
  C      2.381030   -9.397190    2.738470
  S      2.718700   -9.364710    4.439410
  C      2.146810  -11.003200    4.584330
  C      1.723130  -11.548940    3.424400
  C      1.035160  -11.782530    0.245070
  C      0.769200  -11.766840   -1.088940
  C      0.243770  -12.857810   -1.812980
  S     -0.079180  -14.397190   -1.063850
  C     -0.637340  -15.088700   -2.572310
  C     -0.601090  -14.133210   -3.583250
  C     -0.100340  -12.895810   -3.159980
  C     -0.002410  -11.697580   -4.052680
  C     -0.369660  -12.010280   -5.501450
  F     -0.698720  -10.824440   -6.124570
  C     -1.553680  -12.973490   -5.561710
  F     -1.922340  -13.177950   -6.873490
  C     -1.156170  -14.315970   -4.957380
  C     -1.076090  -16.431220   -2.531780
  C     -1.072210  -17.396560   -3.501900
  C     -1.618150  -18.701010   -3.333630
  C     -1.448020  -19.529960   -4.394120
  C     -0.737170  -18.946720   -5.473070
  S     -0.299230  -17.294070   -5.076600
  C     -0.400280  -19.516930   -6.675810
  C     -0.681400  -20.842750   -7.113050
  C     -0.224700  -21.129340   -8.351290
  C      0.461760  -20.046440   -8.997020
  S      0.479770  -18.644190   -7.915190
  C      1.018130  -20.038510  -10.215520
  H      1.914840    4.896210    1.122940
  H      1.332460    3.476000    0.110650
  H      3.475230    4.362880    3.210750
  H      4.544960    2.348170    4.401760
  H      5.286960    0.225340    5.085440
  H      5.723240   -2.290820    5.371860
  H      4.978920   -4.493580    4.523080
  H      5.161970   -3.436940    0.811620
  H      3.489960   -3.121890    0.353890
  H      5.376850   -5.109550   -1.011820
  H      2.412560   -4.486940   -1.500490
  H      3.587760   -7.231780   -0.968710
  H      1.926420   -6.708520   -0.732950
  H      2.167450  -11.459020    5.555170
  H      1.338860  -12.548460    3.334230
  H      0.830090  -12.681220    0.812440
  H      0.968130  -10.862540   -1.648590
  H      1.004780  -11.275380   -4.016930
  H     -0.691310  -10.923570   -3.697100
  H      0.472580  -12.427680   -6.066790
  H     -2.426190  -12.533490   -5.062350
  H     -0.413500  -14.771600   -5.619830
  H     -2.023500  -14.978170   -4.933650
  H     -1.407130  -16.766120   -1.555110
  H     -2.131790  -18.970970   -2.427450
  H     -1.810330  -20.541410   -4.435530
  H     -1.216060  -21.535790   -6.487720
  H     -0.344360  -22.075470   -8.848800
  H      0.984850  -20.913830  -10.839830
  H      1.511040  -19.167570  -10.606700

 Total Charge           Charge          ....    0
 Multiplicity           Mult            ....    1
 Number of Electrons    NEL             ....  458
 Basis Dimension        Dim             ....  966

ORBITAL ENERGIES
----------------

  NO   OCC          E(Eh)            E(eV)
   0   2.0000     -88.959974     -2420.7240
   1   2.0000     -88.950099     -2420.4552
   2   2.0000     -88.949509     -2420.4392
   3   2.0000     -88.945591     -2420.3326
   4   2.0000     -88.940866     -2420.2040
   5   2.0000     -88.940774     -2420.2015
   6   2.0000     -88.935789     -2420.0659
   7   2.0000     -88.935208     -2420.0501
   8   2.0000     -24.739359      -673.1922
   9   2.0000     -24.738374      -673.1654
  10   2.0000     -24.738200      -673.1607
  11   2.0000     -24.737395      -673.1387
  12   2.0000     -10.340372      -281.3758
  13   2.0000     -10.339289      -281.3464
  14   2.0000     -10.337943      -281.3097
  15   2.0000     -10.337240      -281.2906
  16   2.0000     -10.312424      -280.6153
  17   2.0000     -10.307687      -280.4864
  18   2.0000     -10.307121      -280.4710
  19   2.0000     -10.307023      -280.4684
  20   2.0000     -10.306838      -280.4633
  21   2.0000     -10.305402      -280.4242
  22   2.0000     -10.305057      -280.4149
  23   2.0000     -10.304792      -280.4076
  24   2.0000     -10.304006      -280.3863
  25   2.0000     -10.303460      -280.3714
  26   2.0000     -10.302015      -280.3321
  27   2.0000     -10.298439      -280.2348
  28   2.0000     -10.298391      -280.2335
  29   2.0000     -10.298248      -280.2296
  30   2.0000     -10.296751      -280.1888
  31   2.0000     -10.294541      -280.1287
  32   2.0000     -10.287355      -279.9331
  33   2.0000     -10.286948      -279.9221
  34   2.0000     -10.284889      -279.8661
  35   2.0000     -10.284454      -279.8542
  36   2.0000     -10.282609      -279.8040
  37   2.0000     -10.282371      -279.7975
  38   2.0000     -10.282271      -279.7948
  39   2.0000     -10.282258      -279.7945
  40   2.0000     -10.282173      -279.7922
  41   2.0000     -10.281608      -279.7768
  42   2.0000     -10.281262      -279.7674
  43   2.0000     -10.280719      -279.7526
  44   2.0000     -10.280240      -279.7396
  45   2.0000     -10.279814      -279.7280
  46   2.0000     -10.279181      -279.7107
  47   2.0000     -10.277785      -279.6727
  48   2.0000     -10.277266      -279.6586
  49   2.0000     -10.277095      -279.6540
  50   2.0000     -10.277078      -279.6535
  51   2.0000     -10.276431      -279.6359
  52   2.0000     -10.270896      -279.4853
  53   2.0000     -10.270036      -279.4619
  54   2.0000     -10.267759      -279.3999
  55   2.0000     -10.267073      -279.3813
  56   2.0000      -8.053906      -219.1579
  57   2.0000      -8.045488      -218.9289
  58   2.0000      -8.045064      -218.9173
  59   2.0000      -8.041243      -218.8133
  60   2.0000      -8.036838      -218.6935
  61   2.0000      -8.036661      -218.6887
  62   2.0000      -8.032413      -218.5731
  63   2.0000      -8.031910      -218.5594
  64   2.0000      -6.023388      -163.9047
  65   2.0000      -6.019175      -163.7901
  66   2.0000      -6.015971      -163.7029
  67   2.0000      -6.014958      -163.6753
  68   2.0000      -6.014883      -163.6733
  69   2.0000      -6.010848      -163.5635
  70   2.0000      -6.010479      -163.5535
  71   2.0000      -6.010463      -163.5530
  72   2.0000      -6.007306      -163.4671
  73   2.0000      -6.006681      -163.4501
  74   2.0000      -6.006640      -163.4490
  75   2.0000      -6.006519      -163.4457
  76   2.0000      -6.006250      -163.4384
  77   2.0000      -6.003202      -163.3554
  78   2.0000      -6.002608      -163.3393
  79   2.0000      -6.002429      -163.3344
  80   2.0000      -6.002242      -163.3293
  81   2.0000      -6.001737      -163.3156
  82   2.0000      -5.998354      -163.2235
  83   2.0000      -5.997856      -163.2100
  84   2.0000      -5.997572      -163.2022
  85   2.0000      -5.997409      -163.1978
  86   2.0000      -5.992925      -163.0758
  87   2.0000      -5.992398      -163.0614
  88   2.0000      -1.258615       -34.2487
  89   2.0000      -1.257789       -34.2262
  90   2.0000      -1.243897       -33.8482
  91   2.0000      -1.242999       -33.8237
  92   2.0000      -1.007086       -27.4042
  93   2.0000      -0.991215       -26.9723
  94   2.0000      -0.990316       -26.9479
  95   2.0000      -0.984914       -26.8009
  96   2.0000      -0.983509       -26.7626
  97   2.0000      -0.965708       -26.2783
  98   2.0000      -0.965308       -26.2674
  99   2.0000      -0.941413       -25.6171
 100   2.0000      -0.914990       -24.8981
 101   2.0000      -0.912390       -24.8274
 102   2.0000      -0.906251       -24.6603
 103   2.0000      -0.894029       -24.3278
 104   2.0000      -0.880827       -23.9685
 105   2.0000      -0.871388       -23.7117
 106   2.0000      -0.860159       -23.4061
 107   2.0000      -0.845360       -23.0034
 108   2.0000      -0.843904       -22.9638
 109   2.0000      -0.842437       -22.9239
 110   2.0000      -0.839389       -22.8409
 111   2.0000      -0.837803       -22.7978
 112   2.0000      -0.821422       -22.3520
 113   2.0000      -0.820407       -22.3244
 114   2.0000      -0.816236       -22.2109
 115   2.0000      -0.812825       -22.1181
 116   2.0000      -0.807733       -21.9795
 117   2.0000      -0.803399       -21.8616
 118   2.0000      -0.799783       -21.7632
 119   2.0000      -0.783993       -21.3335
 120   2.0000      -0.769590       -20.9416
 121   2.0000      -0.747534       -20.3414
 122   2.0000      -0.731927       -19.9168
 123   2.0000      -0.724818       -19.7233
 124   2.0000      -0.722247       -19.6533
 125   2.0000      -0.715108       -19.4591
 126   2.0000      -0.704493       -19.1702
 127   2.0000      -0.683357       -18.5951
 128   2.0000      -0.682641       -18.5756
 129   2.0000      -0.679536       -18.4911
 130   2.0000      -0.673117       -18.3164
 131   2.0000      -0.665955       -18.1215
 132   2.0000      -0.657570       -17.8934
 133   2.0000      -0.647389       -17.6164
 134   2.0000      -0.639844       -17.4110
 135   2.0000      -0.634248       -17.2588
 136   2.0000      -0.627198       -17.0669
 137   2.0000      -0.622392       -16.9361
 138   2.0000      -0.618609       -16.8332
 139   2.0000      -0.616114       -16.7653
 140   2.0000      -0.614058       -16.7094
 141   2.0000      -0.608584       -16.5604
 142   2.0000      -0.602644       -16.3988
 143   2.0000      -0.596585       -16.2339
 144   2.0000      -0.596049       -16.2193
 145   2.0000      -0.594351       -16.1731
 146   2.0000      -0.588941       -16.0259
 147   2.0000      -0.577224       -15.7071
 148   2.0000      -0.573152       -15.5963
 149   2.0000      -0.571453       -15.5500
 150   2.0000      -0.563617       -15.3368
 151   2.0000      -0.562086       -15.2951
 152   2.0000      -0.556929       -15.1548
 153   2.0000      -0.555005       -15.1024
 154   2.0000      -0.550789       -14.9877
 155   2.0000      -0.544545       -14.8178
 156   2.0000      -0.537303       -14.6208
 157   2.0000      -0.530959       -14.4481
 158   2.0000      -0.528734       -14.3876
 159   2.0000      -0.524192       -14.2640
 160   2.0000      -0.520744       -14.1702
 161   2.0000      -0.518473       -14.1084
 162   2.0000      -0.515717       -14.0334
 163   2.0000      -0.512019       -13.9328
 164   2.0000      -0.509026       -13.8513
 165   2.0000      -0.507239       -13.8027
 166   2.0000      -0.506269       -13.7763
 167   2.0000      -0.504225       -13.7207
 168   2.0000      -0.498587       -13.5673
 169   2.0000      -0.496516       -13.5109
 170   2.0000      -0.495020       -13.4702
 171   2.0000      -0.492630       -13.4052
 172   2.0000      -0.489790       -13.3279
 173   2.0000      -0.489203       -13.3119
 174   2.0000      -0.487235       -13.2583
 175   2.0000      -0.486688       -13.2435
 176   2.0000      -0.481960       -13.1148
 177   2.0000      -0.480719       -13.0810
 178   2.0000      -0.479836       -13.0570
 179   2.0000      -0.478082       -13.0093
 180   2.0000      -0.476074       -12.9546
 181   2.0000      -0.467839       -12.7306
 182   2.0000      -0.463008       -12.5991
 183   2.0000      -0.461182       -12.5494
 184   2.0000      -0.460094       -12.5198
 185   2.0000      -0.457330       -12.4446
 186   2.0000      -0.456066       -12.4102
 187   2.0000      -0.453864       -12.3503
 188   2.0000      -0.449130       -12.2214
 189   2.0000      -0.447786       -12.1849
 190   2.0000      -0.445832       -12.1317
 191   2.0000      -0.443719       -12.0742
 192   2.0000      -0.436888       -11.8883
 193   2.0000      -0.436797       -11.8858
 194   2.0000      -0.427076       -11.6213
 195   2.0000      -0.425681       -11.5834
 196   2.0000      -0.424060       -11.5392
 197   2.0000      -0.423164       -11.5149
 198   2.0000      -0.418229       -11.3806
 199   2.0000      -0.417500       -11.3607
 200   2.0000      -0.415279       -11.3003
 201   2.0000      -0.409969       -11.1558
 202   2.0000      -0.408502       -11.1159
 203   2.0000      -0.405312       -11.0291
 204   2.0000      -0.402209       -10.9447
 205   2.0000      -0.397563       -10.8182
 206   2.0000      -0.394587       -10.7372
 207   2.0000      -0.392796       -10.6885
 208   2.0000      -0.391582       -10.6555
 209   2.0000      -0.388149       -10.5621
 210   2.0000      -0.387159       -10.5351
 211   2.0000      -0.378945       -10.3116
 212   2.0000      -0.373371       -10.1599
 213   2.0000      -0.372224       -10.1287
 214   2.0000      -0.356685        -9.7059
 215   2.0000      -0.336109        -9.1460
 216   2.0000      -0.334638        -9.1060
 217   2.0000      -0.334333        -9.0977
 218   2.0000      -0.328732        -8.9452
 219   2.0000      -0.320182        -8.7126
 220   2.0000      -0.316075        -8.6008
 221   2.0000      -0.308257        -8.3881
 222   2.0000      -0.306598        -8.3429
 223   2.0000      -0.305353        -8.3091
 224   2.0000      -0.297080        -8.0840
 225   2.0000      -0.279665        -7.6101
 226   2.0000      -0.242033        -6.5861
 227   2.0000      -0.218010        -5.9323
 228   2.0000      -0.200322        -5.4510
 229   0.0000      -0.077140        -2.0991
 230   0.0000      -0.060834        -1.6554
 231   0.0000      -0.037960        -1.0329
 232   0.0000      -0.000708        -0.0193
 233   0.0000       0.013310         0.3622

MULLIKEN ATOMIC CHARGES
-----------------------
   0 C :   -0.030939
   1 C :   -0.063139
   2 C :    0.051439
   3 C :    0.029361
   4 C :   -0.065623
   5 S :    0.079805
   6 C :   -0.052979
   7 C :    0.034062
   8 C :    0.028129
   9 C :   -0.020915
  10 S :    0.070911
  11 C :   -0.031130
  12 C :   -0.123017
  13 S :    0.107430
  14 C :   -0.093607
  15 C :   -0.137860
  16 C :   -0.081042
  17 C :    0.125593
  18 C :    0.196418
  19 F :   -0.245686
  20 C :    0.221559
  21 F :   -0.248778
  22 C :    0.106514
  23 C :   -0.113884
  24 S :    0.088596
  25 C :   -0.071752
  26 C :    0.115585
  27 C :   -0.080973
  28 S :    0.105609
  29 C :   -0.047617
  30 C :    0.016512
  31 C :   -0.012843
  32 C :   -0.027543
  33 C :   -0.076072
  34 S :    0.096079
  35 C :   -0.126819
  36 C :   -0.077852
  37 C :   -0.108535
  38 C :    0.124344
  39 C :    0.207309
  40 F :   -0.248746
  41 C :    0.196246
  42 F :   -0.246285
  43 C :    0.123811
  44 C :   -0.031858
  45 C :   -0.022637
  46 C :    0.030030
  47 C :    0.034313
  48 C :   -0.053791
  49 S :    0.072204
  50 C :   -0.064639
  51 C :    0.027178
  52 C :    0.054375
  53 C :   -0.066110
  54 S :    0.080714
  55 C :   -0.028271
  56 H :    0.020647
  57 H :    0.023267
  58 H :   -0.011740
  59 H :   -0.011470
  60 H :   -0.014981
  61 H :   -0.012075
  62 H :   -0.006600
  63 H :    0.030901
  64 H :    0.041812
  65 H :    0.005961
  66 H :    0.005333
  67 H :    0.036601
  68 H :    0.038016
  69 H :    0.028744
  70 H :   -0.012573
  71 H :   -0.011724
  72 H :   -0.005679
  73 H :    0.032883
  74 H :    0.032920
  75 H :    0.004781
  76 H :    0.003922
  77 H :    0.042227
  78 H :    0.031584
  79 H :   -0.007437
  80 H :   -0.013151
  81 H :   -0.015692
  82 H :   -0.011273
  83 H :   -0.011806
  84 H :    0.020254
  85 H :    0.023171
Sum of atomic charges:   -0.0000000

LOEWDIN ATOMIC CHARGES
----------------------
   0 C :   -0.075663
   1 C :   -0.139316
   2 C :   -0.030603
   3 C :   -0.026966
   4 C :   -0.176237
   5 S :    0.350825
   6 C :   -0.182140
   7 C :   -0.033530
   8 C :   -0.034064
   9 C :   -0.146996
  10 S :    0.387946
  11 C :   -0.087963
  12 C :   -0.174597
  13 S :    0.427900
  14 C :   -0.184855
  15 C :   -0.066561
  16 C :   -0.064174
  17 C :   -0.046821
  18 C :    0.094852
  19 F :   -0.123910
  20 C :    0.097713
  21 F :   -0.126240
  22 C :   -0.051685
  23 C :   -0.199991
  24 S :    0.453305
  25 C :   -0.172798
  26 C :   -0.070736
  27 C :   -0.199152
  28 S :    0.387777
  29 C :   -0.152997
  30 C :   -0.058733
  31 C :   -0.043833
  32 C :   -0.051152
  33 C :   -0.171022
  34 S :    0.418754
  35 C :   -0.170334
  36 C :   -0.065688
  37 C :   -0.061486
  38 C :   -0.037788
  39 C :    0.096262
  40 F :   -0.126304
  41 C :    0.094783
  42 F :   -0.124133
  43 C :   -0.047768
  44 C :   -0.088090
  45 C :   -0.146935
  46 C :   -0.034419
  47 C :   -0.033345
  48 C :   -0.182471
  49 S :    0.389830
  50 C :   -0.175871
  51 C :   -0.027230
  52 C :   -0.030290
  53 C :   -0.139433
  54 S :    0.351578
  55 C :   -0.074950
  56 H :    0.028758
  57 H :    0.026879
  58 H :    0.033324
  59 H :    0.032161
  60 H :    0.031285
  61 H :    0.032796
  62 H :    0.033437
  63 H :    0.038508
  64 H :    0.028164
  65 H :    0.019189
  66 H :    0.020357
  67 H :    0.036885
  68 H :    0.031865
  69 H :    0.025243
  70 H :    0.031604
  71 H :    0.027148
  72 H :    0.025743
  73 H :    0.039837
  74 H :    0.041962
  75 H :    0.019906
  76 H :    0.018602
  77 H :    0.027936
  78 H :    0.037975
  79 H :    0.033138
  80 H :    0.032533
  81 H :    0.031200
  82 H :    0.032209
  83 H :    0.033363
  84 H :    0.028773
  85 H :    0.026967

  Mayer bond orders larger than 0.100000
B(  0-C ,  1-C ) :   1.8646 B(  0-C , 56-H ) :   0.9510 B(  0-C , 57-H ) :   0.9418
B(  1-C ,  2-C ) :   1.0798 B(  1-C ,  5-S ) :   1.0075 B(  2-C ,  3-C ) :   1.6636
B(  2-C , 58-H ) :   0.9932 B(  3-C ,  4-C ) :   1.1496 B(  3-C , 59-H ) :   0.9917
B(  4-C ,  5-S ) :   1.0436 B(  4-C ,  6-C ) :   1.5660 B(  6-C ,  7-C ) :   1.1620
B(  6-C , 10-S ) :   1.0350 B(  7-C ,  8-C ) :   1.6201 B(  7-C , 60-H ) :   0.9918
B(  8-C ,  9-C ) :   1.1234 B(  8-C , 61-H ) :   0.9982 B(  9-C , 10-S ) :   1.0328
B(  9-C , 11-C ) :   1.6430 B( 11-C , 12-C ) :   1.1129 B( 11-C , 62-H ) :   0.9439
B( 12-C , 13-S ) :   1.1032 B( 12-C , 16-C ) :   1.4994 B( 13-S , 14-C ) :   1.1172
B( 14-C , 15-C ) :   1.4915 B( 14-C , 23-C ) :   1.1936 B( 15-C , 16-C ) :   1.3247
B( 15-C , 22-C ) :   1.0239 B( 16-C , 17-C ) :   1.0136 B( 17-C , 18-C ) :   1.0308
B( 17-C , 63-H ) :   0.9149 B( 17-C , 64-H ) :   0.8866 B( 18-C , 19-F ) :   1.0351
B( 18-C , 20-C ) :   1.0260 B( 18-C , 65-H ) :   0.9407 B( 20-C , 21-F ) :   1.0295
B( 20-C , 22-C ) :   1.0213 B( 20-C , 66-H ) :   0.9283 B( 22-C , 67-H ) :   0.9001
B( 22-C , 68-H ) :   0.9003 B( 23-C , 24-S ) :   1.1139 B( 23-C , 25-C ) :   0.1021
B( 23-C , 27-C ) :   1.4758 B( 24-S , 25-C ) :   1.0849 B( 25-C , 26-C ) :   1.3651
B( 25-C , 31-C ) :   1.2114 B( 26-C , 27-C ) :   1.2601 B( 26-C , 30-C ) :   1.1616
B( 27-C , 28-S ) :   1.0527 B( 28-S , 29-C ) :   1.0922 B( 29-C , 30-C ) :   1.6669
B( 29-C , 69-H ) :   0.9656 B( 30-C , 70-H ) :   0.9936 B( 31-C , 32-C ) :   1.5943
B( 31-C , 71-H ) :   0.9687 B( 32-C , 33-C ) :   1.1937 B( 32-C , 72-H ) :   0.9660
B( 33-C , 34-S ) :   1.1031 B( 33-C , 37-C ) :   1.4761 B( 34-S , 35-C ) :   1.1065
B( 35-C , 36-C ) :   1.4959 B( 35-C , 44-C ) :   1.1193 B( 36-C , 37-C ) :   1.3212
B( 36-C , 43-C ) :   1.0144 B( 37-C , 38-C ) :   1.0197 B( 38-C , 39-C ) :   1.0315
B( 38-C , 73-H ) :   0.9056 B( 38-C , 74-H ) :   0.9046 B( 39-C , 40-F ) :   1.0270
B( 39-C , 41-C ) :   1.0226 B( 39-C , 75-H ) :   0.9304 B( 41-C , 42-F ) :   1.0345
B( 41-C , 43-C ) :   1.0296 B( 41-C , 76-H ) :   0.9403 B( 43-C , 77-H ) :   0.8871
B( 43-C , 78-H ) :   0.9151 B( 44-C , 45-C ) :   1.6364 B( 44-C , 79-H ) :   0.9448
B( 45-C , 46-C ) :   1.1262 B( 45-C , 49-S ) :   1.0340 B( 46-C , 47-C ) :   1.6183
B( 46-C , 80-H ) :   0.9977 B( 47-C , 48-C ) :   1.1649 B( 47-C , 81-H ) :   0.9912
B( 48-C , 49-S ) :   1.0370 B( 48-C , 50-C ) :   1.5622 B( 50-C , 51-C ) :   1.1503
B( 50-C , 54-S ) :   1.0451 B( 51-C , 52-C ) :   1.6649 B( 51-C , 82-H ) :   0.9916
B( 52-C , 53-C ) :   1.0782 B( 52-C , 83-H ) :   0.9929 B( 53-C , 54-S ) :   1.0081
B( 53-C , 55-C ) :   1.8663 B( 55-C , 84-H ) :   0.9507 B( 55-C , 85-H ) :   0.9414

-----------------------------------------------------------------------------
         ABSORPTION SPECTRUM VIA TRANSITION ELECTRIC DIPOLE MOMENTS
-----------------------------------------------------------------------------
State   Energy  Wavelength   fosc         T2         TX        TY        TZ
        (cm-1)    (nm)                  (au**2)     (au)      (au)      (au)
-----------------------------------------------------------------------------
   0   13997.6    714.4   2.749315180  64.66163  -1.12265  -7.10016  -3.60403
   1   18610.9    537.3   0.543894100   9.62105   0.08702  -1.40551   2.76369
   2   19924.6    501.9   0.011706000   0.19342   0.07448  -0.02198  -0.43288
   3   22613.4    442.2   0.015656617   0.22793   0.27807  -0.36958  -0.11839
   4   23629.8    423.2   0.432802321   6.02984   1.92525  -1.51468  -0.17020
   5   26113.7    382.9   0.072075463   0.90865   0.40763   0.73994   0.44155
   6   28123.2    355.6   0.003515677   0.04115  -0.15589  -0.05659  -0.11684
   7   28287.7    353.5   0.162877261   1.89556   0.09548  -0.56266   1.25294
   8   30319.3    329.8   0.004468929   0.04852  -0.19996   0.06322  -0.06742
   9   30832.7    324.3   0.011258291   0.12021   0.11323   0.25739   0.20282
  10   32760.4    305.2   0.030249283   0.30398   0.38834   0.15108  -0.36103
  11   32979.0    303.2   0.041812147   0.41739  -0.61040   0.05716   0.20379
  12   33855.6    295.4   0.021824352   0.21222  -0.04649  -0.15615  -0.43090
  13   34142.1    292.9   0.020683370   0.19944   0.20342   0.31017   0.24870
  14   34184.9    292.5   0.025816576   0.24862   0.35480   0.30539   0.17170
  15   34773.7    287.6   0.011923599   0.11288   0.20538   0.18570   0.19031
  16   34884.8    286.7   0.031109180   0.29358  -0.13836  -0.24864  -0.46110
  17   35206.7    284.0   0.119657600   1.11890   0.08349  -0.42674   0.96427
  18   35405.6    282.4   0.019546308   0.18175  -0.00421  -0.02475  -0.42558
  19   35719.2    280.0   0.025281913   0.23301   0.06808   0.12914  -0.46011
  20   36175.2    276.4   0.017173267   0.15629   0.19664   0.02232   0.34223
  21   36565.2    273.5   0.132355192   1.19165  -0.16637  -0.69216   0.82757
  22   37143.2    269.2   0.013938343   0.12354  -0.16780  -0.28790  -0.11180
  23   37238.3    268.5   0.055938687   0.49454  -0.11913  -0.07008  -0.68952
  24   37655.1    265.6   0.073223225   0.64018   0.40165   0.69140  -0.02874
  25   38526.8    259.6   0.035424668   0.30270   0.04657  -0.27663   0.47330
  26   39395.0    253.8   0.002650901   0.02215   0.06444   0.10057  -0.08881
  27   39783.0    251.4   0.100826556   0.83436  -0.40715   0.49349   0.65196
  28   40145.6    249.1   0.034589503   0.28365  -0.30403   0.43315   0.05993

FINAL SINGLE POINT ENERGY     -5275.983118581645

DIPOLE MOMENT
-------------
                                X             Y             Z
Electronic contribution:      2.65453       5.45855       3.46885
Nuclear contribution   :     -2.59473      -6.57909      -1.20714
                        -----------------------------------------
Total Dipole Moment    :      0.05981      -1.12054       2.26171
                        -----------------------------------------
Magnitude (a.u.)       :      2.52478
Magnitude (Debye)      :      6.41748

Rotational constants in cm-1:     0.002674     0.000305     0.000284
Rotational constants in MHz :    80.152349     9.149637     8.509123

                             ****ORCA TERMINATED NORMALLY****
TOTAL RUN TIME: 0 days 0 hours 6 minutes 30 seconds 178 msec
