                         Program Version 4.2.0 -  RELEASE  -
|  1> # ORCA input file
|  2> # SCF done       -173.160640552383          0.000857881215
|  3> ! CAM-B3LYP def2-SVP def2/J RIJCOSX Grid4 TightSCF
|  4> %maxcore 5000
|  5> %tddft
|  6>     Mode sTDDFT
|  7>     Ethresh 5.0
|  8>     maxcore 5000
|  9> end
| 10>
| 11> %pal
| 12>   nprocs 6
| 13>   end
| 14> * xyz 0 1
| 15>    C       -9.87518       -25.29877         3.12115
| 16>    S      -10.11703       -24.07784         1.95102
| 17>    C       -9.80040       -22.81540         3.08863
| 18>    C       -9.50723       -23.34734         4.33897
| 19>    C       -9.56093       -24.78660         4.36107
| 20>    C       -9.25889       -25.48020         5.57337
| 21>    C       -9.34125       -26.95448         5.71728
| 22>    O       -8.61111       -27.58957         6.42756
| 23>    O      -10.33352       -27.56539         5.03308
| 24>    C       -8.87816       -24.74993         6.66964
| 25>    C       -8.86872       -23.34727         6.66220
| 26>    C       -9.20428       -22.63987         5.53612
| 27>    O       -9.27348       -21.28949         5.51919
| 28>    C       -9.75566       -21.45395         2.63724
| 29>    S       -8.35656       -20.47455         2.95138
| 30>    C       -8.94990       -19.18368         1.95213
| 31>    C      -10.17264       -19.52372         1.40594
| 32>    C      -10.63533       -20.81200         1.78882
| 33>    C      -11.91861       -21.33072         1.33611
| 34>    C      -12.74201       -22.06980         2.06663
| 35>    O      -10.88042       -18.69661         0.56971
| 36>    C      -12.00328       -18.07701         1.16781
| 37>    C       -8.15941       -17.99825         1.80911
| 38>    C       -8.40980       -17.01539         0.92453
| 39>    C       -7.63151       -15.81829         0.72644
| 40>    C       -6.91463       -15.12742         1.62080
| 41>    C       -6.83542       -15.43287         3.08398
| 42>    C       -6.11456       -13.89938         1.22636
| 43>    N       -6.04799       -13.63680        -0.18788
| 44>    C       -5.43269       -14.44617        -1.07345
| 45>    C       -4.55804       -15.44746        -0.76759
| 46>    C       -3.96501       -16.32455        -1.69419
| 47>    C       -4.31044       -16.57841        -3.00005
| 48>    C       -3.66549       -17.50830        -3.85036
| 49>    C       -4.24188       -17.65575        -5.07725
| 50>    C       -5.38235       -16.84900        -5.27120
| 51>    S       -5.68607       -15.88320        -3.85294
| 52>    C       -6.20541       -16.77310        -6.38391
| 53>    C       -6.10377       -17.47899        -7.59563
| 54>    C       -7.09802       -17.18521        -8.48765
| 55>    C       -8.02913       -16.23564        -8.02210
| 56>    S       -7.60005       -15.71216        -6.41458
| 57>    C       -9.13105       -15.74944        -8.70872
| 58>    C      -10.01527       -14.82830        -8.17415
| 59>    C      -11.13220       -14.26143        -8.76353
| 60>    C      -12.16881       -13.66618        -7.90032
| 61>    O      -12.08859       -13.43343        -6.70965
| 62>    C      -13.34087       -13.45553        -8.77689
| 63>    C      -14.58809       -13.00843        -8.45643
| 64>    C      -15.57291       -12.92586        -9.46810
| 65>    C      -15.23922       -13.31675       -10.79614
| 66>    C      -16.22583       -13.24225       -11.79795
| 67>    C      -17.47660       -12.79405       -11.47662
| 68>    C      -17.82380       -12.40223       -10.17795
| 69>    C      -16.87759       -12.47081        -9.19270
| 70>    F      -18.42262       -12.72152       -12.43532
| 71>    C      -13.93178       -13.76737       -11.10023
| 72>    C      -12.99493       -13.82941       -10.10654
| 73>    C      -11.58127       -14.21671       -10.12289
| 74>    C      -10.81514       -14.31291       -11.26527
| 75>    C       -9.40967       -14.37264       -11.28391
| 76>    N       -8.26389       -14.37020       -11.37442
| 77>    C      -11.33783       -14.24717       -12.56944
| 78>    N      -11.70431       -14.22699       -13.65895
| 79>    H       -9.92246       -26.32242         2.80618
| 80>    H      -10.90800       -26.93135         4.58433
| 81>    H       -8.61783       -25.27775         7.57404
| 82>    H       -8.61212       -22.81671         7.56854
| 83>    H       -9.02091       -20.93610         6.38188
| 84>    H      -12.19634       -21.02315         0.33555
| 85>    H      -12.50445       -22.35435         3.07860
| 86>    H      -13.68689       -22.40993         1.68019
| 87>    H      -12.69360       -18.81508         1.58792
| 88>    H      -12.49887       -17.52104         0.37433
| 89>    H      -11.69073       -17.38703         1.95967
| 90>    H       -7.28260       -17.96293         2.43873
| 91>    H       -9.23698       -17.14122         0.24034
| 92>    H       -7.67617       -15.44719        -0.29039
| 93>    H       -5.97222       -16.06193         3.30281
| 94>    H       -7.72997       -15.95224         3.41743
| 95>    H       -6.72600       -14.51247         3.65586
| 96>    H       -5.09519       -14.01528         1.61375
| 97>    H       -6.54464       -13.01721         1.71142
| 98>    H       -6.73939       -13.00394        -0.55681
| 99>    H       -5.63220       -14.20551        -2.10714
|100>    H       -4.27752       -15.59864         0.26415
|101>    H       -3.15393       -16.93393        -1.31419
|102>    H       -2.79363       -18.04840        -3.52457
|103>    H       -3.88604       -18.32802        -5.83669
|104>    H       -5.31242       -18.18249        -7.78319
|105>    H       -7.18425       -17.61853        -9.46795
|106>    H       -9.29232       -16.14965        -9.69848
|107>    H       -9.88554       -14.56906        -7.12669
|108>    H      -14.82472       -12.72127        -7.44267
|109>    H      -15.99272       -13.53293       -12.81045
|110>    H      -18.82655       -12.05597        -9.98328
|111>    H      -17.12098       -12.17452        -8.18316
|112>    H      -13.71099       -14.05914       -12.11456
|113> *
|114>
|115>                          ****END OF INPUT****

CARTESIAN COORDINATES (ANGSTROEM)
---------------------------------
  C     -9.875180  -25.298770    3.121150
  S    -10.117030  -24.077840    1.951020
  C     -9.800400  -22.815400    3.088630
  C     -9.507230  -23.347340    4.338970
  C     -9.560930  -24.786600    4.361070
  C     -9.258890  -25.480200    5.573370
  C     -9.341250  -26.954480    5.717280
  O     -8.611110  -27.589570    6.427560
  O    -10.333520  -27.565390    5.033080
  C     -8.878160  -24.749930    6.669640
  C     -8.868720  -23.347270    6.662200
  C     -9.204280  -22.639870    5.536120
  O     -9.273480  -21.289490    5.519190
  C     -9.755660  -21.453950    2.637240
  S     -8.356560  -20.474550    2.951380
  C     -8.949900  -19.183680    1.952130
  C    -10.172640  -19.523720    1.405940
  C    -10.635330  -20.812000    1.788820
  C    -11.918610  -21.330720    1.336110
  C    -12.742010  -22.069800    2.066630
  O    -10.880420  -18.696610    0.569710
  C    -12.003280  -18.077010    1.167810
  C     -8.159410  -17.998250    1.809110
  C     -8.409800  -17.015390    0.924530
  C     -7.631510  -15.818290    0.726440
  C     -6.914630  -15.127420    1.620800
  C     -6.835420  -15.432870    3.083980
  C     -6.114560  -13.899380    1.226360
  N     -6.047990  -13.636800   -0.187880
  C     -5.432690  -14.446170   -1.073450
  C     -4.558040  -15.447460   -0.767590
  C     -3.965010  -16.324550   -1.694190
  C     -4.310440  -16.578410   -3.000050
  C     -3.665490  -17.508300   -3.850360
  C     -4.241880  -17.655750   -5.077250
  C     -5.382350  -16.849000   -5.271200
  S     -5.686070  -15.883200   -3.852940
  C     -6.205410  -16.773100   -6.383910
  C     -6.103770  -17.478990   -7.595630
  C     -7.098020  -17.185210   -8.487650
  C     -8.029130  -16.235640   -8.022100
  S     -7.600050  -15.712160   -6.414580
  C     -9.131050  -15.749440   -8.708720
  C    -10.015270  -14.828300   -8.174150
  C    -11.132200  -14.261430   -8.763530
  C    -12.168810  -13.666180   -7.900320
  O    -12.088590  -13.433430   -6.709650
  C    -13.340870  -13.455530   -8.776890
  C    -14.588090  -13.008430   -8.456430
  C    -15.572910  -12.925860   -9.468100
  C    -15.239220  -13.316750  -10.796140
  C    -16.225830  -13.242250  -11.797950
  C    -17.476600  -12.794050  -11.476620
  C    -17.823800  -12.402230  -10.177950
  C    -16.877590  -12.470810   -9.192700
  F    -18.422620  -12.721520  -12.435320
  C    -13.931780  -13.767370  -11.100230
  C    -12.994930  -13.829410  -10.106540
  C    -11.581270  -14.216710  -10.122890
  C    -10.815140  -14.312910  -11.265270
  C     -9.409670  -14.372640  -11.283910
  N     -8.263890  -14.370200  -11.374420
  C    -11.337830  -14.247170  -12.569440
  N    -11.704310  -14.226990  -13.658950
  H     -9.922460  -26.322420    2.806180
  H    -10.908000  -26.931350    4.584330
  H     -8.617830  -25.277750    7.574040
  H     -8.612120  -22.816710    7.568540
  H     -9.020910  -20.936100    6.381880
  H    -12.196340  -21.023150    0.335550
  H    -12.504450  -22.354350    3.078600
  H    -13.686890  -22.409930    1.680190
  H    -12.693600  -18.815080    1.587920
  H    -12.498870  -17.521040    0.374330
  H    -11.690730  -17.387030    1.959670
  H     -7.282600  -17.962930    2.438730
  H     -9.236980  -17.141220    0.240340
  H     -7.676170  -15.447190   -0.290390
  H     -5.972220  -16.061930    3.302810
  H     -7.729970  -15.952240    3.417430
  H     -6.726000  -14.512470    3.655860
  H     -5.095190  -14.015280    1.613750
  H     -6.544640  -13.017210    1.711420
  H     -6.739390  -13.003940   -0.556810
  H     -5.632200  -14.205510   -2.107140
  H     -4.277520  -15.598640    0.264150
  H     -3.153930  -16.933930   -1.314190
  H     -2.793630  -18.048400   -3.524570
  H     -3.886040  -18.328020   -5.836690
  H     -5.312420  -18.182490   -7.783190
  H     -7.184250  -17.618530   -9.467950
  H     -9.292320  -16.149650   -9.698480
  H     -9.885540  -14.569060   -7.126690
  H    -14.824720  -12.721270   -7.442670
  H    -15.992720  -13.532930  -12.810450
  H    -18.826550  -12.055970   -9.983280
  H    -17.120980  -12.174520   -8.183160
  H    -13.710990  -14.059140  -12.114560

 Total Charge           Charge          ....    0
 Multiplicity           Mult            ....    1
 Number of Electrons    NEL             ....  474
 Basis Dimension        Dim             .... 1082

ORBITAL ENERGIES
----------------

  NO   OCC          E(Eh)            E(eV)
   0   2.0000     -88.975986     -2421.1597
   1   2.0000     -88.961934     -2420.7773
   2   2.0000     -88.957405     -2420.6541
   3   2.0000     -88.951363     -2420.4896
   4   2.0000     -24.767651      -673.9621
   5   2.0000     -19.268214      -524.3147
   6   2.0000     -19.251264      -523.8535
   7   2.0000     -19.242290      -523.6093
   8   2.0000     -19.186493      -522.0910
   9   2.0000     -19.182007      -521.9689
  10   2.0000     -14.466954      -393.6658
  11   2.0000     -14.386108      -391.4659
  12   2.0000     -14.384013      -391.4089
  13   2.0000     -10.391549      -282.7684
  14   2.0000     -10.357366      -281.8383
  15   2.0000     -10.349396      -281.6214
  16   2.0000     -10.343815      -281.4695
  17   2.0000     -10.333522      -281.1894
  18   2.0000     -10.332797      -281.1697
  19   2.0000     -10.331540      -281.1355
  20   2.0000     -10.327726      -281.0317
  21   2.0000     -10.321478      -280.8617
  22   2.0000     -10.321109      -280.8517
  23   2.0000     -10.317233      -280.7462
  24   2.0000     -10.310991      -280.5763
  25   2.0000     -10.310673      -280.5677
  26   2.0000     -10.309774      -280.5432
  27   2.0000     -10.308955      -280.5209
  28   2.0000     -10.308877      -280.5188
  29   2.0000     -10.307631      -280.4849
  30   2.0000     -10.303543      -280.3737
  31   2.0000     -10.302204      -280.3372
  32   2.0000     -10.300167      -280.2818
  33   2.0000     -10.299216      -280.2559
  34   2.0000     -10.295313      -280.1497
  35   2.0000     -10.295289      -280.1491
  36   2.0000     -10.291243      -280.0390
  37   2.0000     -10.290772      -280.0261
  38   2.0000     -10.290722      -280.0248
  39   2.0000     -10.288293      -279.9587
  40   2.0000     -10.288250      -279.9575
  41   2.0000     -10.285449      -279.8813
  42   2.0000     -10.285214      -279.8749
  43   2.0000     -10.284779      -279.8631
  44   2.0000     -10.283448      -279.8268
  45   2.0000     -10.281958      -279.7863
  46   2.0000     -10.281568      -279.7757
  47   2.0000     -10.279794      -279.7274
  48   2.0000     -10.279682      -279.7244
  49   2.0000     -10.278767      -279.6995
  50   2.0000     -10.278571      -279.6941
  51   2.0000     -10.278546      -279.6935
  52   2.0000     -10.278431      -279.6903
  53   2.0000     -10.278352      -279.6882
  54   2.0000     -10.275260      -279.6040
  55   2.0000     -10.275228      -279.6032
  56   2.0000     -10.274289      -279.5776
  57   2.0000     -10.273997      -279.5697
  58   2.0000     -10.272419      -279.5267
  59   2.0000     -10.271974      -279.5146
  60   2.0000     -10.269383      -279.4441
  61   2.0000     -10.264607      -279.3142
  62   2.0000     -10.263871      -279.2941
  63   2.0000     -10.258711      -279.1537
  64   2.0000      -8.071118      -219.6263
  65   2.0000      -8.057886      -219.2662
  66   2.0000      -8.052871      -219.1298
  67   2.0000      -8.047492      -218.9834
  68   2.0000      -6.040133      -164.3604
  69   2.0000      -6.035666      -164.2388
  70   2.0000      -6.034179      -164.1983
  71   2.0000      -6.027507      -164.0168
  72   2.0000      -6.023461      -163.9067
  73   2.0000      -6.022096      -163.8696
  74   2.0000      -6.019093      -163.7878
  75   2.0000      -6.018178      -163.7629
  76   2.0000      -6.017040      -163.7320
  77   2.0000      -6.014831      -163.6719
  78   2.0000      -6.013055      -163.6235
  79   2.0000      -6.008779      -163.5072
  80   2.0000      -1.281496       -34.8713
  81   2.0000      -1.171433       -31.8763
  82   2.0000      -1.165627       -31.7183
  83   2.0000      -1.144231       -31.1361
  84   2.0000      -1.095613       -29.8132
  85   2.0000      -1.085559       -29.5396
  86   2.0000      -1.064250       -28.9597
  87   2.0000      -1.008909       -27.4538
  88   2.0000      -1.004633       -27.3375
  89   2.0000      -0.989220       -26.9180
  90   2.0000      -0.982546       -26.7364
  91   2.0000      -0.980509       -26.6810
  92   2.0000      -0.974708       -26.5231
  93   2.0000      -0.964168       -26.2363
  94   2.0000      -0.950592       -25.8669
  95   2.0000      -0.938094       -25.5268
  96   2.0000      -0.927353       -25.2346
  97   2.0000      -0.914783       -24.8925
  98   2.0000      -0.904407       -24.6102
  99   2.0000      -0.898845       -24.4588
 100   2.0000      -0.888546       -24.1786
 101   2.0000      -0.879113       -23.9219
 102   2.0000      -0.871514       -23.7151
 103   2.0000      -0.868585       -23.6354
 104   2.0000      -0.862937       -23.4817
 105   2.0000      -0.857376       -23.3304
 106   2.0000      -0.845499       -23.0072
 107   2.0000      -0.842844       -22.9349
 108   2.0000      -0.839516       -22.8444
 109   2.0000      -0.830460       -22.5980
 110   2.0000      -0.826604       -22.4930
 111   2.0000      -0.820560       -22.3286
 112   2.0000      -0.811875       -22.0922
 113   2.0000      -0.806411       -21.9436
 114   2.0000      -0.802227       -21.8297
 115   2.0000      -0.787130       -21.4189
 116   2.0000      -0.779980       -21.2243
 117   2.0000      -0.761748       -20.7282
 118   2.0000      -0.755592       -20.5607
 119   2.0000      -0.740667       -20.1546
 120   2.0000      -0.737022       -20.0554
 121   2.0000      -0.726935       -19.7809
 122   2.0000      -0.711941       -19.3729
 123   2.0000      -0.704903       -19.1814
 124   2.0000      -0.702980       -19.1291
 125   2.0000      -0.700759       -19.0686
 126   2.0000      -0.690625       -18.7929
 127   2.0000      -0.688912       -18.7462
 128   2.0000      -0.685966       -18.6661
 129   2.0000      -0.679856       -18.4998
 130   2.0000      -0.668966       -18.2035
 131   2.0000      -0.661361       -17.9965
 132   2.0000      -0.658638       -17.9225
 133   2.0000      -0.651168       -17.7192
 134   2.0000      -0.644848       -17.5472
 135   2.0000      -0.640211       -17.4210
 136   2.0000      -0.637917       -17.3586
 137   2.0000      -0.633906       -17.2495
 138   2.0000      -0.627769       -17.0825
 139   2.0000      -0.623881       -16.9767
 140   2.0000      -0.615514       -16.7490
 141   2.0000      -0.609307       -16.5801
 142   2.0000      -0.608135       -16.5482
 143   2.0000      -0.605820       -16.4852
 144   2.0000      -0.596079       -16.2201
 145   2.0000      -0.593248       -16.1431
 146   2.0000      -0.586917       -15.9708
 147   2.0000      -0.581490       -15.8232
 148   2.0000      -0.576693       -15.6926
 149   2.0000      -0.572169       -15.5695
 150   2.0000      -0.568418       -15.4674
 151   2.0000      -0.558743       -15.2042
 152   2.0000      -0.556142       -15.1334
 153   2.0000      -0.552412       -15.0319
 154   2.0000      -0.548682       -14.9304
 155   2.0000      -0.540984       -14.7209
 156   2.0000      -0.540098       -14.6968
 157   2.0000      -0.539581       -14.6827
 158   2.0000      -0.538196       -14.6451
 159   2.0000      -0.535030       -14.5589
 160   2.0000      -0.534145       -14.5348
 161   2.0000      -0.531821       -14.4716
 162   2.0000      -0.529776       -14.4159
 163   2.0000      -0.528684       -14.3862
 164   2.0000      -0.526328       -14.3221
 165   2.0000      -0.524627       -14.2758
 166   2.0000      -0.515299       -14.0220
 167   2.0000      -0.514908       -14.0114
 168   2.0000      -0.510882       -13.9018
 169   2.0000      -0.508104       -13.8262
 170   2.0000      -0.507162       -13.8006
 171   2.0000      -0.505701       -13.7608
 172   2.0000      -0.504577       -13.7302
 173   2.0000      -0.502380       -13.6705
 174   2.0000      -0.498043       -13.5525
 175   2.0000      -0.497062       -13.5258
 176   2.0000      -0.493506       -13.4290
 177   2.0000      -0.491173       -13.3655
 178   2.0000      -0.489570       -13.3219
 179   2.0000      -0.485965       -13.2238
 180   2.0000      -0.484064       -13.1720
 181   2.0000      -0.481268       -13.0960
 182   2.0000      -0.478134       -13.0107
 183   2.0000      -0.474827       -12.9207
 184   2.0000      -0.473818       -12.8932
 185   2.0000      -0.473270       -12.8783
 186   2.0000      -0.470014       -12.7897
 187   2.0000      -0.468100       -12.7376
 188   2.0000      -0.467000       -12.7077
 189   2.0000      -0.460486       -12.5305
 190   2.0000      -0.458811       -12.4849
 191   2.0000      -0.457867       -12.4592
 192   2.0000      -0.454459       -12.3664
 193   2.0000      -0.449917       -12.2429
 194   2.0000      -0.445091       -12.1115
 195   2.0000      -0.443830       -12.0772
 196   2.0000      -0.441526       -12.0145
 197   2.0000      -0.440291       -11.9809
 198   2.0000      -0.438519       -11.9327
 199   2.0000      -0.435321       -11.8457
 200   2.0000      -0.434805       -11.8316
 201   2.0000      -0.431939       -11.7537
 202   2.0000      -0.427264       -11.6264
 203   2.0000      -0.425341       -11.5741
 204   2.0000      -0.422672       -11.5015
 205   2.0000      -0.417231       -11.3534
 206   2.0000      -0.415484       -11.3059
 207   2.0000      -0.414696       -11.2845
 208   2.0000      -0.411612       -11.2005
 209   2.0000      -0.409525       -11.1438
 210   2.0000      -0.404265       -11.0006
 211   2.0000      -0.402602       -10.9554
 212   2.0000      -0.401842       -10.9347
 213   2.0000      -0.396739       -10.7958
 214   2.0000      -0.391586       -10.6556
 215   2.0000      -0.383653       -10.4397
 216   2.0000      -0.382343       -10.4041
 217   2.0000      -0.375572       -10.2198
 218   2.0000      -0.373323       -10.1586
 219   2.0000      -0.360859        -9.8195
 220   2.0000      -0.359936        -9.7943
 221   2.0000      -0.351671        -9.5694
 222   2.0000      -0.349554        -9.5118
 223   2.0000      -0.345939        -9.4135
 224   2.0000      -0.341052        -9.2805
 225   2.0000      -0.329353        -8.9622
 226   2.0000      -0.328646        -8.9429
 227   2.0000      -0.323167        -8.7938
 228   2.0000      -0.318169        -8.6578
 229   2.0000      -0.307666        -8.3720
 230   2.0000      -0.299212        -8.1420
 231   2.0000      -0.290651        -7.9090
 232   2.0000      -0.280349        -7.6287
 233   2.0000      -0.278334        -7.5738
 234   2.0000      -0.269141        -7.3237
 235   2.0000      -0.246309        -6.7024
 236   2.0000      -0.213889        -5.8202
 237   0.0000      -0.095998        -2.6122
 238   0.0000      -0.055086        -1.4990
 239   0.0000      -0.044580        -1.2131
 240   0.0000      -0.026631        -0.7247
 241   0.0000      -0.021492        -0.5848

MULLIKEN ATOMIC CHARGES
-----------------------
   0 C :   -0.215284
   1 S :    0.214847
   2 C :   -0.236538
   3 C :    0.137359
   4 C :    0.094918
   5 C :   -0.054695
   6 C :    0.138257
   7 O :   -0.181305
   8 O :   -0.168917
   9 C :    0.010039
  10 C :   -0.087978
  11 C :    0.126553
  12 O :   -0.169298
  13 C :   -0.152516
  14 S :    0.167320
  15 C :   -0.121661
  16 C :    0.104884
  17 C :    0.095708
  18 C :   -0.071654
  19 C :   -0.002807
  20 O :   -0.341982
  21 C :    0.197622
  22 C :    0.024606
  23 C :   -0.001534
  24 C :    0.045048
  25 C :   -0.236894
  26 C :    0.078035
  27 C :    0.181088
  28 N :   -0.130936
  29 C :    0.053753
  30 C :   -0.040662
  31 C :    0.043066
  32 C :   -0.063628
  33 C :    0.059864
  34 C :    0.006525
  35 C :   -0.010352
  36 S :    0.065590
  37 C :   -0.068415
  38 C :    0.039879
  39 C :    0.028008
  40 C :   -0.015736
  41 S :    0.096726
  42 C :   -0.004494
  43 C :    0.022479
  44 C :   -0.141785
  45 C :    0.137277
  46 O :   -0.172076
  47 C :    0.007064
  48 C :   -0.093150
  49 C :    0.103625
  50 C :    0.102358
  51 C :   -0.100986
  52 C :    0.301313
  53 C :   -0.033610
  54 C :   -0.013776
  55 F :   -0.198744
  56 C :   -0.094548
  57 C :    0.041491
  58 C :    0.299066
  59 C :   -0.357798
  60 C :   -0.224182
  61 N :    0.148790
  62 C :   -0.177238
  63 N :    0.123914
  64 H :    0.030904
  65 H :    0.177595
  66 H :    0.002414
  67 H :   -0.037455
  68 H :    0.185918
  69 H :    0.016277
  70 H :    0.033661
  71 H :    0.025712
  72 H :    0.024545
  73 H :    0.036912
  74 H :    0.013804
  75 H :   -0.032470
  76 H :    0.012689
  77 H :   -0.020804
  78 H :    0.033060
  79 H :    0.033266
  80 H :    0.010185
  81 H :    0.029921
  82 H :    0.032825
  83 H :    0.139548
  84 H :    0.033910
  85 H :   -0.013747
  86 H :   -0.001555
  87 H :   -0.005945
  88 H :   -0.010187
  89 H :   -0.007740
  90 H :   -0.002355
  91 H :    0.004239
  92 H :    0.005778
  93 H :   -0.023362
  94 H :   -0.007043
  95 H :   -0.005531
  96 H :   -0.016953
  97 H :   -0.009913
Sum of atomic charges:   -0.0000000

LOEWDIN ATOMIC CHARGES
----------------------
   0 C :   -0.230020
   1 S :    0.521191
   2 C :   -0.185936
   3 C :   -0.071163
   4 C :   -0.044857
   5 C :   -0.106330
   6 C :    0.080387
   7 O :   -0.160993
   8 O :   -0.037672
   9 C :    0.028154
  10 C :   -0.102976
  11 C :    0.071061
  12 O :   -0.039142
  13 C :   -0.192839
  14 S :    0.462570
  15 C :   -0.194194
  16 C :    0.008818
  17 C :   -0.073628
  18 C :   -0.031975
  19 C :   -0.036915
  20 O :   -0.125648
  21 C :    0.080526
  22 C :   -0.044430
  23 C :   -0.025012
  24 C :   -0.050401
  25 C :   -0.043770
  26 C :   -0.050330
  27 C :    0.037773
  28 N :    0.025645
  29 C :    0.065761
  30 C :   -0.130732
  31 C :    0.006966
  32 C :   -0.187657
  33 C :    0.000069
  34 C :   -0.062479
  35 C :   -0.136253
  36 S :    0.389792
  37 C :   -0.209842
  38 C :   -0.005071
  39 C :   -0.050171
  40 C :   -0.096966
  41 S :    0.398442
  42 C :   -0.080496
  43 C :    0.049174
  44 C :   -0.121502
  45 C :    0.074817
  46 O :   -0.174340
  47 C :   -0.054111
  48 C :    0.022535
  49 C :   -0.021963
  50 C :    0.000874
  51 C :   -0.043888
  52 C :    0.088571
  53 C :   -0.045077
  54 C :    0.000141
  55 F :   -0.072658
  56 C :    0.002629
  57 C :   -0.012309
  58 C :    0.067261
  59 C :   -0.164156
  60 C :   -0.024080
  61 N :   -0.072454
  62 C :   -0.019410
  63 N :   -0.076788
  64 H :    0.022294
  65 H :    0.083971
  66 H :    0.040526
  67 H :    0.026495
  68 H :    0.098983
  69 H :    0.033567
  70 H :    0.024019
  71 H :    0.025892
  72 H :    0.014525
  73 H :    0.025889
  74 H :    0.013070
  75 H :    0.022920
  76 H :    0.031956
  77 H :    0.023622
  78 H :    0.035227
  79 H :    0.037064
  80 H :    0.027795
  81 H :    0.031738
  82 H :    0.037571
  83 H :    0.088698
  84 H :    0.018470
  85 H :    0.028403
  86 H :    0.040941
  87 H :    0.036534
  88 H :    0.033105
  89 H :    0.034564
  90 H :    0.038352
  91 H :    0.036778
  92 H :    0.030295
  93 H :    0.034936
  94 H :    0.041368
  95 H :    0.038140
  96 H :    0.032392
  97 H :    0.037378

  Mayer bond orders larger than 0.100000
B(  0-C ,  1-S ) :   1.1898 B(  0-C ,  2-C ) :   0.1137 B(  0-C ,  4-C ) :   1.4418
B(  0-C , 64-H ) :   0.9555 B(  1-S ,  2-C ) :   1.2262 B(  2-C ,  3-C ) :   1.3930
B(  2-C , 13-C ) :   1.0653 B(  3-C ,  4-C ) :   1.2103 B(  3-C , 11-C ) :   1.1562
B(  4-C ,  5-C ) :   1.1261 B(  5-C ,  6-C ) :   0.9104 B(  5-C ,  9-C ) :   1.5821
B(  6-C ,  7-O ) :   2.1939 B(  6-C ,  8-O ) :   1.2074 B(  8-O , 65-H ) :   0.9495
B(  9-C , 10-C ) :   1.1792 B(  9-C , 66-H ) :   0.9886 B( 10-C , 11-C ) :   1.4587
B( 10-C , 67-H ) :   0.9879 B( 11-C , 12-O ) :   1.2465 B( 12-O , 68-H ) :   0.9520
B( 13-C , 14-S ) :   1.1379 B( 13-C , 15-C ) :   0.1061 B( 13-C , 17-C ) :   1.5057
B( 14-S , 15-C ) :   1.1249 B( 15-C , 16-C ) :   1.4973 B( 15-C , 22-C ) :   1.1051
B( 16-C , 17-C ) :   1.2211 B( 16-C , 20-O ) :   1.1329 B( 17-C , 18-C ) :   1.0429
B( 18-C , 19-C ) :   1.9486 B( 18-C , 69-H ) :   0.9570 B( 19-C , 70-H ) :   0.9567
B( 19-C , 71-H ) :   0.9524 B( 20-O , 21-C ) :   0.9319 B( 21-C , 72-H ) :   0.9664
B( 21-C , 73-H ) :   0.9826 B( 21-C , 74-H ) :   0.9672 B( 22-C , 23-C ) :   1.7471
B( 22-C , 75-H ) :   0.9527 B( 23-C , 24-C ) :   1.0941 B( 23-C , 76-H ) :   0.9517
B( 24-C , 25-C ) :   1.8467 B( 24-C , 77-H ) :   0.9343 B( 25-C , 26-C ) :   1.0866
B( 25-C , 27-C ) :   0.9923 B( 26-C , 78-H ) :   0.9431 B( 26-C , 79-H ) :   0.9462
B( 26-C , 80-H ) :   0.9524 B( 27-C , 28-N ) :   1.0355 B( 27-C , 81-H ) :   0.9309
B( 27-C , 82-H ) :   0.9328 B( 28-N , 29-C ) :   1.2802 B( 28-N , 83-H ) :   0.9361
B( 29-C , 30-C ) :   1.5522 B( 29-C , 84-H ) :   0.9488 B( 30-C , 31-C ) :   1.2527
B( 30-C , 85-H ) :   0.9545 B( 31-C , 32-C ) :   1.5435 B( 31-C , 86-H ) :   0.9598
B( 32-C , 33-C ) :   1.1832 B( 32-C , 36-S ) :   1.0096 B( 33-C , 34-C ) :   1.5448
B( 33-C , 87-H ) :   0.9980 B( 34-C , 35-C ) :   1.2235 B( 34-C , 88-H ) :   0.9947
B( 35-C , 36-S ) :   1.0906 B( 35-C , 37-C ) :   1.4282 B( 37-C , 38-C ) :   1.2527
B( 37-C , 41-S ) :   1.0358 B( 38-C , 39-C ) :   1.5049 B( 38-C , 89-H ) :   0.9947
B( 39-C , 40-C ) :   1.2166 B( 39-C , 90-H ) :   1.0004 B( 40-C , 41-S ) :   1.1006
B( 40-C , 42-C ) :   1.4389 B( 42-C , 43-C ) :   1.2834 B( 42-C , 91-H ) :   0.9631
B( 43-C , 44-C ) :   1.4607 B( 43-C , 92-H ) :   0.9374 B( 44-C , 45-C ) :   0.9823
B( 44-C , 58-C ) :   1.1181 B( 45-C , 46-O ) :   2.2315 B( 45-C , 47-C ) :   0.9162
B( 47-C , 48-C ) :   1.4857 B( 47-C , 57-C ) :   1.2182 B( 48-C , 49-C ) :   1.1769
B( 48-C , 93-H ) :   1.0147 B( 49-C , 50-C ) :   1.2635 B( 49-C , 54-C ) :   1.2407
B( 50-C , 51-C ) :   1.2063 B( 50-C , 56-C ) :   1.1904 B( 51-C , 52-C ) :   1.4381
B( 51-C , 94-H ) :   1.0066 B( 52-C , 53-C ) :   1.2611 B( 52-C , 55-F ) :   1.0794
B( 53-C , 54-C ) :   1.4534 B( 53-C , 95-H ) :   0.9925 B( 54-C , 96-H ) :   0.9961
B( 56-C , 57-C ) :   1.4756 B( 56-C , 97-H ) :   0.9917 B( 57-C , 58-C ) :   0.9830
B( 58-C , 59-C ) :   1.5695 B( 59-C , 60-C ) :   1.1742 B( 59-C , 62-C ) :   1.1398
B( 60-C , 61-N ) :   3.0067 B( 62-C , 63-N ) :   2.9648

-----------------------------------------------------------------------------
         ABSORPTION SPECTRUM VIA TRANSITION ELECTRIC DIPOLE MOMENTS
-----------------------------------------------------------------------------
State   Energy  Wavelength   fosc         T2         TX        TY        TZ
        (cm-1)    (nm)                  (au**2)     (au)      (au)      (au)
-----------------------------------------------------------------------------
   0   11753.2    850.8   1.262607278  35.36626  -3.66462   0.96446  -4.58330
   1   21744.0    459.9   0.016099061   0.24375  -0.45008   0.10315   0.17474
   2   22011.1    454.3   0.006418400   0.09600   0.07687   0.25697   0.15510
   3   23430.5    426.8   0.041487728   0.58293   0.32592  -0.53217  -0.43989
   4   24307.9    411.4   0.543976961   7.36730   0.41534   2.53633  -0.87283
   5   25115.3    398.2   0.023109838   0.30292  -0.09801  -0.47657   0.25730
   6   25337.6    394.7   0.185340541   2.40813  -0.53739   1.23314   0.77376
   7   26918.1    371.5   0.361257215   4.41823  -1.58701   1.17354   0.72280
   8   27255.7    366.9   0.064127307   0.77457  -0.63695   0.43795   0.42079
   9   28653.0    349.0   0.062176981   0.71439  -0.77481   0.20223   0.27048
  10   29664.4    337.1   0.001563443   0.01735   0.05690   0.07372   0.09316
  11   30495.6    327.9   0.058254097   0.62888  -0.08396  -0.74784   0.25011
  12   30754.5    325.2   0.059123892   0.63289  -0.66083   0.40024   0.18974
  13   30917.1    323.4   0.009160563   0.09754  -0.20821   0.23222  -0.01642
  14   31662.2    315.8   0.153006934   1.59091   1.12903  -0.55534  -0.08835
  15   32208.8    310.5   0.091693690   0.93722  -0.89205   0.10963   0.35978
  16   32592.9    306.8   0.196661807   1.98642   0.75597   1.12583  -0.38399
  17   32891.2    304.0   0.031125565   0.31154   0.42591  -0.14866  -0.32869
  18   33774.5    296.1   0.446731465   4.35445   1.94519  -0.74329  -0.13497
  19   33914.6    294.9   0.021958248   0.21315   0.15135   0.36328  -0.24139
  20   33997.5    294.1   0.078517009   0.76031  -0.86236  -0.00338   0.12895
  21   34042.4    293.8   0.005770201   0.05580   0.12882   0.18800  -0.06216
  22   34595.9    289.1   0.033540211   0.31917   0.22534  -0.30909  -0.41576
  23   35117.0    284.8   0.101805496   0.95440  -0.70739   0.38302   0.55434
  24   36126.8    276.8   0.195392734   1.78055   0.83042   1.04443   0.01077
  25   36340.2    275.2   0.059266212   0.53690   0.02806  -0.72816  -0.07683
  26   37175.9    269.0   0.000189456   0.00168  -0.00098   0.00780   0.04020
  27   37572.7    266.2   0.209378879   1.83458   1.23062  -0.14641  -0.54656
  28   37925.0    263.7   0.001300736   0.01129  -0.08726  -0.02063  -0.05702
  29   38161.5    262.0   0.132766096   1.14535   0.61201  -0.23484  -0.84596
  30   38447.8    260.1   0.006447599   0.05521  -0.00781   0.04786  -0.22990
  31   38547.1    259.4   0.010018149   0.08556   0.13667   0.24685  -0.07710
  32   39458.9    253.4   0.054578544   0.45536  -0.39839   0.11863   0.53157
  33   39784.2    251.4   0.196308279   1.62444  -0.63257  -0.99554   0.48290
  34   39956.6    250.3   0.047893065   0.39460  -0.13011  -0.60401  -0.11334
  35   40135.4    249.2   0.111964541   0.91839  -0.33287   0.59895   0.66996

FINAL SINGLE POINT ENERGY     -4192.998964666289

DIPOLE MOMENT
-------------
                                X             Y             Z
Electronic contribution:    -19.03816      -4.07423     -52.56963
Nuclear contribution   :     20.61496       4.91900      58.85012
                        -----------------------------------------
Total Dipole Moment    :      1.57680       0.84477       6.28049
                        -----------------------------------------
Magnitude (a.u.)       :      6.53028
Magnitude (Debye)      :     16.59865

Rotational constants in cm-1:     0.001263     0.000318     0.000285
Rotational constants in MHz :    37.851785     9.523378     8.551682

                             ****ORCA TERMINATED NORMALLY****
TOTAL RUN TIME: 0 days 0 hours 8 minutes 44 seconds 158 msec
