                         Program Version 4.2.0 -  RELEASE  -
|  1> # ORCA input file
|  2> # SCF done       -209.060125954683          0.000542260890
|  3> ! CAM-B3LYP def2-SVP def2/J RIJCOSX Grid4 TightSCF
|  4> %maxcore 5000
|  5> %tddft
|  6>     Mode sTDDFT
|  7>     Ethresh 5.0
|  8>     maxcore 5000
|  9> end
| 10>
| 11> %pal
| 12>   nprocs 6
| 13>   end
| 14> * xyz 0 1
| 15>    C        3.86623         5.20196         3.42293
| 16>    C        3.32587         5.86658         4.49260
| 17>    C        4.08556         6.61825         5.41100
| 18>    N        4.66084         7.25586         6.17253
| 19>    C        1.95955         5.79044         4.83125
| 20>    N        0.85711         5.71704         5.14333
| 21>    C        5.29011         5.00510         3.18082
| 22>    C        5.45140         3.85317         2.35551
| 23>    C        6.68739         3.40091         1.99319
| 24>    C        7.83377         4.09877         2.43639
| 25>    C        7.67701         5.26069         3.24686
| 26>    C        6.38506         5.70149         3.61490
| 27>    C        8.82905         5.95188         3.67346
| 28>    C       10.07740         5.51626         3.32115
| 29>    C       10.23113         4.37132         2.52517
| 30>    C        9.13354         3.67762         2.09272
| 31>    C        4.12505         3.32041         1.99457
| 32>    O        3.86275         2.32624         1.35946
| 33>    C        3.15183         4.32483         2.51862
| 34>    C        1.88852         4.35022         2.01921
| 35>    C        0.95094         5.41058         1.99166
| 36>    C       -0.39304         5.29409         1.67257
| 37>    C       -1.03781         6.52744         1.64160
| 38>    C       -0.16831         7.60087         1.90769
| 39>    S        1.42377         7.09419         2.21041
| 40>    C       -0.90463         8.81384         1.82478
| 41>    C       -2.23326         8.50277         1.51074
| 42>    C       -2.36461         7.06209         1.37501
| 43>    C       -3.49215         6.37597         1.03117
| 44>    C       -4.69911         7.04983         0.74783
| 45>    N       -5.66371         7.61891         0.50082
| 46>    C       -3.51587         4.97073         0.90733
| 47>    N       -3.53708         3.82990         0.79837
| 48>    C       -3.03980         9.64293         1.40640
| 49>    C       -2.32829        10.79065         1.64458
| 50>    S       -0.64891        10.49294         1.98624
| 51>    C       -2.88023        12.18219         1.55148
| 52>    C       -1.89802        13.23755         2.05829
| 53>    N       -3.04349        12.37564         0.09361
| 54>    N       -4.07564        12.52067        -0.50445
| 55>    C       -5.42881        12.65734         0.08206
| 56>    C       -5.40823        12.42713         1.54855
| 57>    C       -4.18689        12.23350         2.25520
| 58>    N       -4.47736        12.08143         3.51533
| 59>    O       -5.80865        12.17999         3.60778
| 60>    N       -6.37910        12.39099         2.41539
| 61>    C       -6.35814        11.69371        -0.65114
| 62>    C       -5.74906        14.09907        -0.17989
| 63>    C       -5.16950        15.15603         0.47348
| 64>    C       -5.59835        16.38435        -0.04190
| 65>    C       -6.51221        16.23539        -1.09272
| 66>    S       -6.82956        14.59465        -1.45003
| 67>    C       -6.88020        17.52903        -1.55272
| 68>    C       -6.18827        18.49094        -0.78479
| 69>    C       -5.34981        17.79814         0.18136
| 70>    C       -4.47078        18.32899         1.07882
| 71>    C       -4.25419        19.71448         1.24258
| 72>    N       -4.04700        20.82976         1.40381
| 73>    C       -3.68023        17.49119         1.89453
| 74>    N       -3.03238        16.79017         2.53087
| 75>    C       -6.46303        19.79746        -1.16706
| 76>    C       -7.36128        19.85530        -2.22446
| 77>    S       -7.86498        18.23570        -2.73871
| 78>    C       -7.90912        20.91975        -2.97077
| 79>    C       -7.76372        22.27498        -2.86814
| 80>    C       -8.37990        23.22444        -3.78670
| 81>    C       -9.11089        22.94105        -4.91202
| 82>    C       -9.66889        23.92317        -5.75911
| 83>    N      -10.15433        24.66003        -6.49351
| 84>    C       -9.41717        21.66146        -5.42130
| 85>    N       -9.70935        20.66630        -5.91626
| 86>    C       -8.05680        24.56928        -3.32451
| 87>    C       -7.24211        24.46468        -2.16316
| 88>    C       -7.02373        23.04785        -1.83707
| 89>    O       -6.37793        22.62935        -0.89905
| 90>    C       -6.77069        25.56296        -1.50354
| 91>    C       -7.10036        26.84817        -1.98713
| 92>    C       -7.91830        26.96476        -3.14817
| 93>    C       -8.39133        25.80742        -3.80805
| 94>    C       -8.24231        28.25216        -3.62300
| 95>    C       -7.78104        29.37057        -2.98364
| 96>    C       -6.97577        29.25412        -1.84066
| 97>    C       -6.64254        28.01962        -1.35285
| 98>    H        6.79101         2.52149         1.37517
| 99>    H        6.29067         6.58896         4.22147
|100>    H        8.70545         6.83073         4.28907
|101>    H       10.95376         6.05142         3.65469
|102>    H       11.22349         4.04185         2.25613
|103>    H        9.24603         2.79558         1.47946
|104>    H        1.58728         3.45711         1.47917
|105>    H       -0.86503         4.34417         1.49698
|106>    H       -4.08924         9.62832         1.17270
|107>    H       -1.00286        13.22361         1.44149
|108>    H       -1.63925        13.02345         3.09229
|109>    H       -2.33632        14.23214         2.01001
|110>    H       -6.09184        10.66357        -0.42385
|111>    H       -6.26800        11.84768        -1.72345
|112>    H       -7.38377        11.86724        -0.33533
|113>    H       -4.47438        15.04548         1.28560
|114>    H       -6.04850        20.68168        -0.71559
|115>    H       -8.55278        20.57304        -3.77057
|116>    H       -6.15304        25.44922        -0.62506
|117>    H       -9.00938        25.93435        -4.68216
|118>    H       -8.86205        28.33707        -4.50358
|119>    H       -8.03425        30.35205        -3.35552
|120>    H       -6.62089        30.14740        -1.34882
|121>    H       -6.02287        27.92287        -0.47345
|122> *
|123>
|124>                          ****END OF INPUT****

CARTESIAN COORDINATES (ANGSTROEM)
---------------------------------
  C      3.866230    5.201960    3.422930
  C      3.325870    5.866580    4.492600
  C      4.085560    6.618250    5.411000
  N      4.660840    7.255860    6.172530
  C      1.959550    5.790440    4.831250
  N      0.857110    5.717040    5.143330
  C      5.290110    5.005100    3.180820
  C      5.451400    3.853170    2.355510
  C      6.687390    3.400910    1.993190
  C      7.833770    4.098770    2.436390
  C      7.677010    5.260690    3.246860
  C      6.385060    5.701490    3.614900
  C      8.829050    5.951880    3.673460
  C     10.077400    5.516260    3.321150
  C     10.231130    4.371320    2.525170
  C      9.133540    3.677620    2.092720
  C      4.125050    3.320410    1.994570
  O      3.862750    2.326240    1.359460
  C      3.151830    4.324830    2.518620
  C      1.888520    4.350220    2.019210
  C      0.950940    5.410580    1.991660
  C     -0.393040    5.294090    1.672570
  C     -1.037810    6.527440    1.641600
  C     -0.168310    7.600870    1.907690
  S      1.423770    7.094190    2.210410
  C     -0.904630    8.813840    1.824780
  C     -2.233260    8.502770    1.510740
  C     -2.364610    7.062090    1.375010
  C     -3.492150    6.375970    1.031170
  C     -4.699110    7.049830    0.747830
  N     -5.663710    7.618910    0.500820
  C     -3.515870    4.970730    0.907330
  N     -3.537080    3.829900    0.798370
  C     -3.039800    9.642930    1.406400
  C     -2.328290   10.790650    1.644580
  S     -0.648910   10.492940    1.986240
  C     -2.880230   12.182190    1.551480
  C     -1.898020   13.237550    2.058290
  N     -3.043490   12.375640    0.093610
  N     -4.075640   12.520670   -0.504450
  C     -5.428810   12.657340    0.082060
  C     -5.408230   12.427130    1.548550
  C     -4.186890   12.233500    2.255200
  N     -4.477360   12.081430    3.515330
  O     -5.808650   12.179990    3.607780
  N     -6.379100   12.390990    2.415390
  C     -6.358140   11.693710   -0.651140
  C     -5.749060   14.099070   -0.179890
  C     -5.169500   15.156030    0.473480
  C     -5.598350   16.384350   -0.041900
  C     -6.512210   16.235390   -1.092720
  S     -6.829560   14.594650   -1.450030
  C     -6.880200   17.529030   -1.552720
  C     -6.188270   18.490940   -0.784790
  C     -5.349810   17.798140    0.181360
  C     -4.470780   18.328990    1.078820
  C     -4.254190   19.714480    1.242580
  N     -4.047000   20.829760    1.403810
  C     -3.680230   17.491190    1.894530
  N     -3.032380   16.790170    2.530870
  C     -6.463030   19.797460   -1.167060
  C     -7.361280   19.855300   -2.224460
  S     -7.864980   18.235700   -2.738710
  C     -7.909120   20.919750   -2.970770
  C     -7.763720   22.274980   -2.868140
  C     -8.379900   23.224440   -3.786700
  C     -9.110890   22.941050   -4.912020
  C     -9.668890   23.923170   -5.759110
  N    -10.154330   24.660030   -6.493510
  C     -9.417170   21.661460   -5.421300
  N     -9.709350   20.666300   -5.916260
  C     -8.056800   24.569280   -3.324510
  C     -7.242110   24.464680   -2.163160
  C     -7.023730   23.047850   -1.837070
  O     -6.377930   22.629350   -0.899050
  C     -6.770690   25.562960   -1.503540
  C     -7.100360   26.848170   -1.987130
  C     -7.918300   26.964760   -3.148170
  C     -8.391330   25.807420   -3.808050
  C     -8.242310   28.252160   -3.623000
  C     -7.781040   29.370570   -2.983640
  C     -6.975770   29.254120   -1.840660
  C     -6.642540   28.019620   -1.352850
  H      6.791010    2.521490    1.375170
  H      6.290670    6.588960    4.221470
  H      8.705450    6.830730    4.289070
  H     10.953760    6.051420    3.654690
  H     11.223490    4.041850    2.256130
  H      9.246030    2.795580    1.479460
  H      1.587280    3.457110    1.479170
  H     -0.865030    4.344170    1.496980
  H     -4.089240    9.628320    1.172700
  H     -1.002860   13.223610    1.441490
  H     -1.639250   13.023450    3.092290
  H     -2.336320   14.232140    2.010010
  H     -6.091840   10.663570   -0.423850
  H     -6.268000   11.847680   -1.723450
  H     -7.383770   11.867240   -0.335330
  H     -4.474380   15.045480    1.285600
  H     -6.048500   20.681680   -0.715590
  H     -8.552780   20.573040   -3.770570
  H     -6.153040   25.449220   -0.625060
  H     -9.009380   25.934350   -4.682160
  H     -8.862050   28.337070   -4.503580
  H     -8.034250   30.352050   -3.355520
  H     -6.620890   30.147400   -1.348820
  H     -6.022870   27.922870   -0.473450

 Total Charge           Charge          ....    0
 Multiplicity           Mult            ....    1
 Number of Electrons    NEL             ....  580
 Basis Dimension        Dim             .... 1298

ORBITAL ENERGIES
----------------

  NO   OCC          E(Eh)            E(eV)
   0   2.0000     -89.006227     -2421.9826
   1   2.0000     -89.003665     -2421.9129
   2   2.0000     -89.001731     -2421.8602
   3   2.0000     -89.000763     -2421.8339
   4   2.0000     -19.356473      -526.7164
   5   2.0000     -19.221318      -523.0386
   6   2.0000     -19.217283      -522.9289
   7   2.0000     -14.493781      -394.3958
   8   2.0000     -14.493517      -394.3886
   9   2.0000     -14.484069      -394.1316
  10   2.0000     -14.483591      -394.1185
  11   2.0000     -14.443486      -393.0272
  12   2.0000     -14.440989      -392.9593
  13   2.0000     -14.436947      -392.8493
  14   2.0000     -14.434701      -392.7882
  15   2.0000     -14.421030      -392.4162
  16   2.0000     -14.419780      -392.3822
  17   2.0000     -14.419038      -392.3620
  18   2.0000     -14.415642      -392.2696
  19   2.0000     -10.375072      -282.3201
  20   2.0000     -10.373499      -282.2773
  21   2.0000     -10.372152      -282.2406
  22   2.0000     -10.369445      -282.1669
  23   2.0000     -10.362085      -281.9667
  24   2.0000     -10.361544      -281.9520
  25   2.0000     -10.361358      -281.9469
  26   2.0000     -10.360526      -281.9243
  27   2.0000     -10.352251      -281.6991
  28   2.0000     -10.349452      -281.6229
  29   2.0000     -10.348090      -281.5858
  30   2.0000     -10.346454      -281.5413
  31   2.0000     -10.344468      -281.4873
  32   2.0000     -10.344357      -281.4843
  33   2.0000     -10.343784      -281.4687
  34   2.0000     -10.343747      -281.4677
  35   2.0000     -10.341549      -281.4079
  36   2.0000     -10.341134      -281.3966
  37   2.0000     -10.340995      -281.3928
  38   2.0000     -10.340524      -281.3800
  39   2.0000     -10.339570      -281.3540
  40   2.0000     -10.336823      -281.2793
  41   2.0000     -10.336460      -281.2694
  42   2.0000     -10.333816      -281.1974
  43   2.0000     -10.333610      -281.1918
  44   2.0000     -10.332722      -281.1677
  45   2.0000     -10.331458      -281.1333
  46   2.0000     -10.328518      -281.0533
  47   2.0000     -10.324025      -280.9310
  48   2.0000     -10.322105      -280.8787
  49   2.0000     -10.320626      -280.8385
  50   2.0000     -10.318956      -280.7931
  51   2.0000     -10.318410      -280.7782
  52   2.0000     -10.318376      -280.7773
  53   2.0000     -10.315669      -280.7036
  54   2.0000     -10.313867      -280.6546
  55   2.0000     -10.313403      -280.6420
  56   2.0000     -10.312792      -280.6253
  57   2.0000     -10.311505      -280.5903
  58   2.0000     -10.310145      -280.5533
  59   2.0000     -10.307269      -280.4750
  60   2.0000     -10.306083      -280.4428
  61   2.0000     -10.304066      -280.3879
  62   2.0000     -10.302820      -280.3540
  63   2.0000     -10.301173      -280.3092
  64   2.0000     -10.300773      -280.2983
  65   2.0000     -10.300576      -280.2929
  66   2.0000     -10.300287      -280.2851
  67   2.0000     -10.298706      -280.2420
  68   2.0000     -10.298474      -280.2357
  69   2.0000     -10.297986      -280.2224
  70   2.0000     -10.297329      -280.2046
  71   2.0000     -10.292987      -280.0864
  72   2.0000     -10.292932      -280.0849
  73   2.0000     -10.291201      -280.0378
  74   2.0000     -10.289340      -279.9872
  75   2.0000     -10.289285      -279.9857
  76   2.0000     -10.288930      -279.9760
  77   2.0000     -10.288710      -279.9700
  78   2.0000     -10.288297      -279.9588
  79   2.0000     -10.287495      -279.9370
  80   2.0000     -10.286910      -279.9211
  81   2.0000     -10.286742      -279.9165
  82   2.0000     -10.286310      -279.9047
  83   2.0000      -8.100335      -220.4213
  84   2.0000      -8.097827      -220.3531
  85   2.0000      -8.096389      -220.3140
  86   2.0000      -8.094947      -220.2747
  87   2.0000      -6.069523      -165.1601
  88   2.0000      -6.067035      -165.0924
  89   2.0000      -6.065461      -165.0496
  90   2.0000      -6.065278      -165.0446
  91   2.0000      -6.064169      -165.0144
  92   2.0000      -6.062959      -164.9815
  93   2.0000      -6.062723      -164.9751
  94   2.0000      -6.061284      -164.9359
  95   2.0000      -6.060460      -164.9135
  96   2.0000      -6.059929      -164.8991
  97   2.0000      -6.059055      -164.8753
  98   2.0000      -6.057437      -164.8313
  99   2.0000      -1.314160       -35.7601
 100   2.0000      -1.169472       -31.8229
 101   2.0000      -1.136744       -30.9324
 102   2.0000      -1.132979       -30.8299
 103   2.0000      -1.058083       -28.7919
 104   2.0000      -1.056627       -28.7523
 105   2.0000      -1.032962       -28.1083
 106   2.0000      -1.031574       -28.0706
 107   2.0000      -1.028633       -27.9905
 108   2.0000      -1.023528       -27.8516
 109   2.0000      -1.021740       -27.8029
 110   2.0000      -1.016622       -27.6637
 111   2.0000      -1.015834       -27.6423
 112   2.0000      -1.013790       -27.5866
 113   2.0000      -1.011096       -27.5133
 114   2.0000      -1.001961       -27.2648
 115   2.0000      -1.001478       -27.2516
 116   2.0000      -0.998495       -27.1704
 117   2.0000      -0.996455       -27.1149
 118   2.0000      -0.995725       -27.0951
 119   2.0000      -0.979102       -26.6427
 120   2.0000      -0.975252       -26.5379
 121   2.0000      -0.972187       -26.4546
 122   2.0000      -0.968304       -26.3489
 123   2.0000      -0.953816       -25.9546
 124   2.0000      -0.933200       -25.3937
 125   2.0000      -0.930020       -25.3071
 126   2.0000      -0.924602       -25.1597
 127   2.0000      -0.919294       -25.0153
 128   2.0000      -0.907975       -24.7073
 129   2.0000      -0.900449       -24.5025
 130   2.0000      -0.895553       -24.3692
 131   2.0000      -0.885433       -24.0939
 132   2.0000      -0.883822       -24.0500
 133   2.0000      -0.882422       -24.0119
 134   2.0000      -0.881507       -23.9870
 135   2.0000      -0.869289       -23.6546
 136   2.0000      -0.868066       -23.6213
 137   2.0000      -0.867447       -23.6044
 138   2.0000      -0.866728       -23.5849
 139   2.0000      -0.831642       -22.6301
 140   2.0000      -0.829552       -22.5733
 141   2.0000      -0.822581       -22.3836
 142   2.0000      -0.821006       -22.3407
 143   2.0000      -0.799374       -21.7521
 144   2.0000      -0.797497       -21.7010
 145   2.0000      -0.789880       -21.4937
 146   2.0000      -0.788089       -21.4450
 147   2.0000      -0.779192       -21.2029
 148   2.0000      -0.776429       -21.1277
 149   2.0000      -0.769468       -20.9383
 150   2.0000      -0.764919       -20.8145
 151   2.0000      -0.763029       -20.7631
 152   2.0000      -0.739789       -20.1307
 153   2.0000      -0.734238       -19.9796
 154   2.0000      -0.718416       -19.5491
 155   2.0000      -0.713961       -19.4279
 156   2.0000      -0.713235       -19.4081
 157   2.0000      -0.706651       -19.2290
 158   2.0000      -0.705062       -19.1857
 159   2.0000      -0.702431       -19.1141
 160   2.0000      -0.698723       -19.0132
 161   2.0000      -0.693059       -18.8591
 162   2.0000      -0.691417       -18.8144
 163   2.0000      -0.688680       -18.7399
 164   2.0000      -0.680944       -18.5294
 165   2.0000      -0.679107       -18.4794
 166   2.0000      -0.671456       -18.2712
 167   2.0000      -0.662690       -18.0327
 168   2.0000      -0.658436       -17.9170
 169   2.0000      -0.652063       -17.7435
 170   2.0000      -0.644884       -17.5482
 171   2.0000      -0.640272       -17.4227
 172   2.0000      -0.638047       -17.3621
 173   2.0000      -0.637126       -17.3371
 174   2.0000      -0.635234       -17.2856
 175   2.0000      -0.630167       -17.1477
 176   2.0000      -0.627001       -17.0616
 177   2.0000      -0.619995       -16.8709
 178   2.0000      -0.612568       -16.6688
 179   2.0000      -0.612137       -16.6571
 180   2.0000      -0.610784       -16.6203
 181   2.0000      -0.607262       -16.5244
 182   2.0000      -0.599181       -16.3045
 183   2.0000      -0.597224       -16.2513
 184   2.0000      -0.586806       -15.9678
 185   2.0000      -0.583939       -15.8898
 186   2.0000      -0.570077       -15.5126
 187   2.0000      -0.566833       -15.4243
 188   2.0000      -0.559042       -15.2123
 189   2.0000      -0.558112       -15.1870
 190   2.0000      -0.556734       -15.1495
 191   2.0000      -0.554095       -15.0777
 192   2.0000      -0.551773       -15.0145
 193   2.0000      -0.549613       -14.9557
 194   2.0000      -0.548553       -14.9269
 195   2.0000      -0.543891       -14.8000
 196   2.0000      -0.543098       -14.7785
 197   2.0000      -0.540703       -14.7133
 198   2.0000      -0.540040       -14.6952
 199   2.0000      -0.538418       -14.6511
 200   2.0000      -0.532418       -14.4878
 201   2.0000      -0.528671       -14.3859
 202   2.0000      -0.527085       -14.3427
 203   2.0000      -0.522545       -14.2192
 204   2.0000      -0.521993       -14.2041
 205   2.0000      -0.520616       -14.1667
 206   2.0000      -0.518859       -14.1189
 207   2.0000      -0.516167       -14.0456
 208   2.0000      -0.515125       -14.0173
 209   2.0000      -0.514232       -13.9930
 210   2.0000      -0.513303       -13.9677
 211   2.0000      -0.511057       -13.9066
 212   2.0000      -0.509594       -13.8668
 213   2.0000      -0.505958       -13.7678
 214   2.0000      -0.505493       -13.7552
 215   2.0000      -0.503320       -13.6960
 216   2.0000      -0.500348       -13.6152
 217   2.0000      -0.499786       -13.5999
 218   2.0000      -0.498631       -13.5684
 219   2.0000      -0.497221       -13.5301
 220   2.0000      -0.495676       -13.4880
 221   2.0000      -0.494478       -13.4554
 222   2.0000      -0.489998       -13.3335
 223   2.0000      -0.488298       -13.2873
 224   2.0000      -0.485081       -13.1997
 225   2.0000      -0.484435       -13.1821
 226   2.0000      -0.480840       -13.0843
 227   2.0000      -0.479174       -13.0390
 228   2.0000      -0.476996       -12.9797
 229   2.0000      -0.471467       -12.8293
 230   2.0000      -0.470801       -12.8112
 231   2.0000      -0.468614       -12.7516
 232   2.0000      -0.466634       -12.6978
 233   2.0000      -0.465457       -12.6657
 234   2.0000      -0.463867       -12.6225
 235   2.0000      -0.460391       -12.5279
 236   2.0000      -0.457303       -12.4438
 237   2.0000      -0.455065       -12.3829
 238   2.0000      -0.453561       -12.3420
 239   2.0000      -0.452614       -12.3162
 240   2.0000      -0.451780       -12.2936
 241   2.0000      -0.450130       -12.2487
 242   2.0000      -0.449067       -12.2197
 243   2.0000      -0.448679       -12.2092
 244   2.0000      -0.447917       -12.1884
 245   2.0000      -0.447391       -12.1741
 246   2.0000      -0.446848       -12.1593
 247   2.0000      -0.446606       -12.1528
 248   2.0000      -0.445861       -12.1325
 249   2.0000      -0.442765       -12.0482
 250   2.0000      -0.441252       -12.0071
 251   2.0000      -0.438835       -11.9413
 252   2.0000      -0.436298       -11.8723
 253   2.0000      -0.435793       -11.8585
 254   2.0000      -0.435657       -11.8548
 255   2.0000      -0.434765       -11.8305
 256   2.0000      -0.433380       -11.7929
 257   2.0000      -0.432699       -11.7743
 258   2.0000      -0.431508       -11.7419
 259   2.0000      -0.429744       -11.6939
 260   2.0000      -0.427457       -11.6317
 261   2.0000      -0.421394       -11.4667
 262   2.0000      -0.420613       -11.4455
 263   2.0000      -0.414073       -11.2675
 264   2.0000      -0.412218       -11.2170
 265   2.0000      -0.411173       -11.1886
 266   2.0000      -0.407463       -11.0876
 267   2.0000      -0.406695       -11.0667
 268   2.0000      -0.404786       -11.0148
 269   2.0000      -0.402193       -10.9442
 270   2.0000      -0.394544       -10.7361
 271   2.0000      -0.386893       -10.5279
 272   2.0000      -0.386312       -10.5121
 273   2.0000      -0.375474       -10.2172
 274   2.0000      -0.375201       -10.2097
 275   2.0000      -0.360287        -9.8039
 276   2.0000      -0.356611        -9.7039
 277   2.0000      -0.347162        -9.4468
 278   2.0000      -0.344093        -9.3632
 279   2.0000      -0.341568        -9.2945
 280   2.0000      -0.336262        -9.1501
 281   2.0000      -0.331987        -9.0338
 282   2.0000      -0.329901        -8.9771
 283   2.0000      -0.319619        -8.6973
 284   2.0000      -0.318812        -8.6753
 285   2.0000      -0.309086        -8.4107
 286   2.0000      -0.298759        -8.1297
 287   2.0000      -0.296695        -8.0735
 288   2.0000      -0.279419        -7.6034
 289   2.0000      -0.276106        -7.5132
 290   0.0000      -0.118405        -3.2220
 291   0.0000      -0.116600        -3.1728
 292   0.0000      -0.094545        -2.5727
 293   0.0000      -0.093163        -2.5351
 294   0.0000      -0.060478        -1.6457

MULLIKEN ATOMIC CHARGES
-----------------------
   0 C :    0.243016
   1 C :   -0.324233
   2 C :   -0.173616
   3 N :    0.157857
   4 C :   -0.210437
   5 N :    0.175003
   6 C :    0.035990
   7 C :    0.012132
   8 C :   -0.078613
   9 C :    0.092537
  10 C :    0.092980
  11 C :   -0.078018
  12 C :   -0.017399
  13 C :    0.036452
  14 C :    0.036016
  15 C :   -0.014305
  16 C :    0.143662
  17 O :   -0.140305
  18 C :   -0.140547
  19 C :    0.047803
  20 C :   -0.086316
  21 C :    0.004414
  22 C :    0.022921
  23 C :   -0.082368
  24 S :    0.208774
  25 C :   -0.099414
  26 C :    0.008013
  27 C :    0.296255
  28 C :   -0.284016
  29 C :   -0.183814
  30 N :    0.166507
  31 C :   -0.190463
  32 N :    0.181499
  33 C :   -0.025483
  34 C :   -0.025937
  35 S :    0.214065
  36 C :   -0.113511
  37 C :    0.114276
  38 N :   -0.076710
  39 N :   -0.077411
  40 C :   -0.118918
  41 C :   -0.091948
  42 C :   -0.090688
  43 N :    0.077062
  44 O :   -0.119011
  45 N :    0.076547
  46 C :    0.105399
  47 C :   -0.023758
  48 C :   -0.024660
  49 C :    0.009689
  50 C :   -0.102699
  51 S :    0.217142
  52 C :   -0.083466
  53 C :   -0.002715
  54 C :    0.307957
  55 C :   -0.294633
  56 C :   -0.189948
  57 N :    0.199174
  58 C :   -0.179718
  59 N :    0.166374
  60 C :   -0.010388
  61 C :   -0.116940
  62 S :    0.209898
  63 C :    0.039938
  64 C :   -0.085358
  65 C :    0.327608
  66 C :   -0.365184
  67 C :   -0.184053
  68 N :    0.149044
  69 C :   -0.178887
  70 N :    0.142999
  71 C :    0.045129
  72 C :   -0.003237
  73 C :    0.158645
  74 O :   -0.148488
  75 C :   -0.078196
  76 C :    0.097040
  77 C :    0.095100
  78 C :   -0.079718
  79 C :   -0.018764
  80 C :    0.036480
  81 C :    0.037330
  82 C :   -0.016308
  83 H :   -0.010018
  84 H :   -0.005651
  85 H :   -0.010561
  86 H :   -0.003780
  87 H :   -0.004470
  88 H :   -0.015725
  89 H :    0.032962
  90 H :    0.019411
  91 H :    0.001768
  92 H :    0.040412
  93 H :    0.048145
  94 H :    0.033069
  95 H :    0.042096
  96 H :    0.042528
  97 H :    0.047018
  98 H :   -0.002495
  99 H :    0.037624
 100 H :   -0.000861
 101 H :   -0.008486
 102 H :   -0.008725
 103 H :   -0.007874
 104 H :   -0.004701
 105 H :   -0.004363
 106 H :   -0.015452
Sum of atomic charges:   -0.0000000

LOEWDIN ATOMIC CHARGES
----------------------
   0 C :    0.060225
   1 C :   -0.145055
   2 C :   -0.020249
   3 N :   -0.049210
   4 C :   -0.037980
   5 N :   -0.046406
   6 C :   -0.023544
   7 C :   -0.057020
   8 C :    0.033590
   9 C :   -0.008816
  10 C :   -0.005438
  11 C :    0.016030
  12 C :   -0.006545
  13 C :   -0.011975
  14 C :   -0.012046
  15 C :   -0.008634
  16 C :    0.084038
  17 O :   -0.141071
  18 C :   -0.098321
  19 C :    0.050838
  20 C :   -0.177526
  21 C :    0.014711
  22 C :   -0.074666
  23 C :   -0.151139
  24 S :    0.516662
  25 C :   -0.187038
  26 C :   -0.055441
  27 C :    0.082947
  28 C :   -0.098700
  29 C :   -0.008965
  30 N :   -0.038139
  31 C :   -0.018861
  32 N :   -0.024521
  33 C :   -0.028907
  34 C :   -0.155918
  35 S :    0.513915
  36 C :   -0.049051
  37 C :   -0.036232
  38 N :   -0.012634
  39 N :   -0.013426
  40 C :   -0.048797
  41 C :   -0.071908
  42 C :   -0.071728
  43 N :   -0.001905
  44 O :    0.057856
  45 N :   -0.004052
  46 C :   -0.036099
  47 C :   -0.154776
  48 C :   -0.032140
  49 C :   -0.053796
  50 C :   -0.188934
  51 S :    0.511891
  52 C :   -0.158197
  53 C :   -0.076442
  54 C :    0.079277
  55 C :   -0.095707
  56 C :   -0.024909
  57 N :   -0.010935
  58 C :   -0.004067
  59 N :   -0.038702
  60 C :    0.017320
  61 C :   -0.175816
  62 S :    0.503916
  63 C :    0.041578
  64 C :   -0.093515
  65 C :    0.078308
  66 C :   -0.142985
  67 C :   -0.016844
  68 N :   -0.053989
  69 C :   -0.022819
  70 N :   -0.054992
  71 C :   -0.027367
  72 C :   -0.055939
  73 C :    0.087999
  74 O :   -0.136847
  75 C :    0.034333
  76 C :   -0.007895
  77 C :   -0.006234
  78 C :    0.020496
  79 C :   -0.005136
  80 C :   -0.012854
  81 C :   -0.011224
  82 C :   -0.008920
  83 H :    0.040036
  84 H :    0.038567
  85 H :    0.034274
  86 H :    0.033558
  87 H :    0.033086
  88 H :    0.032391
  89 H :    0.055391
  90 H :    0.047675
  91 H :    0.036947
  92 H :    0.031581
  93 H :    0.039355
  94 H :    0.035741
  95 H :    0.040605
  96 H :    0.031846
  97 H :    0.038889
  98 H :    0.035729
  99 H :    0.042839
 100 H :    0.041815
 101 H :    0.040648
 102 H :    0.038986
 103 H :    0.035014
 104 H :    0.033298
 105 H :    0.033121
 106 H :    0.032626

  Mayer bond orders larger than 0.100000
B(  0-C ,  1-C ) :   1.6556 B(  0-C ,  6-C ) :   1.0048 B(  0-C , 18-C ) :   1.0303
B(  1-C ,  2-C ) :   1.1350 B(  1-C ,  4-C ) :   1.1532 B(  2-C ,  3-N ) :   2.9929
B(  4-C ,  5-N ) :   3.0234 B(  6-C ,  7-C ) :   1.2147 B(  6-C , 11-C ) :   1.4588
B(  7-C ,  8-C ) :   1.4767 B(  7-C , 16-C ) :   0.9210 B(  8-C ,  9-C ) :   1.1857
B(  8-C , 83-H ) :   1.0156 B(  9-C , 10-C ) :   1.2572 B(  9-C , 15-C ) :   1.2447
B( 10-C , 11-C ) :   1.2038 B( 10-C , 12-C ) :   1.2419 B( 11-C , 84-H ) :   0.9945
B( 12-C , 13-C ) :   1.4887 B( 12-C , 85-H ) :   0.9975 B( 13-C , 14-C ) :   1.2611
B( 13-C , 86-H ) :   0.9890 B( 14-C , 15-C ) :   1.4887 B( 14-C , 87-H ) :   0.9893
B( 15-C , 88-H ) :   0.9978 B( 16-C , 17-O ) :   2.2731 B( 16-C , 18-C ) :   0.9347
B( 18-C , 19-C ) :   1.6472 B( 19-C , 20-C ) :   1.1437 B( 19-C , 89-H ) :   0.9457
B( 20-C , 21-C ) :   1.4063 B( 20-C , 24-S ) :   1.0864 B( 21-C , 22-C ) :   1.2979
B( 21-C , 90-H ) :   1.0034 B( 22-C , 23-C ) :   1.4141 B( 22-C , 27-C ) :   0.9903
B( 23-C , 24-S ) :   1.1673 B( 23-C , 25-C ) :   1.1912 B( 25-C , 26-C ) :   1.4507
B( 25-C , 35-S ) :   1.1266 B( 26-C , 27-C ) :   1.0065 B( 26-C , 33-C ) :   1.2871
B( 27-C , 28-C ) :   1.7179 B( 28-C , 29-C ) :   1.1307 B( 28-C , 31-C ) :   1.1298
B( 29-C , 30-N ) :   2.9950 B( 31-C , 32-N ) :   2.9973 B( 33-C , 34-C ) :   1.5017
B( 33-C , 91-H ) :   0.9927 B( 34-C , 35-S ) :   1.1437 B( 34-C , 36-C ) :   0.9708
B( 36-C , 37-C ) :   1.0900 B( 36-C , 38-N ) :   0.9454 B( 36-C , 42-C ) :   0.9239
B( 37-C , 92-H ) :   0.9375 B( 37-C , 93-H ) :   0.9533 B( 37-C , 94-H ) :   0.9438
B( 38-N , 39-N ) :   1.8509 B( 39-N , 40-C ) :   0.9421 B( 40-C , 41-C ) :   0.9264
B( 40-C , 46-C ) :   1.0906 B( 40-C , 47-C ) :   0.9700 B( 41-C , 42-C ) :   1.2063
B( 41-C , 45-N ) :   1.7431 B( 42-C , 43-N ) :   1.7408 B( 43-N , 44-O ) :   1.0516
B( 43-N , 45-N ) :   0.1527 B( 44-O , 45-N ) :   1.0513 B( 46-C , 95-H ) :   0.9484
B( 46-C , 96-H ) :   0.9409 B( 46-C , 97-H ) :   0.9561 B( 47-C , 48-C ) :   1.4970
B( 47-C , 51-S ) :   1.1442 B( 48-C , 49-C ) :   1.2893 B( 48-C , 98-H ) :   0.9899
B( 49-C , 50-C ) :   1.4526 B( 49-C , 54-C ) :   1.0069 B( 50-C , 51-S ) :   1.1238
B( 50-C , 52-C ) :   1.1866 B( 52-C , 53-C ) :   1.3925 B( 52-C , 62-S ) :   1.1734
B( 53-C , 54-C ) :   0.9965 B( 53-C , 60-C ) :   1.2975 B( 54-C , 55-C ) :   1.7136
B( 55-C , 56-C ) :   1.1338 B( 55-C , 58-C ) :   1.1382 B( 56-C , 57-N ) :   3.0010
B( 58-C , 59-N ) :   2.9761 B( 60-C , 61-C ) :   1.4066 B( 60-C , 99-H ) :   0.9695
B( 61-C , 62-S ) :   1.0810 B( 61-C , 63-C ) :   1.2127 B( 63-C , 64-C ) :   1.6072
B( 63-C ,100-H ) :   0.9021 B( 64-C , 65-C ) :   1.0805 B( 64-C , 73-C ) :   0.9314
B( 65-C , 66-C ) :   1.6132 B( 65-C , 71-C ) :   0.9843 B( 66-C , 67-C ) :   1.1530
B( 66-C , 69-C ) :   1.1401 B( 67-C , 68-N ) :   2.9606 B( 69-C , 70-N ) :   2.9521
B( 71-C , 72-C ) :   1.2158 B( 71-C , 78-C ) :   1.4468 B( 72-C , 73-C ) :   0.9578
B( 72-C , 75-C ) :   1.4701 B( 73-C , 74-O ) :   2.1613 B( 74-O , 99-H ) :   0.1044
B( 75-C , 76-C ) :   1.1766 B( 75-C ,101-H ) :   1.0170 B( 76-C , 77-C ) :   1.2558
B( 76-C , 82-C ) :   1.2442 B( 77-C , 78-C ) :   1.2086 B( 77-C , 79-C ) :   1.2395
B( 78-C ,102-H ) :   0.9886 B( 79-C , 80-C ) :   1.4886 B( 79-C ,103-H ) :   0.9974
B( 80-C , 81-C ) :   1.2596 B( 80-C ,104-H ) :   0.9890 B( 81-C , 82-C ) :   1.4881
B( 81-C ,105-H ) :   0.9891 B( 82-C ,106-H ) :   0.9979

-----------------------------------------------------------------------------
         ABSORPTION SPECTRUM VIA TRANSITION ELECTRIC DIPOLE MOMENTS
-----------------------------------------------------------------------------
State   Energy  Wavelength   fosc         T2         TX        TY        TZ
        (cm-1)    (nm)                  (au**2)     (au)      (au)      (au)
-----------------------------------------------------------------------------
   0   15594.3    641.3   0.184490213   3.89478  -1.26038   1.42674  -0.52023
   1   16112.4    620.6   0.126927267   2.59340  -0.37539   1.46216  -0.56086
   2   21987.4    454.8   0.881679943  13.20115  -2.79117   1.83103  -1.43452
   3   22937.0    436.0   0.695860083   9.98759  -0.69477   2.83129  -1.22011
   4   23493.9    425.6   0.220267482   3.08653   0.59233  -1.33912   0.97079
   5   24156.9    414.0   0.000724926   0.00988  -0.03801  -0.06445   0.06543
   6   25261.6    395.9   0.071684994   0.93421   0.92942  -0.12928  -0.23169
   7   25443.2    393.0   0.130683884   1.69093  -0.07833   1.28809  -0.16006
   8   26179.2    382.0   0.005375461   0.06760  -0.00557   0.25311  -0.05918
   9   26989.9    370.5   0.000394345   0.00481   0.01804   0.03708  -0.05576
  10   27470.2    364.0   0.010821299   0.12969  -0.06083  -0.19929  -0.29372
  11   27759.1    360.2   0.000054161   0.00064   0.00454  -0.02413  -0.00628
  12   28180.1    354.9   0.034581884   0.40400  -0.21570   0.56971  -0.18140
  13   28888.0    346.2   0.007503050   0.08551  -0.28924   0.04196  -0.00932
  14   29162.4    342.9   0.015572436   0.17580  -0.20924   0.35796   0.06228
  15   29341.4    340.8   0.010405818   0.11675   0.01627   0.27239  -0.20566
  16   29670.7    337.0   0.037548703   0.41662   0.29443   0.57006   0.07044
  17   30448.0    328.4   0.297081977   3.21213   0.16282   1.72329   0.46463
  18   30669.3    326.1   0.144824095   1.55458   1.13827   0.33748  -0.38083
  19   30792.8    324.8   0.640186971   6.84436   2.48250   0.04971   0.82408
  20   31223.0    320.3   0.417772216   4.40495  -1.72414   1.06112   0.55346
  21   31553.4    316.9   0.052392176   0.54663   0.02381   0.72461  -0.14492
  22   31800.6    314.5   0.569525580   5.89594  -1.20841  -1.75891  -1.15841
  23   32470.9    308.0   0.038952728   0.39493   0.40517   0.47948   0.02940
  24   32681.1    306.0   0.090227416   0.90890  -0.13769  -0.91044  -0.24708
  25   32861.0    304.3   0.292952572   2.93489   1.10273  -1.27423  -0.30854
  26   32912.3    303.8   0.290926343   2.91005  -1.11731  -1.24653  -0.32837
  27   32979.3    303.2   0.200681233   2.00327  -0.70951   1.15405   0.40993
  28   33425.2    299.2   0.000210491   0.00207   0.01327  -0.02054  -0.03841
  29   33467.5    298.8   0.050556234   0.49731  -0.01608  -0.66501   0.23411
  30   33636.1    297.3   0.001807792   0.01769   0.02659  -0.08489  -0.09890
  31   33714.9    296.6   0.043499797   0.42476   0.14400  -0.58116  -0.25744
  32   33898.8    295.0   0.000461792   0.00448   0.01364   0.03326   0.05650
  33   33975.2    294.3   0.256983479   2.49011   0.79831   0.64203   1.20026
  34   34422.9    290.5   0.328014070   3.13704  -0.40238  -1.63040  -0.56295
  35   34658.2    288.5   0.276338506   2.62489   1.18769   0.98706   0.48989
  36   35020.1    285.6   0.423408327   3.98032  -1.82766   0.39917   0.69328
  37   35147.1    284.5   0.073332563   0.68688   0.69775   0.11270   0.43281
  38   35531.2    281.4   0.062930295   0.58308  -0.58582  -0.25445  -0.41851
  39   35833.3    279.1   0.026387930   0.24243  -0.17419   0.45653   0.06061
  40   35848.6    279.0   0.019014175   0.17461  -0.02661   0.40911   0.08083
  41   36153.3    276.6   0.001320829   0.01203   0.10214   0.01977   0.03471
  42   36581.1    273.4   0.103953527   0.93553  -0.84888   0.37226   0.27632
  43   36902.9    271.0   0.004263552   0.03804  -0.02885  -0.19166  -0.02171
  44   37693.3    265.3   0.030492521   0.26632  -0.20636   0.39853  -0.25477
  45   37942.0    263.6   0.469584700   4.07445   1.00102  -1.48022   0.93880
  46   38313.7    261.0   0.026362395   0.22652  -0.20476  -0.31169  -0.29571
  47   38408.5    260.4   0.054776168   0.46951   0.48188   0.08757   0.47920
  48   38579.0    259.2   0.060346109   0.51496   0.04449  -0.46609   0.54382
  49   38759.6    258.0   0.052639434   0.44710  -0.45833   0.01793  -0.48654
  50   39565.3    252.7   0.001545706   0.01286   0.02174  -0.09738   0.05391
  51   39622.7    252.4   0.002644797   0.02197   0.05292  -0.06976   0.11961
  52   39723.4    251.7   0.005620647   0.04658  -0.05619  -0.20298   0.04717
  53   39968.1    250.2   0.001555903   0.01282   0.01020   0.11094  -0.02010
  54   40058.7    249.6   0.002367423   0.01946   0.11642  -0.07664  -0.00541
  55   40132.3    249.2   0.024331866   0.19960   0.21763   0.10456   0.37590

FINAL SINGLE POINT ENERGY     -4923.690939210446

DIPOLE MOMENT
-------------
                                X             Y             Z
Electronic contribution:    -22.79748     -18.74683       1.62933
Nuclear contribution   :     25.47208      20.15803      -2.43032
                        -----------------------------------------
Total Dipole Moment    :      2.67461       1.41120      -0.80099
                        -----------------------------------------
Magnitude (a.u.)       :      3.12835
Magnitude (Debye)      :      7.95165

Rotational constants in cm-1:     0.001531     0.000170     0.000160
Rotational constants in MHz :    45.888899     5.096333     4.808820

                             ****ORCA TERMINATED NORMALLY****
TOTAL RUN TIME: 0 days 0 hours 12 minutes 30 seconds 908 msec
