                         Program Version 4.2.0 -  RELEASE  -
|  1> # ORCA input file
|  2> # SCF done       -166.871630927264          0.000704438499
|  3> ! CAM-B3LYP def2-SVP def2/J RIJCOSX Grid4 TightSCF
|  4> %maxcore 5000
|  5> %tddft
|  6>     Mode sTDDFT
|  7>     Ethresh 5.0
|  8>     maxcore 5000
|  9> end
| 10>
| 11> %pal
| 12>   nprocs 6
| 13>   end
| 14> * xyz 0 1
| 15>    C        1.37109         0.46706         3.07850
| 16>    C        2.06007         0.36737         1.90045
| 17>    C        2.18643        -0.84799         1.21015
| 18>    C        1.62430        -2.02520         1.67286
| 19>    C        0.90094        -1.95090         2.89808
| 20>    C        0.77632        -0.69702         3.60037
| 21>    N        0.07610        -0.77144         4.72803
| 22>   Se       -0.46216        -2.41398         4.96722
| 23>    N        0.29869        -2.97224         3.48899
| 24>    C        1.74574        -3.27469         0.97671
| 25>    C        2.40817        -3.50439        -0.21679
| 26>    C        2.32981        -4.83602        -0.61256
| 27>    C        1.59819        -5.63482         0.29023
| 28>    S        1.01329        -4.73155         1.61995
| 29>    C        1.57740        -6.96446        -0.19988
| 30>    C        2.29852        -6.99630        -1.41421
| 31>    C        2.79292        -5.66285        -1.71066
| 32>    C        3.53311        -5.27669        -2.79019
| 33>    C        3.92464        -6.18003        -3.80064
| 34>    N        4.24999        -6.90343        -4.62880
| 35>    C        3.95713        -3.94348        -2.96688
| 36>    N        4.30326        -2.85946        -3.11117
| 37>    C        2.34482        -8.25557        -1.98715
| 38>    C        1.66538        -9.19993        -1.22525
| 39>    S        0.95881        -8.50326         0.22660
| 40>    C        1.52657       -10.57615        -1.53054
| 41>    C        0.81708       -11.45797        -0.68404
| 42>    C        0.67277       -12.86234        -0.98071
| 43>    N       -0.00907       -13.64960        -0.14169
| 44>    C       -0.54132       -13.13909         0.94383
| 45>    C       -0.39808       -11.74424         1.23843
| 46>    N        0.26756       -10.95616         0.42720
| 47>    C       -0.97530       -11.20038         2.41190
| 48>    N       -1.45346       -10.79106         3.36900
| 49>    C       -1.26105       -13.98373         1.82405
| 50>    N       -1.84710       -14.64112         2.55640
| 51>    C        1.23091       -13.45106        -2.13803
| 52>    C        1.93948       -12.56877        -2.99012
| 53>    C        2.08419       -11.16293        -2.69297
| 54>    N        2.78885       -10.53668        -3.63576
| 55>    S        3.22386       -11.58325        -4.76872
| 56>    N        2.54667       -12.88917        -4.13304
| 57>    C        1.08654       -14.83263        -2.41533
| 58>    C        1.59902       -15.50509        -3.51945
| 59>    C        1.28602       -16.85331        -3.49682
| 60>    C        0.52488       -17.22824        -2.36733
| 61>    S        0.20075       -15.90082        -1.33513
| 62>    C        0.26729       -18.61935        -2.45160
| 63>    C        0.86435       -19.11494        -3.62900
| 64>    C        1.52292       -18.02461        -4.32281
| 65>    C        2.21711       -18.08187        -5.49638
| 66>    C        2.37915       -19.28707        -6.21033
| 67>    N        2.51093       -20.26692        -6.79187
| 68>    C        2.81930       -16.94477        -6.07480
| 69>    N        3.31421       -16.02875        -6.55555
| 70>    C        0.66690       -20.48127        -3.80272
| 71>    C       -0.07331       -21.03676        -2.77338
| 72>    S       -0.53270       -19.84780        -1.57005
| 73>    C       -0.46217       -22.41118        -2.63070
| 74>    C       -0.12664       -23.38791        -3.55229
| 75>    C       -0.51327       -24.72852        -3.40105
| 76>    C       -1.24876       -25.15747        -2.32984
| 77>    C       -1.62074       -24.20996        -1.35773
| 78>    C       -1.22806       -22.82967        -1.50457
| 79>    N       -1.63786       -22.03619        -0.52607
| 80>   Se       -2.54402       -22.98231         0.63988
| 81>    N       -2.33110       -24.46070        -0.26228
| 82>    H        1.27159         1.39807         3.61179
| 83>    H        2.52603         1.24493         1.47816
| 84>    H        2.74398        -0.85244         0.28725
| 85>    H        2.92197        -2.74098        -0.77059
| 86>    H        2.83590        -8.51302        -2.90699
| 87>    H        2.16688       -15.00148        -4.27934
| 88>    H        1.04383       -21.04275        -4.63707
| 89>    H        0.45239       -23.12122        -4.42189
| 90>    H       -0.21462       -25.43461        -4.16118
| 91>    H       -1.54779       -26.18569        -2.20978
| 92> *
| 93>
| 94>                          ****END OF INPUT****

CARTESIAN COORDINATES (ANGSTROEM)
---------------------------------
  C      1.371090    0.467060    3.078500
  C      2.060070    0.367370    1.900450
  C      2.186430   -0.847990    1.210150
  C      1.624300   -2.025200    1.672860
  C      0.900940   -1.950900    2.898080
  C      0.776320   -0.697020    3.600370
  N      0.076100   -0.771440    4.728030
  Se    -0.462160   -2.413980    4.967220
  N      0.298690   -2.972240    3.488990
  C      1.745740   -3.274690    0.976710
  C      2.408170   -3.504390   -0.216790
  C      2.329810   -4.836020   -0.612560
  C      1.598190   -5.634820    0.290230
  S      1.013290   -4.731550    1.619950
  C      1.577400   -6.964460   -0.199880
  C      2.298520   -6.996300   -1.414210
  C      2.792920   -5.662850   -1.710660
  C      3.533110   -5.276690   -2.790190
  C      3.924640   -6.180030   -3.800640
  N      4.249990   -6.903430   -4.628800
  C      3.957130   -3.943480   -2.966880
  N      4.303260   -2.859460   -3.111170
  C      2.344820   -8.255570   -1.987150
  C      1.665380   -9.199930   -1.225250
  S      0.958810   -8.503260    0.226600
  C      1.526570  -10.576150   -1.530540
  C      0.817080  -11.457970   -0.684040
  C      0.672770  -12.862340   -0.980710
  N     -0.009070  -13.649600   -0.141690
  C     -0.541320  -13.139090    0.943830
  C     -0.398080  -11.744240    1.238430
  N      0.267560  -10.956160    0.427200
  C     -0.975300  -11.200380    2.411900
  N     -1.453460  -10.791060    3.369000
  C     -1.261050  -13.983730    1.824050
  N     -1.847100  -14.641120    2.556400
  C      1.230910  -13.451060   -2.138030
  C      1.939480  -12.568770   -2.990120
  C      2.084190  -11.162930   -2.692970
  N      2.788850  -10.536680   -3.635760
  S      3.223860  -11.583250   -4.768720
  N      2.546670  -12.889170   -4.133040
  C      1.086540  -14.832630   -2.415330
  C      1.599020  -15.505090   -3.519450
  C      1.286020  -16.853310   -3.496820
  C      0.524880  -17.228240   -2.367330
  S      0.200750  -15.900820   -1.335130
  C      0.267290  -18.619350   -2.451600
  C      0.864350  -19.114940   -3.629000
  C      1.522920  -18.024610   -4.322810
  C      2.217110  -18.081870   -5.496380
  C      2.379150  -19.287070   -6.210330
  N      2.510930  -20.266920   -6.791870
  C      2.819300  -16.944770   -6.074800
  N      3.314210  -16.028750   -6.555550
  C      0.666900  -20.481270   -3.802720
  C     -0.073310  -21.036760   -2.773380
  S     -0.532700  -19.847800   -1.570050
  C     -0.462170  -22.411180   -2.630700
  C     -0.126640  -23.387910   -3.552290
  C     -0.513270  -24.728520   -3.401050
  C     -1.248760  -25.157470   -2.329840
  C     -1.620740  -24.209960   -1.357730
  C     -1.228060  -22.829670   -1.504570
  N     -1.637860  -22.036190   -0.526070
  Se    -2.544020  -22.982310    0.639880
  N     -2.331100  -24.460700   -0.262280
  H      1.271590    1.398070    3.611790
  H      2.526030    1.244930    1.478160
  H      2.743980   -0.852440    0.287250
  H      2.921970   -2.740980   -0.770590
  H      2.835900   -8.513020   -2.906990
  H      2.166880  -15.001480   -4.279340
  H      1.043830  -21.042750   -4.637070
  H      0.452390  -23.121220   -4.421890
  H     -0.214620  -25.434610   -4.161180
  H     -1.547790  -26.185690   -2.209780

 Total Charge           Charge          ....    0
 Multiplicity           Mult            ....    1
 Number of Electrons    NEL             ....  532
 Basis Dimension        Dim             .... 1044

ORBITAL ENERGIES
----------------

  NO   OCC          E(Eh)            E(eV)
   0   2.0000    -453.983165    -12353.5100
   1   2.0000    -453.983073    -12353.5075
   2   2.0000     -89.048674     -2423.1376
   3   2.0000     -88.981490     -2421.3094
   4   2.0000     -88.981361     -2421.3059
   5   2.0000     -88.979641     -2421.2591
   6   2.0000     -88.979611     -2421.2583
   7   2.0000     -58.196987     -1583.6205
   8   2.0000     -58.196912     -1583.6185
   9   2.0000     -52.267656     -1422.2752
  10   2.0000     -52.267578     -1422.2731
  11   2.0000     -52.265365     -1422.2129
  12   2.0000     -52.265288     -1422.2108
  13   2.0000     -52.264841     -1422.1986
  14   2.0000     -52.264764     -1422.1965
  15   2.0000     -14.473650      -393.8480
  16   2.0000     -14.473512      -393.8443
  17   2.0000     -14.457124      -393.3983
  18   2.0000     -14.457044      -393.3962
  19   2.0000     -14.440890      -392.9566
  20   2.0000     -14.440831      -392.9550
  21   2.0000     -14.438272      -392.8854
  22   2.0000     -14.438250      -392.8848
  23   2.0000     -14.436221      -392.8295
  24   2.0000     -14.436127      -392.8270
  25   2.0000     -14.425585      -392.5401
  26   2.0000     -14.425571      -392.5397
  27   2.0000     -14.424207      -392.5026
  28   2.0000     -14.424187      -392.5021
  29   2.0000     -10.390205      -282.7319
  30   2.0000     -10.389970      -282.7255
  31   2.0000     -10.357082      -281.8305
  32   2.0000     -10.357066      -281.8301
  33   2.0000     -10.353514      -281.7334
  34   2.0000     -10.353271      -281.7268
  35   2.0000     -10.348952      -281.6093
  36   2.0000     -10.348701      -281.6025
  37   2.0000     -10.345199      -281.5072
  38   2.0000     -10.345165      -281.5062
  39   2.0000     -10.329903      -281.0909
  40   2.0000     -10.329771      -281.0873
  41   2.0000     -10.328072      -281.0411
  42   2.0000     -10.328023      -281.0398
  43   2.0000     -10.326595      -281.0009
  44   2.0000     -10.326594      -281.0009
  45   2.0000     -10.325221      -280.9636
  46   2.0000     -10.325060      -280.9592
  47   2.0000     -10.325032      -280.9584
  48   2.0000     -10.324972      -280.9568
  49   2.0000     -10.324510      -280.9442
  50   2.0000     -10.324476      -280.9433
  51   2.0000     -10.323672      -280.9214
  52   2.0000     -10.323529      -280.9175
  53   2.0000     -10.320094      -280.8240
  54   2.0000     -10.319945      -280.8200
  55   2.0000     -10.319521      -280.8085
  56   2.0000     -10.319416      -280.8056
  57   2.0000     -10.318587      -280.7830
  58   2.0000     -10.318551      -280.7820
  59   2.0000     -10.307215      -280.4736
  60   2.0000     -10.307200      -280.4732
  61   2.0000     -10.296440      -280.1804
  62   2.0000     -10.296321      -280.1771
  63   2.0000     -10.294779      -280.1352
  64   2.0000     -10.294743      -280.1342
  65   2.0000     -10.293602      -280.1031
  66   2.0000     -10.293596      -280.1030
  67   2.0000     -10.293574      -280.1024
  68   2.0000     -10.293558      -280.1020
  69   2.0000     -10.292633      -280.0768
  70   2.0000     -10.292608      -280.0761
  71   2.0000     -10.291286      -280.0401
  72   2.0000     -10.291167      -280.0369
  73   2.0000     -10.287477      -279.9365
  74   2.0000     -10.287448      -279.9357
  75   2.0000      -8.139706      -221.4927
  76   2.0000      -8.074068      -219.7066
  77   2.0000      -8.073986      -219.7043
  78   2.0000      -8.072624      -219.6673
  79   2.0000      -8.072579      -219.6660
  80   2.0000      -7.972744      -216.9494
  81   2.0000      -7.972691      -216.9479
  82   2.0000      -6.110825      -166.2840
  83   2.0000      -6.102825      -166.0663
  84   2.0000      -6.102594      -166.0600
  85   2.0000      -6.043577      -164.4541
  86   2.0000      -6.043510      -164.4523
  87   2.0000      -6.042015      -164.4116
  88   2.0000      -6.041953      -164.4099
  89   2.0000      -6.038868      -164.3260
  90   2.0000      -6.038769      -164.3233
  91   2.0000      -6.037358      -164.2849
  92   2.0000      -6.037336      -164.2843
  93   2.0000      -6.036551      -164.2629
  94   2.0000      -6.036452      -164.2602
  95   2.0000      -6.035230      -164.2270
  96   2.0000      -6.035191      -164.2259
  97   2.0000      -5.922915      -161.1707
  98   2.0000      -5.922896      -161.1702
  99   2.0000      -5.916324      -160.9914
 100   2.0000      -5.916250      -160.9893
 101   2.0000      -5.912491      -160.8871
 102   2.0000      -5.912420      -160.8851
 103   2.0000      -2.277042       -61.9615
 104   2.0000      -2.277002       -61.9604
 105   2.0000      -2.276398       -61.9439
 106   2.0000      -2.276352       -61.9427
 107   2.0000      -2.271874       -61.8208
 108   2.0000      -2.271841       -61.8199
 109   2.0000      -2.266780       -61.6822
 110   2.0000      -2.266702       -61.6801
 111   2.0000      -2.266607       -61.6775
 112   2.0000      -2.266544       -61.6758
 113   2.0000      -1.146952       -31.2102
 114   2.0000      -1.131329       -30.7850
 115   2.0000      -1.093871       -29.7658
 116   2.0000      -1.093849       -29.7651
 117   2.0000      -1.060290       -28.8520
 118   2.0000      -1.036583       -28.2068
 119   2.0000      -1.036127       -28.1944
 120   2.0000      -1.021366       -27.7928
 121   2.0000      -1.016256       -27.6537
 122   2.0000      -1.015969       -27.6459
 123   2.0000      -1.011221       -27.5167
 124   2.0000      -1.003560       -27.3083
 125   2.0000      -1.002705       -27.2850
 126   2.0000      -1.002239       -27.2723
 127   2.0000      -0.997631       -27.1469
 128   2.0000      -0.989880       -26.9360
 129   2.0000      -0.981802       -26.7162
 130   2.0000      -0.970725       -26.4148
 131   2.0000      -0.967866       -26.3370
 132   2.0000      -0.959396       -26.1065
 133   2.0000      -0.957248       -26.0481
 134   2.0000      -0.946615       -25.7587
 135   2.0000      -0.945219       -25.7207
 136   2.0000      -0.916010       -24.9259
 137   2.0000      -0.915310       -24.9068
 138   2.0000      -0.902895       -24.5690
 139   2.0000      -0.885884       -24.1061
 140   2.0000      -0.866222       -23.5711
 141   2.0000      -0.866148       -23.5691
 142   2.0000      -0.854627       -23.2556
 143   2.0000      -0.852604       -23.2005
 144   2.0000      -0.851383       -23.1673
 145   2.0000      -0.848078       -23.0774
 146   2.0000      -0.844555       -22.9815
 147   2.0000      -0.842536       -22.9266
 148   2.0000      -0.839725       -22.8501
 149   2.0000      -0.812465       -22.1083
 150   2.0000      -0.804786       -21.8993
 151   2.0000      -0.774708       -21.0809
 152   2.0000      -0.774245       -21.0683
 153   2.0000      -0.771146       -20.9839
 154   2.0000      -0.755719       -20.5642
 155   2.0000      -0.742309       -20.1993
 156   2.0000      -0.741562       -20.1789
 157   2.0000      -0.731668       -19.9097
 158   2.0000      -0.716355       -19.4930
 159   2.0000      -0.711833       -19.3700
 160   2.0000      -0.711807       -19.3692
 161   2.0000      -0.699108       -19.0237
 162   2.0000      -0.697501       -18.9800
 163   2.0000      -0.692659       -18.8482
 164   2.0000      -0.692258       -18.8373
 165   2.0000      -0.681096       -18.5336
 166   2.0000      -0.674487       -18.3537
 167   2.0000      -0.668494       -18.1907
 168   2.0000      -0.666097       -18.1254
 169   2.0000      -0.658272       -17.9125
 170   2.0000      -0.643146       -17.5009
 171   2.0000      -0.638767       -17.3817
 172   2.0000      -0.630507       -17.1570
 173   2.0000      -0.626655       -17.0522
 174   2.0000      -0.621924       -16.9234
 175   2.0000      -0.615538       -16.7496
 176   2.0000      -0.608370       -16.5546
 177   2.0000      -0.606633       -16.5073
 178   2.0000      -0.596695       -16.2369
 179   2.0000      -0.591993       -16.1089
 180   2.0000      -0.588558       -16.0155
 181   2.0000      -0.584929       -15.9167
 182   2.0000      -0.580643       -15.8001
 183   2.0000      -0.578352       -15.7378
 184   2.0000      -0.573485       -15.6053
 185   2.0000      -0.569200       -15.4887
 186   2.0000      -0.563099       -15.3227
 187   2.0000      -0.558744       -15.2042
 188   2.0000      -0.552980       -15.0473
 189   2.0000      -0.546916       -14.8823
 190   2.0000      -0.542308       -14.7570
 191   2.0000      -0.541633       -14.7386
 192   2.0000      -0.534532       -14.5454
 193   2.0000      -0.534047       -14.5321
 194   2.0000      -0.533911       -14.5285
 195   2.0000      -0.527713       -14.3598
 196   2.0000      -0.519676       -14.1411
 197   2.0000      -0.517161       -14.0727
 198   2.0000      -0.505698       -13.7607
 199   2.0000      -0.500145       -13.6096
 200   2.0000      -0.494544       -13.4572
 201   2.0000      -0.494534       -13.4569
 202   2.0000      -0.493254       -13.4221
 203   2.0000      -0.492109       -13.3910
 204   2.0000      -0.489788       -13.3278
 205   2.0000      -0.486917       -13.2497
 206   2.0000      -0.485683       -13.2161
 207   2.0000      -0.482444       -13.1280
 208   2.0000      -0.481003       -13.0888
 209   2.0000      -0.478494       -13.0205
 210   2.0000      -0.477409       -12.9910
 211   2.0000      -0.476861       -12.9761
 212   2.0000      -0.471722       -12.8362
 213   2.0000      -0.466491       -12.6939
 214   2.0000      -0.466378       -12.6908
 215   2.0000      -0.466130       -12.6841
 216   2.0000      -0.464059       -12.6277
 217   2.0000      -0.460103       -12.5200
 218   2.0000      -0.459576       -12.5057
 219   2.0000      -0.457287       -12.4434
 220   2.0000      -0.457274       -12.4431
 221   2.0000      -0.456520       -12.4225
 222   2.0000      -0.454288       -12.3618
 223   2.0000      -0.453324       -12.3356
 224   2.0000      -0.452351       -12.3091
 225   2.0000      -0.450742       -12.2653
 226   2.0000      -0.447194       -12.1688
 227   2.0000      -0.440913       -11.9979
 228   2.0000      -0.438080       -11.9208
 229   2.0000      -0.437641       -11.9088
 230   2.0000      -0.436335       -11.8733
 231   2.0000      -0.435663       -11.8550
 232   2.0000      -0.433740       -11.8027
 233   2.0000      -0.433635       -11.7998
 234   2.0000      -0.433083       -11.7848
 235   2.0000      -0.432886       -11.7794
 236   2.0000      -0.426708       -11.6113
 237   2.0000      -0.423351       -11.5200
 238   2.0000      -0.422718       -11.5028
 239   2.0000      -0.422072       -11.4852
 240   2.0000      -0.417111       -11.3502
 241   2.0000      -0.415338       -11.3019
 242   2.0000      -0.411171       -11.1885
 243   2.0000      -0.397451       -10.8152
 244   2.0000      -0.397140       -10.8067
 245   2.0000      -0.395648       -10.7661
 246   2.0000      -0.386279       -10.5112
 247   2.0000      -0.385627       -10.4934
 248   2.0000      -0.380730       -10.3602
 249   2.0000      -0.375379       -10.2146
 250   2.0000      -0.367049        -9.9879
 251   2.0000      -0.360910        -9.8209
 252   2.0000      -0.357656        -9.7323
 253   2.0000      -0.355508        -9.6739
 254   2.0000      -0.355453        -9.6724
 255   2.0000      -0.343224        -9.3396
 256   2.0000      -0.339995        -9.2517
 257   2.0000      -0.334902        -9.1131
 258   2.0000      -0.329031        -8.9534
 259   2.0000      -0.328933        -8.9507
 260   2.0000      -0.318446        -8.6654
 261   2.0000      -0.314464        -8.5570
 262   2.0000      -0.314428        -8.5560
 263   2.0000      -0.292151        -7.9498
 264   2.0000      -0.263433        -7.1684
 265   2.0000      -0.231426        -6.2974
 266   0.0000      -0.132923        -3.6170
 267   0.0000      -0.098424        -2.6783
 268   0.0000      -0.094418        -2.5692
 269   0.0000      -0.073664        -2.0045
 270   0.0000      -0.073425        -1.9980

MULLIKEN ATOMIC CHARGES
-----------------------
   0 C :   -0.018520
   1 C :    0.052042
   2 C :   -0.060722
   3 C :    0.149382
   4 C :   -0.020209
   5 C :    0.053722
   6 N :   -0.267008
   7 Se:    0.536374
   8 N :   -0.332187
   9 C :   -0.094066
  10 C :   -0.052101
  11 C :    0.015592
  12 C :   -0.094042
  13 S :    0.224883
  14 C :   -0.060401
  15 C :    0.031974
  16 C :    0.318041
  17 C :   -0.310129
  18 C :   -0.185816
  19 N :    0.166501
  20 C :   -0.188576
  21 N :    0.164184
  22 C :   -0.067301
  23 C :   -0.184122
  24 S :    0.204240
  25 C :    0.189766
  26 C :   -0.072017
  27 C :   -0.071966
  28 N :    0.010077
  29 C :   -0.110104
  30 C :   -0.110702
  31 N :    0.007563
  32 C :   -0.238590
  33 N :    0.247995
  34 C :   -0.236814
  35 N :    0.243870
  36 C :    0.189862
  37 C :   -0.010199
  38 C :   -0.007551
  39 N :   -0.288427
  40 S :    0.585344
  41 N :   -0.286416
  42 C :   -0.183616
  43 C :   -0.062720
  44 C :    0.027294
  45 C :   -0.062215
  46 S :    0.203387
  47 C :   -0.092522
  48 C :    0.020835
  49 C :    0.318542
  50 C :   -0.310058
  51 C :   -0.188905
  52 N :    0.160491
  53 C :   -0.186166
  54 N :    0.170954
  55 C :   -0.056878
  56 C :   -0.090986
  57 S :    0.224501
  58 C :    0.149743
  59 C :   -0.060973
  60 C :    0.049645
  61 C :   -0.018267
  62 C :    0.054828
  63 C :   -0.019111
  64 N :   -0.332362
  65 Se:    0.536073
  66 N :   -0.268216
  67 H :   -0.015817
  68 H :   -0.000898
  69 H :   -0.010508
  70 H :    0.001549
  71 H :    0.022009
  72 H :    0.022122
  73 H :    0.001253
  74 H :   -0.010953
  75 H :   -0.000170
  76 H :   -0.015311
Sum of atomic charges:   -0.0000000

LOEWDIN ATOMIC CHARGES
----------------------
   0 C :   -0.018151
   1 C :   -0.011654
   2 C :   -0.005788
   3 C :   -0.042295
   4 C :   -0.042622
   5 C :   -0.043825
   6 N :   -0.245290
   7 Se:    0.578130
   8 N :   -0.276535
   9 C :   -0.156350
  10 C :   -0.027509
  11 C :   -0.066401
  12 C :   -0.192367
  13 S :    0.522795
  14 C :   -0.167825
  15 C :   -0.078318
  16 C :    0.083787
  17 C :   -0.109720
  18 C :   -0.016483
  19 N :   -0.037906
  20 C :   -0.015205
  21 N :   -0.041752
  22 C :   -0.007425
  23 C :   -0.172069
  24 S :    0.504499
  25 C :   -0.039475
  26 C :   -0.017485
  27 C :   -0.017499
  28 N :   -0.014953
  29 C :   -0.026624
  30 C :   -0.026677
  31 N :   -0.015098
  32 C :   -0.038683
  33 N :   -0.004118
  34 C :   -0.038390
  35 N :   -0.004423
  36 C :   -0.039571
  37 C :   -0.036437
  38 C :   -0.036365
  39 N :   -0.270347
  40 S :    0.701915
  41 N :   -0.269861
  42 C :   -0.171890
  43 C :   -0.007463
  44 C :   -0.078262
  45 C :   -0.168070
  46 S :    0.504310
  47 C :   -0.192024
  48 C :   -0.066460
  49 C :    0.083797
  50 C :   -0.109687
  51 C :   -0.014966
  52 N :   -0.041931
  53 C :   -0.016651
  54 N :   -0.037792
  55 C :   -0.027540
  56 C :   -0.156450
  57 S :    0.522544
  58 C :   -0.042213
  59 C :   -0.005753
  60 C :   -0.012067
  61 C :   -0.018013
  62 C :   -0.043822
  63 C :   -0.042578
  64 N :   -0.276370
  65 Se:    0.578057
  66 N :   -0.245429
  67 H :    0.038403
  68 H :    0.036174
  69 H :    0.034811
  70 H :    0.037049
  71 H :    0.037034
  72 H :    0.037013
  73 H :    0.037044
  74 H :    0.034732
  75 H :    0.036351
  76 H :    0.038479

  Mayer bond orders larger than 0.100000
B(  0-C ,  1-C ) :   1.4990 B(  0-C ,  3-C ) :   0.1006 B(  0-C ,  5-C ) :   1.1869
B(  0-C , 67-H ) :   1.0194 B(  1-C ,  2-C ) :   1.2004 B(  1-C , 68-H ) :   0.9826
B(  2-C ,  3-C ) :   1.5068 B(  2-C , 69-H ) :   0.9947 B(  3-C ,  4-C ) :   1.1424
B(  3-C ,  9-C ) :   1.0893 B(  4-C ,  5-C ) :   1.1286 B(  4-C ,  8-N ) :   1.5577
B(  5-C ,  6-N ) :   1.5629 B(  6-N ,  7-Se) :   1.2623 B(  6-N ,  8-N ) :   0.1311
B(  7-Se,  8-N ) :   1.2136 B(  9-C , 10-C ) :   1.4488 B(  9-C , 13-S ) :   1.1274
B( 10-C , 11-C ) :   1.3085 B( 10-C , 70-H ) :   0.9870 B( 11-C , 12-C ) :   1.4090
B( 11-C , 16-C ) :   0.9954 B( 12-C , 13-S ) :   1.0878 B( 12-C , 14-C ) :   1.2025
B( 14-C , 15-C ) :   1.3935 B( 14-C , 24-S ) :   1.0947 B( 15-C , 16-C ) :   0.9927
B( 15-C , 22-C ) :   1.2841 B( 16-C , 17-C ) :   1.7018 B( 17-C , 18-C ) :   1.1373
B( 17-C , 20-C ) :   1.1358 B( 18-C , 19-N ) :   2.9839 B( 20-C , 21-N ) :   2.9873
B( 22-C , 23-C ) :   1.4024 B( 22-C , 71-H ) :   0.9783 B( 23-C , 24-S ) :   1.0789
B( 23-C , 25-C ) :   1.2229 B( 25-C , 26-C ) :   1.2496 B( 25-C , 36-C ) :   0.1214
B( 25-C , 38-C ) :   1.1893 B( 26-C , 27-C ) :   1.0959 B( 26-C , 31-N ) :   1.4200
B( 27-C , 28-N ) :   1.4184 B( 27-C , 36-C ) :   1.2496 B( 28-N , 29-C ) :   1.6984
B( 29-C , 30-C ) :   1.2193 B( 29-C , 34-C ) :   1.1630 B( 30-C , 31-N ) :   1.6964
B( 30-C , 32-C ) :   1.1665 B( 32-C , 33-N ) :   3.0412 B( 34-C , 35-N ) :   3.0407
B( 36-C , 37-C ) :   1.1889 B( 36-C , 42-C ) :   1.2220 B( 37-C , 38-C ) :   1.1003
B( 37-C , 41-N ) :   1.5160 B( 38-C , 39-N ) :   1.5150 B( 39-N , 40-S ) :   1.2813
B( 39-N , 41-N ) :   0.1452 B( 40-S , 41-N ) :   1.2819 B( 42-C , 43-C ) :   1.4020
B( 42-C , 46-S ) :   1.0797 B( 43-C , 44-C ) :   1.2837 B( 43-C , 72-H ) :   0.9777
B( 44-C , 45-C ) :   1.3960 B( 44-C , 49-C ) :   0.9923 B( 45-C , 46-S ) :   1.0930
B( 45-C , 47-C ) :   1.2025 B( 47-C , 48-C ) :   1.4078 B( 47-C , 57-S ) :   1.0888
B( 48-C , 49-C ) :   0.9966 B( 48-C , 55-C ) :   1.3080 B( 49-C , 50-C ) :   1.7003
B( 50-C , 51-C ) :   1.1380 B( 50-C , 53-C ) :   1.1370 B( 51-C , 52-N ) :   2.9852
B( 53-C , 54-N ) :   2.9857 B( 55-C , 56-C ) :   1.4511 B( 55-C , 73-H ) :   0.9869
B( 56-C , 57-S ) :   1.1254 B( 56-C , 58-C ) :   1.0887 B( 58-C , 59-C ) :   1.5091
B( 58-C , 61-C ) :   0.1005 B( 58-C , 63-C ) :   1.1422 B( 59-C , 60-C ) :   1.1992
B( 59-C , 74-H ) :   0.9948 B( 60-C , 61-C ) :   1.5001 B( 60-C , 75-H ) :   0.9822
B( 61-C , 62-C ) :   1.1870 B( 61-C , 76-H ) :   1.0193 B( 62-C , 63-C ) :   1.1283
B( 62-C , 66-N ) :   1.5613 B( 63-C , 64-N ) :   1.5572 B( 64-N , 65-Se) :   1.2144
B( 64-N , 66-N ) :   0.1311 B( 65-Se, 66-N ) :   1.2622

-----------------------------------------------------------------------------
         ABSORPTION SPECTRUM VIA TRANSITION ELECTRIC DIPOLE MOMENTS
-----------------------------------------------------------------------------
State   Energy  Wavelength   fosc         T2         TX        TY        TZ
        (cm-1)    (nm)                  (au**2)     (au)      (au)      (au)
-----------------------------------------------------------------------------
   0    6549.4   1526.9   0.546983073  27.49484   0.52247   5.10490   1.07792
   1   12367.4    808.6   0.002735998   0.07283   0.13262   0.03751  -0.23202
   2   12866.0    777.2   0.032140813   0.82241   0.08828   0.88275   0.18805
   3   15273.5    654.7   0.000851998   0.01836  -0.05623  -0.01814   0.12196
   4   20609.1    485.2   0.749585353  11.97397  -0.33628  -3.36719  -0.72313
   5   20659.0    484.1   0.010843961   0.17280   0.20840   0.17377  -0.31493
   6   20976.7    476.7   0.295298329   4.63447  -0.21338  -2.09593  -0.44274
   7   22186.9    450.7   0.157626965   2.33889  -0.80857  -0.19116   1.28396
   8   22899.6    436.7   0.014420271   0.20731  -0.04710  -0.44320  -0.09310
   9   23199.0    431.1   0.010016267   0.14214   0.19875   0.04374  -0.31737
  10   23375.3    427.8   0.005215787   0.07346  -0.02791  -0.26382  -0.05547
  11   24232.8    412.7   0.008217208   0.11163  -0.18080  -0.03964   0.27817
  12   24402.7    409.8   0.004130906   0.05573   0.02454   0.23018   0.04630
  13   25879.3    386.4   0.001387381   0.01765   0.11878  -0.02359   0.05462
  14   27256.6    366.9   0.162041020   1.95717   0.73911   0.17317  -1.17512
  15   28274.1    353.7   0.045384754   0.52844   0.07186   0.70801   0.14830
  16   29040.5    344.3   0.537023115   6.08786  -0.24387  -2.40146  -0.51126
  17   29053.3    344.2   0.016898293   0.19148  -0.23239  -0.09742   0.35775
  18   29509.7    338.9   0.032242982   0.35970   0.31622   0.05438  -0.50671
  19   29622.6    337.6   0.007984003   0.08873  -0.14832   0.01022   0.25812
  20   29765.5    336.0   0.434663841   4.80746  -0.22356  -2.13609  -0.44115
  21   29790.5    335.7   0.165258116   1.82625   0.13358   1.31532   0.27992
  22   30788.8    324.8   0.000071805   0.00077  -0.00664  -0.02690   0.00062
  23   31257.9    319.9   0.081129521   0.85447  -0.48842  -0.11373   0.77652
  24   31360.6    318.9   0.003505818   0.03680   0.01948   0.18697   0.03830
  25   31510.9    317.4   0.293414213   3.06546   0.17760   1.70502   0.35613
  26   32102.7    311.5   0.245675656   2.51939  -0.84447  -0.17610   1.33239
  27   32153.3    311.0   0.019684958   0.20155   0.06758   0.44050   0.05429
  28   32373.3    308.9   0.013953571   0.14190  -0.05953  -0.36875  -0.04873
  29   32443.0    308.2   1.044136138  10.59527   1.73160   0.39364  -2.72798
  30   32694.8    305.9   0.103324024   1.04039  -0.54899  -0.12685   0.85024
  31   33126.1    301.9   0.175484450   1.74399   0.69345   0.18418  -1.10869
  32   33149.0    301.7   0.161550168   1.60440   0.11450   1.23059   0.27740
  33   33386.9    299.5   0.000594071   0.00586  -0.05678   0.00537  -0.05104
  34   33566.3    297.9   0.000087451   0.00086  -0.01780  -0.02183  -0.00803
  35   34290.8    291.6   0.075646218   0.72625   0.44260   0.11055  -0.71982
  36   34674.0    288.4   0.000000694   0.00001   0.00111   0.00229  -0.00033
  37   35631.9    280.6   0.036579642   0.33797   0.06251   0.56645   0.11486
  38   35967.1    278.0   0.090205849   0.82567  -0.38296   0.32236   0.75835
  39   35976.4    278.0   0.272786232   2.49620  -0.85222  -0.41018   1.26558
  40   36415.2    274.6   0.117444741   1.06176  -0.10708  -1.00459  -0.20270
  41   36528.1    273.8   0.169804470   1.53037  -0.64558  -0.15056   1.04448
  42   36579.7    273.4   0.094220077   0.84797  -0.47976  -0.10260   0.77928
  43   36907.3    270.9   0.059761603   0.53307   0.06963   0.71080   0.15161
  44   37151.2    269.2   0.000001048   0.00001  -0.00171  -0.00241   0.00074
  45   37241.3    268.5   0.011215748   0.09915  -0.03523  -0.30660  -0.06247
  46   37345.1    267.8   0.074219212   0.65427  -0.43472  -0.09773   0.67509
  47   37853.0    264.2   0.095637317   0.83177   0.48221   0.10872  -0.76643
  48   38036.4    262.9   0.012776119   0.11058   0.03871   0.32502   0.05869
  49   38156.3    262.1   0.000719541   0.00621  -0.07259   0.01502  -0.02671
  50   38289.7    261.2   0.261524995   2.24857  -0.78849  -0.18496   1.26200
  51   38554.8    259.4   0.000131172   0.00112   0.03031   0.01146   0.00837
  52   38582.5    259.2   0.003193355   0.02725  -0.14646   0.03181  -0.06919
  53   39017.1    256.3   0.030359224   0.25616   0.04693   0.49316   0.10370
  54   39186.2    255.2   0.000025255   0.00021   0.00239   0.01418   0.00233
  55   39680.2    252.0   0.015158935   0.12577   0.18856   0.04135  -0.29749
  56   39797.3    251.3   0.004562342   0.03774  -0.02791  -0.18992  -0.02989
  57   40079.1    249.5   0.244395464   2.00748  -0.76139  -0.18496   1.18049

FINAL SINGLE POINT ENERGY     -9315.150551686087

DIPOLE MOMENT
-------------
                                X             Y             Z
Electronic contribution:    -53.06680     -12.31815      84.05910
Nuclear contribution   :     52.19373      12.11932     -82.67997
                        -----------------------------------------
Total Dipole Moment    :     -0.87307      -0.19883       1.37913
                        -----------------------------------------
Magnitude (a.u.)       :      1.64432
Magnitude (Debye)      :      4.17952

Rotational constants in cm-1:     0.001735     0.000255     0.000222
Rotational constants in MHz :    52.005995     7.636194     6.658595

                             ****ORCA TERMINATED NORMALLY****
TOTAL RUN TIME: 0 days 0 hours 8 minutes 6 seconds 573 msec
