                         Program Version 4.2.0 -  RELEASE  -
|  1> # ORCA input file
|  2> # SCF done       -202.388356004429          0.000502186941
|  3> ! CAM-B3LYP def2-SVP def2/J RIJCOSX Grid4 TightSCF
|  4> %maxcore 5000
|  5> %tddft
|  6>     Mode sTDDFT
|  7>     Ethresh 5.0
|  8>     maxcore 5000
|  9> end
| 10>
| 11> %pal
| 12>   nprocs 6
| 13>   end
| 14> * xyz 0 1
| 15>    C       -3.05446        -2.11701        -5.43040
| 16>    O       -3.40484        -3.28118        -5.49892
| 17>    C       -2.99496        -1.15426        -6.54577
| 18>    C       -2.52764         0.08346        -6.06833
| 19>    C       -2.39418         1.14646        -6.95056
| 20>    C       -2.72693         0.95532        -8.28314
| 21>    C       -3.18533        -0.27716        -8.73152
| 22>    C       -3.32780        -1.35626        -7.86909
| 23>   Br       -3.62831        -0.48865       -10.56526
| 24>    C       -2.26404        -0.03203        -4.63493
| 25>    C       -1.75027         0.96106        -3.84466
| 26>    C       -1.42055         2.25209        -4.31219
| 27>    N       -1.13389         3.31736        -4.62788
| 28>    C       -1.45795         0.85156        -2.46783
| 29>    N       -1.18666         0.84213        -1.35230
| 30>    C       -2.61786        -1.38441        -4.23718
| 31>    C       -2.59161        -1.88636        -2.96187
| 32>    C       -2.89924        -3.17032        -2.48373
| 33>    C       -2.83513        -3.47882        -1.11875
| 34>    C       -3.15407        -4.79755        -0.85968
| 35>    C       -3.45874        -5.51618        -2.04080
| 36>    S       -3.37207        -4.56812        -3.45038
| 37>    C       -3.75722        -6.85284        -1.67410
| 38>    C       -3.64594        -6.97828        -0.27706
| 39>    C       -3.26629        -5.69169         0.28270
| 40>    C       -3.06233        -5.39423         1.59740
| 41>    C       -3.20737        -6.36461         2.61175
| 42>    N       -3.32671        -7.15564         3.43305
| 43>    C       -2.69736        -4.10173         2.03169
| 44>    N       -2.40401        -3.05396         2.39192
| 45>    C       -3.91413        -8.26894         0.16996
| 46>    C       -4.22230        -9.12587        -0.87480
| 47>    S       -4.18614        -8.32033        -2.43442
| 48>    C       -4.52638       -10.50843        -0.73742
| 49>    C       -4.77890       -11.45810        -1.71934
| 50>    C       -4.81257       -11.13803        -3.08564
| 51>    N       -4.84845       -10.84278        -4.19321
| 52>    C       -5.01859       -12.75199        -1.17716
| 53>    C       -4.95718       -12.73287         0.21202
| 54>    S       -4.59635       -11.18917         0.87600
| 55>    S       -5.25054       -14.25252         0.99076
| 56>    C       -5.45245       -14.94860        -0.58235
| 57>    C       -5.30332       -14.06863        -1.64966
| 58>    C       -5.45609       -14.73844        -2.89605
| 59>    C       -5.27547       -14.13353        -4.15073
| 60>    N       -5.10064       -13.65996        -5.17994
| 61>    C       -5.72573       -16.09239        -2.73980
| 62>    S       -5.78870       -16.56556        -1.05560
| 63>    C       -5.93226       -17.08173        -3.74248
| 64>    C       -6.15484       -16.91412        -5.09832
| 65>    C       -6.30635       -18.13693        -5.75246
| 66>    C       -6.19330       -19.24090        -4.88939
| 67>    S       -5.91380       -18.77594        -3.27330
| 68>    C       -6.33227       -20.42765        -5.64806
| 69>    C       -6.54340       -20.07675        -6.99588
| 70>    C       -6.54503       -18.62531        -7.10341
| 71>    C       -6.75110       -17.88589        -8.22855
| 72>    C       -6.98347       -18.48836        -9.48470
| 73>    N       -7.17827       -18.97387       -10.50439
| 74>    C       -6.78212       -16.47337        -8.22036
| 75>    N       -6.83551       -15.32903        -8.22888
| 76>    C       -6.70064       -21.18551        -7.81975
| 77>    C       -6.56926       -22.38056        -7.12713
| 78>    S       -6.30749       -22.11065        -5.40481
| 79>    C       -6.72210       -23.67107        -7.68403
| 80>    C       -6.34817       -24.88392        -7.19435
| 81>    C       -7.01669       -26.11286        -7.70695
| 82>    O       -7.71121       -26.20609        -8.68944
| 83>    C       -6.69262       -27.16268        -6.71458
| 84>    C       -5.79040       -26.65055        -5.76319
| 85>    C       -5.44178       -25.28239        -6.13711
| 86>    C       -4.29590       -24.63026        -5.76582
| 87>    C       -3.39557       -25.11551        -4.79536
| 88>    N       -2.64718       -25.45876        -3.99623
| 89>    C       -3.84559       -23.44610        -6.38603
| 90>    N       -3.43215       -22.50762        -6.90143
| 91>    C       -5.36340       -27.45288        -4.71564
| 92>    C       -5.83698       -28.75347        -4.63799
| 93>    C       -6.71635       -29.24537        -5.59511
| 94>    C       -7.16178       -28.45844        -6.64945
| 95>   Br       -7.32637       -31.03759        -5.45309
| 96>    H       -2.04248         2.11222        -6.62773
| 97>    H       -2.62947         1.77265        -8.98101
| 98>    H       -3.68334        -2.31636        -8.20956
| 99>    H       -2.29417        -1.20530        -2.17352
|100>    H       -2.56181        -2.74791        -0.37816
|101>    H       -3.88533        -8.58652         1.19717
|102>    H       -6.20599       -15.95231        -5.57400
|103>    H       -6.87077       -21.15085        -8.88068
|104>    H       -7.29254       -23.70700        -8.60815
|105>    H       -4.68597       -27.08475        -3.96217
|106>    H       -5.51986       -29.39262        -3.82837
|107>    H       -7.84509       -28.83710        -7.39363
|108> *
|109>
|110>                          ****END OF INPUT****

CARTESIAN COORDINATES (ANGSTROEM)
---------------------------------
  C     -3.054460   -2.117010   -5.430400
  O     -3.404840   -3.281180   -5.498920
  C     -2.994960   -1.154260   -6.545770
  C     -2.527640    0.083460   -6.068330
  C     -2.394180    1.146460   -6.950560
  C     -2.726930    0.955320   -8.283140
  C     -3.185330   -0.277160   -8.731520
  C     -3.327800   -1.356260   -7.869090
  Br    -3.628310   -0.488650  -10.565260
  C     -2.264040   -0.032030   -4.634930
  C     -1.750270    0.961060   -3.844660
  C     -1.420550    2.252090   -4.312190
  N     -1.133890    3.317360   -4.627880
  C     -1.457950    0.851560   -2.467830
  N     -1.186660    0.842130   -1.352300
  C     -2.617860   -1.384410   -4.237180
  C     -2.591610   -1.886360   -2.961870
  C     -2.899240   -3.170320   -2.483730
  C     -2.835130   -3.478820   -1.118750
  C     -3.154070   -4.797550   -0.859680
  C     -3.458740   -5.516180   -2.040800
  S     -3.372070   -4.568120   -3.450380
  C     -3.757220   -6.852840   -1.674100
  C     -3.645940   -6.978280   -0.277060
  C     -3.266290   -5.691690    0.282700
  C     -3.062330   -5.394230    1.597400
  C     -3.207370   -6.364610    2.611750
  N     -3.326710   -7.155640    3.433050
  C     -2.697360   -4.101730    2.031690
  N     -2.404010   -3.053960    2.391920
  C     -3.914130   -8.268940    0.169960
  C     -4.222300   -9.125870   -0.874800
  S     -4.186140   -8.320330   -2.434420
  C     -4.526380  -10.508430   -0.737420
  C     -4.778900  -11.458100   -1.719340
  C     -4.812570  -11.138030   -3.085640
  N     -4.848450  -10.842780   -4.193210
  C     -5.018590  -12.751990   -1.177160
  C     -4.957180  -12.732870    0.212020
  S     -4.596350  -11.189170    0.876000
  S     -5.250540  -14.252520    0.990760
  C     -5.452450  -14.948600   -0.582350
  C     -5.303320  -14.068630   -1.649660
  C     -5.456090  -14.738440   -2.896050
  C     -5.275470  -14.133530   -4.150730
  N     -5.100640  -13.659960   -5.179940
  C     -5.725730  -16.092390   -2.739800
  S     -5.788700  -16.565560   -1.055600
  C     -5.932260  -17.081730   -3.742480
  C     -6.154840  -16.914120   -5.098320
  C     -6.306350  -18.136930   -5.752460
  C     -6.193300  -19.240900   -4.889390
  S     -5.913800  -18.775940   -3.273300
  C     -6.332270  -20.427650   -5.648060
  C     -6.543400  -20.076750   -6.995880
  C     -6.545030  -18.625310   -7.103410
  C     -6.751100  -17.885890   -8.228550
  C     -6.983470  -18.488360   -9.484700
  N     -7.178270  -18.973870  -10.504390
  C     -6.782120  -16.473370   -8.220360
  N     -6.835510  -15.329030   -8.228880
  C     -6.700640  -21.185510   -7.819750
  C     -6.569260  -22.380560   -7.127130
  S     -6.307490  -22.110650   -5.404810
  C     -6.722100  -23.671070   -7.684030
  C     -6.348170  -24.883920   -7.194350
  C     -7.016690  -26.112860   -7.706950
  O     -7.711210  -26.206090   -8.689440
  C     -6.692620  -27.162680   -6.714580
  C     -5.790400  -26.650550   -5.763190
  C     -5.441780  -25.282390   -6.137110
  C     -4.295900  -24.630260   -5.765820
  C     -3.395570  -25.115510   -4.795360
  N     -2.647180  -25.458760   -3.996230
  C     -3.845590  -23.446100   -6.386030
  N     -3.432150  -22.507620   -6.901430
  C     -5.363400  -27.452880   -4.715640
  C     -5.836980  -28.753470   -4.637990
  C     -6.716350  -29.245370   -5.595110
  C     -7.161780  -28.458440   -6.649450
  Br    -7.326370  -31.037590   -5.453090
  H     -2.042480    2.112220   -6.627730
  H     -2.629470    1.772650   -8.981010
  H     -3.683340   -2.316360   -8.209560
  H     -2.294170   -1.205300   -2.173520
  H     -2.561810   -2.747910   -0.378160
  H     -3.885330   -8.586520    1.197170
  H     -6.205990  -15.952310   -5.574000
  H     -6.870770  -21.150850   -8.880680
  H     -7.292540  -23.707000   -8.608150
  H     -4.685970  -27.084750   -3.962170
  H     -5.519860  -29.392620   -3.828370
  H     -7.845090  -28.837100   -7.393630

 Total Charge           Charge          ....    0
 Multiplicity           Mult            ....    1
 Number of Electrons    NEL             ....  640
 Basis Dimension        Dim             .... 1258

ORBITAL ENERGIES
----------------

  NO   OCC          E(Eh)            E(eV)
   0   2.0000    -482.879233    -13139.8119
   1   2.0000    -482.876514    -13139.7380
   2   2.0000     -89.008679     -2422.0493
   3   2.0000     -89.006090     -2421.9788
   4   2.0000     -89.006000     -2421.9764
   5   2.0000     -89.005609     -2421.9657
   6   2.0000     -89.004744     -2421.9422
   7   2.0000     -89.004105     -2421.9248
   8   2.0000     -88.998003     -2421.7588
   9   2.0000     -62.556959     -1702.2614
  10   2.0000     -62.554201     -1702.1864
  11   2.0000     -56.390806     -1534.4718
  12   2.0000     -56.388264     -1534.4027
  13   2.0000     -56.388255     -1534.4024
  14   2.0000     -56.388050     -1534.3968
  15   2.0000     -56.385514     -1534.3278
  16   2.0000     -56.385493     -1534.3273
  17   2.0000     -19.235819      -523.4333
  18   2.0000     -19.228936      -523.2460
  19   2.0000     -14.439965      -392.9314
  20   2.0000     -14.439211      -392.9109
  21   2.0000     -14.437237      -392.8572
  22   2.0000     -14.435409      -392.8074
  23   2.0000     -14.427760      -392.5993
  24   2.0000     -14.426668      -392.5696
  25   2.0000     -14.425019      -392.5247
  26   2.0000     -14.423737      -392.4898
  27   2.0000     -14.421381      -392.4257
  28   2.0000     -14.420167      -392.3927
  29   2.0000     -10.383136      -282.5395
  30   2.0000     -10.380150      -282.4582
  31   2.0000     -10.376916      -282.3702
  32   2.0000     -10.374357      -282.3006
  33   2.0000     -10.362741      -281.9845
  34   2.0000     -10.362527      -281.9787
  35   2.0000     -10.360180      -281.9148
  36   2.0000     -10.359871      -281.9064
  37   2.0000     -10.357624      -281.8453
  38   2.0000     -10.356605      -281.8175
  39   2.0000     -10.356060      -281.8027
  40   2.0000     -10.355950      -281.7997
  41   2.0000     -10.354160      -281.7510
  42   2.0000     -10.353507      -281.7332
  43   2.0000     -10.352092      -281.6947
  44   2.0000     -10.350761      -281.6585
  45   2.0000     -10.350421      -281.6493
  46   2.0000     -10.350017      -281.6383
  47   2.0000     -10.349457      -281.6230
  48   2.0000     -10.348798      -281.6051
  49   2.0000     -10.343605      -281.4638
  50   2.0000     -10.342971      -281.4465
  51   2.0000     -10.342863      -281.4436
  52   2.0000     -10.342598      -281.4364
  53   2.0000     -10.340247      -281.3724
  54   2.0000     -10.339095      -281.3411
  55   2.0000     -10.338651      -281.3290
  56   2.0000     -10.336813      -281.2790
  57   2.0000     -10.335932      -281.2550
  58   2.0000     -10.335702      -281.2488
  59   2.0000     -10.334996      -281.2295
  60   2.0000     -10.333874      -281.1990
  61   2.0000     -10.329841      -281.0893
  62   2.0000     -10.329391      -281.0770
  63   2.0000     -10.328781      -281.0604
  64   2.0000     -10.328288      -281.0470
  65   2.0000     -10.326980      -281.0114
  66   2.0000     -10.323996      -280.9302
  67   2.0000     -10.323118      -280.9063
  68   2.0000     -10.322182      -280.8809
  69   2.0000     -10.321605      -280.8651
  70   2.0000     -10.321514      -280.8627
  71   2.0000     -10.321047      -280.8500
  72   2.0000     -10.320390      -280.8321
  73   2.0000     -10.319602      -280.8106
  74   2.0000     -10.318778      -280.7882
  75   2.0000     -10.318619      -280.7839
  76   2.0000     -10.317891      -280.7641
  77   2.0000     -10.317304      -280.7481
  78   2.0000     -10.314103      -280.6610
  79   2.0000     -10.313649      -280.6486
  80   2.0000     -10.313288      -280.6388
  81   2.0000     -10.312668      -280.6220
  82   2.0000     -10.310952      -280.5753
  83   2.0000     -10.310906      -280.5740
  84   2.0000     -10.309795      -280.5438
  85   2.0000     -10.309348      -280.5316
  86   2.0000     -10.308477      -280.5079
  87   2.0000     -10.308324      -280.5037
  88   2.0000     -10.306466      -280.4532
  89   2.0000      -8.786257      -239.0862
  90   2.0000      -8.783479      -239.0106
  91   2.0000      -8.103529      -220.5082
  92   2.0000      -8.101548      -220.4543
  93   2.0000      -8.100723      -220.4319
  94   2.0000      -8.100211      -220.4180
  95   2.0000      -8.099182      -220.3899
  96   2.0000      -8.098498      -220.3713
  97   2.0000      -8.090295      -220.1481
  98   2.0000      -6.622160      -180.1981
  99   2.0000      -6.619372      -180.1223
 100   2.0000      -6.608345      -179.8222
 101   2.0000      -6.607891      -179.8099
 102   2.0000      -6.605579      -179.7470
 103   2.0000      -6.605104      -179.7340
 104   2.0000      -6.072854      -165.2508
 105   2.0000      -6.071202      -165.2058
 106   2.0000      -6.070713      -165.1925
 107   2.0000      -6.069488      -165.1592
 108   2.0000      -6.068842      -165.1416
 109   2.0000      -6.068604      -165.1351
 110   2.0000      -6.067819      -165.1137
 111   2.0000      -6.066927      -165.0895
 112   2.0000      -6.066434      -165.0761
 113   2.0000      -6.065746      -165.0573
 114   2.0000      -6.065235      -165.0434
 115   2.0000      -6.064585      -165.0257
 116   2.0000      -6.063375      -164.9928
 117   2.0000      -6.062990      -164.9824
 118   2.0000      -6.062596      -164.9716
 119   2.0000      -6.061522      -164.9424
 120   2.0000      -6.060907      -164.9257
 121   2.0000      -6.060621      -164.9179
 122   2.0000      -6.059702      -164.8929
 123   2.0000      -6.054914      -164.7626
 124   2.0000      -6.052895      -164.7077
 125   2.0000      -2.738054       -74.5062
 126   2.0000      -2.735293       -74.4311
 127   2.0000      -2.734320       -74.4046
 128   2.0000      -2.733974       -74.3952
 129   2.0000      -2.731511       -74.3282
 130   2.0000      -2.731200       -74.3197
 131   2.0000      -2.722999       -74.0966
 132   2.0000      -2.722979       -74.0960
 133   2.0000      -2.720217       -74.0209
 134   2.0000      -2.720200       -74.0204
 135   2.0000      -1.151697       -31.3393
 136   2.0000      -1.144915       -31.1547
 137   2.0000      -1.063815       -28.9479
 138   2.0000      -1.060067       -28.8459
 139   2.0000      -1.055987       -28.7349
 140   2.0000      -1.034844       -28.1595
 141   2.0000      -1.032896       -28.1065
 142   2.0000      -1.030682       -28.0463
 143   2.0000      -1.028905       -27.9979
 144   2.0000      -1.027989       -27.9730
 145   2.0000      -1.016831       -27.6694
 146   2.0000      -1.015661       -27.6376
 147   2.0000      -1.013769       -27.5861
 148   2.0000      -1.012148       -27.5419
 149   2.0000      -1.009777       -27.4774
 150   2.0000      -1.009074       -27.4583
 151   2.0000      -1.007233       -27.4082
 152   2.0000      -1.004833       -27.3429
 153   2.0000      -1.001386       -27.2491
 154   2.0000      -0.998485       -27.1702
 155   2.0000      -0.979770       -26.6609
 156   2.0000      -0.975125       -26.5345
 157   2.0000      -0.971351       -26.4318
 158   2.0000      -0.967960       -26.3395
 159   2.0000      -0.959495       -26.1092
 160   2.0000      -0.932598       -25.3773
 161   2.0000      -0.929987       -25.3062
 162   2.0000      -0.921107       -25.0646
 163   2.0000      -0.917807       -24.9748
 164   2.0000      -0.915814       -24.9206
 165   2.0000      -0.909127       -24.7386
 166   2.0000      -0.905598       -24.6426
 167   2.0000      -0.894152       -24.3311
 168   2.0000      -0.889044       -24.1921
 169   2.0000      -0.886349       -24.1188
 170   2.0000      -0.881926       -23.9984
 171   2.0000      -0.879867       -23.9424
 172   2.0000      -0.871854       -23.7244
 173   2.0000      -0.868616       -23.6363
 174   2.0000      -0.864392       -23.5213
 175   2.0000      -0.862425       -23.4678
 176   2.0000      -0.849551       -23.1175
 177   2.0000      -0.848376       -23.0855
 178   2.0000      -0.820808       -22.3353
 179   2.0000      -0.811049       -22.0698
 180   2.0000      -0.796578       -21.6760
 181   2.0000      -0.789109       -21.4727
 182   2.0000      -0.787664       -21.4334
 183   2.0000      -0.778430       -21.1822
 184   2.0000      -0.778086       -21.1728
 185   2.0000      -0.772967       -21.0335
 186   2.0000      -0.754008       -20.5176
 187   2.0000      -0.740158       -20.1407
 188   2.0000      -0.723055       -19.6753
 189   2.0000      -0.720165       -19.5967
 190   2.0000      -0.714111       -19.4320
 191   2.0000      -0.713354       -19.4113
 192   2.0000      -0.711401       -19.3582
 193   2.0000      -0.706091       -19.2137
 194   2.0000      -0.701564       -19.0905
 195   2.0000      -0.698307       -19.0019
 196   2.0000      -0.697052       -18.9677
 197   2.0000      -0.694216       -18.8906
 198   2.0000      -0.689483       -18.7618
 199   2.0000      -0.687440       -18.7062
 200   2.0000      -0.668246       -18.1839
 201   2.0000      -0.665918       -18.1205
 202   2.0000      -0.659217       -17.9382
 203   2.0000      -0.653061       -17.7707
 204   2.0000      -0.645588       -17.5673
 205   2.0000      -0.639284       -17.3958
 206   2.0000      -0.636868       -17.3301
 207   2.0000      -0.633163       -17.2292
 208   2.0000      -0.632642       -17.2151
 209   2.0000      -0.627994       -17.0886
 210   2.0000      -0.623648       -16.9703
 211   2.0000      -0.622718       -16.9450
 212   2.0000      -0.621386       -16.9088
 213   2.0000      -0.603153       -16.4126
 214   2.0000      -0.593214       -16.1422
 215   2.0000      -0.591756       -16.1025
 216   2.0000      -0.589305       -16.0358
 217   2.0000      -0.578578       -15.7439
 218   2.0000      -0.568638       -15.4734
 219   2.0000      -0.565435       -15.3863
 220   2.0000      -0.563115       -15.3231
 221   2.0000      -0.561972       -15.2920
 222   2.0000      -0.560460       -15.2509
 223   2.0000      -0.556846       -15.1525
 224   2.0000      -0.554747       -15.0954
 225   2.0000      -0.551530       -15.0079
 226   2.0000      -0.550899       -14.9907
 227   2.0000      -0.550065       -14.9680
 228   2.0000      -0.548659       -14.9298
 229   2.0000      -0.545239       -14.8367
 230   2.0000      -0.543104       -14.7786
 231   2.0000      -0.538567       -14.6552
 232   2.0000      -0.538358       -14.6495
 233   2.0000      -0.533798       -14.5254
 234   2.0000      -0.531611       -14.4659
 235   2.0000      -0.528061       -14.3693
 236   2.0000      -0.526492       -14.3266
 237   2.0000      -0.520302       -14.1581
 238   2.0000      -0.517467       -14.0810
 239   2.0000      -0.515060       -14.0155
 240   2.0000      -0.514213       -13.9925
 241   2.0000      -0.513319       -13.9681
 242   2.0000      -0.510654       -13.8956
 243   2.0000      -0.507354       -13.8058
 244   2.0000      -0.505519       -13.7559
 245   2.0000      -0.504885       -13.7386
 246   2.0000      -0.500951       -13.6316
 247   2.0000      -0.498695       -13.5702
 248   2.0000      -0.495460       -13.4821
 249   2.0000      -0.493795       -13.4368
 250   2.0000      -0.491499       -13.3744
 251   2.0000      -0.489847       -13.3294
 252   2.0000      -0.486123       -13.2281
 253   2.0000      -0.484986       -13.1971
 254   2.0000      -0.482627       -13.1329
 255   2.0000      -0.479800       -13.0560
 256   2.0000      -0.474536       -12.9128
 257   2.0000      -0.473634       -12.8882
 258   2.0000      -0.472134       -12.8474
 259   2.0000      -0.471014       -12.8169
 260   2.0000      -0.469663       -12.7802
 261   2.0000      -0.467696       -12.7267
 262   2.0000      -0.465543       -12.6681
 263   2.0000      -0.465150       -12.6574
 264   2.0000      -0.463057       -12.6004
 265   2.0000      -0.461984       -12.5712
 266   2.0000      -0.461430       -12.5561
 267   2.0000      -0.460595       -12.5334
 268   2.0000      -0.458521       -12.4770
 269   2.0000      -0.455487       -12.3944
 270   2.0000      -0.454616       -12.3707
 271   2.0000      -0.453598       -12.3430
 272   2.0000      -0.452503       -12.3132
 273   2.0000      -0.449893       -12.2422
 274   2.0000      -0.449783       -12.2392
 275   2.0000      -0.448785       -12.2121
 276   2.0000      -0.448532       -12.2052
 277   2.0000      -0.447573       -12.1791
 278   2.0000      -0.446521       -12.1505
 279   2.0000      -0.446141       -12.1401
 280   2.0000      -0.442190       -12.0326
 281   2.0000      -0.441073       -12.0022
 282   2.0000      -0.440319       -11.9817
 283   2.0000      -0.439630       -11.9630
 284   2.0000      -0.436236       -11.8706
 285   2.0000      -0.434902       -11.8343
 286   2.0000      -0.434751       -11.8302
 287   2.0000      -0.433289       -11.7904
 288   2.0000      -0.431756       -11.7487
 289   2.0000      -0.429143       -11.6776
 290   2.0000      -0.427159       -11.6236
 291   2.0000      -0.424767       -11.5585
 292   2.0000      -0.421178       -11.4608
 293   2.0000      -0.414577       -11.2812
 294   2.0000      -0.414434       -11.2773
 295   2.0000      -0.407161       -11.0794
 296   2.0000      -0.405171       -11.0253
 297   2.0000      -0.399929       -10.8826
 298   2.0000      -0.392824       -10.6893
 299   2.0000      -0.389720       -10.6048
 300   2.0000      -0.380642       -10.3578
 301   2.0000      -0.374037       -10.1781
 302   2.0000      -0.370962       -10.0944
 303   2.0000      -0.368573       -10.0294
 304   2.0000      -0.363162        -9.8822
 305   2.0000      -0.361637        -9.8406
 306   2.0000      -0.360552        -9.8111
 307   2.0000      -0.356697        -9.7062
 308   2.0000      -0.355309        -9.6684
 309   2.0000      -0.350576        -9.5397
 310   2.0000      -0.347465        -9.4550
 311   2.0000      -0.339808        -9.2466
 312   2.0000      -0.334112        -9.0916
 313   2.0000      -0.331934        -9.0324
 314   2.0000      -0.320540        -8.7223
 315   2.0000      -0.318351        -8.6628
 316   2.0000      -0.313032        -8.5180
 317   2.0000      -0.310146        -8.4395
 318   2.0000      -0.272795        -7.4231
 319   2.0000      -0.269954        -7.3458
 320   0.0000      -0.124001        -3.3742
 321   0.0000      -0.119741        -3.2583
 322   0.0000      -0.096522        -2.6265
 323   0.0000      -0.094913        -2.5827
 324   0.0000      -0.076413        -2.0793

MULLIKEN ATOMIC CHARGES
-----------------------
   0 C :    0.167416
   1 O :   -0.179613
   2 C :   -0.022921
   3 C :    0.030949
   4 C :   -0.023762
   5 C :    0.050073
   6 C :   -0.005898
   7 C :   -0.008455
   8 Br:   -0.012937
   9 C :    0.321029
  10 C :   -0.350433
  11 C :   -0.185086
  12 N :    0.159271
  13 C :   -0.189530
  14 N :    0.155546
  15 C :   -0.092008
  16 C :   -0.026570
  17 C :   -0.054546
  18 C :   -0.058332
  19 C :    0.047520
  20 C :   -0.069837
  21 S :    0.254767
  22 C :   -0.097914
  23 C :    0.040529
  24 C :    0.303696
  25 C :   -0.294743
  26 C :   -0.189436
  27 N :    0.173583
  28 C :   -0.194196
  29 N :    0.189111
  30 C :   -0.073850
  31 C :   -0.085856
  32 S :    0.241472
  33 C :   -0.076155
  34 C :    0.011819
  35 C :   -0.368616
  36 N :    0.227414
  37 C :    0.141106
  38 C :   -0.224599
  39 S :    0.181030
  40 S :    0.206430
  41 C :   -0.230465
  42 C :    0.135602
  43 C :   -0.004050
  44 C :   -0.330238
  45 N :    0.224319
  46 C :   -0.068078
  47 S :    0.174089
  48 C :   -0.092695
  49 C :   -0.041988
  50 C :    0.020772
  51 C :   -0.096225
  52 S :    0.191777
  53 C :   -0.077714
  54 C :    0.025004
  55 C :    0.301651
  56 C :   -0.283514
  57 C :   -0.189186
  58 N :    0.181536
  59 C :   -0.196589
  60 N :    0.201261
  61 C :    0.006009
  62 C :   -0.091201
  63 S :    0.208212
  64 C :    0.044612
  65 C :   -0.133157
  66 C :    0.141452
  67 O :   -0.131242
  68 C :   -0.006341
  69 C :    0.019795
  70 C :    0.240411
  71 C :   -0.319293
  72 C :   -0.176118
  73 N :    0.158697
  74 C :   -0.210008
  75 N :    0.182099
  76 C :   -0.022806
  77 C :    0.051398
  78 C :   -0.006212
  79 C :   -0.013812
  80 Br:   -0.013524
  81 H :    0.009123
  82 H :    0.008476
  83 H :    0.005025
  84 H :    0.017488
  85 H :    0.029810
  86 H :    0.020500
  87 H :    0.031948
  88 H :    0.021648
  89 H :    0.037073
  90 H :    0.011726
  91 H :    0.008346
  92 H :    0.007129
Sum of atomic charges:   -0.0000000

LOEWDIN ATOMIC CHARGES
----------------------
   0 C :    0.087001
   1 O :   -0.164888
   2 C :   -0.038752
   3 C :   -0.014683
   4 C :    0.009416
   5 C :   -0.010651
   6 C :   -0.097929
   7 C :    0.001867
   8 Br:    0.120762
   9 C :    0.075178
  10 C :   -0.134329
  11 C :   -0.018616
  12 N :   -0.046434
  13 C :   -0.022772
  14 N :   -0.042934
  15 C :   -0.110689
  16 C :    0.057854
  17 C :   -0.183085
  18 C :    0.013146
  19 C :   -0.076501
  20 C :   -0.166463
  21 S :    0.555753
  22 C :   -0.182927
  23 C :   -0.056356
  24 C :    0.077763
  25 C :   -0.099285
  26 C :   -0.015688
  27 N :   -0.032275
  28 C :   -0.020669
  29 N :   -0.020980
  30 C :   -0.032310
  31 C :   -0.181773
  32 S :    0.533624
  33 C :   -0.140372
  34 C :   -0.101996
  35 C :   -0.059782
  36 N :   -0.019383
  37 C :   -0.060770
  38 C :   -0.330229
  39 S :    0.467543
  40 S :    0.436733
  41 C :   -0.332502
  42 C :   -0.059227
  43 C :   -0.093623
  44 C :   -0.041975
  45 N :   -0.017022
  46 C :   -0.147911
  47 S :    0.446666
  48 C :   -0.180275
  49 C :   -0.011462
  50 C :   -0.052686
  51 C :   -0.180877
  52 S :    0.475366
  53 C :   -0.155440
  54 C :   -0.067177
  55 C :    0.074102
  56 C :   -0.085460
  57 C :   -0.015957
  58 N :   -0.022908
  59 C :   -0.024556
  60 N :   -0.006174
  61 C :    0.015255
  62 C :   -0.177170
  63 S :    0.510234
  64 C :    0.053175
  65 C :   -0.101096
  66 C :    0.084830
  67 O :   -0.130894
  68 C :   -0.039355
  69 C :   -0.013928
  70 C :    0.059794
  71 C :   -0.140268
  72 C :   -0.021379
  73 N :   -0.044671
  74 C :   -0.038167
  75 N :   -0.042778
  76 C :    0.005950
  77 C :   -0.010488
  78 C :   -0.098235
  79 C :    0.002396
  80 Br:    0.120291
  81 H :    0.043515
  82 H :    0.041468
  83 H :    0.044965
  84 H :    0.054170
  85 H :    0.048700
  86 H :    0.035533
  87 H :    0.049091
  88 H :    0.048336
  89 H :    0.056747
  90 H :    0.043071
  91 H :    0.041250
  92 H :    0.045638

  Mayer bond orders larger than 0.100000
B(  0-C ,  1-O ) :   2.1199 B(  0-C ,  2-C ) :   0.9636 B(  0-C , 15-C ) :   0.9848
B(  2-C ,  3-C ) :   1.3319 B(  2-C ,  7-C ) :   1.3771 B(  3-C ,  4-C ) :   1.3677
B(  3-C ,  9-C ) :   0.9906 B(  4-C ,  5-C ) :   1.3815 B(  4-C , 81-H ) :   0.9831
B(  5-C ,  6-C ) :   1.3889 B(  5-C , 82-H ) :   0.9847 B(  6-C ,  7-C ) :   1.3347
B(  6-C ,  8-Br) :   0.9966 B(  7-C , 83-H ) :   1.0078 B(  9-C , 10-C ) :   1.6387
B(  9-C , 15-C ) :   1.0725 B( 10-C , 11-C ) :   1.1427 B( 10-C , 13-C ) :   1.1420
B( 11-C , 12-N ) :   2.9749 B( 13-C , 14-N ) :   2.9631 B( 15-C , 16-C ) :   1.5029
B( 16-C , 17-C ) :   1.2637 B( 16-C , 84-H ) :   0.9387 B( 17-C , 18-C ) :   1.3327
B( 17-C , 21-S ) :   1.0716 B( 18-C , 19-C ) :   1.3297 B( 18-C , 85-H ) :   1.0074
B( 19-C , 20-C ) :   1.3570 B( 19-C , 24-C ) :   0.9876 B( 20-C , 21-S ) :   1.1335
B( 20-C , 22-C ) :   1.1968 B( 22-C , 23-C ) :   1.4218 B( 22-C , 32-S ) :   1.1236
B( 23-C , 24-C ) :   0.9929 B( 23-C , 30-C ) :   1.3159 B( 24-C , 25-C ) :   1.7172
B( 25-C , 26-C ) :   1.1366 B( 25-C , 28-C ) :   1.1348 B( 26-C , 27-N ) :   2.9866
B( 28-C , 29-N ) :   2.9963 B( 30-C , 31-C ) :   1.4282 B( 30-C , 86-H ) :   0.9834
B( 31-C , 32-S ) :   1.1200 B( 31-C , 33-C ) :   1.1928 B( 33-C , 34-C ) :   1.4962
B( 33-C , 39-S ) :   1.1445 B( 34-C , 35-C ) :   1.1520 B( 34-C , 37-C ) :   1.2507
B( 35-C , 36-N ) :   2.9648 B( 37-C , 38-C ) :   1.4237 B( 37-C , 42-C ) :   1.0678
B( 38-C , 39-S ) :   1.0858 B( 38-C , 40-S ) :   1.0876 B( 40-S , 41-C ) :   1.0868
B( 41-C , 42-C ) :   1.4181 B( 41-C , 47-S ) :   1.0873 B( 42-C , 43-C ) :   1.2573
B( 43-C , 44-C ) :   1.1752 B( 43-C , 46-C ) :   1.5356 B( 44-C , 45-N ) :   2.9437
B( 46-C , 47-S ) :   1.1286 B( 46-C , 48-C ) :   1.1479 B( 48-C , 49-C ) :   1.4756
B( 48-C , 52-S ) :   1.0968 B( 49-C , 50-C ) :   1.2909 B( 49-C , 87-H ) :   0.9849
B( 50-C , 51-C ) :   1.4332 B( 50-C , 55-C ) :   0.9915 B( 51-C , 52-S ) :   1.1211
B( 51-C , 53-C ) :   1.2061 B( 53-C , 54-C ) :   1.4037 B( 53-C , 63-S ) :   1.1544
B( 54-C , 55-C ) :   0.9913 B( 54-C , 61-C ) :   1.3052 B( 55-C , 56-C ) :   1.7246
B( 56-C , 57-C ) :   1.1337 B( 56-C , 59-C ) :   1.1347 B( 57-C , 58-N ) :   2.9910
B( 59-C , 60-N ) :   2.9933 B( 61-C , 62-C ) :   1.3969 B( 61-C , 88-H ) :   1.0009
B( 62-C , 63-S ) :   1.0866 B( 62-C , 64-C ) :   1.1445 B( 64-C , 65-C ) :   1.6423
B( 64-C , 89-H ) :   0.9447 B( 65-C , 66-C ) :   0.9421 B( 65-C , 70-C ) :   1.0343
B( 66-C , 67-O ) :   2.2756 B( 66-C , 68-C ) :   0.9194 B( 68-C , 69-C ) :   1.3327
B( 68-C , 79-C ) :   1.3825 B( 69-C , 70-C ) :   1.0097 B( 69-C , 76-C ) :   1.3676
B( 70-C , 71-C ) :   1.6595 B( 71-C , 72-C ) :   1.1301 B( 71-C , 74-C ) :   1.1525
B( 72-C , 73-N ) :   2.9960 B( 74-C , 75-N ) :   3.0248 B( 76-C , 77-C ) :   1.3808
B( 76-C , 90-H ) :   0.9872 B( 77-C , 78-C ) :   1.3888 B( 77-C , 91-H ) :   0.9852
B( 78-C , 79-C ) :   1.3403 B( 78-C , 80-Br) :   0.9967 B( 79-C , 92-H ) :   1.0083

-----------------------------------------------------------------------------
         ABSORPTION SPECTRUM VIA TRANSITION ELECTRIC DIPOLE MOMENTS
-----------------------------------------------------------------------------
State   Energy  Wavelength   fosc         T2         TX        TY        TZ
        (cm-1)    (nm)                  (au**2)     (au)      (au)      (au)
-----------------------------------------------------------------------------
   0   14214.0    703.5   0.474080329  10.98024  -0.20833  -3.23082  -0.70614
   1   14750.3    678.0   0.177290520   3.95694  -0.50022  -1.67552   0.94835
   2   20976.1    476.7   1.181480663  18.54292   0.17185  -4.30260  -0.03215
   3   21692.6    461.0   0.907692809  13.77536  -1.08966  -3.14062   1.65061
   4   22755.1    439.5   0.004197768   0.06073  -0.00236  -0.09992   0.22526
   5   24092.1    415.1   0.007915804   0.10817   0.01596   0.15394  -0.29020
   6   25319.5    395.0   0.061495615   0.79958   0.57545   0.38822   0.56367
   7   26029.4    384.2   0.055596634   0.70317   0.10085   0.83117   0.04640
   8   26342.6    379.6   0.035276546   0.44086  -0.11393  -0.43530   0.48826
   9   26873.3    372.1   0.356072953   4.36208  -0.33393  -1.23381  -1.65175
  10   28191.5    354.7   0.568657690   6.64061   0.77980   2.28026   0.91267
  11   29011.0    344.7   0.032048813   0.36368  -0.16844   0.19340  -0.54581
  12   29112.2    343.5   0.007796555   0.08817   0.06022   0.07448   0.28106
  13   29372.7    340.5   0.358525048   4.01838  -0.23950   1.13497  -1.63489
  14   29840.8    335.1   0.401376778   4.42809  -0.58400  -1.03243  -1.73814
  15   30004.6    333.3   0.030045386   0.32966   0.14315   0.55426  -0.04427
  16   30259.5    330.5   0.031760594   0.34554  -0.10641  -0.46429  -0.34446
  17   30471.6    328.2   0.235252604   2.54164  -0.23803  -0.70074  -1.41207
  18   30555.4    327.3   0.264425700   2.84900   0.12149  -0.75771   1.50337
  19   30638.9    326.4   0.026892061   0.28895   0.09693   0.32979   0.41327
  20   30931.1    323.3   0.060011995   0.63873   0.27703   0.53698   0.52311
  21   32006.7    312.4   0.054900663   0.56469   0.02203  -0.12152   0.74124
  22   32233.1    310.2   0.115975966   1.18452  -0.22581   1.00461  -0.35253
  23   32558.3    307.1   0.016541956   0.16726   0.09119   0.30049  -0.26202
  24   32667.9    306.1   0.327542791   3.30083  -0.09309  -1.28940   1.27657
  25   32786.1    305.0   0.135057649   1.35614   0.82307  -0.25007   0.78496
  26   32863.3    304.3   0.289022769   2.89532  -0.28365  -1.67213   0.13724
  27   32960.9    303.4   0.109655217   1.09523   0.07175  -0.19815   1.02509
  28   33158.3    301.6   0.018253907   0.18123  -0.01515   0.15028  -0.39802
  29   33664.9    297.0   0.127581337   1.24763   0.44173   0.47435   0.90967
  30   33861.1    295.3   0.202751419   1.97123  -0.22218  -0.61938   1.24026
  31   34404.9    290.7   0.843098167   8.06739   0.83816   1.27739   2.39440
  32   34419.3    290.5   0.033071442   0.31632  -0.30835  -0.41525  -0.22091
  33   34469.8    290.1   0.221281586   2.11340  -0.85767  -1.16976   0.09729
  34   34666.1    288.5   0.008118634   0.07710   0.12225  -0.23904   0.07079
  35   35688.7    280.2   0.070609551   0.65134  -0.19758  -0.76325  -0.17250
  36   36049.1    277.4   0.032831981   0.29983   0.01546   0.37949  -0.39444
  37   36077.3    277.2   0.006843456   0.06245   0.03186  -0.15110   0.19647
  38   36327.9    275.3   0.117604278   1.06576   0.46983   0.90031   0.18564
  39   36366.8    275.0   0.054133719   0.49005  -0.00761   0.20170  -0.67030
  40   36633.3    273.0   0.107388906   0.96507  -0.67407  -0.68555  -0.20181
  41   36746.6    272.1   0.072314018   0.64786   0.33657   0.54438   0.48809
  42   37161.9    269.1   0.006382046   0.05654  -0.09141   0.13784   0.17082
  43   37222.0    268.7   0.010187372   0.09010   0.08560  -0.08742   0.27410
  44   37499.9    266.7   0.001548913   0.01360  -0.03714   0.05236   0.09735
  45   37611.3    265.9   0.022584240   0.19768  -0.13981  -0.14480  -0.39644
  46   37714.1    265.2   0.007204138   0.06289   0.02033  -0.04467   0.24592
  47   37738.7    265.0   0.020417708   0.17811  -0.01075  -0.23027   0.35352
  48   37896.6    263.9   0.023822887   0.20695  -0.01442   0.19656  -0.41001
  49   38199.8    261.8   0.016387469   0.14123   0.11344   0.04891   0.35492
  50   38582.2    259.2   0.006227552   0.05314   0.09632   0.07310   0.19626
  51   38752.3    258.0   0.009722583   0.08260  -0.05034   0.02549  -0.28180
  52   38806.3    257.7   0.021508251   0.18246  -0.14826  -0.18237  -0.35668
  53   39164.7    255.3   0.020355088   0.17110   0.08528   0.23386   0.33036
  54   39300.4    254.5   0.017175612   0.14388   0.07234  -0.00439   0.37232
  55   39899.2    250.6   0.127562636   1.05253   0.43372   0.63387   0.68016
  56   39996.7    250.0   0.029272221   0.24094   0.02380  -0.45776   0.17559

FINAL SINGLE POINT ENERGY    -10921.960481820137

DIPOLE MOMENT
-------------
                                X             Y             Z
Electronic contribution:    -17.16165     -51.78538     -55.20496
Nuclear contribution   :     15.14965      48.64491      56.90780
                        -----------------------------------------
Total Dipole Moment    :     -2.01200      -3.14047       1.70284
                        -----------------------------------------
Magnitude (a.u.)       :      4.10004
Magnitude (Debye)      :     10.42148

Rotational constants in cm-1:     0.001089     0.000124     0.000113
Rotational constants in MHz :    32.637233     3.720221     3.383846

                             ****ORCA TERMINATED NORMALLY****
TOTAL RUN TIME: 0 days 0 hours 12 minutes 3 seconds 840 msec
