                         Program Version 4.2.0 -  RELEASE  -
|  1> # ORCA input file
|  2> # SCF done       -161.925691809129          0.000536608973
|  3> ! CAM-B3LYP def2-SVP def2/J RIJCOSX Grid4 TightSCF
|  4> %maxcore 5000
|  5> %tddft
|  6>     Mode sTDDFT
|  7>     Ethresh 5.0
|  8>     maxcore 5000
|  9> end
| 10>
| 11> %pal
| 12>   nprocs 6
| 13>   end
| 14> * xyz 0 1
| 15>    C       -2.46043         2.55759         2.13998
| 16>    N       -1.56815         3.22252         1.42526
| 17>    C       -1.38391         2.80353         0.18093
| 18>    C       -2.08041         1.73240        -0.34854
| 19>    C       -3.00267         1.09678         0.49377
| 20>    N       -3.18013         1.53028         1.74909
| 21>    C       -3.78149        -0.03291         0.04278
| 22>    C       -4.67039        -0.65117         0.84652
| 23>    C       -5.47681        -1.76561         0.48864
| 24>    C       -5.53703        -2.46368        -0.70580
| 25>    C       -6.46667        -3.50053        -0.66349
| 26>    C       -7.12475        -3.59726         0.57826
| 27>    S       -6.59279        -2.41349         1.68337
| 28>    C       -8.05237        -4.66448         0.52105
| 29>    C       -7.98266        -5.24639        -0.76158
| 30>    C       -6.97556        -4.54298        -1.54129
| 31>    C       -6.57408        -4.81072        -2.81665
| 32>    C       -7.10813        -5.87230        -3.57867
| 33>    N       -7.51933        -6.73490        -4.21138
| 34>    C       -5.57666        -4.04749        -3.45940
| 35>    N       -4.76518        -3.42668        -3.98017
| 36>    C       -8.87634        -6.29684        -0.92721
| 37>    C       -9.62674        -6.53197         0.21827
| 38>    S       -9.19979        -5.43075         1.52450
| 39>    C      -10.64465        -7.50070         0.44058
| 40>    C      -11.16832        -8.36692        -0.55096
| 41>    C      -12.20594        -9.32412        -0.26879
| 42>    N      -12.63169       -10.13890        -1.25823
| 43>    C      -12.12671       -10.03555        -2.44267
| 44>    C      -11.13346        -9.06322        -2.73095
| 45>    N      -10.68385        -8.27819        -1.80879
| 46>    F      -10.63700        -8.93052        -3.95488
| 47>    F      -12.56263       -10.87016        -3.37835
| 48>    C      -12.78785        -9.45769         1.01662
| 49>    C      -12.25220        -8.60367         2.00510
| 50>    C      -11.21695        -7.64698         1.72288
| 51>    N      -10.88426        -6.94786         2.80877
| 52>    S      -11.77315        -7.43883         4.05272
| 53>    N      -12.62670        -8.55959         3.28421
| 54>    C      -13.83360       -10.36505         1.34290
| 55>    C      -14.57871       -11.17874         0.49813
| 56>    C      -15.52043       -11.92842         1.19066
| 57>    C      -15.49305       -11.69723         2.58100
| 58>    S      -14.32627       -10.53573         3.02518
| 59>    C      -16.47429       -12.51846         3.19229
| 60>    C      -17.12178       -13.26570         2.18865
| 61>    C      -16.55367       -12.91211         0.89953
| 62>    C      -16.92657       -13.38643        -0.32342
| 63>    C      -17.95179       -14.34432        -0.47421
| 64>    N      -18.78266       -15.12345        -0.60637
| 65>    C      -16.33333       -12.94472        -1.52566
| 66>    N      -15.87587       -12.58945        -2.51486
| 67>    C      -18.10729       -14.11111         2.70120
| 68>    C      -18.19915       -14.00410         4.07126
| 69>    S      -17.07599       -12.85838         4.75368
| 70>    C      -19.08907       -14.71424         4.95318
| 71>    N      -18.98174       -14.44338         6.25597
| 72>    C      -19.79646       -15.09586         7.06443
| 73>    C      -20.72081       -16.01613         6.59925
| 74>    C      -20.76065       -16.23303         5.21554
| 75>    N      -19.93733       -15.57449         4.40395
| 76>    C      -21.69786       -17.17927         4.62429
| 77>    C      -21.76446       -17.41238         3.31904
| 78>    H       -2.61543         2.89680         3.15683
| 79>    H       -0.65222         3.35122        -0.39953
| 80>    H       -1.92427         1.39781        -1.36155
| 81>    H       -3.61512        -0.35802        -0.97377
| 82>    H       -4.78500        -0.26799         1.85167
| 83>    H       -4.93111        -2.22115        -1.55892
| 84>    H       -9.00120        -6.87770        -1.82119
| 85>    H      -14.41812       -11.20139        -0.56292
| 86>    H      -18.73273       -14.77531         2.13449
| 87>    H      -19.69766       -14.86691         8.11805
| 88>    H      -21.38083       -16.54282         7.26895
| 89>    H      -22.34774       -17.68934         5.32265
| 90>    H      -21.11016       -16.89536         2.63841
| 91>    H      -22.46404       -18.11490         2.90039
| 92> *
| 93>
| 94>                          ****END OF INPUT****

CARTESIAN COORDINATES (ANGSTROEM)
---------------------------------
  C     -2.460430    2.557590    2.139980
  N     -1.568150    3.222520    1.425260
  C     -1.383910    2.803530    0.180930
  C     -2.080410    1.732400   -0.348540
  C     -3.002670    1.096780    0.493770
  N     -3.180130    1.530280    1.749090
  C     -3.781490   -0.032910    0.042780
  C     -4.670390   -0.651170    0.846520
  C     -5.476810   -1.765610    0.488640
  C     -5.537030   -2.463680   -0.705800
  C     -6.466670   -3.500530   -0.663490
  C     -7.124750   -3.597260    0.578260
  S     -6.592790   -2.413490    1.683370
  C     -8.052370   -4.664480    0.521050
  C     -7.982660   -5.246390   -0.761580
  C     -6.975560   -4.542980   -1.541290
  C     -6.574080   -4.810720   -2.816650
  C     -7.108130   -5.872300   -3.578670
  N     -7.519330   -6.734900   -4.211380
  C     -5.576660   -4.047490   -3.459400
  N     -4.765180   -3.426680   -3.980170
  C     -8.876340   -6.296840   -0.927210
  C     -9.626740   -6.531970    0.218270
  S     -9.199790   -5.430750    1.524500
  C    -10.644650   -7.500700    0.440580
  C    -11.168320   -8.366920   -0.550960
  C    -12.205940   -9.324120   -0.268790
  N    -12.631690  -10.138900   -1.258230
  C    -12.126710  -10.035550   -2.442670
  C    -11.133460   -9.063220   -2.730950
  N    -10.683850   -8.278190   -1.808790
  F    -10.637000   -8.930520   -3.954880
  F    -12.562630  -10.870160   -3.378350
  C    -12.787850   -9.457690    1.016620
  C    -12.252200   -8.603670    2.005100
  C    -11.216950   -7.646980    1.722880
  N    -10.884260   -6.947860    2.808770
  S    -11.773150   -7.438830    4.052720
  N    -12.626700   -8.559590    3.284210
  C    -13.833600  -10.365050    1.342900
  C    -14.578710  -11.178740    0.498130
  C    -15.520430  -11.928420    1.190660
  C    -15.493050  -11.697230    2.581000
  S    -14.326270  -10.535730    3.025180
  C    -16.474290  -12.518460    3.192290
  C    -17.121780  -13.265700    2.188650
  C    -16.553670  -12.912110    0.899530
  C    -16.926570  -13.386430   -0.323420
  C    -17.951790  -14.344320   -0.474210
  N    -18.782660  -15.123450   -0.606370
  C    -16.333330  -12.944720   -1.525660
  N    -15.875870  -12.589450   -2.514860
  C    -18.107290  -14.111110    2.701200
  C    -18.199150  -14.004100    4.071260
  S    -17.075990  -12.858380    4.753680
  C    -19.089070  -14.714240    4.953180
  N    -18.981740  -14.443380    6.255970
  C    -19.796460  -15.095860    7.064430
  C    -20.720810  -16.016130    6.599250
  C    -20.760650  -16.233030    5.215540
  N    -19.937330  -15.574490    4.403950
  C    -21.697860  -17.179270    4.624290
  C    -21.764460  -17.412380    3.319040
  H     -2.615430    2.896800    3.156830
  H     -0.652220    3.351220   -0.399530
  H     -1.924270    1.397810   -1.361550
  H     -3.615120   -0.358020   -0.973770
  H     -4.785000   -0.267990    1.851670
  H     -4.931110   -2.221150   -1.558920
  H     -9.001200   -6.877700   -1.821190
  H    -14.418120  -11.201390   -0.562920
  H    -18.732730  -14.775310    2.134490
  H    -19.697660  -14.866910    8.118050
  H    -21.380830  -16.542820    7.268950
  H    -22.347740  -17.689340    5.322650
  H    -21.110160  -16.895360    2.638410
  H    -22.464040  -18.114900    2.900390

 Total Charge           Charge          ....    0
 Multiplicity           Mult            ....    1
 Number of Electrons    NEL             ....  460
 Basis Dimension        Dim             ....  972

ORBITAL ENERGIES
----------------

  NO   OCC          E(Eh)            E(eV)
   0   2.0000     -89.052300     -2423.2363
   1   2.0000     -88.986088     -2421.4346
   2   2.0000     -88.980952     -2421.2948
   3   2.0000     -88.980294     -2421.2769
   4   2.0000     -88.979359     -2421.2514
   5   2.0000     -24.813257      -675.2030
   6   2.0000     -24.812789      -675.1903
   7   2.0000     -14.461593      -393.5199
   8   2.0000     -14.461312      -393.5123
   9   2.0000     -14.454287      -393.3211
  10   2.0000     -14.454077      -393.3154
  11   2.0000     -14.426861      -392.5749
  12   2.0000     -14.424065      -392.4988
  13   2.0000     -14.421431      -392.4271
  14   2.0000     -14.420491      -392.4015
  15   2.0000     -14.414033      -392.2258
  16   2.0000     -14.412114      -392.1736
  17   2.0000     -14.405139      -391.9838
  18   2.0000     -14.401287      -391.8789
  19   2.0000     -10.431642      -283.8594
  20   2.0000     -10.431118      -283.8451
  21   2.0000     -10.359421      -281.8942
  22   2.0000     -10.354666      -281.7648
  23   2.0000     -10.353050      -281.7208
  24   2.0000     -10.350255      -281.6448
  25   2.0000     -10.349795      -281.6323
  26   2.0000     -10.347379      -281.5665
  27   2.0000     -10.346215      -281.5348
  28   2.0000     -10.345924      -281.5269
  29   2.0000     -10.342728      -281.4399
  30   2.0000     -10.331518      -281.1349
  31   2.0000     -10.329447      -281.0785
  32   2.0000     -10.328938      -281.0647
  33   2.0000     -10.327622      -281.0289
  34   2.0000     -10.326158      -280.9890
  35   2.0000     -10.325893      -280.9818
  36   2.0000     -10.324214      -280.9362
  37   2.0000     -10.323613      -280.9198
  38   2.0000     -10.322920      -280.9009
  39   2.0000     -10.322049      -280.8772
  40   2.0000     -10.321562      -280.8640
  41   2.0000     -10.321191      -280.8539
  42   2.0000     -10.320922      -280.8466
  43   2.0000     -10.320811      -280.8436
  44   2.0000     -10.320424      -280.8330
  45   2.0000     -10.319901      -280.8188
  46   2.0000     -10.319181      -280.7992
  47   2.0000     -10.316419      -280.7240
  48   2.0000     -10.306280      -280.4481
  49   2.0000     -10.301303      -280.3127
  50   2.0000     -10.298520      -280.2370
  51   2.0000     -10.295357      -280.1509
  52   2.0000     -10.294373      -280.1241
  53   2.0000     -10.294091      -280.1165
  54   2.0000     -10.292894      -280.0839
  55   2.0000     -10.292041      -280.0607
  56   2.0000     -10.291719      -280.0519
  57   2.0000     -10.290459      -280.0176
  58   2.0000     -10.286342      -279.9056
  59   2.0000     -10.282567      -279.8029
  60   2.0000     -10.281019      -279.7608
  61   2.0000     -10.277565      -279.6668
  62   2.0000     -10.275205      -279.6025
  63   2.0000      -8.143200      -221.5877
  64   2.0000      -8.080914      -219.8928
  65   2.0000      -8.074303      -219.7130
  66   2.0000      -8.074277      -219.7123
  67   2.0000      -8.072686      -219.6690
  68   2.0000      -6.114315      -166.3790
  69   2.0000      -6.106683      -166.1713
  70   2.0000      -6.105813      -166.1476
  71   2.0000      -6.050031      -164.6297
  72   2.0000      -6.045903      -164.5174
  73   2.0000      -6.043712      -164.4578
  74   2.0000      -6.043466      -164.4511
  75   2.0000      -6.043445      -164.4505
  76   2.0000      -6.042099      -164.4139
  77   2.0000      -6.039198      -164.3349
  78   2.0000      -6.039092      -164.3320
  79   2.0000      -6.037492      -164.2885
  80   2.0000      -6.037012      -164.2754
  81   2.0000      -6.036703      -164.2670
  82   2.0000      -6.035153      -164.2249
  83   2.0000      -1.342048       -36.5190
  84   2.0000      -1.327947       -36.1353
  85   2.0000      -1.149707       -31.2851
  86   2.0000      -1.114275       -30.3210
  87   2.0000      -1.089042       -29.6343
  88   2.0000      -1.075977       -29.2788
  89   2.0000      -1.041282       -28.3347
  90   2.0000      -1.038008       -28.2456
  91   2.0000      -1.034082       -28.1388
  92   2.0000      -1.017544       -27.6888
  93   2.0000      -1.013267       -27.5724
  94   2.0000      -1.008635       -27.4464
  95   2.0000      -1.003050       -27.2944
  96   2.0000      -0.998687       -27.1756
  97   2.0000      -0.995854       -27.0986
  98   2.0000      -0.987450       -26.8699
  99   2.0000      -0.984892       -26.8003
 100   2.0000      -0.976567       -26.5737
 101   2.0000      -0.972575       -26.4651
 102   2.0000      -0.952502       -25.9189
 103   2.0000      -0.947062       -25.7709
 104   2.0000      -0.917399       -24.9637
 105   2.0000      -0.913224       -24.8501
 106   2.0000      -0.900854       -24.5135
 107   2.0000      -0.893519       -24.3139
 108   2.0000      -0.890190       -24.2233
 109   2.0000      -0.879721       -23.9384
 110   2.0000      -0.869376       -23.6569
 111   2.0000      -0.857819       -23.3424
 112   2.0000      -0.856013       -23.2933
 113   2.0000      -0.850076       -23.1317
 114   2.0000      -0.848026       -23.0759
 115   2.0000      -0.843857       -22.9625
 116   2.0000      -0.820801       -22.3351
 117   2.0000      -0.807485       -21.9728
 118   2.0000      -0.793388       -21.5892
 119   2.0000      -0.781187       -21.2572
 120   2.0000      -0.779719       -21.2172
 121   2.0000      -0.765042       -20.8179
 122   2.0000      -0.763305       -20.7706
 123   2.0000      -0.751978       -20.4624
 124   2.0000      -0.748309       -20.3625
 125   2.0000      -0.743967       -20.2444
 126   2.0000      -0.737634       -20.0721
 127   2.0000      -0.718937       -19.5633
 128   2.0000      -0.700867       -19.0715
 129   2.0000      -0.696520       -18.9533
 130   2.0000      -0.691566       -18.8185
 131   2.0000      -0.686980       -18.6937
 132   2.0000      -0.681864       -18.5545
 133   2.0000      -0.676810       -18.4169
 134   2.0000      -0.674072       -18.3424
 135   2.0000      -0.670936       -18.2571
 136   2.0000      -0.663360       -18.0509
 137   2.0000      -0.657310       -17.8863
 138   2.0000      -0.647333       -17.6148
 139   2.0000      -0.638035       -17.3618
 140   2.0000      -0.631178       -17.1752
 141   2.0000      -0.627373       -17.0717
 142   2.0000      -0.619701       -16.8629
 143   2.0000      -0.619000       -16.8439
 144   2.0000      -0.617663       -16.8075
 145   2.0000      -0.614683       -16.7264
 146   2.0000      -0.608375       -16.5547
 147   2.0000      -0.606534       -16.5046
 148   2.0000      -0.603350       -16.4180
 149   2.0000      -0.594228       -16.1698
 150   2.0000      -0.585677       -15.9371
 151   2.0000      -0.580826       -15.8051
 152   2.0000      -0.574908       -15.6441
 153   2.0000      -0.568530       -15.4705
 154   2.0000      -0.567794       -15.4505
 155   2.0000      -0.558735       -15.2039
 156   2.0000      -0.554123       -15.0784
 157   2.0000      -0.544475       -14.8159
 158   2.0000      -0.542577       -14.7643
 159   2.0000      -0.542059       -14.7502
 160   2.0000      -0.541431       -14.7331
 161   2.0000      -0.540872       -14.7179
 162   2.0000      -0.537343       -14.6219
 163   2.0000      -0.529382       -14.4052
 164   2.0000      -0.528229       -14.3738
 165   2.0000      -0.521878       -14.2010
 166   2.0000      -0.520101       -14.1527
 167   2.0000      -0.515008       -14.0141
 168   2.0000      -0.511324       -13.9138
 169   2.0000      -0.510880       -13.9017
 170   2.0000      -0.507577       -13.8119
 171   2.0000      -0.501052       -13.6343
 172   2.0000      -0.498956       -13.5773
 173   2.0000      -0.498295       -13.5593
 174   2.0000      -0.496170       -13.5015
 175   2.0000      -0.493182       -13.4202
 176   2.0000      -0.491178       -13.3656
 177   2.0000      -0.490279       -13.3412
 178   2.0000      -0.488116       -13.2823
 179   2.0000      -0.486293       -13.2327
 180   2.0000      -0.482451       -13.1281
 181   2.0000      -0.479571       -13.0498
 182   2.0000      -0.474815       -12.9204
 183   2.0000      -0.466955       -12.7065
 184   2.0000      -0.465733       -12.6732
 185   2.0000      -0.458415       -12.4741
 186   2.0000      -0.456426       -12.4200
 187   2.0000      -0.454556       -12.3691
 188   2.0000      -0.453526       -12.3411
 189   2.0000      -0.453154       -12.3309
 190   2.0000      -0.451450       -12.2846
 191   2.0000      -0.449864       -12.2414
 192   2.0000      -0.447777       -12.1846
 193   2.0000      -0.441247       -12.0069
 194   2.0000      -0.441031       -12.0011
 195   2.0000      -0.438570       -11.9341
 196   2.0000      -0.437612       -11.9080
 197   2.0000      -0.435888       -11.8611
 198   2.0000      -0.434075       -11.8118
 199   2.0000      -0.431553       -11.7432
 200   2.0000      -0.430400       -11.7118
 201   2.0000      -0.428018       -11.6470
 202   2.0000      -0.422541       -11.4979
 203   2.0000      -0.419814       -11.4237
 204   2.0000      -0.418860       -11.3977
 205   2.0000      -0.418519       -11.3885
 206   2.0000      -0.406706       -11.0670
 207   2.0000      -0.402254       -10.9459
 208   2.0000      -0.401928       -10.9370
 209   2.0000      -0.401301       -10.9199
 210   2.0000      -0.385782       -10.4976
 211   2.0000      -0.384704       -10.4683
 212   2.0000      -0.381245       -10.3742
 213   2.0000      -0.372207       -10.1283
 214   2.0000      -0.369709       -10.0603
 215   2.0000      -0.365261        -9.9392
 216   2.0000      -0.364474        -9.9179
 217   2.0000      -0.357312        -9.7230
 218   2.0000      -0.348048        -9.4709
 219   2.0000      -0.342496        -9.3198
 220   2.0000      -0.337527        -9.1846
 221   2.0000      -0.335704        -9.1350
 222   2.0000      -0.330997        -9.0069
 223   2.0000      -0.324912        -8.8413
 224   2.0000      -0.321765        -8.7557
 225   2.0000      -0.316911        -8.6236
 226   2.0000      -0.312247        -8.4967
 227   2.0000      -0.300143        -8.1673
 228   2.0000      -0.268617        -7.3095
 229   2.0000      -0.234948        -6.3933
 230   0.0000      -0.121722        -3.3122
 231   0.0000      -0.096435        -2.6241
 232   0.0000      -0.090717        -2.4685
 233   0.0000      -0.050978        -1.3872
 234   0.0000      -0.034147        -0.9292

MULLIKEN ATOMIC CHARGES
-----------------------
   0 C :    0.071869
   1 N :   -0.110427
   2 C :    0.067955
   3 C :   -0.032963
   4 C :    0.025589
   5 N :   -0.096467
   6 C :   -0.013855
   7 C :    0.079969
   8 C :   -0.070533
   9 C :   -0.023430
  10 C :   -0.000609
  11 C :   -0.102999
  12 S :    0.196258
  13 C :   -0.072163
  14 C :    0.038515
  15 C :    0.307885
  16 C :   -0.305310
  17 C :   -0.191156
  18 N :    0.181696
  19 C :   -0.187211
  20 N :    0.164408
  21 C :   -0.060030
  22 C :   -0.182219
  23 S :    0.199011
  24 C :    0.193811
  25 C :   -0.071856
  26 C :   -0.072580
  27 N :   -0.006370
  28 C :    0.152456
  29 C :    0.153258
  30 N :   -0.003875
  31 F :   -0.128314
  32 F :   -0.128763
  33 C :    0.193243
  34 C :   -0.018821
  35 C :   -0.015831
  36 N :   -0.337529
  37 S :    0.559544
  38 N :   -0.329503
  39 C :   -0.183827
  40 C :   -0.060843
  41 C :    0.039704
  42 C :   -0.074978
  43 S :    0.200467
  44 C :   -0.100460
  45 C :    0.005338
  46 C :    0.308740
  47 C :   -0.308272
  48 C :   -0.194580
  49 N :    0.171737
  50 C :   -0.195050
  51 N :    0.182812
  52 C :   -0.041606
  53 C :   -0.035418
  54 S :    0.234071
  55 C :   -0.077100
  56 N :   -0.092291
  57 C :    0.089498
  58 C :   -0.047152
  59 C :    0.046514
  60 N :   -0.047650
  61 C :   -0.021626
  62 C :    0.036012
  63 H :    0.012445
  64 H :    0.010561
  65 H :   -0.004474
  66 H :   -0.014439
  67 H :    0.004907
  68 H :    0.006020
  69 H :    0.023144
  70 H :    0.023681
  71 H :    0.014519
  72 H :    0.007740
  73 H :   -0.004748
  74 H :   -0.015141
  75 H :    0.048545
  76 H :    0.030553
Sum of atomic charges:    0.0000000

LOEWDIN ATOMIC CHARGES
----------------------
   0 C :    0.045049
   1 N :   -0.098580
   2 C :    0.049279
   3 C :   -0.063029
   4 C :    0.033584
   5 N :   -0.093796
   6 C :   -0.039272
   7 C :   -0.004235
   8 C :   -0.167065
   9 C :   -0.020456
  10 C :   -0.065722
  11 C :   -0.181693
  12 S :    0.483003
  13 C :   -0.182420
  14 C :   -0.074937
  15 C :    0.081747
  16 C :   -0.104205
  17 C :   -0.019623
  18 N :   -0.028367
  19 C :   -0.014694
  20 N :   -0.039262
  21 C :   -0.012746
  22 C :   -0.164156
  23 S :    0.508118
  24 C :   -0.048727
  25 C :   -0.006257
  26 C :   -0.007480
  27 N :   -0.031078
  28 C :    0.062594
  29 C :    0.063551
  30 N :   -0.032404
  31 F :   -0.017601
  32 F :   -0.017869
  33 C :   -0.044584
  34 C :   -0.048995
  35 C :   -0.048066
  36 N :   -0.304009
  37 S :    0.675467
  38 N :   -0.300999
  39 C :   -0.166395
  40 C :   -0.011127
  41 C :   -0.073972
  42 C :   -0.180320
  43 S :    0.507910
  44 C :   -0.178357
  45 C :   -0.071670
  46 C :    0.081335
  47 C :   -0.105754
  48 C :   -0.016255
  49 N :   -0.037364
  50 C :   -0.019320
  51 N :   -0.032090
  52 C :   -0.005063
  53 C :   -0.187048
  54 S :    0.511269
  55 C :    0.012869
  56 N :   -0.112027
  57 C :    0.054640
  58 C :   -0.070925
  59 C :    0.042994
  60 N :   -0.083657
  61 C :   -0.049017
  62 C :    0.016099
  63 H :    0.017522
  64 H :    0.026434
  65 H :    0.033693
  66 H :    0.029122
  67 H :    0.034783
  68 H :    0.039591
  69 H :    0.037698
  70 H :    0.037851
  71 H :    0.044027
  72 H :    0.027495
  73 H :    0.033560
  74 H :    0.028231
  75 H :    0.033374
  76 H :    0.029802

  Mayer bond orders larger than 0.100000
B(  0-C ,  1-N ) :   1.5028 B(  0-C ,  5-N ) :   1.5305 B(  0-C , 63-H ) :   0.9748
B(  1-N ,  2-C ) :   1.5400 B(  2-C ,  3-C ) :   1.3865 B(  2-C , 64-H ) :   0.9815
B(  3-C ,  4-C ) :   1.3382 B(  3-C , 65-H ) :   0.9761 B(  4-C ,  5-N ) :   1.5137
B(  4-C ,  6-C ) :   1.0908 B(  6-C ,  7-C ) :   1.7238 B(  6-C , 66-H ) :   0.9753
B(  7-C ,  8-C ) :   1.0847 B(  7-C , 67-H ) :   0.9559 B(  8-C ,  9-C ) :   1.4566
B(  8-C , 12-S ) :   1.1054 B(  9-C , 10-C ) :   1.3060 B(  9-C , 68-H ) :   0.9909
B( 10-C , 11-C ) :   1.4218 B( 10-C , 15-C ) :   0.9974 B( 11-C , 12-S ) :   1.1292
B( 11-C , 13-C ) :   1.1951 B( 13-C , 14-C ) :   1.4035 B( 13-C , 23-S ) :   1.1035
B( 14-C , 15-C ) :   0.9939 B( 14-C , 21-C ) :   1.2650 B( 15-C , 16-C ) :   1.7074
B( 16-C , 17-C ) :   1.1385 B( 16-C , 19-C ) :   1.1336 B( 17-C , 18-N ) :   2.9932
B( 19-C , 20-N ) :   2.9880 B( 21-C , 22-C ) :   1.4187 B( 21-C , 69-H ) :   0.9872
B( 22-C , 23-S ) :   1.0953 B( 22-C , 24-C ) :   1.1798 B( 24-C , 25-C ) :   1.2950
B( 24-C , 33-C ) :   0.1281 B( 24-C , 35-C ) :   1.1912 B( 25-C , 26-C ) :   1.1063
B( 25-C , 30-N ) :   1.4377 B( 26-C , 27-N ) :   1.4344 B( 26-C , 33-C ) :   1.2933
B( 27-N , 28-C ) :   1.6615 B( 28-C , 29-C ) :   1.1003 B( 28-C , 32-F ) :   1.1868
B( 29-C , 30-N ) :   1.6592 B( 29-C , 31-F ) :   1.1875 B( 33-C , 34-C ) :   1.1915
B( 33-C , 39-C ) :   1.1813 B( 34-C , 35-C ) :   1.1243 B( 34-C , 38-N ) :   1.4714
B( 35-C , 36-N ) :   1.4660 B( 36-N , 37-S ) :   1.2712 B( 36-N , 38-N ) :   0.1535
B( 37-S , 38-N ) :   1.2747 B( 39-C , 40-C ) :   1.4138 B( 39-C , 43-S ) :   1.0961
B( 40-C , 41-C ) :   1.2721 B( 40-C , 70-H ) :   0.9872 B( 41-C , 42-C ) :   1.4069
B( 41-C , 46-C ) :   0.9916 B( 42-C , 43-S ) :   1.1073 B( 42-C , 44-C ) :   1.1951
B( 44-C , 45-C ) :   1.4263 B( 44-C , 54-S ) :   1.1255 B( 45-C , 46-C ) :   0.9977
B( 45-C , 52-C ) :   1.2585 B( 46-C , 47-C ) :   1.7092 B( 47-C , 48-C ) :   1.1353
B( 47-C , 50-C ) :   1.1397 B( 48-C , 49-N ) :   3.0010 B( 50-C , 51-N ) :   2.9937
B( 52-C , 53-C ) :   1.4910 B( 52-C , 71-H ) :   1.0072 B( 53-C , 54-S ) :   1.1106
B( 53-C , 55-C ) :   1.0077 B( 53-C , 60-N ) :  -0.1007 B( 55-C , 56-N ) :   1.5877
B( 55-C , 60-N ) :   1.6177 B( 56-N , 57-C ) :   1.5361 B( 57-C , 58-C ) :   1.3838
B( 57-C , 72-H ) :   0.9789 B( 58-C , 59-C ) :   1.3325 B( 58-C , 73-H ) :   0.9740
B( 59-C , 60-N ) :   1.5106 B( 59-C , 61-C ) :   1.0621 B( 61-C , 62-C ) :   1.9503
B( 61-C , 74-H ) :   0.9668 B( 62-C , 75-H ) :   0.9429 B( 62-C , 76-H ) :   0.9478

-----------------------------------------------------------------------------
         ABSORPTION SPECTRUM VIA TRANSITION ELECTRIC DIPOLE MOMENTS
-----------------------------------------------------------------------------
State   Energy  Wavelength   fosc         T2         TX        TY        TZ
        (cm-1)    (nm)                  (au**2)     (au)      (au)      (au)
-----------------------------------------------------------------------------
   0    9652.5   1036.0   0.834800654  28.47205  -3.81784  -3.60073   0.96482
   1   12974.5    770.7   0.013550112   0.34382  -0.36576  -0.14906   0.43338
   2   14234.9    702.5   0.002552549   0.05903   0.08855   0.12713   0.18716
   3   18058.7    553.8   0.013222218   0.24104  -0.01639   0.22966   0.43362
   4   22739.8    439.8   0.075912841   1.09902   0.71761   0.76243   0.05238
   5   24421.0    409.5   0.009552409   0.12877   0.03755   0.23423   0.26926
   6   25510.9    392.0   0.658961322   8.50374  -2.02879  -2.07517   0.28531
   7   26132.2    382.7   0.041201751   0.51906   0.39732   0.44106  -0.40824
   8   26320.5    379.9   0.765684142   9.57704   1.99107   2.36423   0.15196
   9   26563.1    376.5   0.045452479   0.56332  -0.14493   0.10921   0.72828
  10   27297.5    366.3   0.195534528   2.35817  -1.10755  -1.05449   0.13986
  11   29275.8    341.6   0.342485077   3.85131  -1.44211  -1.14941   0.67119
  12   29983.9    333.5   0.265179535   2.91157  -1.16357  -0.80590   0.95299
  13   30604.5    326.7   0.209407469   2.25259  -0.04876   0.57518   1.38542
  14   31044.8    322.1   0.223077901   2.36561  -0.55075  -0.14448   1.42878
  15   31282.1    319.7   0.031937322   0.33611  -0.18240  -0.10581   0.54004
  16   31493.6    317.5   0.003376613   0.03530   0.13173  -0.11765   0.06404
  17   31687.3    315.6   0.315360736   3.27641  -0.75777   0.09912   1.64085
  18   31719.3    315.3   0.116730988   1.21154  -0.33144  -0.39793   0.97125
  19   31976.5    312.7   0.003072768   0.03164  -0.03598  -0.17393  -0.00951
  20   32079.9    311.7   0.091971093   0.94383  -0.05054  -0.56437  -0.78915
  21   32241.6    310.2   0.441144840   4.50444   1.08045   1.13811   1.42890
  22   32379.4    308.8   0.019982086   0.20316   0.29278   0.24235   0.24231
  23   32603.6    306.7   0.073921012   0.74641  -0.43605  -0.30260   0.68169
  24   33024.5    302.8   0.040380541   0.40254  -0.46696  -0.39262   0.17418
  25   34019.8    293.9   0.028405008   0.27488  -0.19958  -0.30824   0.37421
  26   34297.6    291.6   0.057449147   0.55144   0.23731   0.18450  -0.67903
  27   34784.4    287.5   0.266988042   2.52687   1.08125   1.03588  -0.53359
  28   35047.7    285.3   0.293854522   2.76025  -0.48180   0.10115   1.58679
  29   35884.9    278.7   0.053883719   0.49434   0.08837   0.35505   0.60039
  30   36097.6    277.0   0.566267343   5.16439   0.61799   1.28895   1.76666
  31   36325.1    275.3   0.008692088   0.07878  -0.19079   0.20373  -0.02952
  32   36731.7    272.2   0.002844469   0.02549   0.10761  -0.10811   0.04717
  33   37082.7    269.7   0.001092183   0.00970   0.01779  -0.05287  -0.08115
  34   37150.2    269.2   0.075075859   0.66530   0.09072  -0.17144  -0.79226
  35   37428.1    267.2   0.090384022   0.79500   0.18387   0.48685   0.72400
  36   37911.0    263.8   0.012309203   0.10689  -0.14287  -0.06538   0.28671
  37   37926.7    263.7   0.000536139   0.00465  -0.02838   0.05881  -0.01973
  38   38018.5    263.0   0.053951432   0.46718  -0.07604  -0.29781  -0.61050
  39   38477.2    259.9   0.000005358   0.00005  -0.00363   0.00463  -0.00335
  40   39090.2    255.8   0.250399941   2.10883  -0.93362  -0.75443   0.81732
  41   39547.4    252.9   0.003338861   0.02779  -0.10652  -0.12539  -0.02691
  42   39664.6    252.1   0.078334487   0.65017   0.05125  -0.20361  -0.77852
  43   39776.1    251.4   0.000247648   0.00205   0.01369  -0.03353   0.02716
  44   39993.0    250.0   0.004884689   0.04021   0.00309   0.04938  -0.19432

FINAL SINGLE POINT ENERGY     -4528.867032721562

DIPOLE MOMENT
-------------
                                X             Y             Z
Electronic contribution:      2.69487      -5.88956     -16.56507
Nuclear contribution   :     -3.75952       5.82056      20.30897
                        -----------------------------------------
Total Dipole Moment    :     -1.06465      -0.06900       3.74390
                        -----------------------------------------
Magnitude (a.u.)       :      3.89294
Magnitude (Debye)      :      9.89507

Rotational constants in cm-1:     0.002908     0.000309     0.000280
Rotational constants in MHz :    87.185319     9.270466     8.401229

                             ****ORCA TERMINATED NORMALLY****
TOTAL RUN TIME: 0 days 0 hours 6 minutes 13 seconds 311 msec
