                         Program Version 4.2.0 -  RELEASE  -
|  1> # ORCA input file
|  2> # SCF done       -210.674232527012          0.000472776200
|  3> ! CAM-B3LYP def2-SVP def2/J RIJCOSX Grid4 TightSCF
|  4> %maxcore 5000
|  5> %tddft
|  6>     Mode sTDDFT
|  7>     Ethresh 5.0
|  8>     maxcore 5000
|  9> end
| 10>
| 11> %pal
| 12>   nprocs 6
| 13>   end
| 14> * xyz 0 1
| 15>    C        4.76225        -9.74057       -11.76222
| 16>    C        5.61076        -8.67791       -11.90046
| 17>    F        6.62248        -8.73356       -12.77673
| 18>    C        5.43312        -7.51342       -11.12746
| 19>    F        6.27884        -6.48560       -11.28401
| 20>    C        4.40935        -7.42785       -10.22579
| 21>    C        3.51872        -8.50583       -10.06016
| 22>    C        3.69567        -9.68312       -10.84316
| 23>    C        2.80814       -10.77468       -10.69947
| 24>    C        1.77687       -10.68743        -9.80317
| 25>    C        1.61247        -9.51179        -9.01769
| 26>    C        2.45379        -8.44384        -9.13304
| 27>    C        0.44286        -9.67107        -8.12755
| 28>    O        0.04183        -8.86882        -7.30800
| 29>    C       -0.06246       -11.03692        -8.39014
| 30>    C        0.71067       -11.62226        -9.45985
| 31>    C        0.41194       -12.78967       -10.11462
| 32>    C       -0.74082       -13.55714        -9.84723
| 33>    N       -1.69149       -14.18472        -9.70392
| 34>    C        1.17724       -13.31571       -11.17403
| 35>    N        1.77298       -13.78399       -12.03639
| 36>    C       -0.93555       -11.69869        -7.56056
| 37>    C       -1.74675       -11.08702        -6.58859
| 38>    C       -2.35268        -9.82250        -6.57083
| 39>    O       -2.65006        -9.02848        -7.61751
| 40>    C       -2.64101        -9.54341        -8.92600
| 41>    C       -2.84397        -9.49257        -5.28616
| 42>    O       -3.40378        -8.34570        -4.85222
| 43>    C       -3.22831        -7.17128        -5.62489
| 44>    C       -2.71005       -10.53755        -4.37171
| 45>    S       -1.98196       -11.94004        -5.06911
| 46>    C       -3.14946       -10.50276        -3.04083
| 47>    C       -3.06663       -11.55363        -2.11894
| 48>    C       -3.63786       -11.20695        -0.85254
| 49>    N       -3.64053       -12.05183         0.17271
| 50>    C       -3.08847       -13.23138        -0.02811
| 51>    C       -3.06384       -14.16500         1.12166
| 52>    O       -3.55826       -13.89242         2.19841
| 53>    C       -2.40203       -15.45239         0.86231
| 54>    C       -1.89160       -15.79449        -0.32533
| 55>    C       -1.92138       -14.92414        -1.51491
| 56>    O       -1.46665       -15.27411        -2.58262
| 57>    C       -2.53626       -13.58890        -1.30127
| 58>    N       -2.53093       -12.75755        -2.32317
| 59>    C       -4.13669        -9.89820        -0.81265
| 60>    S       -3.90152        -9.10246        -2.32910
| 61>    C       -4.67164        -9.34241         0.35630
| 62>    C       -4.97139        -8.00771         0.61514
| 63>    O       -4.84317        -7.14102        -0.40875
| 64>    C       -4.87700        -5.74834        -0.16378
| 65>    C       -5.37186        -7.79380         1.96093
| 66>    O       -5.61971        -6.53359         2.38327
| 67>    C       -5.65615        -6.23336         3.76347
| 68>    C       -5.38685        -8.97507         2.70376
| 69>    S       -4.89598       -10.35127         1.73705
| 70>    C       -5.79711        -9.23184         4.03864
| 71>    C       -5.43212       -10.30686         4.79205
| 72>    C       -6.29119       -10.74884         5.92272
| 73>    O       -7.16255       -10.10814         6.46554
| 74>    C       -5.89150       -12.14893         6.17764
| 75>    C       -6.46337       -13.07223         7.00517
| 76>    C       -5.93768       -14.38400         7.03616
| 77>    C       -4.83147       -14.71772         6.20053
| 78>    C       -4.32896       -16.03420         6.22387
| 79>    C       -4.89310       -16.97409         7.03945
| 80>    C       -5.98339       -16.64223         7.86798
| 81>    C       -6.49541       -15.37512         7.86753
| 82>    F       -6.51815       -17.58412         8.65879
| 83>    F       -4.41274       -18.22591         7.05889
| 84>    C       -4.24971       -13.73903         5.36353
| 85>    C       -4.76926       -12.47357         5.36175
| 86>    C       -4.36940       -11.28052         4.62878
| 87>    C       -3.12145       -11.03690         4.12154
| 88>    C       -2.73521        -9.75731         3.67383
| 89>    N       -2.40249        -8.70343         3.36068
| 90>    C       -2.09078       -11.99421         4.05232
| 91>    N       -1.21056       -12.72598         3.96804
| 92>    H        4.91140       -10.62407       -12.36306
| 93>    H        4.28775        -6.52958        -9.64092
| 94>    H        2.96924       -11.65598       -11.29935
| 95>    H        2.30830        -7.56181        -8.52800
| 96>    H       -0.91793       -12.78180        -7.54483
| 97>    H       -2.96030       -10.58887        -8.95077
| 98>    H       -1.65031        -9.46508        -9.38553
| 99>    H       -3.34176        -8.92635        -9.48903
|100>    H       -3.47636        -6.34649        -4.95867
|101>    H       -3.89848        -7.16475        -6.48659
|102>    H       -2.19702        -7.07972        -5.96935
|103>    H       -2.35621       -16.12528         1.70779
|104>    H       -1.41887       -16.75554        -0.47714
|105>    H       -5.84791        -5.43505         0.22361
|106>    H       -4.69890        -5.28621        -1.13342
|107>    H       -4.09379        -5.45083         0.53618
|108>    H       -5.42240        -5.17096         3.83648
|109>    H       -4.91279        -6.81222         4.31578
|110>    H       -6.65108        -6.40572         4.18024
|111>    H       -6.57228        -8.61167         4.47184
|112>    H       -7.30943       -12.81058         7.62242
|113>    H       -3.49285       -16.30133         5.59709
|114>    H       -7.33165       -15.13858         8.50678
|115>    H       -3.43373       -14.01082         4.71413
|116> *
|117>
|118>                          ****END OF INPUT****

CARTESIAN COORDINATES (ANGSTROEM)
---------------------------------
  C      4.762250   -9.740570  -11.762220
  C      5.610760   -8.677910  -11.900460
  F      6.622480   -8.733560  -12.776730
  C      5.433120   -7.513420  -11.127460
  F      6.278840   -6.485600  -11.284010
  C      4.409350   -7.427850  -10.225790
  C      3.518720   -8.505830  -10.060160
  C      3.695670   -9.683120  -10.843160
  C      2.808140  -10.774680  -10.699470
  C      1.776870  -10.687430   -9.803170
  C      1.612470   -9.511790   -9.017690
  C      2.453790   -8.443840   -9.133040
  C      0.442860   -9.671070   -8.127550
  O      0.041830   -8.868820   -7.308000
  C     -0.062460  -11.036920   -8.390140
  C      0.710670  -11.622260   -9.459850
  C      0.411940  -12.789670  -10.114620
  C     -0.740820  -13.557140   -9.847230
  N     -1.691490  -14.184720   -9.703920
  C      1.177240  -13.315710  -11.174030
  N      1.772980  -13.783990  -12.036390
  C     -0.935550  -11.698690   -7.560560
  C     -1.746750  -11.087020   -6.588590
  C     -2.352680   -9.822500   -6.570830
  O     -2.650060   -9.028480   -7.617510
  C     -2.641010   -9.543410   -8.926000
  C     -2.843970   -9.492570   -5.286160
  O     -3.403780   -8.345700   -4.852220
  C     -3.228310   -7.171280   -5.624890
  C     -2.710050  -10.537550   -4.371710
  S     -1.981960  -11.940040   -5.069110
  C     -3.149460  -10.502760   -3.040830
  C     -3.066630  -11.553630   -2.118940
  C     -3.637860  -11.206950   -0.852540
  N     -3.640530  -12.051830    0.172710
  C     -3.088470  -13.231380   -0.028110
  C     -3.063840  -14.165000    1.121660
  O     -3.558260  -13.892420    2.198410
  C     -2.402030  -15.452390    0.862310
  C     -1.891600  -15.794490   -0.325330
  C     -1.921380  -14.924140   -1.514910
  O     -1.466650  -15.274110   -2.582620
  C     -2.536260  -13.588900   -1.301270
  N     -2.530930  -12.757550   -2.323170
  C     -4.136690   -9.898200   -0.812650
  S     -3.901520   -9.102460   -2.329100
  C     -4.671640   -9.342410    0.356300
  C     -4.971390   -8.007710    0.615140
  O     -4.843170   -7.141020   -0.408750
  C     -4.877000   -5.748340   -0.163780
  C     -5.371860   -7.793800    1.960930
  O     -5.619710   -6.533590    2.383270
  C     -5.656150   -6.233360    3.763470
  C     -5.386850   -8.975070    2.703760
  S     -4.895980  -10.351270    1.737050
  C     -5.797110   -9.231840    4.038640
  C     -5.432120  -10.306860    4.792050
  C     -6.291190  -10.748840    5.922720
  O     -7.162550  -10.108140    6.465540
  C     -5.891500  -12.148930    6.177640
  C     -6.463370  -13.072230    7.005170
  C     -5.937680  -14.384000    7.036160
  C     -4.831470  -14.717720    6.200530
  C     -4.328960  -16.034200    6.223870
  C     -4.893100  -16.974090    7.039450
  C     -5.983390  -16.642230    7.867980
  C     -6.495410  -15.375120    7.867530
  F     -6.518150  -17.584120    8.658790
  F     -4.412740  -18.225910    7.058890
  C     -4.249710  -13.739030    5.363530
  C     -4.769260  -12.473570    5.361750
  C     -4.369400  -11.280520    4.628780
  C     -3.121450  -11.036900    4.121540
  C     -2.735210   -9.757310    3.673830
  N     -2.402490   -8.703430    3.360680
  C     -2.090780  -11.994210    4.052320
  N     -1.210560  -12.725980    3.968040
  H      4.911400  -10.624070  -12.363060
  H      4.287750   -6.529580   -9.640920
  H      2.969240  -11.655980  -11.299350
  H      2.308300   -7.561810   -8.528000
  H     -0.917930  -12.781800   -7.544830
  H     -2.960300  -10.588870   -8.950770
  H     -1.650310   -9.465080   -9.385530
  H     -3.341760   -8.926350   -9.489030
  H     -3.476360   -6.346490   -4.958670
  H     -3.898480   -7.164750   -6.486590
  H     -2.197020   -7.079720   -5.969350
  H     -2.356210  -16.125280    1.707790
  H     -1.418870  -16.755540   -0.477140
  H     -5.847910   -5.435050    0.223610
  H     -4.698900   -5.286210   -1.133420
  H     -4.093790   -5.450830    0.536180
  H     -5.422400   -5.170960    3.836480
  H     -4.912790   -6.812220    4.315780
  H     -6.651080   -6.405720    4.180240
  H     -6.572280   -8.611670    4.471840
  H     -7.309430  -12.810580    7.622420
  H     -3.492850  -16.301330    5.597090
  H     -7.331650  -15.138580    8.506780
  H     -3.433730  -14.010820    4.714130

 Total Charge           Charge          ....    0
 Multiplicity           Mult            ....    1
 Number of Electrons    NEL             ....  550
 Basis Dimension        Dim             .... 1210

ORBITAL ENERGIES
----------------

  NO   OCC          E(Eh)            E(eV)
   0   2.0000     -88.995135     -2421.6807
   1   2.0000     -88.964720     -2420.8531
   2   2.0000     -88.958819     -2420.6925
   3   2.0000     -24.797441      -674.7727
   4   2.0000     -24.796174      -674.7382
   5   2.0000     -24.792935      -674.6501
   6   2.0000     -24.792600      -674.6410
   7   2.0000     -19.274073      -524.4742
   8   2.0000     -19.271254      -524.3975
   9   2.0000     -19.269980      -524.3628
  10   2.0000     -19.268239      -524.3154
  11   2.0000     -19.231853      -523.3253
  12   2.0000     -19.226389      -523.1766
  13   2.0000     -19.216263      -522.9011
  14   2.0000     -19.210556      -522.7458
  15   2.0000     -14.452156      -393.2632
  16   2.0000     -14.450601      -393.2209
  17   2.0000     -14.412704      -392.1896
  18   2.0000     -14.411668      -392.1614
  19   2.0000     -14.408594      -392.0778
  20   2.0000     -14.406675      -392.0256
  21   2.0000     -10.380222      -282.4602
  22   2.0000     -10.379919      -282.4520
  23   2.0000     -10.379404      -282.4379
  24   2.0000     -10.375731      -282.3380
  25   2.0000     -10.375223      -282.3242
  26   2.0000     -10.374802      -282.3127
  27   2.0000     -10.366949      -282.0990
  28   2.0000     -10.366341      -282.0825
  29   2.0000     -10.363131      -281.9951
  30   2.0000     -10.362268      -281.9717
  31   2.0000     -10.352706      -281.7114
  32   2.0000     -10.351398      -281.6759
  33   2.0000     -10.342502      -281.4338
  34   2.0000     -10.342236      -281.4266
  35   2.0000     -10.338671      -281.3295
  36   2.0000     -10.337856      -281.3074
  37   2.0000     -10.337805      -281.3060
  38   2.0000     -10.334807      -281.2244
  39   2.0000     -10.333346      -281.1846
  40   2.0000     -10.332307      -281.1564
  41   2.0000     -10.332254      -281.1549
  42   2.0000     -10.330196      -281.0989
  43   2.0000     -10.329693      -281.0852
  44   2.0000     -10.329221      -281.0724
  45   2.0000     -10.328392      -281.0498
  46   2.0000     -10.328210      -281.0449
  47   2.0000     -10.325228      -280.9637
  48   2.0000     -10.322384      -280.8863
  49   2.0000     -10.318645      -280.7846
  50   2.0000     -10.317969      -280.7662
  51   2.0000     -10.315772      -280.7064
  52   2.0000     -10.314845      -280.6812
  53   2.0000     -10.312807      -280.6257
  54   2.0000     -10.311627      -280.5936
  55   2.0000     -10.310081      -280.5516
  56   2.0000     -10.309594      -280.5383
  57   2.0000     -10.309524      -280.5364
  58   2.0000     -10.309163      -280.5266
  59   2.0000     -10.308823      -280.5173
  60   2.0000     -10.308758      -280.5156
  61   2.0000     -10.305351      -280.4229
  62   2.0000     -10.303482      -280.3720
  63   2.0000     -10.302824      -280.3541
  64   2.0000     -10.301003      -280.3045
  65   2.0000     -10.300725      -280.2970
  66   2.0000     -10.300147      -280.2812
  67   2.0000     -10.299202      -280.2555
  68   2.0000     -10.298025      -280.2235
  69   2.0000     -10.295722      -280.1608
  70   2.0000     -10.295300      -280.1494
  71   2.0000     -10.294627      -280.1310
  72   2.0000     -10.294184      -280.1190
  73   2.0000     -10.292544      -280.0744
  74   2.0000     -10.291594      -280.0485
  75   2.0000     -10.291045      -280.0336
  76   2.0000     -10.287100      -279.9262
  77   2.0000      -8.087555      -220.0735
  78   2.0000      -8.059272      -219.3039
  79   2.0000      -8.052470      -219.1189
  80   2.0000      -6.056693      -164.8110
  81   2.0000      -6.052263      -164.6905
  82   2.0000      -6.050505      -164.6426
  83   2.0000      -6.028953      -164.0561
  84   2.0000      -6.024979      -163.9480
  85   2.0000      -6.022214      -163.8728
  86   2.0000      -6.020317      -163.8212
  87   2.0000      -6.018022      -163.7587
  88   2.0000      -6.013584      -163.6379
  89   2.0000      -1.319679       -35.9103
  90   2.0000      -1.315187       -35.7881
  91   2.0000      -1.304827       -35.5062
  92   2.0000      -1.300431       -35.3865
  93   2.0000      -1.184579       -32.2340
  94   2.0000      -1.181038       -32.1377
  95   2.0000      -1.165620       -31.7181
  96   2.0000      -1.162575       -31.6353
  97   2.0000      -1.146101       -31.1870
  98   2.0000      -1.140479       -31.0340
  99   2.0000      -1.129997       -30.7488
 100   2.0000      -1.125506       -30.6266
 101   2.0000      -1.102402       -29.9979
 102   2.0000      -1.031405       -28.0659
 103   2.0000      -1.017248       -27.6807
 104   2.0000      -1.014257       -27.5993
 105   2.0000      -1.009610       -27.4729
 106   2.0000      -1.001979       -27.2652
 107   2.0000      -0.996775       -27.1236
 108   2.0000      -0.994323       -27.0569
 109   2.0000      -0.991185       -26.9715
 110   2.0000      -0.986875       -26.8542
 111   2.0000      -0.982285       -26.7293
 112   2.0000      -0.978519       -26.6269
 113   2.0000      -0.973266       -26.4839
 114   2.0000      -0.939792       -25.5730
 115   2.0000      -0.931508       -25.3476
 116   2.0000      -0.926310       -25.2062
 117   2.0000      -0.910802       -24.7842
 118   2.0000      -0.902772       -24.5657
 119   2.0000      -0.894036       -24.3280
 120   2.0000      -0.889720       -24.2105
 121   2.0000      -0.885754       -24.1026
 122   2.0000      -0.880989       -23.9729
 123   2.0000      -0.875553       -23.8250
 124   2.0000      -0.872914       -23.7532
 125   2.0000      -0.862796       -23.4779
 126   2.0000      -0.850651       -23.1474
 127   2.0000      -0.842341       -22.9213
 128   2.0000      -0.839057       -22.8319
 129   2.0000      -0.833482       -22.6802
 130   2.0000      -0.832982       -22.6666
 131   2.0000      -0.815436       -22.1891
 132   2.0000      -0.810647       -22.0588
 133   2.0000      -0.797026       -21.6882
 134   2.0000      -0.789500       -21.4834
 135   2.0000      -0.786841       -21.4110
 136   2.0000      -0.775962       -21.1150
 137   2.0000      -0.771444       -20.9921
 138   2.0000      -0.764538       -20.8041
 139   2.0000      -0.763969       -20.7887
 140   2.0000      -0.757702       -20.6181
 141   2.0000      -0.746542       -20.3144
 142   2.0000      -0.741326       -20.1725
 143   2.0000      -0.727099       -19.7854
 144   2.0000      -0.721029       -19.6202
 145   2.0000      -0.711454       -19.3597
 146   2.0000      -0.709188       -19.2980
 147   2.0000      -0.702606       -19.1189
 148   2.0000      -0.692795       -18.8519
 149   2.0000      -0.684659       -18.6305
 150   2.0000      -0.680833       -18.5264
 151   2.0000      -0.676079       -18.3970
 152   2.0000      -0.673828       -18.3358
 153   2.0000      -0.673357       -18.3230
 154   2.0000      -0.662902       -18.0385
 155   2.0000      -0.657258       -17.8849
 156   2.0000      -0.654248       -17.8030
 157   2.0000      -0.651115       -17.7177
 158   2.0000      -0.646239       -17.5851
 159   2.0000      -0.642305       -17.4780
 160   2.0000      -0.640522       -17.4295
 161   2.0000      -0.635139       -17.2830
 162   2.0000      -0.629927       -17.1412
 163   2.0000      -0.626695       -17.0532
 164   2.0000      -0.620178       -16.8759
 165   2.0000      -0.613797       -16.7023
 166   2.0000      -0.612579       -16.6691
 167   2.0000      -0.609110       -16.5747
 168   2.0000      -0.603323       -16.4173
 169   2.0000      -0.594959       -16.1897
 170   2.0000      -0.592165       -16.1136
 171   2.0000      -0.587794       -15.9947
 172   2.0000      -0.585559       -15.9339
 173   2.0000      -0.584313       -15.9000
 174   2.0000      -0.583270       -15.8716
 175   2.0000      -0.580492       -15.7960
 176   2.0000      -0.579863       -15.7789
 177   2.0000      -0.576698       -15.6927
 178   2.0000      -0.572982       -15.5916
 179   2.0000      -0.568862       -15.4795
 180   2.0000      -0.567201       -15.4343
 181   2.0000      -0.563677       -15.3384
 182   2.0000      -0.560541       -15.2531
 183   2.0000      -0.560102       -15.2412
 184   2.0000      -0.556979       -15.1562
 185   2.0000      -0.556403       -15.1405
 186   2.0000      -0.552726       -15.0404
 187   2.0000      -0.550595       -14.9824
 188   2.0000      -0.547028       -14.8854
 189   2.0000      -0.545987       -14.8570
 190   2.0000      -0.541838       -14.7442
 191   2.0000      -0.541498       -14.7349
 192   2.0000      -0.537017       -14.6130
 193   2.0000      -0.535010       -14.5584
 194   2.0000      -0.533705       -14.5228
 195   2.0000      -0.531921       -14.4743
 196   2.0000      -0.530583       -14.4379
 197   2.0000      -0.527718       -14.3599
 198   2.0000      -0.526679       -14.3317
 199   2.0000      -0.522672       -14.2226
 200   2.0000      -0.520913       -14.1748
 201   2.0000      -0.520074       -14.1519
 202   2.0000      -0.515973       -14.0403
 203   2.0000      -0.515617       -14.0306
 204   2.0000      -0.514831       -14.0093
 205   2.0000      -0.510152       -13.8819
 206   2.0000      -0.508881       -13.8474
 207   2.0000      -0.507632       -13.8134
 208   2.0000      -0.506073       -13.7709
 209   2.0000      -0.505024       -13.7424
 210   2.0000      -0.501483       -13.6460
 211   2.0000      -0.497572       -13.5396
 212   2.0000      -0.496918       -13.5218
 213   2.0000      -0.494886       -13.4665
 214   2.0000      -0.493212       -13.4210
 215   2.0000      -0.492634       -13.4052
 216   2.0000      -0.488117       -13.2823
 217   2.0000      -0.484684       -13.1889
 218   2.0000      -0.479704       -13.0534
 219   2.0000      -0.476524       -12.9669
 220   2.0000      -0.474787       -12.9196
 221   2.0000      -0.470455       -12.8017
 222   2.0000      -0.467226       -12.7139
 223   2.0000      -0.462373       -12.5818
 224   2.0000      -0.461199       -12.5499
 225   2.0000      -0.458464       -12.4754
 226   2.0000      -0.456045       -12.4096
 227   2.0000      -0.453483       -12.3399
 228   2.0000      -0.448120       -12.1940
 229   2.0000      -0.447663       -12.1815
 230   2.0000      -0.446105       -12.1391
 231   2.0000      -0.445088       -12.1115
 232   2.0000      -0.444442       -12.0939
 233   2.0000      -0.443954       -12.0806
 234   2.0000      -0.441074       -12.0022
 235   2.0000      -0.440525       -11.9873
 236   2.0000      -0.437520       -11.9055
 237   2.0000      -0.436033       -11.8651
 238   2.0000      -0.432589       -11.7713
 239   2.0000      -0.429921       -11.6988
 240   2.0000      -0.429459       -11.6862
 241   2.0000      -0.426341       -11.6013
 242   2.0000      -0.423781       -11.5317
 243   2.0000      -0.421046       -11.4572
 244   2.0000      -0.420616       -11.4455
 245   2.0000      -0.418347       -11.3838
 246   2.0000      -0.417082       -11.3494
 247   2.0000      -0.410635       -11.1739
 248   2.0000      -0.409106       -11.1323
 249   2.0000      -0.406872       -11.0715
 250   2.0000      -0.398450       -10.8424
 251   2.0000      -0.397239       -10.8094
 252   2.0000      -0.393880       -10.7180
 253   2.0000      -0.390403       -10.6234
 254   2.0000      -0.387555       -10.5459
 255   2.0000      -0.382093       -10.3973
 256   2.0000      -0.376885       -10.2556
 257   2.0000      -0.373286       -10.1576
 258   2.0000      -0.366835        -9.9821
 259   2.0000      -0.362855        -9.8738
 260   2.0000      -0.350094        -9.5266
 261   2.0000      -0.348985        -9.4964
 262   2.0000      -0.344642        -9.3782
 263   2.0000      -0.340767        -9.2727
 264   2.0000      -0.334355        -9.0983
 265   2.0000      -0.332201        -9.0396
 266   2.0000      -0.321118        -8.7381
 267   2.0000      -0.315858        -8.5949
 268   2.0000      -0.309825        -8.4308
 269   2.0000      -0.301338        -8.1998
 270   2.0000      -0.295134        -8.0310
 271   2.0000      -0.291373        -7.9287
 272   2.0000      -0.288486        -7.8501
 273   2.0000      -0.282182        -7.6786
 274   2.0000      -0.237924        -6.4743
 275   0.0000      -0.111106        -3.0234
 276   0.0000      -0.094939        -2.5834
 277   0.0000      -0.078847        -2.1455
 278   0.0000      -0.074491        -2.0270
 279   0.0000      -0.056948        -1.5496

MULLIKEN ATOMIC CHARGES
-----------------------
   0 C :   -0.106673
   1 C :    0.240062
   2 F :   -0.172336
   3 C :    0.237804
   4 F :   -0.173301
   5 C :   -0.104925
   6 C :    0.115250
   7 C :    0.112574
   8 C :   -0.087156
   9 C :    0.054190
  10 C :   -0.003635
  11 C :   -0.083262
  12 C :    0.140597
  13 O :   -0.154869
  14 C :   -0.168159
  15 C :    0.301354
  16 C :   -0.337323
  17 C :   -0.216050
  18 N :    0.160703
  19 C :   -0.179562
  20 N :    0.143382
  21 C :    0.043491
  22 C :   -0.222550
  23 C :    0.234636
  24 O :   -0.299600
  25 C :    0.180849
  26 C :    0.135222
  27 O :   -0.327952
  28 C :    0.191678
  29 C :   -0.130253
  30 S :    0.212915
  31 C :   -0.148756
  32 C :    0.037679
  33 C :    0.007373
  34 N :    0.041384
  35 C :   -0.110036
  36 C :    0.168583
  37 O :   -0.125149
  38 C :   -0.016277
  39 C :   -0.012223
  40 C :    0.133745
  41 O :   -0.099582
  42 C :   -0.120573
  43 N :    0.057552
  44 C :   -0.086141
  45 S :    0.282744
  46 C :   -0.139520
  47 C :    0.140734
  48 O :   -0.315574
  49 C :    0.196989
  50 C :    0.244812
  51 O :   -0.317487
  52 C :    0.167289
  53 C :   -0.227566
  54 S :    0.183353
  55 C :    0.043891
  56 C :   -0.147199
  57 C :    0.142836
  58 O :   -0.150412
  59 C :    0.011888
  60 C :   -0.089004
  61 C :    0.113069
  62 C :    0.114962
  63 C :   -0.110173
  64 C :    0.243086
  65 C :    0.240235
  66 C :   -0.109368
  67 F :   -0.175097
  68 F :   -0.175220
  69 C :   -0.062312
  70 C :    0.029063
  71 C :    0.256757
  72 C :   -0.312216
  73 C :   -0.189528
  74 N :    0.147203
  75 C :   -0.169045
  76 N :    0.150470
  77 H :    0.006664
  78 H :   -0.002634
  79 H :   -0.005106
  80 H :   -0.014965
  81 H :    0.036421
  82 H :    0.045664
  83 H :    0.041473
  84 H :    0.037908
  85 H :    0.030689
  86 H :    0.032445
  87 H :    0.045446
  88 H :    0.015008
  89 H :    0.019248
  90 H :    0.033982
  91 H :    0.030513
  92 H :    0.032079
  93 H :    0.039166
  94 H :    0.057422
  95 H :    0.041826
  96 H :    0.011888
  97 H :   -0.012694
  98 H :   -0.000124
  99 H :   -0.003221
 100 H :   -0.003444
Sum of atomic charges:   -0.0000000

LOEWDIN ATOMIC CHARGES
----------------------
   0 C :   -0.029509
   1 C :    0.065555
   2 F :   -0.049735
   3 C :    0.066616
   4 F :   -0.050656
   5 C :   -0.034476
   6 C :   -0.009604
   7 C :   -0.007808
   8 C :    0.016191
   9 C :   -0.022564
  10 C :   -0.050639
  11 C :    0.024952
  12 C :    0.071583
  13 O :   -0.151228
  14 C :   -0.118330
  15 C :    0.072189
  16 C :   -0.145652
  17 C :   -0.027604
  18 N :   -0.055082
  19 C :   -0.018948
  20 N :   -0.057188
  21 C :    0.044204
  22 C :   -0.218421
  23 C :    0.036699
  24 O :   -0.066859
  25 C :    0.085632
  26 C :   -0.000377
  27 O :   -0.102374
  28 C :    0.085031
  29 C :   -0.188810
  30 S :    0.482302
  31 C :   -0.196542
  32 C :   -0.045279
  33 C :   -0.050028
  34 N :   -0.007125
  35 C :   -0.041687
  36 C :    0.068124
  37 O :   -0.110586
  38 C :   -0.011854
  39 C :   -0.007641
  40 C :    0.055817
  41 O :   -0.096660
  42 C :   -0.038341
  43 N :   -0.004680
  44 C :   -0.191970
  45 S :    0.568264
  46 C :   -0.193331
  47 C :    0.008493
  48 O :   -0.098918
  49 C :    0.083703
  50 C :    0.027822
  51 O :   -0.089968
  52 C :    0.086167
  53 C :   -0.223273
  54 S :    0.516736
  55 C :    0.038107
  56 C :   -0.101304
  57 C :    0.083012
  58 O :   -0.150746
  59 C :   -0.053460
  60 C :    0.025659
  61 C :   -0.010334
  62 C :   -0.005921
  63 C :   -0.030490
  64 C :    0.064788
  65 C :    0.064858
  66 C :   -0.034134
  67 F :   -0.052659
  68 F :   -0.052671
  69 C :    0.023437
  70 C :   -0.016218
  71 C :    0.060740
  72 C :   -0.140746
  73 C :   -0.025397
  74 N :   -0.067678
  75 C :   -0.015013
  76 N :   -0.063560
  77 H :    0.047506
  78 H :    0.043908
  79 H :    0.040064
  80 H :    0.038450
  81 H :    0.046893
  82 H :    0.026395
  83 H :    0.020367
  84 H :    0.028257
  85 H :    0.024263
  86 H :    0.019462
  87 H :    0.026755
  88 H :    0.045098
  89 H :    0.046633
  90 H :    0.018965
  91 H :    0.024568
  92 H :    0.021248
  93 H :    0.030287
  94 H :    0.029401
  95 H :    0.020329
  96 H :    0.043069
  97 H :    0.038909
  98 H :    0.045410
  99 H :    0.043669
 100 H :    0.037493

  Mayer bond orders larger than 0.100000
B(  0-C ,  1-C ) :   1.4394 B(  0-C ,  5-C ) :   0.1086 B(  0-C ,  7-C ) :   1.1894
B(  0-C , 77-H ) :   1.0066 B(  1-C ,  2-F ) :   1.1333 B(  1-C ,  3-C ) :   1.1955
B(  3-C ,  4-F ) :   1.1315 B(  3-C ,  5-C ) :   1.4403 B(  5-C ,  6-C ) :   1.1956
B(  5-C , 78-H ) :   1.0063 B(  6-C ,  7-C ) :   1.2597 B(  6-C , 11-C ) :   1.1817
B(  7-C ,  8-C ) :   1.2104 B(  8-C ,  9-C ) :   1.4550 B(  8-C , 79-H ) :   0.9910
B(  9-C , 10-C ) :   1.2204 B(  9-C , 15-C ) :   0.9893 B( 10-C , 11-C ) :   1.4820
B( 10-C , 12-C ) :   0.9367 B( 11-C , 80-H ) :   1.0162 B( 12-C , 13-O ) :   2.1908
B( 12-C , 14-C ) :   0.9684 B( 14-C , 15-C ) :   1.0831 B( 14-C , 21-C ) :   1.5180
B( 15-C , 16-C ) :   1.6354 B( 16-C , 17-C ) :   1.1453 B( 16-C , 19-C ) :   1.1408
B( 17-C , 18-N ) :   3.0015 B( 19-C , 20-N ) :   2.9666 B( 21-C , 22-C ) :   1.2489
B( 21-C , 81-H ) :   0.9383 B( 22-C , 23-C ) :   1.3431 B( 22-C , 29-C ) :   0.1055
B( 22-C , 30-S ) :   1.0210 B( 23-C , 24-O ) :   1.1975 B( 23-C , 26-C ) :   1.2371
B( 24-O , 25-C ) :   0.9402 B( 25-C , 82-H ) :   0.9644 B( 25-C , 83-H ) :   0.9587
B( 25-C , 84-H ) :   0.9757 B( 26-C , 27-O ) :   1.1775 B( 26-C , 29-C ) :   1.4203
B( 27-O , 28-C ) :   0.9182 B( 28-C , 85-H ) :   0.9781 B( 28-C , 86-H ) :   0.9768
B( 28-C , 87-H ) :   0.9730 B( 29-C , 30-S ) :   1.1361 B( 29-C , 31-C ) :   1.2696
B( 31-C , 32-C ) :   1.2989 B( 31-C , 44-C ) :   0.1117 B( 31-C , 45-S ) :   1.1457
B( 32-C , 33-C ) :   1.2024 B( 32-C , 43-N ) :   1.4438 B( 33-C , 34-N ) :   1.4333
B( 33-C , 44-C ) :   1.2874 B( 34-N , 35-C ) :   1.6828 B( 35-C , 36-C ) :   0.9137
B( 35-C , 42-C ) :   1.1215 B( 36-C , 37-O ) :   2.1605 B( 36-C , 38-C ) :   1.0297
B( 38-C , 39-C ) :   1.6780 B( 38-C , 88-H ) :   0.9988 B( 39-C , 40-C ) :   1.0206
B( 39-C , 89-H ) :   0.9968 B( 40-C , 41-O ) :   2.2539 B( 40-C , 42-C ) :   0.8957
B( 42-C , 43-N ) :   1.6909 B( 44-C , 45-S ) :   1.1432 B( 44-C , 46-C ) :   1.2492
B( 46-C , 47-C ) :   1.4383 B( 46-C , 53-C ) :   0.1174 B( 46-C , 54-S ) :   1.1323
B( 47-C , 48-O ) :   1.2020 B( 47-C , 50-C ) :   1.2237 B( 48-O , 49-C ) :   0.9224
B( 49-C , 90-H ) :   0.9745 B( 49-C , 91-H ) :   0.9786 B( 49-C , 92-H ) :   0.9762
B( 50-C , 51-O ) :   1.1925 B( 50-C , 53-C ) :   1.3720 B( 51-O , 52-C ) :   0.9263
B( 52-C , 93-H ) :   0.9753 B( 52-C , 94-H ) :   0.9611 B( 52-C , 95-H ) :   0.9742
B( 53-C , 54-S ) :   1.0531 B( 53-C , 55-C ) :   1.1316 B( 55-C , 56-C ) :   1.6416
B( 55-C , 96-H ) :   0.9478 B( 56-C , 57-C ) :   0.9464 B( 56-C , 71-C ) :   1.0288
B( 57-C , 58-O ) :   2.2591 B( 57-C , 59-C ) :   0.9180 B( 59-C , 60-C ) :   1.4718
B( 59-C , 70-C ) :   1.2156 B( 60-C , 61-C ) :   1.1946 B( 60-C , 97-H ) :   1.0172
B( 61-C , 62-C ) :   1.2556 B( 61-C , 66-C ) :   1.1911 B( 62-C , 63-C ) :   1.1888
B( 62-C , 69-C ) :   1.2052 B( 63-C , 64-C ) :   1.4373 B( 63-C , 66-C ) :   0.1097
B( 63-C , 98-H ) :   1.0096 B( 64-C , 65-C ) :   1.1923 B( 64-C , 68-F ) :   1.1304
B( 65-C , 66-C ) :   1.4434 B( 65-C , 67-F ) :   1.1295 B( 66-C , 99-H ) :   1.0080
B( 69-C , 70-C ) :   1.4712 B( 69-C ,100-H ) :   0.9885 B( 70-C , 71-C ) :   1.0054
B( 71-C , 72-C ) :   1.6613 B( 72-C , 73-C ) :   1.1613 B( 72-C , 75-C ) :   1.1473
B( 73-C , 74-N ) :   2.9930 B( 75-C , 76-N ) :   2.9768

-----------------------------------------------------------------------------
         ABSORPTION SPECTRUM VIA TRANSITION ELECTRIC DIPOLE MOMENTS
-----------------------------------------------------------------------------
State   Energy  Wavelength   fosc         T2         TX        TY        TZ
        (cm-1)    (nm)                  (au**2)     (au)      (au)      (au)
-----------------------------------------------------------------------------
   0   11386.4    878.2   0.832960209  24.08318   1.74280  -0.24280  -4.58114
   1   15453.6    647.1   0.131138905   2.79368  -0.65497  -0.83451   1.29163
   2   18644.9    536.3   0.254717051   4.49753  -0.35388  -0.46060   2.03964
   3   20047.5    498.8   0.288081878   4.73076   1.51401  -0.40978  -1.50685
   4   20683.6    483.5   0.108122276   1.72094  -0.30706   1.25985  -0.19860
   5   22157.2    451.3   0.043629717   0.64825   0.45098  -0.66616  -0.03300
   6   22322.9    448.0   0.057721014   0.85125   0.67519  -0.62877  -0.00355
   7   24257.8    412.2   0.028511249   0.38694   0.09942  -0.39879   0.46693
   8   24735.5    404.3   0.048444115   0.64476   0.46310   0.56598  -0.33161
   9   24886.0    401.8   0.014457367   0.19125   0.36951  -0.14685   0.18208
  10   25297.9    395.3   0.022977887   0.29902   0.05842  -0.49487   0.22519
  11   25927.7    385.7   0.009562148   0.12141  -0.19080   0.19010   0.22107
  12   26345.9    379.6   0.015123265   0.18898   0.28504  -0.11619  -0.30697
  13   26741.9    373.9   0.194541309   2.39495   0.53969   0.60272  -1.31925
  14   26994.9    370.4   0.005449870   0.06646  -0.17941  -0.13514   0.12653
  15   27145.7    368.4   0.003315733   0.04021  -0.13211  -0.06170  -0.13766
  16   27696.0    361.1   0.034050391   0.40474  -0.61501  -0.15505  -0.04971
  17   28051.2    356.5   0.002246632   0.02637  -0.13848   0.05482   0.06468
  18   28147.0    355.3   0.062004292   0.72521   0.51883   0.60528  -0.29943
  19   28707.0    348.3   0.004396871   0.05042  -0.19070   0.02269   0.11637
  20   29119.9    343.4   0.005591098   0.06321   0.19942   0.15077   0.02669
  21   29225.8    342.2   0.020335171   0.22906  -0.11242   0.43834  -0.15584
  22   29542.9    338.5   0.025200895   0.28083  -0.28644  -0.24473   0.37267
  23   29795.9    335.6   0.042568598   0.47034   0.24736  -0.07964  -0.63467
  24   30168.8    331.5   0.139656590   1.52398  -0.98617   0.01378   0.74247
  25   30505.4    327.8   0.147376053   1.59047   0.21293  -1.08898   0.59937
  26   30696.8    325.8   0.027473517   0.29464   0.11729   0.46077   0.26187
  27   30822.6    324.4   0.072122048   0.77033  -0.31846  -0.65025   0.49607
  28   31470.0    317.8   0.149733665   1.56639   0.51656  -0.77412  -0.83683
  29   32209.2    310.5   0.241668038   2.47010   0.82379   0.99236  -0.89816
  30   32262.3    310.0   0.076700828   0.78267  -0.34747   0.81311   0.02801
  31   32635.6    306.4   0.110561668   1.11529   0.89566   0.39437  -0.39695
  32   33178.9    301.4   0.107539406   1.06704  -0.58968  -0.84635   0.05485
  33   33361.6    299.7   0.162510106   1.60365   0.77444   0.99848   0.08321
  34   33544.9    298.1   0.452126966   4.43721   0.67233   1.92113  -0.54263
  35   33879.4    295.2   0.031993118   0.31088  -0.50361  -0.23200  -0.05858
  36   34038.0    293.8   0.121704169   1.17711   0.17478   0.69228  -0.81689
  37   34243.3    292.0   0.019039546   0.18304   0.41605  -0.05745  -0.08152
  38   34259.6    291.9   0.198973922   1.91200   1.24579  -0.52578   0.28910
  39   34407.1    290.6   0.007951178   0.07608   0.22121   0.13341  -0.09668
  40   34520.5    289.7   0.051961895   0.49555  -0.64902  -0.26828   0.04840
  41   34826.5    287.1   0.013617539   0.12873   0.17637  -0.30884  -0.04734
  42   35107.1    284.8   0.024868502   0.23320  -0.21861   0.31591   0.29259
  43   35170.0    284.3   0.014275729   0.13363   0.00152   0.17063   0.32328
  44   35414.3    282.4   0.005669136   0.05270  -0.10880  -0.15076  -0.13467
  45   35583.9    281.0   0.014856076   0.13744   0.16336   0.31768  -0.09918
  46   35856.2    278.9   0.012871622   0.11818  -0.25551  -0.03583   0.22719
  47   36020.2    277.6   0.256404781   2.34345  -0.64478  -1.06365   0.89239
  48   36312.8    275.4   0.252177420   2.28624   0.86605   1.13937  -0.48790
  49   36744.2    272.2   0.025790995   0.23108  -0.09665   0.22298   0.41474
  50   37175.6    269.0   0.246718871   2.18484   0.73094   1.27403  -0.16556
  51   37185.6    268.9   0.094300492   0.83486  -0.52055  -0.73555   0.15115
  52   37365.0    267.6   0.056507228   0.49787   0.25763   0.38026  -0.53563
  53   37675.6    265.4   0.058435353   0.51061  -0.28596  -0.13037   0.64175
  54   37931.9    263.6   0.113483659   0.98493   0.39214   0.88051   0.23633
  55   38150.8    262.1   0.009121972   0.07872   0.27708   0.02904  -0.03312
  56   38610.8    259.0   0.008086768   0.06895   0.09880  -0.08592  -0.22761
  57   38689.8    258.5   0.352644449   3.00066   0.51677  -1.63286   0.25960
  58   38947.7    256.8   0.064239966   0.54300  -0.56162   0.39264   0.27095
  59   39166.9    255.3   0.010154856   0.08536  -0.13892  -0.24607   0.07422
  60   39276.7    254.6   0.004615986   0.03869   0.00203  -0.12512   0.15176
  61   39617.0    252.4   0.116016639   0.96408  -0.46880   0.79780   0.32836
  62   39816.0    251.2   0.009786126   0.08091  -0.08455   0.26944   0.03422
  63   39966.6    250.2   0.015287259   0.12592  -0.05868   0.17754  -0.30160

FINAL SINGLE POINT ENERGY     -4667.897173906272

DIPOLE MOMENT
-------------
                                X             Y             Z
Electronic contribution:     21.07539     -35.38344       3.41531
Nuclear contribution   :    -22.80246      38.68496      -2.95914
                        -----------------------------------------
Total Dipole Moment    :     -1.72707       3.30152       0.45616
                        -----------------------------------------
Magnitude (a.u.)       :      3.75378
Magnitude (Debye)      :      9.54136

Rotational constants in cm-1:     0.001590     0.000292     0.000267
Rotational constants in MHz :    47.652199     8.740735     8.007263

                             ****ORCA TERMINATED NORMALLY****
TOTAL RUN TIME: 0 days 0 hours 10 minutes 50 seconds 465 msec
