                         Program Version 4.2.0 -  RELEASE  -
|  1> # ORCA input file
|  2> # SCF done       -203.553390925339          0.000167738458
|  3> ! CAM-B3LYP def2-SVP def2/J RIJCOSX Grid4 TightSCF
|  4> %maxcore 5000
|  5> %tddft
|  6>     Mode sTDDFT
|  7>     Ethresh 5.0
|  8>     maxcore 5000
|  9> end
| 10>
| 11> %pal
| 12>   nprocs 6
| 13>   end
| 14> * xyz 0 1
| 15>    C        4.93134         3.73756        -3.85948
| 16>    C        3.76748         3.72418        -4.59683
| 17>    C        3.71207         3.83153        -5.99772
| 18>    N        3.59013         3.96878        -7.13228
| 19>    C        2.49800         3.54013        -4.02878
| 20>    N        1.44401         3.38089        -3.59758
| 21>    C        6.27436         3.58967        -4.41553
| 22>    C        7.16825         3.26697        -3.35362
| 23>    C        8.49171         3.02597        -3.57774
| 24>    C        8.99397         3.10688        -4.89763
| 25>    C        8.10850         3.44103        -5.96149
| 26>    C        6.73838         3.67898        -5.69880
| 27>    C        8.62065         3.51987        -7.27174
| 28>    C        9.94405         3.27725        -7.52275
| 29>    C       10.81524         2.94738        -6.47476
| 30>    C       10.34996         2.86425        -5.19003
| 31>    C        6.41798         3.25532        -2.08287
| 32>    O        6.83206         2.97874        -0.97727
| 33>    C        5.04248         3.69760        -2.43079
| 34>    C        4.18928         4.04387        -1.41155
| 35>    C        2.99854         4.78731        -1.39788
| 36>    C        2.60878         5.71328        -2.35353
| 37>    C        1.31666         6.32564        -2.16253
| 38>    O        0.75986         7.07587        -3.11237
| 39>    C        1.46770         7.18245        -4.33022
| 40>    C        2.96435         7.25147        -4.06321
| 41>    O        3.39430         6.08245        -3.38026
| 42>    C        0.67967         6.00892        -0.97116
| 43>   Si        1.68259         4.71086        -0.06339
| 44>    C        0.83292         3.04477        -0.01550
| 45>    C        2.28551         5.30213         1.60888
| 46>    C       -0.56237         6.52787        -0.57517
| 47>    C       -1.28004         7.65528        -1.02422
| 48>    C       -2.54317         7.81781        -0.35626
| 49>    N       -3.36410         8.82158        -0.64082
| 50>    C       -2.96897         9.67431        -1.56790
| 51>    C       -3.87648        10.79313        -1.88848
| 52>    O       -4.95459        10.94216        -1.33911
| 53>    C       -3.38173        11.72085        -2.91461
| 54>    C       -2.20184        11.58184        -3.53262
| 55>    C       -1.26422        10.48185        -3.26218
| 56>    O       -0.21934        10.35483        -3.87585
| 57>    C       -1.70186         9.53355        -2.21560
| 58>    N       -0.87932         8.54773        -1.92534
| 59>    C       -2.80479         6.83284         0.61075
| 60>    S       -1.45435         5.73746         0.69831
| 61>    C       -3.98999         6.71263         1.33182
| 62>    C       -4.22296         5.64814         2.18496
| 63>    C       -5.51004         5.61227         2.81391
| 64>    O       -5.87338         4.56535         3.57537
| 65>    C       -4.78364         3.80631         4.06460
| 66>    C       -3.80175         3.48827         2.94207
| 67>    O       -3.29343         4.68144         2.37100
| 68>    C       -6.35882         6.65371         2.47328
| 69>   Si       -5.53520         7.78354         1.20338
| 70>    C       -5.35492         9.52908         1.84028
| 71>    C       -6.38947         7.66796        -0.45575
| 72>    C       -7.65698         6.82999         2.98769
| 73>    C       -8.13765         6.49058         4.22910
| 74>    C       -9.52482         6.51236         4.63099
| 75>    C      -10.61372         6.66774         3.80661
| 76>    C      -11.94990         6.65333         4.25240
| 77>    N      -13.05913         6.65691         4.55173
| 78>    C      -10.55765         6.83615         2.40887
| 79>    N      -10.60338         6.95594         1.26660
| 80>    C       -9.58208         6.24418         6.06462
| 81>    C       -8.25307         6.06032         6.54033
| 82>    C       -7.30523         6.22423         5.42078
| 83>    O       -6.09192         6.22562         5.50466
| 84>    C       -7.98878         5.78201         7.84916
| 85>    C       -9.06326         5.66261         8.76040
| 86>    C      -10.39521         5.84845         8.29284
| 87>    C      -10.63726         6.14405         6.93076
| 88>    C      -11.45928         5.72918         9.20918
| 89>    C      -11.22167         5.43759        10.52497
| 90>    C       -9.90947         5.25402        10.98440
| 91>    C       -8.85344         5.36416        10.12061
| 92>    H        9.15065         2.77303        -2.76033
| 93>    H        6.09114         3.93223        -6.52404
| 94>    H        7.94498         3.77187        -8.07613
| 95>    H       10.32592         3.33759        -8.53099
| 96>    H       11.85658         2.75907        -6.68969
| 97>    H       11.01667         2.61028        -4.37877
| 98>    H        4.52546         3.70479        -0.43549
| 99>    H        1.24056         6.31418        -4.96396
|100>    H        1.10413         8.09778        -4.80162
|101>    H        3.18858         8.13409        -3.45144
|102>    H        3.53602         7.28938        -4.99130
|103>    H        0.54854         2.72121        -1.01617
|104>    H       -0.07118         3.06497         0.58997
|105>    H        1.47919         2.27237         0.39757
|106>    H        1.46279         5.40053         2.31448
|107>    H        2.77811         6.27179         1.55428
|108>    H        2.99830         4.60824         2.04961
|109>    H       -4.04443        12.54288        -3.14965
|110>    H       -1.87881        12.28708        -4.28672
|111>    H       -4.28170         4.37866         4.85429
|112>    H       -5.20961         2.89438         4.48500
|113>    H       -4.30692         2.90167         2.16303
|114>    H       -2.93966         2.93382         3.31576
|115>    H       -4.63004         9.61538         2.64770
|116>    H       -6.30141         9.91257         2.21677
|117>    H       -5.04118        10.19359         1.03815
|118>    H       -6.17901         6.73851        -0.98151
|119>    H       -6.07407         8.48726        -1.09712
|120>    H       -7.47088         7.74039        -0.35445
|121>    H       -8.33158         7.35641         2.32295
|122>    H       -6.97184         5.64850         8.18796
|123>    H      -11.65680         6.28562         6.60921
|124>    H      -12.46811         5.87074         8.84984
|125>    H      -12.04406         5.34663        11.21881
|126>    H       -9.73909         5.02514        12.02596
|127>    H       -7.84043         5.22427        10.46950
|128> *
|129>
|130>                          ****END OF INPUT****

CARTESIAN COORDINATES (ANGSTROEM)
---------------------------------
  C      4.931340    3.737560   -3.859480
  C      3.767480    3.724180   -4.596830
  C      3.712070    3.831530   -5.997720
  N      3.590130    3.968780   -7.132280
  C      2.498000    3.540130   -4.028780
  N      1.444010    3.380890   -3.597580
  C      6.274360    3.589670   -4.415530
  C      7.168250    3.266970   -3.353620
  C      8.491710    3.025970   -3.577740
  C      8.993970    3.106880   -4.897630
  C      8.108500    3.441030   -5.961490
  C      6.738380    3.678980   -5.698800
  C      8.620650    3.519870   -7.271740
  C      9.944050    3.277250   -7.522750
  C     10.815240    2.947380   -6.474760
  C     10.349960    2.864250   -5.190030
  C      6.417980    3.255320   -2.082870
  O      6.832060    2.978740   -0.977270
  C      5.042480    3.697600   -2.430790
  C      4.189280    4.043870   -1.411550
  C      2.998540    4.787310   -1.397880
  C      2.608780    5.713280   -2.353530
  C      1.316660    6.325640   -2.162530
  O      0.759860    7.075870   -3.112370
  C      1.467700    7.182450   -4.330220
  C      2.964350    7.251470   -4.063210
  O      3.394300    6.082450   -3.380260
  C      0.679670    6.008920   -0.971160
  Si     1.682590    4.710860   -0.063390
  C      0.832920    3.044770   -0.015500
  C      2.285510    5.302130    1.608880
  C     -0.562370    6.527870   -0.575170
  C     -1.280040    7.655280   -1.024220
  C     -2.543170    7.817810   -0.356260
  N     -3.364100    8.821580   -0.640820
  C     -2.968970    9.674310   -1.567900
  C     -3.876480   10.793130   -1.888480
  O     -4.954590   10.942160   -1.339110
  C     -3.381730   11.720850   -2.914610
  C     -2.201840   11.581840   -3.532620
  C     -1.264220   10.481850   -3.262180
  O     -0.219340   10.354830   -3.875850
  C     -1.701860    9.533550   -2.215600
  N     -0.879320    8.547730   -1.925340
  C     -2.804790    6.832840    0.610750
  S     -1.454350    5.737460    0.698310
  C     -3.989990    6.712630    1.331820
  C     -4.222960    5.648140    2.184960
  C     -5.510040    5.612270    2.813910
  O     -5.873380    4.565350    3.575370
  C     -4.783640    3.806310    4.064600
  C     -3.801750    3.488270    2.942070
  O     -3.293430    4.681440    2.371000
  C     -6.358820    6.653710    2.473280
  Si    -5.535200    7.783540    1.203380
  C     -5.354920    9.529080    1.840280
  C     -6.389470    7.667960   -0.455750
  C     -7.656980    6.829990    2.987690
  C     -8.137650    6.490580    4.229100
  C     -9.524820    6.512360    4.630990
  C    -10.613720    6.667740    3.806610
  C    -11.949900    6.653330    4.252400
  N    -13.059130    6.656910    4.551730
  C    -10.557650    6.836150    2.408870
  N    -10.603380    6.955940    1.266600
  C     -9.582080    6.244180    6.064620
  C     -8.253070    6.060320    6.540330
  C     -7.305230    6.224230    5.420780
  O     -6.091920    6.225620    5.504660
  C     -7.988780    5.782010    7.849160
  C     -9.063260    5.662610    8.760400
  C    -10.395210    5.848450    8.292840
  C    -10.637260    6.144050    6.930760
  C    -11.459280    5.729180    9.209180
  C    -11.221670    5.437590   10.524970
  C     -9.909470    5.254020   10.984400
  C     -8.853440    5.364160   10.120610
  H      9.150650    2.773030   -2.760330
  H      6.091140    3.932230   -6.524040
  H      7.944980    3.771870   -8.076130
  H     10.325920    3.337590   -8.530990
  H     11.856580    2.759070   -6.689690
  H     11.016670    2.610280   -4.378770
  H      4.525460    3.704790   -0.435490
  H      1.240560    6.314180   -4.963960
  H      1.104130    8.097780   -4.801620
  H      3.188580    8.134090   -3.451440
  H      3.536020    7.289380   -4.991300
  H      0.548540    2.721210   -1.016170
  H     -0.071180    3.064970    0.589970
  H      1.479190    2.272370    0.397570
  H      1.462790    5.400530    2.314480
  H      2.778110    6.271790    1.554280
  H      2.998300    4.608240    2.049610
  H     -4.044430   12.542880   -3.149650
  H     -1.878810   12.287080   -4.286720
  H     -4.281700    4.378660    4.854290
  H     -5.209610    2.894380    4.485000
  H     -4.306920    2.901670    2.163030
  H     -2.939660    2.933820    3.315760
  H     -4.630040    9.615380    2.647700
  H     -6.301410    9.912570    2.216770
  H     -5.041180   10.193590    1.038150
  H     -6.179010    6.738510   -0.981510
  H     -6.074070    8.487260   -1.097120
  H     -7.470880    7.740390   -0.354450
  H     -8.331580    7.356410    2.322950
  H     -6.971840    5.648500    8.187960
  H    -11.656800    6.285620    6.609210
  H    -12.468110    5.870740    8.849840
  H    -12.044060    5.346630   11.218810
  H     -9.739090    5.025140   12.025960
  H     -7.840430    5.224270   10.469500

 Total Charge           Charge          ....    0
 Multiplicity           Mult            ....    1
 Number of Electrons    NEL             ....  546
 Basis Dimension        Dim             .... 1270

ORBITAL ENERGIES
----------------

  NO   OCC          E(Eh)            E(eV)
   0   2.0000     -88.982208     -2421.3290
   1   2.0000     -66.200939     -1801.4191
   2   2.0000     -66.190158     -1801.1258
   3   2.0000     -19.289721      -524.9000
   4   2.0000     -19.281223      -524.6688
   5   2.0000     -19.273021      -524.4456
   6   2.0000     -19.266981      -524.2812
   7   2.0000     -19.228426      -523.2321
   8   2.0000     -19.226466      -523.1787
   9   2.0000     -19.203378      -522.5505
  10   2.0000     -19.197726      -522.3967
  11   2.0000     -14.445775      -393.0895
  12   2.0000     -14.435434      -392.8081
  13   2.0000     -14.412861      -392.1939
  14   2.0000     -14.408944      -392.0873
  15   2.0000     -14.398999      -391.8167
  16   2.0000     -14.397877      -391.7861
  17   2.0000     -10.376713      -282.3647
  18   2.0000     -10.375167      -282.3226
  19   2.0000     -10.371937      -282.2348
  20   2.0000     -10.363115      -281.9947
  21   2.0000     -10.361327      -281.9460
  22   2.0000     -10.354812      -281.7688
  23   2.0000     -10.353416      -281.7308
  24   2.0000     -10.352993      -281.7193
  25   2.0000     -10.350780      -281.6590
  26   2.0000     -10.347988      -281.5831
  27   2.0000     -10.346759      -281.5496
  28   2.0000     -10.341282      -281.4006
  29   2.0000     -10.335189      -281.2348
  30   2.0000     -10.330744      -281.1138
  31   2.0000     -10.328860      -281.0626
  32   2.0000     -10.326627      -281.0018
  33   2.0000     -10.324500      -280.9439
  34   2.0000     -10.323472      -280.9160
  35   2.0000     -10.322102      -280.8787
  36   2.0000     -10.322008      -280.8761
  37   2.0000     -10.321290      -280.8566
  38   2.0000     -10.319940      -280.8198
  39   2.0000     -10.315328      -280.6944
  40   2.0000     -10.313099      -280.6337
  41   2.0000     -10.310178      -280.5542
  42   2.0000     -10.309492      -280.5356
  43   2.0000     -10.305110      -280.4163
  44   2.0000     -10.302960      -280.3578
  45   2.0000     -10.301938      -280.3300
  46   2.0000     -10.299016      -280.2505
  47   2.0000     -10.293308      -280.0952
  48   2.0000     -10.289898      -280.0024
  49   2.0000     -10.289392      -279.9886
  50   2.0000     -10.288470      -279.9635
  51   2.0000     -10.287938      -279.9490
  52   2.0000     -10.287085      -279.9258
  53   2.0000     -10.286082      -279.8985
  54   2.0000     -10.285363      -279.8790
  55   2.0000     -10.283425      -279.8262
  56   2.0000     -10.282982      -279.8142
  57   2.0000     -10.281724      -279.7799
  58   2.0000     -10.279974      -279.7323
  59   2.0000     -10.279617      -279.7226
  60   2.0000     -10.279332      -279.7149
  61   2.0000     -10.279210      -279.7115
  62   2.0000     -10.278795      -279.7002
  63   2.0000     -10.277024      -279.6520
  64   2.0000     -10.276435      -279.6360
  65   2.0000     -10.275786      -279.6183
  66   2.0000     -10.275238      -279.6034
  67   2.0000     -10.274886      -279.5939
  68   2.0000     -10.274759      -279.5904
  69   2.0000     -10.274465      -279.5824
  70   2.0000     -10.274012      -279.5701
  71   2.0000     -10.268204      -279.4120
  72   2.0000     -10.256799      -279.1017
  73   2.0000     -10.255317      -279.0614
  74   2.0000     -10.250492      -278.9301
  75   2.0000     -10.233965      -278.4804
  76   2.0000     -10.232053      -278.4283
  77   2.0000      -8.075738      -219.7520
  78   2.0000      -6.044753      -164.4861
  79   2.0000      -6.040475      -164.3697
  80   2.0000      -6.038766      -164.3232
  81   2.0000      -5.367541      -146.0582
  82   2.0000      -5.355540      -145.7317
  83   2.0000      -3.731327      -101.5346
  84   2.0000      -3.729455      -101.4836
  85   2.0000      -3.728399      -101.4549
  86   2.0000      -3.719675      -101.2175
  87   2.0000      -3.717474      -101.1576
  88   2.0000      -3.716186      -101.1226
  89   2.0000      -1.210580       -32.9416
  90   2.0000      -1.204900       -32.7870
  91   2.0000      -1.169072       -31.8121
  92   2.0000      -1.166546       -31.7433
  93   2.0000      -1.141896       -31.0726
  94   2.0000      -1.137150       -30.9434
  95   2.0000      -1.117233       -30.4015
  96   2.0000      -1.110187       -30.2097
  97   2.0000      -1.092817       -29.7371
  98   2.0000      -1.019199       -27.7338
  99   2.0000      -1.011482       -27.5238
 100   2.0000      -1.001230       -27.2448
 101   2.0000      -0.992560       -27.0089
 102   2.0000      -0.991632       -26.9837
 103   2.0000      -0.988867       -26.9084
 104   2.0000      -0.983633       -26.7660
 105   2.0000      -0.977177       -26.5903
 106   2.0000      -0.962949       -26.2032
 107   2.0000      -0.957922       -26.0664
 108   2.0000      -0.947817       -25.7914
 109   2.0000      -0.942698       -25.6521
 110   2.0000      -0.936706       -25.4891
 111   2.0000      -0.915260       -24.9055
 112   2.0000      -0.910418       -24.7737
 113   2.0000      -0.895140       -24.3580
 114   2.0000      -0.888032       -24.1646
 115   2.0000      -0.879083       -23.9211
 116   2.0000      -0.873590       -23.7716
 117   2.0000      -0.869897       -23.6711
 118   2.0000      -0.867682       -23.6108
 119   2.0000      -0.866767       -23.5859
 120   2.0000      -0.861418       -23.4404
 121   2.0000      -0.854330       -23.2475
 122   2.0000      -0.843062       -22.9409
 123   2.0000      -0.828054       -22.5325
 124   2.0000      -0.820390       -22.3239
 125   2.0000      -0.816162       -22.2089
 126   2.0000      -0.815329       -22.1862
 127   2.0000      -0.801609       -21.8129
 128   2.0000      -0.793851       -21.6018
 129   2.0000      -0.790764       -21.5178
 130   2.0000      -0.787737       -21.4354
 131   2.0000      -0.780112       -21.2279
 132   2.0000      -0.779046       -21.1989
 133   2.0000      -0.772055       -21.0087
 134   2.0000      -0.763157       -20.7666
 135   2.0000      -0.752359       -20.4727
 136   2.0000      -0.752197       -20.4683
 137   2.0000      -0.749635       -20.3986
 138   2.0000      -0.745700       -20.2915
 139   2.0000      -0.733289       -19.9538
 140   2.0000      -0.727988       -19.8096
 141   2.0000      -0.701584       -19.0911
 142   2.0000      -0.697719       -18.9859
 143   2.0000      -0.694408       -18.8958
 144   2.0000      -0.691714       -18.8225
 145   2.0000      -0.687564       -18.7096
 146   2.0000      -0.681622       -18.5479
 147   2.0000      -0.677797       -18.4438
 148   2.0000      -0.674393       -18.3512
 149   2.0000      -0.669508       -18.2182
 150   2.0000      -0.667536       -18.1646
 151   2.0000      -0.660408       -17.9706
 152   2.0000      -0.655552       -17.8385
 153   2.0000      -0.652555       -17.7569
 154   2.0000      -0.647345       -17.6151
 155   2.0000      -0.639632       -17.4053
 156   2.0000      -0.635894       -17.3036
 157   2.0000      -0.628994       -17.1158
 158   2.0000      -0.624629       -16.9970
 159   2.0000      -0.618865       -16.8402
 160   2.0000      -0.617740       -16.8095
 161   2.0000      -0.610673       -16.6173
 162   2.0000      -0.602539       -16.3959
 163   2.0000      -0.598677       -16.2908
 164   2.0000      -0.594225       -16.1697
 165   2.0000      -0.587645       -15.9906
 166   2.0000      -0.585899       -15.9431
 167   2.0000      -0.582669       -15.8552
 168   2.0000      -0.572778       -15.5861
 169   2.0000      -0.568326       -15.4649
 170   2.0000      -0.563769       -15.3409
 171   2.0000      -0.561873       -15.2893
 172   2.0000      -0.558717       -15.2035
 173   2.0000      -0.558128       -15.1874
 174   2.0000      -0.556704       -15.1487
 175   2.0000      -0.550330       -14.9752
 176   2.0000      -0.547697       -14.9036
 177   2.0000      -0.544032       -14.8039
 178   2.0000      -0.541013       -14.7217
 179   2.0000      -0.538741       -14.6599
 180   2.0000      -0.537064       -14.6142
 181   2.0000      -0.536081       -14.5875
 182   2.0000      -0.534751       -14.5513
 183   2.0000      -0.531119       -14.4525
 184   2.0000      -0.528542       -14.3824
 185   2.0000      -0.526740       -14.3333
 186   2.0000      -0.524033       -14.2597
 187   2.0000      -0.522247       -14.2111
 188   2.0000      -0.519979       -14.1494
 189   2.0000      -0.516594       -14.0572
 190   2.0000      -0.514269       -13.9940
 191   2.0000      -0.511255       -13.9119
 192   2.0000      -0.510441       -13.8898
 193   2.0000      -0.508016       -13.8238
 194   2.0000      -0.507112       -13.7992
 195   2.0000      -0.504512       -13.7285
 196   2.0000      -0.503674       -13.7057
 197   2.0000      -0.503499       -13.7009
 198   2.0000      -0.502227       -13.6663
 199   2.0000      -0.499803       -13.6003
 200   2.0000      -0.497831       -13.5467
 201   2.0000      -0.496865       -13.5204
 202   2.0000      -0.493539       -13.4299
 203   2.0000      -0.492570       -13.4035
 204   2.0000      -0.491697       -13.3798
 205   2.0000      -0.489703       -13.3255
 206   2.0000      -0.486879       -13.2487
 207   2.0000      -0.485490       -13.2108
 208   2.0000      -0.481921       -13.1137
 209   2.0000      -0.478363       -13.0169
 210   2.0000      -0.477592       -12.9959
 211   2.0000      -0.477426       -12.9914
 212   2.0000      -0.473711       -12.8903
 213   2.0000      -0.473376       -12.8812
 214   2.0000      -0.472303       -12.8520
 215   2.0000      -0.469094       -12.7647
 216   2.0000      -0.468538       -12.7496
 217   2.0000      -0.458335       -12.4719
 218   2.0000      -0.456519       -12.4225
 219   2.0000      -0.452805       -12.3215
 220   2.0000      -0.450693       -12.2640
 221   2.0000      -0.450451       -12.2574
 222   2.0000      -0.447668       -12.1817
 223   2.0000      -0.443911       -12.0794
 224   2.0000      -0.441579       -12.0160
 225   2.0000      -0.439135       -11.9495
 226   2.0000      -0.433719       -11.8021
 227   2.0000      -0.433468       -11.7953
 228   2.0000      -0.431224       -11.7342
 229   2.0000      -0.430483       -11.7140
 230   2.0000      -0.428997       -11.6736
 231   2.0000      -0.427965       -11.6455
 232   2.0000      -0.426521       -11.6062
 233   2.0000      -0.422442       -11.4952
 234   2.0000      -0.421550       -11.4710
 235   2.0000      -0.421359       -11.4658
 236   2.0000      -0.418277       -11.3819
 237   2.0000      -0.416734       -11.3399
 238   2.0000      -0.411586       -11.1998
 239   2.0000      -0.410923       -11.1818
 240   2.0000      -0.408528       -11.1166
 241   2.0000      -0.406613       -11.0645
 242   2.0000      -0.404066       -10.9952
 243   2.0000      -0.402434       -10.9508
 244   2.0000      -0.401483       -10.9249
 245   2.0000      -0.396187       -10.7808
 246   2.0000      -0.392362       -10.6767
 247   2.0000      -0.390716       -10.6319
 248   2.0000      -0.389573       -10.6008
 249   2.0000      -0.387635       -10.5481
 250   2.0000      -0.386287       -10.5114
 251   2.0000      -0.384033       -10.4501
 252   2.0000      -0.375230       -10.2105
 253   2.0000      -0.373844       -10.1728
 254   2.0000      -0.369860       -10.0644
 255   2.0000      -0.364359        -9.9147
 256   2.0000      -0.362749        -9.8709
 257   2.0000      -0.358401        -9.7526
 258   2.0000      -0.349583        -9.5126
 259   2.0000      -0.347624        -9.4593
 260   2.0000      -0.342660        -9.3243
 261   2.0000      -0.338839        -9.2203
 262   2.0000      -0.332348        -9.0437
 263   2.0000      -0.324136        -8.8202
 264   2.0000      -0.322886        -8.7862
 265   2.0000      -0.321184        -8.7399
 266   2.0000      -0.306634        -8.3439
 267   2.0000      -0.305146        -8.3035
 268   2.0000      -0.299438        -8.1481
 269   2.0000      -0.286751        -7.8029
 270   2.0000      -0.283756        -7.7214
 271   2.0000      -0.268959        -7.3188
 272   2.0000      -0.224132        -6.0989
 273   0.0000      -0.106938        -2.9099
 274   0.0000      -0.094481        -2.5710
 275   0.0000      -0.070768        -1.9257
 276   0.0000      -0.065790        -1.7902
 277   0.0000      -0.049270        -1.3407

MULLIKEN ATOMIC CHARGES
-----------------------
   0 C :    0.312178
   1 C :   -0.355259
   2 C :   -0.187223
   3 N :    0.135933
   4 C :   -0.195832
   5 N :    0.150344
   6 C :    0.039954
   7 C :    0.014806
   8 C :   -0.083773
   9 C :    0.092080
  10 C :    0.096121
  11 C :   -0.092643
  12 C :   -0.020870
  13 C :    0.035078
  14 C :    0.033774
  15 C :   -0.016875
  16 C :    0.131757
  17 O :   -0.153914
  18 C :   -0.120240
  19 C :    0.038222
  20 C :   -0.200730
  21 C :    0.110191
  22 C :    0.127287
  23 O :   -0.242726
  24 C :    0.185556
  25 C :    0.159783
  26 O :   -0.269406
  27 C :   -0.214946
  28 Si:    0.479307
  29 C :   -0.188240
  30 C :   -0.179148
  31 C :   -0.125188
  32 C :    0.056288
  33 C :    0.028447
  34 N :    0.038780
  35 C :   -0.096561
  36 C :    0.147345
  37 O :   -0.125058
  38 C :   -0.004048
  39 C :   -0.020230
  40 C :    0.151805
  41 O :   -0.131299
  42 C :   -0.150245
  43 N :    0.097560
  44 C :   -0.098698
  45 S :    0.170595
  46 C :   -0.217913
  47 C :    0.091333
  48 C :    0.188013
  49 O :   -0.265907
  50 C :    0.182973
  51 C :    0.178270
  52 O :   -0.309394
  53 C :   -0.222255
  54 Si:    0.501211
  55 C :   -0.173767
  56 C :   -0.178637
  57 C :   -0.011928
  58 C :   -0.078751
  59 C :    0.312943
  60 C :   -0.358838
  61 C :   -0.183324
  62 N :    0.134463
  63 C :   -0.204345
  64 N :    0.146911
  65 C :    0.048073
  66 C :    0.000188
  67 C :    0.145381
  68 O :   -0.176217
  69 C :   -0.093605
  70 C :    0.101042
  71 C :    0.094623
  72 C :   -0.088486
  73 C :   -0.020540
  74 C :    0.032826
  75 C :    0.035011
  76 C :   -0.020240
  77 H :   -0.016870
  78 H :   -0.014587
  79 H :   -0.013588
  80 H :   -0.008813
  81 H :   -0.008701
  82 H :   -0.020508
  83 H :    0.012036
  84 H :    0.045681
  85 H :    0.051699
  86 H :    0.049273
  87 H :    0.050337
  88 H :    0.073499
  89 H :    0.036312
  90 H :    0.045247
  91 H :    0.044697
  92 H :    0.054529
  93 H :    0.049561
  94 H :    0.017343
  95 H :    0.015438
  96 H :    0.050069
  97 H :    0.039133
  98 H :    0.040008
  99 H :    0.038768
 100 H :    0.042074
 101 H :    0.039431
 102 H :    0.054722
 103 H :    0.040620
 104 H :    0.050813
 105 H :    0.055620
 106 H :    0.026411
 107 H :   -0.025211
 108 H :   -0.010423
 109 H :   -0.011660
 110 H :   -0.008261
 111 H :   -0.009889
 112 H :   -0.023965
Sum of atomic charges:   -0.0000000

LOEWDIN ATOMIC CHARGES
----------------------
   0 C :    0.070015
   1 C :   -0.157176
   2 C :   -0.022942
   3 N :   -0.071226
   4 C :   -0.009152
   5 N :   -0.071620
   6 C :   -0.019951
   7 C :   -0.056261
   8 C :    0.029037
   9 C :   -0.011833
  10 C :   -0.006696
  11 C :    0.007163
  12 C :   -0.009232
  13 C :   -0.016225
  14 C :   -0.017392
  15 C :   -0.010563
  16 C :    0.081996
  17 O :   -0.153981
  18 C :   -0.102967
  19 C :    0.054437
  20 C :   -0.213478
  21 C :    0.065610
  22 C :    0.043736
  23 O :   -0.037757
  24 C :    0.077609
  25 C :    0.077482
  26 O :   -0.044923
  27 C :   -0.215945
  28 Si:    0.663258
  29 C :   -0.244564
  30 C :   -0.242434
  31 C :   -0.164855
  32 C :   -0.050150
  33 C :   -0.042063
  34 N :    0.006979
  35 C :   -0.045946
  36 C :    0.060502
  37 O :   -0.112160
  38 C :   -0.010918
  39 C :   -0.010657
  40 C :    0.060746
  41 O :   -0.124076
  42 C :   -0.058325
  43 N :    0.021843
  44 C :   -0.175971
  45 S :    0.511775
  46 C :   -0.188102
  47 C :    0.018784
  48 C :    0.073327
  49 O :   -0.056174
  50 C :    0.076151
  51 C :    0.074757
  52 O :   -0.095033
  53 C :   -0.214745
  54 Si:    0.684338
  55 C :   -0.242368
  56 C :   -0.239369
  57 C :    0.065729
  58 C :   -0.107884
  59 C :    0.076021
  60 C :   -0.153338
  61 C :   -0.017568
  62 N :   -0.067748
  63 C :   -0.022175
  64 N :   -0.065788
  65 C :   -0.024367
  66 C :   -0.050522
  67 C :    0.079456
  68 O :   -0.165711
  69 C :    0.020692
  70 C :   -0.010126
  71 C :   -0.008867
  72 C :    0.015523
  73 C :   -0.006450
  74 C :   -0.018626
  75 C :   -0.016990
  76 C :   -0.013569
  77 H :    0.037449
  78 H :    0.036233
  79 H :    0.032832
  80 H :    0.031506
  81 H :    0.031169
  82 H :    0.030610
  83 H :    0.039299
  84 H :    0.028815
  85 H :    0.040488
  86 H :    0.031436
  87 H :    0.040158
  88 H :    0.048529
  89 H :    0.028800
  90 H :    0.038723
  91 H :    0.036355
  92 H :    0.042332
  93 H :    0.039315
  94 H :    0.045849
  95 H :    0.044613
  96 H :    0.029958
  97 H :    0.037158
  98 H :    0.026239
  99 H :    0.035526
 100 H :    0.037417
 101 H :    0.036817
 102 H :    0.037538
 103 H :    0.037262
 104 H :    0.037728
 105 H :    0.042444
 106 H :    0.040534
 107 H :    0.033836
 108 H :    0.038082
 109 H :    0.033732
 110 H :    0.031430
 111 H :    0.030636
 112 H :    0.029144

  Mayer bond orders larger than 0.100000
B(  0-C ,  1-C ) :   1.5614 B(  0-C ,  6-C ) :   0.9995 B(  0-C , 18-C ) :   1.1123
B(  1-C ,  2-C ) :   1.1469 B(  1-C ,  4-C ) :   1.2053 B(  2-C ,  3-N ) :   2.9648
B(  4-C ,  5-N ) :   2.9298 B(  6-C ,  7-C ) :   1.2123 B(  6-C , 11-C ) :   1.4683
B(  7-C ,  8-C ) :   1.4843 B(  7-C , 16-C ) :   0.9183 B(  8-C ,  9-C ) :   1.1760
B(  8-C , 77-H ) :   1.0143 B(  9-C , 10-C ) :   1.2641 B(  9-C , 15-C ) :   1.2481
B( 10-C , 11-C ) :   1.1946 B( 10-C , 12-C ) :   1.2453 B( 11-C , 78-H ) :   0.9905
B( 12-C , 13-C ) :   1.4859 B( 12-C , 79-H ) :   0.9962 B( 13-C , 14-C ) :   1.2650
B( 13-C , 80-H ) :   0.9883 B( 14-C , 15-C ) :   1.4867 B( 14-C , 81-H ) :   0.9883
B( 15-C , 82-H ) :   0.9960 B( 16-C , 17-O ) :   2.2529 B( 16-C , 18-C ) :   0.9508
B( 18-C , 19-C ) :   1.5287 B( 19-C , 20-C ) :   1.2264 B( 19-C , 83-H ) :   0.9281
B( 20-C , 21-C ) :   1.5322 B( 20-C , 28-Si) :   0.8677 B( 21-C , 22-C ) :   1.0533
B( 21-C , 26-O ) :   1.1961 B( 22-C , 23-O ) :   1.2256 B( 22-C , 27-C ) :   1.6010
B( 23-O , 24-C ) :   0.9316 B( 24-C , 25-C ) :   1.0853 B( 24-C , 84-H ) :   0.9431
B( 24-C , 85-H ) :   0.9414 B( 25-C , 26-O ) :   0.9077 B( 25-C , 86-H ) :   0.9463
B( 25-C , 87-H ) :   0.9522 B( 27-C , 28-Si) :   0.8569 B( 27-C , 31-C ) :   1.2291
B( 28-Si, 29-C ) :   1.0751 B( 28-Si, 30-C ) :   1.0687 B( 29-C , 88-H ) :   0.9398
B( 29-C , 89-H ) :   0.9483 B( 29-C , 90-H ) :   0.9471 B( 30-C , 91-H ) :   0.9448
B( 30-C , 92-H ) :   0.9477 B( 30-C , 93-H ) :   0.9517 B( 31-C , 32-C ) :   1.2570
B( 31-C , 44-C ) :   0.1138 B( 31-C , 45-S ) :   1.1585 B( 32-C , 33-C ) :   1.1818
B( 32-C , 43-N ) :   1.4821 B( 33-C , 34-N ) :   1.4367 B( 33-C , 44-C ) :   1.2751
B( 34-N , 35-C ) :   1.6864 B( 35-C , 36-C ) :   0.9117 B( 35-C , 42-C ) :   1.0962
B( 36-C , 37-O ) :   2.1380 B( 36-C , 38-C ) :   1.0396 B( 38-C , 39-C ) :   1.6796
B( 38-C , 94-H ) :   0.9997 B( 39-C , 40-C ) :   1.0233 B( 39-C , 95-H ) :   0.9998
B( 40-C , 41-O ) :   2.1932 B( 40-C , 42-C ) :   0.9096 B( 42-C , 43-N ) :   1.6870
B( 44-C , 45-S ) :   1.1195 B( 44-C , 46-C ) :   1.2984 B( 46-C , 47-C ) :   1.5383
B( 46-C , 54-Si) :   0.8434 B( 47-C , 48-C ) :   1.0785 B( 47-C , 52-O ) :   1.1420
B( 48-C , 49-O ) :   1.1972 B( 48-C , 53-C ) :   1.5508 B( 49-O , 50-C ) :   0.9296
B( 50-C , 51-C ) :   1.0804 B( 50-C , 96-H ) :   0.9394 B( 50-C , 97-H ) :   0.9531
B( 51-C , 52-O ) :   0.9290 B( 51-C , 98-H ) :   0.9448 B( 51-C , 99-H ) :   0.9533
B( 53-C , 54-Si) :   0.8422 B( 53-C , 57-C ) :   1.2397 B( 54-Si, 55-C ) :   1.0830
B( 54-Si, 56-C ) :   1.0814 B( 55-C ,100-H ) :   0.9440 B( 55-C ,101-H ) :   0.9452
B( 55-C ,102-H ) :   0.9431 B( 56-C ,103-H ) :   0.9416 B( 56-C ,104-H ) :   0.9452
B( 56-C ,105-H ) :   0.9484 B( 57-C , 58-C ) :   1.4930 B( 57-C ,106-H ) :   0.9318
B( 58-C , 59-C ) :   1.1082 B( 58-C , 67-C ) :   0.9751 B( 59-C , 60-C ) :   1.6026
B( 59-C , 65-C ) :   0.9773 B( 60-C , 61-C ) :   1.1497 B( 60-C , 63-C ) :   1.1468
B( 61-C , 62-N ) :   2.9591 B( 63-C , 64-N ) :   2.9911 B( 65-C , 66-C ) :   1.2174
B( 65-C , 72-C ) :   1.4577 B( 66-C , 67-C ) :   0.9348 B( 66-C , 69-C ) :   1.4774
B( 67-C , 68-O ) :   2.1853 B( 69-C , 70-C ) :   1.1715 B( 69-C ,107-H ) :   1.0161
B( 70-C , 71-C ) :   1.2628 B( 70-C , 76-C ) :   1.2460 B( 71-C , 72-C ) :   1.1968
B( 71-C , 73-C ) :   1.2427 B( 72-C ,108-H ) :   0.9903 B( 73-C , 74-C ) :   1.4857
B( 73-C ,109-H ) :   0.9976 B( 74-C , 75-C ) :   1.2623 B( 74-C ,110-H ) :   0.9890
B( 75-C , 76-C ) :   1.4858 B( 75-C ,111-H ) :   0.9886 B( 76-C ,112-H ) :   0.9975

-----------------------------------------------------------------------------
         ABSORPTION SPECTRUM VIA TRANSITION ELECTRIC DIPOLE MOMENTS
-----------------------------------------------------------------------------
State   Energy  Wavelength   fosc         T2         TX        TY        TZ
        (cm-1)    (nm)                  (au**2)     (au)      (au)      (au)
-----------------------------------------------------------------------------
   0   10124.3    987.7   1.060524743  34.48510   4.90101  -0.52285  -3.19246
   1   13187.9    758.3   0.192988461   4.81760   0.64152  -1.98534   0.68153
   2   17346.6    576.5   0.468734581   8.89588   2.44465  -0.43674  -1.65191
   3   18987.1    526.7   0.047068345   0.81610   0.74478   0.50006  -0.10655
   4   20451.9    489.0   0.028116262   0.45258   0.08946   0.66594  -0.03319
   5   23850.3    419.3   0.003259858   0.04500   0.16951   0.01784   0.12628
   6   24152.3    414.0   0.073462811   1.00135   0.64198  -0.58766  -0.49383
   7   24461.6    408.8   0.017778114   0.23926  -0.22434   0.34521   0.26412
   8   24526.4    407.7   0.017258608   0.23166  -0.38956  -0.02157  -0.28184
   9   24752.0    404.0   0.092942888   1.23618   0.89299  -0.66037   0.05159
  10   25737.5    388.5   0.047457360   0.60703   0.00684  -0.29177   0.72240
  11   26014.2    384.4   0.063912117   0.80881  -0.89545  -0.00327  -0.08345
  12   26262.5    380.8   0.000698578   0.00876  -0.01995   0.06087   0.06822
  13   26503.2    377.3   0.098274147   1.22072   0.29976  -0.72722   0.77590
  14   27359.7    365.5   0.106371585   1.27994  -0.76650   0.24164   0.79626
  15   28303.1    353.3   0.014040957   0.16332   0.04776  -0.03754   0.39954
  16   28634.8    349.2   0.056507769   0.64967  -0.15512   0.33742   0.71537
  17   29130.5    343.3   0.015418866   0.17425  -0.05346   0.41201   0.04049
  18   29362.2    340.6   0.000055429   0.00062  -0.00463  -0.02449  -0.00055
  19   29556.3    338.3   0.057861529   0.64449   0.45515  -0.60707   0.26229
  20   29929.7    334.1   0.011005978   0.12106   0.00697   0.15459   0.31163
  21   30078.6    332.5   0.032152560   0.35191   0.31767  -0.20740   0.45605
  22   30529.8    327.5   0.008841202   0.09534   0.10007  -0.03644   0.28982
  23   30693.5    325.8   0.006782967   0.07275  -0.05883   0.18569  -0.18658
  24   32054.4    312.0   0.134762689   1.38407   0.64133  -0.55818   0.81314
  25   32223.9    310.3   0.319926477   3.26850  -0.95602   0.32367   1.49992
  26   32482.7    307.9   0.103127149   1.04519  -0.98610  -0.15947  -0.21763
  27   32634.4    306.4   0.130296368   1.31441   1.12381   0.22622  -0.01665
  28   32844.4    304.5   0.000526807   0.00528   0.03030   0.05699   0.03338
  29   33232.3    300.9   0.071133586   0.70468  -0.61296   0.55872   0.12958
  30   33495.3    298.5   0.016337725   0.16058   0.04631  -0.01450   0.39777
  31   33556.3    298.0   0.060077880   0.58941   0.73409   0.13017  -0.18325
  32   33763.9    296.2   0.117719504   1.14782   0.11645   0.32653  -1.01372
  33   33940.9    294.6   0.113285113   1.09882  -1.04119   0.12100   0.01014
  34   34187.9    292.5   0.079825328   0.76868  -0.56216  -0.18636   0.64647
  35   34418.6    290.5   0.171959589   1.64478  -0.21592   0.96027  -0.82222
  36   34645.7    288.6   0.057087688   0.54246  -0.07449   0.18347  -0.70940
  37   34907.9    286.5   0.094381439   0.89010   0.06781  -0.15317   0.92846
  38   35173.2    284.3   0.011650133   0.10904   0.10105  -0.30951  -0.05509
  39   35350.5    282.9   0.011399755   0.10616   0.23829   0.09273  -0.20195
  40   35976.1    278.0   0.024807721   0.22701  -0.30900  -0.25565   0.25724
  41   36343.2    275.2   0.026706889   0.24192  -0.03933   0.19068   0.45168
  42   36529.2    273.8   0.284801192   2.56672  -1.58065   0.25550   0.05455
  43   36757.1    272.1   0.005519987   0.04944  -0.10327   0.03659   0.19348
  44   36829.6    271.5   0.099251875   0.88719   0.32303  -0.11690  -0.87703
  45   36957.0    270.6   0.052947105   0.47165   0.40715   0.11812   0.54030
  46   37144.6    269.2   0.094126518   0.83424  -0.90569   0.07256   0.09331
  47   37289.9    268.2   0.047506842   0.41941  -0.55630  -0.16605  -0.28701
  48   37527.7    266.5   0.037769231   0.33133  -0.27126   0.16975  -0.47847
  49   37784.4    264.7   0.200861890   1.75009  -0.77223   0.40888  -0.99326
  50   37949.9    263.5   0.093344137   0.80975   0.37273  -0.66823   0.47360
  51   38158.2    262.1   0.059065402   0.50959   0.32391  -0.30102   0.56041
  52   38505.9    259.7   0.056809630   0.48570   0.50443  -0.19458   0.43976
  53   38768.6    257.9   0.130258394   1.10612  -0.80613   0.34409  -0.58127
  54   38793.9    257.8   0.030224142   0.25649   0.24883  -0.05097   0.43815
  55   39010.4    256.3   0.029519317   0.24912   0.34117  -0.12983   0.34039
  56   39103.8    255.7   0.023545028   0.19822  -0.29697   0.06664  -0.32495
  57   39658.0    252.2   0.001679961   0.01395  -0.10617   0.04010  -0.03265
  58   39876.1    250.8   0.049809512   0.41122  -0.53820   0.02407   0.34782
  59   40077.6    249.5   0.012240601   0.10055   0.02885   0.00744  -0.31569
  60   40224.4    248.6   0.007582851   0.06206   0.15235   0.19133  -0.04738
  61   40298.6    248.1   0.036236075   0.29602  -0.49149  -0.06762   0.22335

FINAL SINGLE POINT ENERGY     -4211.136512790276

DIPOLE MOMENT
-------------
                                X             Y             Z
Electronic contribution:     -8.92775       6.44971     -11.78394
Nuclear contribution   :     12.73126      -6.52978      12.88851
                        -----------------------------------------
Total Dipole Moment    :      3.80351      -0.08007       1.10457
                        -----------------------------------------
Magnitude (a.u.)       :      3.96146
Magnitude (Debye)      :     10.06924

Rotational constants in cm-1:     0.001913     0.000286     0.000260
Rotational constants in MHz :    57.352737     8.570652     7.788705

                             ****ORCA TERMINATED NORMALLY****
TOTAL RUN TIME: 0 days 0 hours 11 minutes 59 seconds 594 msec
