                         Program Version 4.2.0 -  RELEASE  -
|  1> # ORCA input file
|  2> # SCF done       -198.423256290141          0.000279810113
|  3> ! CAM-B3LYP def2-SVP def2/J RIJCOSX Grid4 TightSCF
|  4> %maxcore 5000
|  5> %tddft
|  6>     Mode sTDDFT
|  7>     Ethresh 5.0
|  8>     maxcore 5000
|  9> end
| 10>
| 11> %pal
| 12>   nprocs 6
| 13>   end
| 14> * xyz 0 1
| 15>    C       -0.15193         3.89859         4.96548
| 16>    C       -1.46954         4.27372         4.99586
| 17>    C       -2.11859         4.75702         6.14955
| 18>    N       -2.68366         5.17148         7.05846
| 19>    C       -2.33399         4.13158         3.89130
| 20>    N       -3.06578         3.99732         3.01696
| 21>    C        0.71540         3.75770         6.12827
| 22>    C        1.76996         2.85612         5.79743
| 23>    C        2.72236         2.50469         6.71022
| 24>    C        2.66904         3.05797         8.00973
| 25>    C        1.62592         3.97140         8.34020
| 26>    C        0.64683         4.31023         7.37827
| 27>    C        1.59082         4.52231         9.63721
| 28>    C        2.53811         4.18715        10.56597
| 29>    C        3.56392         3.28721        10.24048
| 30>    C        3.62739         2.73402         8.99029
| 31>    C        1.63706         2.44345         4.38846
| 32>    O        2.30470         1.64631         3.77291
| 33>    C        0.53214         3.28857         3.84361
| 34>    C        0.41641         3.45299         2.50008
| 35>    C       -0.21306         4.49561         1.77681
| 36>    C       -0.53448         4.47100         0.42848
| 37>    C       -1.07495         5.67746        -0.00766
| 38>    C       -1.13435         6.64553         1.01296
| 39>    S       -0.54576         6.06812         2.49911
| 40>    C       -1.67626         7.84009         0.47967
| 41>    C       -1.96437         7.62956        -0.88260
| 42>    C       -1.59704         6.26434        -1.23209
| 43>    C       -1.71312         5.66585        -2.45118
| 44>    C       -2.23769         6.34351        -3.57294
| 45>    N       -2.65973         6.89211        -4.48657
| 46>    C       -1.30760         4.33253        -2.67651
| 47>    N       -0.97080         3.25377        -2.86782
| 48>    C       -2.50166         8.75790        -1.49888
| 49>    C       -2.62129         9.81137        -0.60933
| 50>    S       -2.06975         9.41476         1.00440
| 51>    C       -3.11328        11.11640        -0.83969
| 52>    N       -3.20107        12.01292         0.10087
| 53>    C       -3.68842        13.15346        -0.37784
| 54>    C       -3.99940        13.17878        -1.75097
| 55>    S       -3.64933        11.64912        -2.45321
| 56>    N       -4.48416        14.32268        -2.22887
| 57>    C       -4.57671        15.21505        -1.28655
| 58>    S       -4.04246        14.67454         0.32945
| 59>    C       -5.06024        16.53079        -1.48420
| 60>    C       -5.45390        17.09679        -2.68634
| 61>    C       -5.88143        18.41173        -2.51700
| 62>    C       -5.81315        18.83795        -1.17673
| 63>    S       -5.21799        17.62857        -0.13073
| 64>    C       -6.27583        20.17215        -1.09890
| 65>    C       -6.63760        20.59992        -2.39611
| 66>    C       -6.39254        19.50926        -3.32831
| 67>    C       -6.58510        19.50760        -4.67690
| 68>    C       -7.06970        20.62407        -5.39478
| 69>    N       -7.45362        21.50754        -6.01519
| 70>    C       -6.30087        18.37575        -5.47288
| 71>    N       -6.07327        17.46492        -6.13041
| 72>    C       -7.12059        21.90200        -2.42461
| 73>    C       -7.13668        22.48232        -1.16213
| 74>    S       -6.52573        21.37144         0.07525
| 75>    C       -7.52957        23.74845        -0.67925
| 76>    C       -8.07438        24.83664        -1.30079
| 77>    C       -8.41239        26.07443        -0.60926
| 78>    C       -8.17972        26.38504         0.70623
| 79>    C       -8.53878        27.61307         1.30339
| 80>    N       -8.79979        28.58194         1.86119
| 81>    C       -7.55064        25.56904         1.67012
| 82>    N       -7.04759        24.98410         2.52188
| 83>    C       -9.03923        26.96930        -1.57479
| 84>    C       -9.06548        26.32219        -2.84149
| 85>    C       -8.46453        24.98510        -2.72714
| 86>    O       -8.33538        24.18557        -3.63018
| 87>    C       -9.59007        26.91861        -3.95180
| 88>    C      -10.12754        28.22013        -3.84308
| 89>    C      -10.11047        28.87559        -2.57787
| 90>    C       -9.55862        28.23125        -1.44713
| 91>    C      -10.65172        30.17367        -2.47873
| 92>    C      -11.18333        30.79581        -3.57539
| 93>    C      -11.19858        30.14965        -4.82066
| 94>    C      -10.68198        28.88909        -4.95181
| 95>    H        3.50887         1.81395         6.44505
| 96>    H       -0.12778         5.01132         7.64819
| 97>    H        0.79706         5.21203         9.88385
| 98>    H        2.50189         4.61357        11.55719
| 99>    H        4.30377         3.03469        10.98514
|100>    H        4.41498         2.04052         8.73441
|101>    H        0.95789         2.73139         1.89522
|102>    H       -0.39654         3.59661        -0.18164
|103>    H       -2.79612         8.82931        -2.53050
|104>    H       -5.41735        16.55223        -3.61155
|105>    H       -7.45657        22.42764        -3.30134
|106>    H       -7.36668        23.84816         0.38748
|107>    H       -9.59353        26.40133        -4.89970
|108>    H       -9.56397        28.75705        -0.50603
|109>    H      -10.63722        30.66735        -1.51810
|110>    H      -11.59519        31.79012        -3.48929
|111>    H      -11.62184        30.65576        -5.67534
|112>    H      -10.69078        28.38611        -5.90763
|113> *
|114>
|115>                          ****END OF INPUT****

CARTESIAN COORDINATES (ANGSTROEM)
---------------------------------
  C     -0.151930    3.898590    4.965480
  C     -1.469540    4.273720    4.995860
  C     -2.118590    4.757020    6.149550
  N     -2.683660    5.171480    7.058460
  C     -2.333990    4.131580    3.891300
  N     -3.065780    3.997320    3.016960
  C      0.715400    3.757700    6.128270
  C      1.769960    2.856120    5.797430
  C      2.722360    2.504690    6.710220
  C      2.669040    3.057970    8.009730
  C      1.625920    3.971400    8.340200
  C      0.646830    4.310230    7.378270
  C      1.590820    4.522310    9.637210
  C      2.538110    4.187150   10.565970
  C      3.563920    3.287210   10.240480
  C      3.627390    2.734020    8.990290
  C      1.637060    2.443450    4.388460
  O      2.304700    1.646310    3.772910
  C      0.532140    3.288570    3.843610
  C      0.416410    3.452990    2.500080
  C     -0.213060    4.495610    1.776810
  C     -0.534480    4.471000    0.428480
  C     -1.074950    5.677460   -0.007660
  C     -1.134350    6.645530    1.012960
  S     -0.545760    6.068120    2.499110
  C     -1.676260    7.840090    0.479670
  C     -1.964370    7.629560   -0.882600
  C     -1.597040    6.264340   -1.232090
  C     -1.713120    5.665850   -2.451180
  C     -2.237690    6.343510   -3.572940
  N     -2.659730    6.892110   -4.486570
  C     -1.307600    4.332530   -2.676510
  N     -0.970800    3.253770   -2.867820
  C     -2.501660    8.757900   -1.498880
  C     -2.621290    9.811370   -0.609330
  S     -2.069750    9.414760    1.004400
  C     -3.113280   11.116400   -0.839690
  N     -3.201070   12.012920    0.100870
  C     -3.688420   13.153460   -0.377840
  C     -3.999400   13.178780   -1.750970
  S     -3.649330   11.649120   -2.453210
  N     -4.484160   14.322680   -2.228870
  C     -4.576710   15.215050   -1.286550
  S     -4.042460   14.674540    0.329450
  C     -5.060240   16.530790   -1.484200
  C     -5.453900   17.096790   -2.686340
  C     -5.881430   18.411730   -2.517000
  C     -5.813150   18.837950   -1.176730
  S     -5.217990   17.628570   -0.130730
  C     -6.275830   20.172150   -1.098900
  C     -6.637600   20.599920   -2.396110
  C     -6.392540   19.509260   -3.328310
  C     -6.585100   19.507600   -4.676900
  C     -7.069700   20.624070   -5.394780
  N     -7.453620   21.507540   -6.015190
  C     -6.300870   18.375750   -5.472880
  N     -6.073270   17.464920   -6.130410
  C     -7.120590   21.902000   -2.424610
  C     -7.136680   22.482320   -1.162130
  S     -6.525730   21.371440    0.075250
  C     -7.529570   23.748450   -0.679250
  C     -8.074380   24.836640   -1.300790
  C     -8.412390   26.074430   -0.609260
  C     -8.179720   26.385040    0.706230
  C     -8.538780   27.613070    1.303390
  N     -8.799790   28.581940    1.861190
  C     -7.550640   25.569040    1.670120
  N     -7.047590   24.984100    2.521880
  C     -9.039230   26.969300   -1.574790
  C     -9.065480   26.322190   -2.841490
  C     -8.464530   24.985100   -2.727140
  O     -8.335380   24.185570   -3.630180
  C     -9.590070   26.918610   -3.951800
  C    -10.127540   28.220130   -3.843080
  C    -10.110470   28.875590   -2.577870
  C     -9.558620   28.231250   -1.447130
  C    -10.651720   30.173670   -2.478730
  C    -11.183330   30.795810   -3.575390
  C    -11.198580   30.149650   -4.820660
  C    -10.681980   28.889090   -4.951810
  H      3.508870    1.813950    6.445050
  H     -0.127780    5.011320    7.648190
  H      0.797060    5.212030    9.883850
  H      2.501890    4.613570   11.557190
  H      4.303770    3.034690   10.985140
  H      4.414980    2.040520    8.734410
  H      0.957890    2.731390    1.895220
  H     -0.396540    3.596610   -0.181640
  H     -2.796120    8.829310   -2.530500
  H     -5.417350   16.552230   -3.611550
  H     -7.456570   22.427640   -3.301340
  H     -7.366680   23.848160    0.387480
  H     -9.593530   26.401330   -4.899700
  H     -9.563970   28.757050   -0.506030
  H    -10.637220   30.667350   -1.518100
  H    -11.595190   31.790120   -3.489290
  H    -11.621840   30.655760   -5.675340
  H    -10.690780   28.386110   -5.907630

 Total Charge           Charge          ....    0
 Multiplicity           Mult            ....    1
 Number of Electrons    NEL             ....  572
 Basis Dimension        Dim             .... 1234

ORBITAL ENERGIES
----------------

  NO   OCC          E(Eh)            E(eV)
   0   2.0000     -89.005537     -2421.9638
   1   2.0000     -89.001513     -2421.8543
   2   2.0000     -89.000860     -2421.8365
   3   2.0000     -89.000252     -2421.8200
   4   2.0000     -88.987850     -2421.4825
   5   2.0000     -88.987673     -2421.4777
   6   2.0000     -19.220928      -523.0281
   7   2.0000     -19.218240      -522.9549
   8   2.0000     -14.441592      -392.9757
   9   2.0000     -14.440884      -392.9564
  10   2.0000     -14.437248      -392.8575
  11   2.0000     -14.436463      -392.8361
  12   2.0000     -14.435535      -392.8109
  13   2.0000     -14.432822      -392.7371
  14   2.0000     -14.420865      -392.4117
  15   2.0000     -14.420565      -392.4035
  16   2.0000     -14.419743      -392.3812
  17   2.0000     -14.415423      -392.2636
  18   2.0000     -10.373479      -282.2767
  19   2.0000     -10.373322      -282.2724
  20   2.0000     -10.371565      -282.2246
  21   2.0000     -10.370347      -282.1915
  22   2.0000     -10.370007      -282.1822
  23   2.0000     -10.369608      -282.1714
  24   2.0000     -10.360866      -281.9335
  25   2.0000     -10.359447      -281.8949
  26   2.0000     -10.350576      -281.6535
  27   2.0000     -10.348821      -281.6057
  28   2.0000     -10.348776      -281.6045
  29   2.0000     -10.348506      -281.5972
  30   2.0000     -10.347869      -281.5798
  31   2.0000     -10.347219      -281.5621
  32   2.0000     -10.345648      -281.5194
  33   2.0000     -10.344068      -281.4764
  34   2.0000     -10.343437      -281.4592
  35   2.0000     -10.342826      -281.4426
  36   2.0000     -10.340858      -281.3890
  37   2.0000     -10.339091      -281.3410
  38   2.0000     -10.337131      -281.2876
  39   2.0000     -10.336233      -281.2632
  40   2.0000     -10.334940      -281.2280
  41   2.0000     -10.333927      -281.2005
  42   2.0000     -10.333810      -281.1973
  43   2.0000     -10.331483      -281.1339
  44   2.0000     -10.330632      -281.1108
  45   2.0000     -10.329079      -281.0685
  46   2.0000     -10.323902      -280.9277
  47   2.0000     -10.322871      -280.8996
  48   2.0000     -10.321462      -280.8613
  49   2.0000     -10.319752      -280.8147
  50   2.0000     -10.318666      -280.7852
  51   2.0000     -10.318448      -280.7792
  52   2.0000     -10.317836      -280.7626
  53   2.0000     -10.317292      -280.7478
  54   2.0000     -10.314334      -280.6673
  55   2.0000     -10.314091      -280.6607
  56   2.0000     -10.314054      -280.6597
  57   2.0000     -10.309629      -280.5393
  58   2.0000     -10.308089      -280.4974
  59   2.0000     -10.305675      -280.4317
  60   2.0000     -10.304049      -280.3874
  61   2.0000     -10.303787      -280.3803
  62   2.0000     -10.301946      -280.3302
  63   2.0000     -10.301557      -280.3196
  64   2.0000     -10.301361      -280.3143
  65   2.0000     -10.301085      -280.3068
  66   2.0000     -10.298404      -280.2338
  67   2.0000     -10.298158      -280.2271
  68   2.0000     -10.297661      -280.2136
  69   2.0000     -10.296961      -280.1946
  70   2.0000     -10.293844      -280.1097
  71   2.0000     -10.290015      -280.0056
  72   2.0000     -10.289648      -279.9956
  73   2.0000     -10.289401      -279.9888
  74   2.0000     -10.289017      -279.9784
  75   2.0000     -10.288988      -279.9776
  76   2.0000     -10.287220      -279.9295
  77   2.0000     -10.286591      -279.9124
  78   2.0000     -10.286422      -279.9078
  79   2.0000     -10.286000      -279.8963
  80   2.0000      -8.100404      -220.4232
  81   2.0000      -8.095606      -220.2926
  82   2.0000      -8.095058      -220.2777
  83   2.0000      -8.094985      -220.2757
  84   2.0000      -8.083850      -219.9727
  85   2.0000      -8.083214      -219.9554
  86   2.0000      -6.069658      -165.1638
  87   2.0000      -6.065481      -165.0501
  88   2.0000      -6.064923      -165.0349
  89   2.0000      -6.064228      -165.0160
  90   2.0000      -6.064129      -165.0134
  91   2.0000      -6.062691      -164.9742
  92   2.0000      -6.060572      -164.9166
  93   2.0000      -6.060022      -164.9016
  94   2.0000      -6.060001      -164.9010
  95   2.0000      -6.058021      -164.8471
  96   2.0000      -6.057617      -164.8361
  97   2.0000      -6.057456      -164.8317
  98   2.0000      -6.053045      -164.7117
  99   2.0000      -6.052422      -164.6948
 100   2.0000      -6.049307      -164.6100
 101   2.0000      -6.048707      -164.5937
 102   2.0000      -6.045576      -164.5085
 103   2.0000      -6.044928      -164.4909
 104   2.0000      -1.136233       -30.9185
 105   2.0000      -1.133939       -30.8560
 106   2.0000      -1.113742       -30.3065
 107   2.0000      -1.075019       -29.2528
 108   2.0000      -1.056198       -28.7406
 109   2.0000      -1.055095       -28.7106
 110   2.0000      -1.029441       -28.0125
 111   2.0000      -1.027111       -27.9491
 112   2.0000      -1.024217       -27.8704
 113   2.0000      -1.021488       -27.7961
 114   2.0000      -1.014481       -27.6054
 115   2.0000      -1.011715       -27.5302
 116   2.0000      -1.009610       -27.4729
 117   2.0000      -1.008407       -27.4402
 118   2.0000      -1.002731       -27.2857
 119   2.0000      -1.001131       -27.2422
 120   2.0000      -0.998093       -27.1595
 121   2.0000      -0.995767       -27.0962
 122   2.0000      -0.976876       -26.5822
 123   2.0000      -0.974238       -26.5104
 124   2.0000      -0.968394       -26.3513
 125   2.0000      -0.967912       -26.3382
 126   2.0000      -0.937952       -25.5230
 127   2.0000      -0.933083       -25.3905
 128   2.0000      -0.930005       -25.3067
 129   2.0000      -0.924527       -25.1577
 130   2.0000      -0.920940       -25.0600
 131   2.0000      -0.906509       -24.6674
 132   2.0000      -0.901473       -24.5303
 133   2.0000      -0.900489       -24.5035
 134   2.0000      -0.885969       -24.1084
 135   2.0000      -0.884174       -24.0596
 136   2.0000      -0.882878       -24.0243
 137   2.0000      -0.880709       -23.9653
 138   2.0000      -0.880289       -23.9539
 139   2.0000      -0.873229       -23.7618
 140   2.0000      -0.866986       -23.5919
 141   2.0000      -0.865588       -23.5538
 142   2.0000      -0.854885       -23.2626
 143   2.0000      -0.832864       -22.6634
 144   2.0000      -0.832201       -22.6453
 145   2.0000      -0.829163       -22.5627
 146   2.0000      -0.815279       -22.1849
 147   2.0000      -0.805693       -21.9240
 148   2.0000      -0.787066       -21.4171
 149   2.0000      -0.785435       -21.3728
 150   2.0000      -0.774748       -21.0820
 151   2.0000      -0.764705       -20.8087
 152   2.0000      -0.764562       -20.8048
 153   2.0000      -0.755822       -20.5670
 154   2.0000      -0.732580       -19.9345
 155   2.0000      -0.722541       -19.6613
 156   2.0000      -0.713470       -19.4145
 157   2.0000      -0.712287       -19.3823
 158   2.0000      -0.706651       -19.2290
 159   2.0000      -0.705992       -19.2110
 160   2.0000      -0.704873       -19.1806
 161   2.0000      -0.701213       -19.0810
 162   2.0000      -0.695414       -18.9232
 163   2.0000      -0.692293       -18.8383
 164   2.0000      -0.690229       -18.7821
 165   2.0000      -0.683656       -18.6032
 166   2.0000      -0.681014       -18.5313
 167   2.0000      -0.679629       -18.4936
 168   2.0000      -0.670215       -18.2375
 169   2.0000      -0.660701       -17.9786
 170   2.0000      -0.654257       -17.8032
 171   2.0000      -0.640333       -17.4244
 172   2.0000      -0.638021       -17.3614
 173   2.0000      -0.637247       -17.3404
 174   2.0000      -0.635451       -17.2915
 175   2.0000      -0.631180       -17.1753
 176   2.0000      -0.627054       -17.0630
 177   2.0000      -0.622785       -16.9468
 178   2.0000      -0.615376       -16.7452
 179   2.0000      -0.611531       -16.6406
 180   2.0000      -0.607938       -16.5428
 181   2.0000      -0.605280       -16.4705
 182   2.0000      -0.598779       -16.2936
 183   2.0000      -0.595908       -16.2155
 184   2.0000      -0.585975       -15.9452
 185   2.0000      -0.575570       -15.6620
 186   2.0000      -0.567267       -15.4361
 187   2.0000      -0.566944       -15.4273
 188   2.0000      -0.561471       -15.2784
 189   2.0000      -0.558959       -15.2101
 190   2.0000      -0.555722       -15.1220
 191   2.0000      -0.555046       -15.1036
 192   2.0000      -0.551986       -15.0203
 193   2.0000      -0.550336       -14.9754
 194   2.0000      -0.548273       -14.9193
 195   2.0000      -0.545068       -14.8320
 196   2.0000      -0.543366       -14.7857
 197   2.0000      -0.540906       -14.7188
 198   2.0000      -0.540240       -14.7007
 199   2.0000      -0.536831       -14.6079
 200   2.0000      -0.531509       -14.4631
 201   2.0000      -0.526980       -14.3399
 202   2.0000      -0.525529       -14.3004
 203   2.0000      -0.523576       -14.2472
 204   2.0000      -0.521393       -14.1878
 205   2.0000      -0.520079       -14.1521
 206   2.0000      -0.519055       -14.1242
 207   2.0000      -0.516315       -14.0496
 208   2.0000      -0.515608       -14.0304
 209   2.0000      -0.514463       -13.9992
 210   2.0000      -0.510706       -13.8970
 211   2.0000      -0.510135       -13.8815
 212   2.0000      -0.508832       -13.8460
 213   2.0000      -0.507304       -13.8045
 214   2.0000      -0.504326       -13.7234
 215   2.0000      -0.500876       -13.6295
 216   2.0000      -0.499801       -13.6003
 217   2.0000      -0.498397       -13.5621
 218   2.0000      -0.497390       -13.5347
 219   2.0000      -0.494518       -13.4565
 220   2.0000      -0.493394       -13.4259
 221   2.0000      -0.488864       -13.3027
 222   2.0000      -0.485850       -13.2206
 223   2.0000      -0.481082       -13.0909
 224   2.0000      -0.477225       -12.9860
 225   2.0000      -0.474430       -12.9099
 226   2.0000      -0.469430       -12.7738
 227   2.0000      -0.467231       -12.7140
 228   2.0000      -0.466172       -12.6852
 229   2.0000      -0.465106       -12.6562
 230   2.0000      -0.464572       -12.6416
 231   2.0000      -0.464438       -12.6380
 232   2.0000      -0.459904       -12.5146
 233   2.0000      -0.457841       -12.4585
 234   2.0000      -0.454407       -12.3651
 235   2.0000      -0.452916       -12.3245
 236   2.0000      -0.451812       -12.2944
 237   2.0000      -0.451165       -12.2768
 238   2.0000      -0.448793       -12.2123
 239   2.0000      -0.446720       -12.1559
 240   2.0000      -0.446323       -12.1451
 241   2.0000      -0.445893       -12.1334
 242   2.0000      -0.443463       -12.0672
 243   2.0000      -0.443357       -12.0644
 244   2.0000      -0.443224       -12.0607
 245   2.0000      -0.441389       -12.0108
 246   2.0000      -0.440757       -11.9936
 247   2.0000      -0.439674       -11.9641
 248   2.0000      -0.437048       -11.8927
 249   2.0000      -0.435810       -11.8590
 250   2.0000      -0.435083       -11.8392
 251   2.0000      -0.434141       -11.8136
 252   2.0000      -0.433175       -11.7873
 253   2.0000      -0.431673       -11.7464
 254   2.0000      -0.430116       -11.7041
 255   2.0000      -0.429306       -11.6820
 256   2.0000      -0.427243       -11.6259
 257   2.0000      -0.421251       -11.4628
 258   2.0000      -0.421035       -11.4570
 259   2.0000      -0.413488       -11.2516
 260   2.0000      -0.412180       -11.2160
 261   2.0000      -0.410121       -11.1600
 262   2.0000      -0.407171       -11.0797
 263   2.0000      -0.404989       -11.0203
 264   2.0000      -0.396133       -10.7793
 265   2.0000      -0.395073       -10.7505
 266   2.0000      -0.387245       -10.5375
 267   2.0000      -0.379361       -10.3229
 268   2.0000      -0.375508       -10.2181
 269   2.0000      -0.366344        -9.9687
 270   2.0000      -0.364013        -9.9053
 271   2.0000      -0.360877        -9.8200
 272   2.0000      -0.357975        -9.7410
 273   2.0000      -0.346869        -9.4388
 274   2.0000      -0.343756        -9.3541
 275   2.0000      -0.341804        -9.3010
 276   2.0000      -0.338001        -9.1975
 277   2.0000      -0.331760        -9.0277
 278   2.0000      -0.329410        -8.9637
 279   2.0000      -0.321238        -8.7413
 280   2.0000      -0.318935        -8.6787
 281   2.0000      -0.310629        -8.4526
 282   2.0000      -0.299087        -8.1386
 283   2.0000      -0.295183        -8.0323
 284   2.0000      -0.280835        -7.6419
 285   2.0000      -0.256774        -6.9872
 286   0.0000      -0.122978        -3.3464
 287   0.0000      -0.116562        -3.1718
 288   0.0000      -0.094227        -2.5640
 289   0.0000      -0.093258        -2.5377
 290   0.0000      -0.068845        -1.8734

MULLIKEN ATOMIC CHARGES
-----------------------
   0 C :    0.241085
   1 C :   -0.324793
   2 C :   -0.172640
   3 N :    0.158112
   4 C :   -0.209509
   5 N :    0.173329
   6 C :    0.037726
   7 C :    0.011131
   8 C :   -0.082491
   9 C :    0.096074
  10 C :    0.095382
  11 C :   -0.081994
  12 C :   -0.018836
  13 C :    0.039109
  14 C :    0.036358
  15 C :   -0.016610
  16 C :    0.142467
  17 O :   -0.138225
  18 C :   -0.135459
  19 C :    0.048145
  20 C :   -0.090785
  21 C :    0.006491
  22 C :    0.024365
  23 C :   -0.080717
  24 S :    0.207754
  25 C :   -0.104464
  26 C :    0.015118
  27 C :    0.298546
  28 C :   -0.293555
  29 C :   -0.190223
  30 N :    0.180097
  31 C :   -0.189467
  32 N :    0.184125
  33 C :   -0.043278
  34 C :   -0.050283
  35 S :    0.258914
  36 C :   -0.101461
  37 N :   -0.045043
  38 C :   -0.053576
  39 C :   -0.053279
  40 S :    0.151179
  41 N :   -0.017647
  42 C :   -0.113069
  43 S :    0.126732
  44 C :   -0.028378
  45 C :   -0.039265
  46 C :    0.018052
  47 C :   -0.097295
  48 S :    0.204611
  49 C :   -0.081523
  50 C :    0.003202
  51 C :    0.309690
  52 C :   -0.295411
  53 C :   -0.192747
  54 N :    0.199869
  55 C :   -0.195524
  56 N :    0.184111
  57 C :   -0.021535
  58 C :   -0.109408
  59 S :    0.207399
  60 C :    0.037182
  61 C :   -0.086553
  62 C :    0.331134
  63 C :   -0.367986
  64 C :   -0.181412
  65 N :    0.147976
  66 C :   -0.180871
  67 N :    0.145584
  68 C :    0.046171
  69 C :    0.001291
  70 C :    0.158280
  71 O :   -0.146680
  72 C :   -0.083957
  73 C :    0.100612
  74 C :    0.098401
  75 C :   -0.087054
  76 C :   -0.021263
  77 C :    0.039445
  78 C :    0.039156
  79 C :   -0.018364
  80 H :   -0.009893
  81 H :   -0.004908
  82 H :   -0.010733
  83 H :   -0.004333
  84 H :   -0.003527
  85 H :   -0.015882
  86 H :    0.034610
  87 H :    0.019882
  88 H :    0.019472
  89 H :    0.026368
  90 H :    0.040507
  91 H :   -0.002013
  92 H :   -0.008587
  93 H :   -0.008376
  94 H :   -0.009083
  95 H :   -0.004915
  96 H :   -0.004662
  97 H :   -0.015701
Sum of atomic charges:   -0.0000000

LOEWDIN ATOMIC CHARGES
----------------------
   0 C :    0.059718
   1 C :   -0.144591
   2 C :   -0.020170
   3 N :   -0.049166
   4 C :   -0.037174
   5 N :   -0.047097
   6 C :   -0.023636
   7 C :   -0.057200
   8 C :    0.033601
   9 C :   -0.008635
  10 C :   -0.005289
  11 C :    0.016026
  12 C :   -0.006562
  13 C :   -0.011716
  14 C :   -0.012127
  15 C :   -0.008547
  16 C :    0.083882
  17 O :   -0.140038
  18 C :   -0.096594
  19 C :    0.049701
  20 C :   -0.175272
  21 C :    0.013171
  22 C :   -0.070114
  23 C :   -0.155467
  24 S :    0.513776
  25 C :   -0.181517
  26 C :   -0.058438
  27 C :    0.078950
  28 C :   -0.095213
  29 C :   -0.017279
  30 N :   -0.026907
  31 C :   -0.017596
  32 N :   -0.024556
  33 C :   -0.023024
  34 C :   -0.189059
  35 S :    0.523225
  36 C :   -0.134755
  37 N :   -0.109130
  38 C :   -0.209003
  39 C :   -0.206883
  40 S :    0.430516
  41 N :   -0.090280
  42 C :   -0.133945
  43 S :    0.405825
  44 C :   -0.189773
  45 C :   -0.001998
  46 C :   -0.053545
  47 C :   -0.184337
  48 S :    0.483105
  49 C :   -0.163227
  50 C :   -0.071923
  51 C :    0.072709
  52 C :   -0.088008
  53 C :   -0.023564
  54 N :   -0.010547
  55 C :   -0.017983
  56 N :   -0.022706
  57 C :    0.015310
  58 C :   -0.173072
  59 S :    0.499622
  60 C :    0.039668
  61 C :   -0.092827
  62 C :    0.078255
  63 C :   -0.143284
  64 C :   -0.016686
  65 N :   -0.054392
  66 C :   -0.022979
  67 N :   -0.055205
  68 C :   -0.027338
  69 C :   -0.055808
  70 C :    0.087663
  71 O :   -0.135753
  72 C :    0.034205
  73 C :   -0.007776
  74 C :   -0.006192
  75 C :    0.020155
  76 C :   -0.005238
  77 C :   -0.012847
  78 C :   -0.011206
  79 C :   -0.008802
  80 H :    0.040149
  81 H :    0.038759
  82 H :    0.034317
  83 H :    0.033563
  84 H :    0.033406
  85 H :    0.032444
  86 H :    0.055553
  87 H :    0.047746
  88 H :    0.040669
  89 H :    0.049802
  90 H :    0.043290
  91 H :    0.041438
  92 H :    0.040761
  93 H :    0.039076
  94 H :    0.034831
  95 H :    0.033356
  96 H :    0.033070
  97 H :    0.032687

  Mayer bond orders larger than 0.100000
B(  0-C ,  1-C ) :   1.6557 B(  0-C ,  6-C ) :   1.0048 B(  0-C , 18-C ) :   1.0317
B(  1-C ,  2-C ) :   1.1357 B(  1-C ,  4-C ) :   1.1524 B(  2-C ,  3-N ) :   2.9923
B(  4-C ,  5-N ) :   3.0226 B(  6-C ,  7-C ) :   1.2142 B(  6-C , 11-C ) :   1.4564
B(  7-C ,  8-C ) :   1.4747 B(  7-C , 16-C ) :   0.9208 B(  8-C ,  9-C ) :   1.1836
B(  8-C , 80-H ) :   1.0168 B(  9-C , 10-C ) :   1.2571 B(  9-C , 15-C ) :   1.2449
B( 10-C , 11-C ) :   1.2025 B( 10-C , 12-C ) :   1.2405 B( 11-C , 81-H ) :   0.9955
B( 12-C , 13-C ) :   1.4896 B( 12-C , 82-H ) :   0.9979 B( 13-C , 14-C ) :   1.2602
B( 13-C , 83-H ) :   0.9884 B( 14-C , 15-C ) :   1.4888 B( 14-C , 84-H ) :   0.9886
B( 15-C , 85-H ) :   0.9982 B( 16-C , 17-O ) :   2.2765 B( 16-C , 18-C ) :   0.9323
B( 18-C , 19-C ) :   1.6502 B( 19-C , 20-C ) :   1.1374 B( 19-C , 86-H ) :   0.9472
B( 20-C , 21-C ) :   1.4039 B( 20-C , 24-S ) :   1.0896 B( 21-C , 22-C ) :   1.3032
B( 21-C , 87-H ) :   1.0016 B( 22-C , 23-C ) :   1.4064 B( 22-C , 27-C ) :   0.9926
B( 23-C , 24-S ) :   1.1579 B( 23-C , 25-C ) :   1.2059 B( 25-C , 26-C ) :   1.4292
B( 25-C , 35-S ) :   1.1221 B( 26-C , 27-C ) :   0.9950 B( 26-C , 33-C ) :   1.3223
B( 27-C , 28-C ) :   1.7211 B( 28-C , 29-C ) :   1.1339 B( 28-C , 31-C ) :   1.1342
B( 29-C , 30-N ) :   2.9945 B( 31-C , 32-N ) :   2.9952 B( 33-C , 34-C ) :   1.4542
B( 33-C , 88-H ) :   0.9844 B( 34-C , 35-S ) :   1.1177 B( 34-C , 36-C ) :   1.1496
B( 36-C , 37-N ) :   1.7106 B( 36-C , 40-S ) :   1.0986 B( 37-N , 38-C ) :   1.4086
B( 38-C , 39-C ) :   1.2927 B( 38-C , 43-S ) :   1.1031 B( 39-C , 40-S ) :   1.0982
B( 39-C , 41-N ) :   1.3993 B( 41-N , 42-C ) :   1.7354 B( 41-N , 43-S ) :   0.1020
B( 42-C , 43-S ) :   1.0800 B( 42-C , 44-C ) :   1.1042 B( 44-C , 45-C ) :   1.4631
B( 44-C , 48-S ) :   1.1129 B( 45-C , 46-C ) :   1.2759 B( 45-C , 89-H ) :   1.0117
B( 46-C , 47-C ) :   1.4269 B( 46-C , 51-C ) :   0.9853 B( 47-C , 48-S ) :   1.1261
B( 47-C , 49-C ) :   1.2038 B( 49-C , 50-C ) :   1.3825 B( 49-C , 59-S ) :   1.1648
B( 50-C , 51-C ) :   0.9973 B( 50-C , 57-C ) :   1.2980 B( 51-C , 52-C ) :   1.7223
B( 52-C , 53-C ) :   1.1372 B( 52-C , 55-C ) :   1.1350 B( 53-C , 54-N ) :   2.9979
B( 55-C , 56-N ) :   2.9962 B( 57-C , 58-C ) :   1.4040 B( 57-C , 90-H ) :   0.9700
B( 58-C , 59-S ) :   1.0800 B( 58-C , 60-C ) :   1.2140 B( 60-C , 61-C ) :   1.6051
B( 60-C , 91-H ) :   0.9004 B( 61-C , 62-C ) :   1.0806 B( 61-C , 70-C ) :   0.9302
B( 62-C , 63-C ) :   1.6134 B( 62-C , 68-C ) :   0.9830 B( 63-C , 64-C ) :   1.1523
B( 63-C , 66-C ) :   1.1408 B( 64-C , 65-N ) :   2.9598 B( 66-C , 67-N ) :   2.9523
B( 68-C , 69-C ) :   1.2171 B( 68-C , 75-C ) :   1.4440 B( 69-C , 70-C ) :   0.9559
B( 69-C , 72-C ) :   1.4674 B( 70-C , 71-O ) :   2.1654 B( 71-O , 90-H ) :   0.1019
B( 72-C , 73-C ) :   1.1740 B( 72-C , 92-H ) :   1.0181 B( 73-C , 74-C ) :   1.2574
B( 73-C , 79-C ) :   1.2435 B( 74-C , 75-C ) :   1.2071 B( 74-C , 76-C ) :   1.2395
B( 75-C , 93-H ) :   0.9892 B( 76-C , 77-C ) :   1.4889 B( 76-C , 94-H ) :   0.9973
B( 77-C , 78-C ) :   1.2603 B( 77-C , 95-H ) :   0.9879 B( 78-C , 79-C ) :   1.4879
B( 78-C , 96-H ) :   0.9887 B( 79-C , 97-H ) :   0.9983

-----------------------------------------------------------------------------
         ABSORPTION SPECTRUM VIA TRANSITION ELECTRIC DIPOLE MOMENTS
-----------------------------------------------------------------------------
State   Energy  Wavelength   fosc         T2         TX        TY        TZ
        (cm-1)    (nm)                  (au**2)     (au)      (au)      (au)
-----------------------------------------------------------------------------
   0   13230.2    755.8   0.799349340  19.89052   1.54056  -3.97997   1.29499
   1   14323.6    698.2   0.135229782   3.10812  -0.55439   1.59829   0.49623
   2   19842.9    504.0   1.607148158  26.66412   1.69061  -4.52609   1.82221
   3   21390.8    467.5   0.679100908  10.45162   0.92894  -2.43120  -1.91780
   4   22102.3    452.4   0.032002575   0.47668   0.32445  -0.52418  -0.31088
   5   23145.4    432.1   0.060578148   0.86164  -0.02432   0.89436   0.24734
   6   24972.6    400.4   0.041766916   0.55061   0.36102   0.32861   0.55883
   7   25177.0    397.2   0.043564602   0.56965  -0.33099   0.62536  -0.26271
   8   26269.1    380.7   0.459705059   5.76116  -1.08174   1.97398  -0.83331
   9   27463.4    364.1   0.075223731   0.90173  -0.65722   0.67457  -0.12142
  10   27858.6    359.0   0.005998516   0.07089   0.14886  -0.14776   0.16399
  11   28185.8    354.8   0.030000417   0.35041   0.31525  -0.31254   0.39159
  12   28596.6    349.7   0.001889437   0.02175  -0.09754  -0.10216  -0.04244
  13   28828.2    346.9   0.035898931   0.40996  -0.22688   0.52730  -0.28361
  14   29246.1    341.9   0.009851067   0.11089   0.04310   0.11622   0.30907
  15   29403.5    340.1   0.012256759   0.13723  -0.25431  -0.26085  -0.06717
  16   29641.0    337.4   0.027533087   0.30580   0.08987  -0.45588  -0.29982
  17   29949.2    333.9   0.037251606   0.40948  -0.05054   0.45420  -0.44792
  18   30304.6    330.0   0.389127493   4.22726   0.20574  -1.43791  -1.45511
  19   30430.4    328.6   0.322351823   3.48737  -0.63887   0.17959  -1.74555
  20   30752.9    325.2   0.294840735   3.15629  -0.59112   0.45449  -1.61255
  21   30804.5    324.6   0.145390486   1.55381  -0.25596   0.03843   1.21935
  22   31113.1    321.4   0.505948739   5.35351  -1.21728   0.58598  -1.87839
  23   32147.1    311.1   0.015714090   0.16092   0.13170   0.35714  -0.12662
  24   32331.9    309.3   0.057887443   0.58943   0.13166  -0.75431  -0.05579
  25   32784.6    305.0   0.277265253   2.78420  -0.46479  -0.31951  -1.57038
  26   33031.6    302.7   0.108597041   1.08234   0.64277  -0.81174  -0.10130
  27   33164.3    301.5   0.256186475   2.54309   0.72618  -1.21279   0.73816
  28   33292.4    300.4   0.176949975   1.74977  -0.54909   1.02047  -0.63790
  29   33634.6    297.3   0.022987505   0.22500   0.10474  -0.44715  -0.11867
  30   33838.0    295.5   0.027176570   0.26440   0.07588  -0.47622   0.17848
  31   34089.7    293.3   0.102105598   0.98606   0.28733   0.01946   0.95033
  32   34349.3    291.1   0.120209101   1.15211  -0.88015   0.32111  -0.52377
  33   34447.1    290.3   0.002250323   0.02151  -0.14635  -0.00280   0.00902
  34   34670.1    288.4   0.412072649   3.91287   0.80043  -0.80192   1.62145
  35   35055.5    285.3   0.402639327   3.78125   0.52732   0.42313   1.82323
  36   35160.8    284.4   0.051226905   0.47964   0.04784   0.53294   0.43968
  37   35284.8    283.4   0.206265466   1.92448  -1.13496   0.17773  -0.77766
  38   35643.8    280.6   0.093236292   0.86115  -0.12524   0.21373   0.89431
  39   35730.7    279.9   0.000597475   0.00550  -0.06111   0.02040   0.03680
  40   35878.7    278.7   0.028965735   0.26578   0.40398  -0.21617  -0.23633
  41   36344.6    275.1   0.018075319   0.16373  -0.24736   0.28905  -0.13781
  42   36459.5    274.3   0.292799203   2.64384  -0.91251   0.30108  -1.31169
  43   37041.2    270.0   0.035318760   0.31390   0.51574  -0.03696   0.21576
  44   37221.3    268.7   0.022561548   0.19955  -0.13037   0.12466   0.40867
  45   37587.9    266.0   0.097095365   0.85041   0.22426  -0.10976   0.88773
  46   37692.0    265.3   0.005843359   0.05104   0.14689  -0.13460   0.10651
  47   37834.0    264.3   0.025011306   0.21764  -0.29558   0.19182  -0.30573
  48   38045.9    262.8   0.033024094   0.28576  -0.33342   0.38643  -0.15894
  49   38220.0    261.6   0.007601626   0.06548  -0.15501   0.04337  -0.19891
  50   38441.7    260.1   0.013137682   0.11251  -0.03777   0.12784  -0.30780
  51   38526.8    259.6   0.000622606   0.00532   0.06900   0.01742   0.01599
  52   38645.5    258.8   0.008943953   0.07619   0.01136  -0.26322  -0.08231
  53   38928.3    256.9   0.021446806   0.18137   0.12345   0.40718   0.01840
  54   39050.8    256.1   0.008767980   0.07392   0.03287  -0.23899   0.12539
  55   39389.3    253.9   0.019102388   0.15966   0.04052   0.19305  -0.34749
  56   39648.3    252.2   0.170486077   1.41560  -0.02003  -0.78048  -0.89780
  57   39744.3    251.6   0.067919211   0.56259   0.10754  -0.69012  -0.27344
  58   39934.9    250.4   0.039282865   0.32384  -0.13967  -0.35148  -0.42520
  59   40199.7    248.8   0.185638242   1.52027  -0.55192   0.86887   0.67877

FINAL SINGLE POINT ENERGY     -5455.757391195779

DIPOLE MOMENT
-------------
                                X             Y             Z
Electronic contribution:      0.20448     -19.72835     -17.37111
Nuclear contribution   :      1.30436      20.87942      19.03537
                        -----------------------------------------
Total Dipole Moment    :      1.50884       1.15108       1.66426
                        -----------------------------------------
Magnitude (a.u.)       :      2.52415
Magnitude (Debye)      :      6.41588

Rotational constants in cm-1:     0.001530     0.000142     0.000131
Rotational constants in MHz :    45.853766     4.253804     3.929652

                             ****ORCA TERMINATED NORMALLY****
TOTAL RUN TIME: 0 days 0 hours 10 minutes 46 seconds 579 msec
