                         Program Version 4.2.0 -  RELEASE  -
|  1> # ORCA input file
|  2> # SCF done       -176.505387874830          0.000763218551
|  3> ! CAM-B3LYP def2-SVP def2/J RIJCOSX Grid4 TightSCF
|  4> %maxcore 5000
|  5> %tddft
|  6>     Mode sTDDFT
|  7>     Ethresh 5.0
|  8>     maxcore 5000
|  9> end
| 10>
| 11> %pal
| 12>   nprocs 6
| 13>   end
| 14> * xyz 0 1
| 15>    C        1.71393         1.24245         1.38069
| 16>    C        2.48664         1.85121         0.42732
| 17>    C        3.33927         1.15102        -0.45229
| 18>    N        4.04888         0.62552        -1.18467
| 19>    C        2.58811         3.24839         0.28017
| 20>    N        2.71652         4.38206         0.15150
| 21>    C        1.75455        -0.17460         1.72069
| 22>    C        1.22914        -0.34334         3.03621
| 23>    C        1.17308        -1.57043         3.63288
| 24>    C        1.63641        -2.70253         2.92562
| 25>    C        2.14657        -2.54196         1.60417
| 26>    C        2.19947        -1.25891         1.01325
| 27>    C        2.59737        -3.68095         0.90663
| 28>    C        2.55024        -4.91994         1.48553
| 29>    C        2.04911        -5.07718         2.78650
| 30>    C        1.60251        -3.99237         3.49140
| 31>    C        0.78351         0.95955         3.55489
| 32>    O        0.34176         1.22637         4.64751
| 33>    C        0.92859         1.90545         2.40446
| 34>    C        0.28130         3.09625         2.44193
| 35>    C       -0.03805         3.94353         1.34776
| 36>    S       -0.33558         5.64807         1.59966
| 37>    C       -0.68523         5.93906        -0.08688
| 38>    C       -0.60260         4.71533        -0.77686
| 39>    C       -0.23039         3.62652         0.03117
| 40>    N       -0.83886         4.50427        -2.14327
| 41>    O       -1.22854         5.44492        -2.82607
| 42>    O       -0.65473         3.38635        -2.58451
| 43>    C       -0.96212         7.25098        -0.50241
| 44>    S       -1.43326         7.73246        -2.12246
| 45>    C       -1.56058         9.41510        -1.71220
| 46>    C       -1.24276         9.61942        -0.36238
| 47>    C       -0.91629         8.40235         0.29790
| 48>    N       -0.63003         8.68405         1.59107
| 49>    C       -0.76410        10.04428         1.77869
| 50>    C       -0.53649        10.64612         3.02422
| 51>    N       -0.35660        11.14759         4.04018
| 52>    C       -1.14313        10.65014         0.59915
| 53>    C       -1.95256        10.31137        -2.72844
| 54>    C       -2.03413        11.66254        -2.60918
| 55>    C       -2.44447        12.53358        -3.65081
| 56>    S       -2.39044        14.25630        -3.40413
| 57>    C       -3.00633        14.57073        -4.99611
| 58>    C       -3.26561        13.34938        -5.64750
| 59>    C       -2.94567        12.21908        -4.90210
| 60>    N       -3.84918        13.21127        -6.94505
| 61>    O       -4.47173        14.14792        -7.40376
| 62>    O       -3.70193        12.14193        -7.49587
| 63>    C       -3.12140        15.83794        -5.60399
| 64>    C       -3.00732        17.07764        -5.04431
| 65>    C       -3.14239        18.33478        -5.76296
| 66>    C       -3.00648        18.51318        -7.11270
| 67>    C       -3.15041        19.76040        -7.75690
| 68>    N       -3.26436        20.74824        -8.32966
| 69>    C       -2.62419        17.50159        -8.02203
| 70>    N       -2.25142        16.74372        -8.79872
| 71>    C       -3.33864        19.38473        -4.77152
| 72>    C       -3.18603        18.81512        -3.47297
| 73>    C       -2.92006        17.37696        -3.60259
| 74>    O       -2.68946        16.58829        -2.70338
| 75>    C       -3.28702        19.56903        -2.33840
| 76>    C       -3.55868        20.95051        -2.45269
| 77>    C       -3.72476        21.52479        -3.74671
| 78>    C       -3.60892        20.72044        -4.90391
| 79>    C       -4.00061        22.90329        -3.84749
| 80>    C       -4.10506        23.68003        -2.72549
| 81>    C       -3.93949        23.11444        -1.45239
| 82>    C       -3.67224        21.77875        -1.31867
| 83>    H        0.77850        -1.67699         4.63237
| 84>    H        2.57872        -1.16588         0.00752
| 85>    H        2.98497        -3.55423        -0.09340
| 86>    H        2.89934        -5.78608         0.94385
| 87>    H        2.01822        -6.06225         3.22725
| 88>    H        1.21555        -4.10774         4.49320
| 89>    H       -0.09368         3.39747         3.41494
| 90>    H       -0.15380         2.63125        -0.36926
| 91>    H       -0.34046         8.03709         2.30560
| 92>    H       -1.32089        11.69846         0.47365
| 93>    H       -2.19165         9.84840        -3.67587
| 94>    H       -1.75902        12.13752        -1.67991
| 95>    H       -3.10075        11.22335        -5.27582
| 96>    H       -3.37297        15.79870        -6.65811
| 97>    H       -3.16142        19.11698        -1.36571
| 98>    H       -3.74308        21.18223        -5.86926
| 99>    H       -4.12552        23.33450        -4.82980
|100>    H       -4.31550        24.73526        -2.81331
|101>    H       -4.02490        23.74211        -0.57813
|102>    H       -3.54401        21.33789        -0.34095
|103> *
|104>
|105>                          ****END OF INPUT****

CARTESIAN COORDINATES (ANGSTROEM)
---------------------------------
  C      1.713930    1.242450    1.380690
  C      2.486640    1.851210    0.427320
  C      3.339270    1.151020   -0.452290
  N      4.048880    0.625520   -1.184670
  C      2.588110    3.248390    0.280170
  N      2.716520    4.382060    0.151500
  C      1.754550   -0.174600    1.720690
  C      1.229140   -0.343340    3.036210
  C      1.173080   -1.570430    3.632880
  C      1.636410   -2.702530    2.925620
  C      2.146570   -2.541960    1.604170
  C      2.199470   -1.258910    1.013250
  C      2.597370   -3.680950    0.906630
  C      2.550240   -4.919940    1.485530
  C      2.049110   -5.077180    2.786500
  C      1.602510   -3.992370    3.491400
  C      0.783510    0.959550    3.554890
  O      0.341760    1.226370    4.647510
  C      0.928590    1.905450    2.404460
  C      0.281300    3.096250    2.441930
  C     -0.038050    3.943530    1.347760
  S     -0.335580    5.648070    1.599660
  C     -0.685230    5.939060   -0.086880
  C     -0.602600    4.715330   -0.776860
  C     -0.230390    3.626520    0.031170
  N     -0.838860    4.504270   -2.143270
  O     -1.228540    5.444920   -2.826070
  O     -0.654730    3.386350   -2.584510
  C     -0.962120    7.250980   -0.502410
  S     -1.433260    7.732460   -2.122460
  C     -1.560580    9.415100   -1.712200
  C     -1.242760    9.619420   -0.362380
  C     -0.916290    8.402350    0.297900
  N     -0.630030    8.684050    1.591070
  C     -0.764100   10.044280    1.778690
  C     -0.536490   10.646120    3.024220
  N     -0.356600   11.147590    4.040180
  C     -1.143130   10.650140    0.599150
  C     -1.952560   10.311370   -2.728440
  C     -2.034130   11.662540   -2.609180
  C     -2.444470   12.533580   -3.650810
  S     -2.390440   14.256300   -3.404130
  C     -3.006330   14.570730   -4.996110
  C     -3.265610   13.349380   -5.647500
  C     -2.945670   12.219080   -4.902100
  N     -3.849180   13.211270   -6.945050
  O     -4.471730   14.147920   -7.403760
  O     -3.701930   12.141930   -7.495870
  C     -3.121400   15.837940   -5.603990
  C     -3.007320   17.077640   -5.044310
  C     -3.142390   18.334780   -5.762960
  C     -3.006480   18.513180   -7.112700
  C     -3.150410   19.760400   -7.756900
  N     -3.264360   20.748240   -8.329660
  C     -2.624190   17.501590   -8.022030
  N     -2.251420   16.743720   -8.798720
  C     -3.338640   19.384730   -4.771520
  C     -3.186030   18.815120   -3.472970
  C     -2.920060   17.376960   -3.602590
  O     -2.689460   16.588290   -2.703380
  C     -3.287020   19.569030   -2.338400
  C     -3.558680   20.950510   -2.452690
  C     -3.724760   21.524790   -3.746710
  C     -3.608920   20.720440   -4.903910
  C     -4.000610   22.903290   -3.847490
  C     -4.105060   23.680030   -2.725490
  C     -3.939490   23.114440   -1.452390
  C     -3.672240   21.778750   -1.318670
  H      0.778500   -1.676990    4.632370
  H      2.578720   -1.165880    0.007520
  H      2.984970   -3.554230   -0.093400
  H      2.899340   -5.786080    0.943850
  H      2.018220   -6.062250    3.227250
  H      1.215550   -4.107740    4.493200
  H     -0.093680    3.397470    3.414940
  H     -0.153800    2.631250   -0.369260
  H     -0.340460    8.037090    2.305600
  H     -1.320890   11.698460    0.473650
  H     -2.191650    9.848400   -3.675870
  H     -1.759020   12.137520   -1.679910
  H     -3.100750   11.223350   -5.275820
  H     -3.372970   15.798700   -6.658110
  H     -3.161420   19.116980   -1.365710
  H     -3.743080   21.182230   -5.869260
  H     -4.125520   23.334500   -4.829800
  H     -4.315500   24.735260   -2.813310
  H     -4.024900   23.742110   -0.578130
  H     -3.544010   21.337890   -0.340950

 Total Charge           Charge          ....    0
 Multiplicity           Mult            ....    1
 Number of Electrons    NEL             ....  478
 Basis Dimension        Dim             .... 1064

ORBITAL ENERGIES
----------------

  NO   OCC          E(Eh)            E(eV)
   0   2.0000     -88.997358     -2421.7412
   1   2.0000     -88.989220     -2421.5198
   2   2.0000     -88.986354     -2421.4418
   3   2.0000     -19.252174      -523.8783
   4   2.0000     -19.251747      -523.8667
   5   2.0000     -19.251469      -523.8591
   6   2.0000     -19.249242      -523.7985
   7   2.0000     -19.231696      -523.3210
   8   2.0000     -19.222653      -523.0750
   9   2.0000     -14.660081      -398.9211
  10   2.0000     -14.659228      -398.8979
  11   2.0000     -14.499979      -394.5645
  12   2.0000     -14.428514      -392.6198
  13   2.0000     -14.423811      -392.4919
  14   2.0000     -14.420918      -392.4131
  15   2.0000     -14.418486      -392.3469
  16   2.0000     -14.416267      -392.2866
  17   2.0000     -10.379423      -282.4385
  18   2.0000     -10.373940      -282.2892
  19   2.0000     -10.368685      -282.1463
  20   2.0000     -10.363680      -282.0101
  21   2.0000     -10.351365      -281.6750
  22   2.0000     -10.349765      -281.6314
  23   2.0000     -10.348605      -281.5999
  24   2.0000     -10.348114      -281.5865
  25   2.0000     -10.347871      -281.5799
  26   2.0000     -10.344516      -281.4886
  27   2.0000     -10.344209      -281.4802
  28   2.0000     -10.343823      -281.4697
  29   2.0000     -10.338275      -281.3188
  30   2.0000     -10.336174      -281.2616
  31   2.0000     -10.333394      -281.1859
  32   2.0000     -10.331999      -281.1480
  33   2.0000     -10.330558      -281.1088
  34   2.0000     -10.328956      -281.0652
  35   2.0000     -10.327614      -281.0287
  36   2.0000     -10.325225      -280.9637
  37   2.0000     -10.323050      -280.9045
  38   2.0000     -10.320631      -280.8386
  39   2.0000     -10.318080      -280.7692
  40   2.0000     -10.317382      -280.7502
  41   2.0000     -10.314243      -280.6648
  42   2.0000     -10.313626      -280.6480
  43   2.0000     -10.310144      -280.5533
  44   2.0000     -10.310104      -280.5522
  45   2.0000     -10.309721      -280.5418
  46   2.0000     -10.308701      -280.5140
  47   2.0000     -10.308529      -280.5093
  48   2.0000     -10.306794      -280.4621
  49   2.0000     -10.305039      -280.4144
  50   2.0000     -10.303902      -280.3834
  51   2.0000     -10.303613      -280.3756
  52   2.0000     -10.303553      -280.3739
  53   2.0000     -10.303156      -280.3631
  54   2.0000     -10.302990      -280.3586
  55   2.0000     -10.302976      -280.3582
  56   2.0000     -10.302736      -280.3517
  57   2.0000     -10.301584      -280.3204
  58   2.0000     -10.296140      -280.1722
  59   2.0000     -10.295983      -280.1679
  60   2.0000     -10.291409      -280.0435
  61   2.0000     -10.291277      -280.0399
  62   2.0000     -10.290950      -280.0310
  63   2.0000     -10.290783      -280.0264
  64   2.0000     -10.290660      -280.0231
  65   2.0000     -10.290398      -280.0160
  66   2.0000     -10.290123      -280.0085
  67   2.0000     -10.289777      -279.9991
  68   2.0000      -8.092856      -220.2178
  69   2.0000      -8.082560      -219.9376
  70   2.0000      -8.078828      -219.8361
  71   2.0000      -6.062484      -164.9686
  72   2.0000      -6.058157      -164.8508
  73   2.0000      -6.054465      -164.7504
  74   2.0000      -6.051819      -164.6784
  75   2.0000      -6.048440      -164.5864
  76   2.0000      -6.047319      -164.5559
  77   2.0000      -6.045062      -164.4945
  78   2.0000      -6.043686      -164.4571
  79   2.0000      -6.041014      -164.3844
  80   2.0000      -1.333444       -36.2849
  81   2.0000      -1.330249       -36.1979
  82   2.0000      -1.152093       -31.3500
  83   2.0000      -1.147973       -31.2379
  84   2.0000      -1.146686       -31.2029
  85   2.0000      -1.138232       -30.9729
  86   2.0000      -1.122695       -30.5501
  87   2.0000      -1.034830       -28.1592
  88   2.0000      -1.024768       -27.8854
  89   2.0000      -1.023904       -27.8618
  90   2.0000      -1.020853       -27.7788
  91   2.0000      -1.010315       -27.4921
  92   2.0000      -1.005268       -27.3547
  93   2.0000      -1.003054       -27.2945
  94   2.0000      -1.000546       -27.2262
  95   2.0000      -0.997647       -27.1474
  96   2.0000      -0.995721       -27.0949
  97   2.0000      -0.978103       -26.6155
  98   2.0000      -0.976998       -26.5855
  99   2.0000      -0.943470       -25.6731
 100   2.0000      -0.936853       -25.4931
 101   2.0000      -0.930258       -25.3136
 102   2.0000      -0.926622       -25.2147
 103   2.0000      -0.924255       -25.1503
 104   2.0000      -0.912130       -24.8203
 105   2.0000      -0.905502       -24.6400
 106   2.0000      -0.901988       -24.5443
 107   2.0000      -0.890232       -24.2244
 108   2.0000      -0.887379       -24.1468
 109   2.0000      -0.886120       -24.1126
 110   2.0000      -0.883302       -24.0359
 111   2.0000      -0.867530       -23.6067
 112   2.0000      -0.861623       -23.4459
 113   2.0000      -0.842646       -22.9296
 114   2.0000      -0.834141       -22.6981
 115   2.0000      -0.833523       -22.6813
 116   2.0000      -0.821735       -22.3605
 117   2.0000      -0.811107       -22.0713
 118   2.0000      -0.805092       -21.9077
 119   2.0000      -0.788630       -21.4597
 120   2.0000      -0.771335       -20.9891
 121   2.0000      -0.768115       -20.9015
 122   2.0000      -0.765497       -20.8302
 123   2.0000      -0.760180       -20.6856
 124   2.0000      -0.745473       -20.2853
 125   2.0000      -0.730749       -19.8847
 126   2.0000      -0.725083       -19.7305
 127   2.0000      -0.712907       -19.3992
 128   2.0000      -0.712627       -19.3916
 129   2.0000      -0.707916       -19.2634
 130   2.0000      -0.706418       -19.2226
 131   2.0000      -0.699530       -19.0352
 132   2.0000      -0.685058       -18.6414
 133   2.0000      -0.681834       -18.5536
 134   2.0000      -0.680137       -18.5075
 135   2.0000      -0.676650       -18.4126
 136   2.0000      -0.668654       -18.1950
 137   2.0000      -0.660623       -17.9765
 138   2.0000      -0.657796       -17.8995
 139   2.0000      -0.647540       -17.6205
 140   2.0000      -0.643664       -17.5150
 141   2.0000      -0.641438       -17.4544
 142   2.0000      -0.640772       -17.4363
 143   2.0000      -0.639322       -17.3968
 144   2.0000      -0.633071       -17.2267
 145   2.0000      -0.622611       -16.9421
 146   2.0000      -0.617933       -16.8148
 147   2.0000      -0.613536       -16.6952
 148   2.0000      -0.611863       -16.6496
 149   2.0000      -0.608506       -16.5583
 150   2.0000      -0.605497       -16.4764
 151   2.0000      -0.601188       -16.3592
 152   2.0000      -0.596141       -16.2218
 153   2.0000      -0.584510       -15.9053
 154   2.0000      -0.581452       -15.8221
 155   2.0000      -0.574818       -15.6416
 156   2.0000      -0.567495       -15.4423
 157   2.0000      -0.566879       -15.4256
 158   2.0000      -0.560431       -15.2501
 159   2.0000      -0.558933       -15.2094
 160   2.0000      -0.558239       -15.1905
 161   2.0000      -0.554157       -15.0794
 162   2.0000      -0.552025       -15.0214
 163   2.0000      -0.548574       -14.9275
 164   2.0000      -0.547524       -14.8989
 165   2.0000      -0.546029       -14.8582
 166   2.0000      -0.544049       -14.8043
 167   2.0000      -0.541751       -14.7418
 168   2.0000      -0.536543       -14.6001
 169   2.0000      -0.532862       -14.4999
 170   2.0000      -0.528187       -14.3727
 171   2.0000      -0.524899       -14.2832
 172   2.0000      -0.524001       -14.2588
 173   2.0000      -0.521790       -14.1986
 174   2.0000      -0.517121       -14.0716
 175   2.0000      -0.516307       -14.0494
 176   2.0000      -0.514981       -14.0133
 177   2.0000      -0.512092       -13.9347
 178   2.0000      -0.506240       -13.7755
 179   2.0000      -0.502851       -13.6833
 180   2.0000      -0.501811       -13.6550
 181   2.0000      -0.498719       -13.5708
 182   2.0000      -0.495949       -13.4955
 183   2.0000      -0.493277       -13.4228
 184   2.0000      -0.491267       -13.3681
 185   2.0000      -0.490357       -13.3433
 186   2.0000      -0.483463       -13.1557
 187   2.0000      -0.478743       -13.0272
 188   2.0000      -0.471290       -12.8245
 189   2.0000      -0.470940       -12.8149
 190   2.0000      -0.470198       -12.7947
 191   2.0000      -0.464035       -12.6270
 192   2.0000      -0.457283       -12.4433
 193   2.0000      -0.456251       -12.4152
 194   2.0000      -0.453541       -12.3415
 195   2.0000      -0.451714       -12.2917
 196   2.0000      -0.449988       -12.2448
 197   2.0000      -0.448606       -12.2072
 198   2.0000      -0.445470       -12.1219
 199   2.0000      -0.445225       -12.1152
 200   2.0000      -0.442133       -12.0310
 201   2.0000      -0.440822       -11.9954
 202   2.0000      -0.440159       -11.9773
 203   2.0000      -0.438572       -11.9342
 204   2.0000      -0.437912       -11.9162
 205   2.0000      -0.436502       -11.8778
 206   2.0000      -0.435293       -11.8449
 207   2.0000      -0.434408       -11.8208
 208   2.0000      -0.432485       -11.7685
 209   2.0000      -0.430007       -11.7011
 210   2.0000      -0.426321       -11.6008
 211   2.0000      -0.422658       -11.5011
 212   2.0000      -0.421077       -11.4581
 213   2.0000      -0.413501       -11.2519
 214   2.0000      -0.410659       -11.1746
 215   2.0000      -0.404315       -11.0020
 216   2.0000      -0.396728       -10.7955
 217   2.0000      -0.394329       -10.7302
 218   2.0000      -0.391887       -10.6638
 219   2.0000      -0.390613       -10.6291
 220   2.0000      -0.388287       -10.5658
 221   2.0000      -0.383017       -10.4224
 222   2.0000      -0.381733       -10.3875
 223   2.0000      -0.379148       -10.3171
 224   2.0000      -0.371070       -10.0973
 225   2.0000      -0.366402        -9.9703
 226   2.0000      -0.361002        -9.8234
 227   2.0000      -0.358502        -9.7553
 228   2.0000      -0.353716        -9.6251
 229   2.0000      -0.344917        -9.3857
 230   2.0000      -0.342297        -9.3144
 231   2.0000      -0.331727        -9.0267
 232   2.0000      -0.323032        -8.7902
 233   2.0000      -0.322189        -8.7672
 234   2.0000      -0.317395        -8.6368
 235   2.0000      -0.305998        -8.3266
 236   2.0000      -0.299881        -8.1602
 237   2.0000      -0.294531        -8.0146
 238   2.0000      -0.254348        -6.9212
 239   0.0000      -0.118416        -3.2223
 240   0.0000      -0.100778        -2.7423
 241   0.0000      -0.082927        -2.2566
 242   0.0000      -0.066350        -1.8055
 243   0.0000      -0.061761        -1.6806

MULLIKEN ATOMIC CHARGES
-----------------------
   0 C :    0.257168
   1 C :   -0.330148
   2 C :   -0.173003
   3 N :    0.162032
   4 C :   -0.189983
   5 N :    0.164619
   6 C :    0.032908
   7 C :    0.011116
   8 C :   -0.075015
   9 C :    0.091818
  10 C :    0.090124
  11 C :   -0.072726
  12 C :   -0.014583
  13 C :    0.037840
  14 C :    0.034932
  15 C :   -0.010794
  16 C :    0.134923
  17 O :   -0.138575
  18 C :   -0.126090
  19 C :    0.093313
  20 C :   -0.080933
  21 S :    0.120294
  22 C :   -0.113136
  23 C :    0.121576
  24 C :    0.011427
  25 N :    0.290018
  26 O :   -0.274815
  27 O :   -0.237863
  28 C :   -0.145315
  29 S :    0.229285
  30 C :   -0.125010
  31 C :    0.120966
  32 C :    0.070227
  33 N :   -0.025381
  34 C :   -0.101403
  35 C :   -0.149629
  36 N :    0.174879
  37 C :   -0.033793
  38 C :    0.074038
  39 C :    0.056939
  40 C :   -0.052360
  41 S :    0.232329
  42 C :   -0.131089
  43 C :    0.194293
  44 C :   -0.024278
  45 N :    0.261042
  46 O :   -0.225861
  47 O :   -0.224704
  48 C :   -0.041825
  49 C :   -0.090935
  50 C :    0.297471
  51 C :   -0.323923
  52 C :   -0.179589
  53 N :    0.149328
  54 C :   -0.203883
  55 N :    0.170054
  56 C :    0.049598
  57 C :   -0.001818
  58 C :    0.173307
  59 O :   -0.180103
  60 C :   -0.077233
  61 C :    0.095446
  62 C :    0.096286
  63 C :   -0.080840
  64 C :   -0.017545
  65 C :    0.037486
  66 C :    0.036163
  67 C :   -0.015031
  68 H :   -0.010873
  69 H :   -0.003032
  70 H :   -0.009225
  71 H :   -0.002636
  72 H :   -0.003217
  73 H :   -0.016362
  74 H :    0.024961
  75 H :    0.022214
  76 H :    0.140037
  77 H :   -0.000210
  78 H :   -0.008370
  79 H :   -0.025753
  80 H :    0.009861
  81 H :    0.045862
  82 H :   -0.012573
  83 H :   -0.005530
  84 H :   -0.008098
  85 H :   -0.001611
  86 H :   -0.002769
  87 H :   -0.016713
Sum of atomic charges:   -0.0000000

LOEWDIN ATOMIC CHARGES
----------------------
   0 C :    0.064852
   1 C :   -0.133576
   2 C :   -0.019752
   3 N :   -0.044077
   4 C :   -0.014892
   5 N :   -0.047240
   6 C :   -0.024169
   7 C :   -0.058987
   8 C :    0.035275
   9 C :   -0.008498
  10 C :   -0.004625
  11 C :    0.019270
  12 C :   -0.004913
  13 C :   -0.010480
  14 C :   -0.010927
  15 C :   -0.008228
  16 C :    0.083706
  17 O :   -0.139473
  18 C :   -0.079712
  19 C :    0.042769
  20 C :   -0.182953
  21 S :    0.457153
  22 C :   -0.118365
  23 C :   -0.091103
  24 C :    0.002604
  25 N :    0.292404
  26 O :   -0.235110
  27 O :   -0.201217
  28 C :   -0.238497
  29 S :    0.539459
  30 C :   -0.157952
  31 C :   -0.071598
  32 C :    0.005820
  33 N :    0.081211
  34 C :   -0.027779
  35 C :   -0.046887
  36 N :   -0.031282
  37 C :   -0.025851
  38 C :   -0.021227
  39 C :   -0.029934
  40 C :   -0.161315
  41 S :    0.548615
  42 C :   -0.172453
  43 C :   -0.038451
  44 C :   -0.035006
  45 N :    0.286370
  46 O :   -0.191449
  47 O :   -0.189371
  48 C :    0.049613
  49 C :   -0.085617
  50 C :    0.072400
  51 C :   -0.127435
  52 C :   -0.016402
  53 N :   -0.047587
  54 C :   -0.027344
  55 N :   -0.037162
  56 C :   -0.023745
  57 C :   -0.057267
  58 C :    0.085937
  59 O :   -0.165825
  60 C :    0.034873
  61 C :   -0.008930
  62 C :   -0.004501
  63 C :    0.020570
  64 C :   -0.004661
  65 C :   -0.010657
  66 C :   -0.011057
  67 C :   -0.008593
  68 H :    0.040063
  69 H :    0.039790
  70 H :    0.035163
  71 H :    0.034158
  72 H :    0.033625
  73 H :    0.032414
  74 H :    0.046819
  75 H :    0.045464
  76 H :    0.078431
  77 H :    0.036539
  78 H :    0.034228
  79 H :    0.030340
  80 H :    0.040391
  81 H :    0.049036
  82 H :    0.039249
  83 H :    0.039892
  84 H :    0.035448
  85 H :    0.034348
  86 H :    0.033680
  87 H :    0.032155

  Mayer bond orders larger than 0.100000
B(  0-C ,  1-C ) :   1.6634 B(  0-C ,  6-C ) :   1.0001 B(  0-C , 18-C ) :   1.0257
B(  1-C ,  2-C ) :   1.1278 B(  1-C ,  4-C ) :   1.1680 B(  2-C ,  3-N ) :   2.9925
B(  4-C ,  5-N ) :   2.9976 B(  6-C ,  7-C ) :   1.2126 B(  6-C , 11-C ) :   1.4563
B(  7-C ,  8-C ) :   1.4730 B(  7-C , 16-C ) :   0.9227 B(  8-C ,  9-C ) :   1.1874
B(  8-C , 68-H ) :   1.0147 B(  9-C , 10-C ) :   1.2539 B(  9-C , 15-C ) :   1.2452
B( 10-C , 11-C ) :   1.2085 B( 10-C , 12-C ) :   1.2416 B( 11-C , 69-H ) :   0.9927
B( 12-C , 13-C ) :   1.4906 B( 12-C , 70-H ) :   0.9968 B( 13-C , 14-C ) :   1.2595
B( 13-C , 71-H ) :   0.9888 B( 14-C , 15-C ) :   1.4893 B( 14-C , 72-H ) :   0.9891
B( 15-C , 73-H ) :   0.9970 B( 16-C , 17-O ) :   2.2764 B( 16-C , 18-C ) :   0.9286
B( 18-C , 19-C ) :   1.7146 B( 19-C , 20-C ) :   1.0901 B( 19-C , 74-H ) :   0.9305
B( 20-C , 21-S ) :   1.0638 B( 20-C , 24-C ) :   1.4757 B( 21-S , 22-C ) :   1.1545
B( 22-C , 23-C ) :   1.3872 B( 22-C , 28-C ) :   1.3125 B( 23-C , 24-C ) :   1.2761
B( 23-C , 25-N ) :   0.9800 B( 24-C , 75-H ) :   0.9893 B( 25-N , 26-O ) :   1.4323
B( 25-N , 27-O ) :   1.5530 B( 26-O , 27-O ) :   0.2439 B( 28-C , 29-S ) :   1.0905
B( 28-C , 32-C ) :   1.3017 B( 29-S , 30-C ) :   1.1502 B( 30-C , 31-C ) :   1.2420
B( 30-C , 38-C ) :   1.1856 B( 31-C , 32-C ) :   1.2723 B( 31-C , 37-C ) :   1.1852
B( 32-C , 33-N ) :   1.2097 B( 33-N , 34-C ) :   1.2020 B( 33-N , 76-H ) :   0.9196
B( 34-C , 35-C ) :   1.0528 B( 34-C , 37-C ) :   1.5941 B( 35-C , 36-N ) :   3.0556
B( 37-C , 77-H ) :   1.0091 B( 38-C , 39-C ) :   1.6427 B( 38-C , 78-H ) :   0.9515
B( 39-C , 40-C ) :   1.1452 B( 39-C , 79-H ) :   0.9629 B( 40-C , 41-S ) :   1.1206
B( 40-C , 44-C ) :   1.3776 B( 41-S , 42-C ) :   1.1445 B( 42-C , 43-C ) :   1.3743
B( 42-C , 48-C ) :   1.2232 B( 43-C , 44-C ) :   1.3452 B( 43-C , 45-N ) :   0.9087
B( 44-C , 80-H ) :   0.9978 B( 45-N , 46-O ) :   1.5096 B( 45-N , 47-O ) :   1.5560
B( 46-O , 47-O ) :   0.2709 B( 48-C , 49-C ) :   1.5722 B( 48-C , 81-H ) :   0.9238
B( 49-C , 50-C ) :   1.0455 B( 49-C , 58-C ) :   0.9638 B( 50-C , 51-C ) :   1.6606
B( 50-C , 56-C ) :   0.9944 B( 51-C , 52-C ) :   1.1404 B( 51-C , 54-C ) :   1.1344
B( 52-C , 53-N ) :   2.9689 B( 54-C , 55-N ) :   2.9986 B( 56-C , 57-C ) :   1.2125
B( 56-C , 63-C ) :   1.4547 B( 57-C , 58-C ) :   0.9634 B( 57-C , 60-C ) :   1.4636
B( 58-C , 59-O ) :   2.1313 B( 60-C , 61-C ) :   1.1822 B( 60-C , 82-H ) :   1.0176
B( 61-C , 62-C ) :   1.2556 B( 61-C , 67-C ) :   1.2434 B( 62-C , 63-C ) :   1.2026
B( 62-C , 64-C ) :   1.2408 B( 63-C , 83-H ) :   0.9918 B( 64-C , 65-C ) :   1.4873
B( 64-C , 84-H ) :   0.9982 B( 65-C , 66-C ) :   1.2606 B( 65-C , 85-H ) :   0.9887
B( 66-C , 67-C ) :   1.4877 B( 66-C , 86-H ) :   0.9894 B( 67-C , 87-H ) :   0.9986

-----------------------------------------------------------------------------
         ABSORPTION SPECTRUM VIA TRANSITION ELECTRIC DIPOLE MOMENTS
-----------------------------------------------------------------------------
State   Energy  Wavelength   fosc         T2         TX        TY        TZ
        (cm-1)    (nm)                  (au**2)     (au)      (au)      (au)
-----------------------------------------------------------------------------
   0   15144.6    660.3   2.127537766  46.24817  -1.60345   6.17183  -2.36341
   1   19165.3    521.8   0.036331845   0.62409  -0.71571  -0.32616   0.07393
   2   22424.4    445.9   0.067874140   0.99646  -0.26950   0.90273  -0.33001
   3   24078.2    415.3   0.031184832   0.42638   0.24843   0.28347  -0.53321
   4   25794.8    387.7   0.114063318   1.45576  -0.22402  -1.17262   0.17473
   5   26004.6    384.5   0.016462532   0.20841   0.06902  -0.41441   0.17865
   6   26812.8    373.0   0.027993713   0.34371  -0.07060  -0.30173   0.49768
   7   27421.3    364.7   0.172556467   2.07166   0.32645  -0.57141   1.28007
   8   27730.4    360.6   0.021374609   0.25376  -0.06439   0.09683  -0.49014
   9   28149.7    355.2   0.050266655   0.58787   0.12716  -0.00325  -0.75610
  10   28195.0    354.7   0.052261657   0.61022   0.13254  -0.63574  -0.43415
  11   28691.0    348.5   0.103770695   1.19070  -0.31573   0.58860   0.86288
  12   29043.1    344.3   0.261914903   2.96888  -0.17537  -1.42191  -0.95724
  13   29711.7    336.6   0.070428645   0.78037  -0.10685  -0.87662  -0.02220
  14   30593.9    326.9   0.077457905   0.83350   0.50611  -0.67146   0.35565
  15   31499.9    317.5   0.016017147   0.16740  -0.37107   0.17169  -0.01511
  16   31808.8    314.4   0.025723918   0.26624   0.47204   0.10864  -0.17779
  17   32034.6    312.2   0.063739470   0.65503  -0.05106  -0.40904   0.69650
  18   32185.3    310.7   0.216462103   2.21411  -0.63122   1.20718   0.59865
  19   32424.6    308.4   0.493205222   5.00759  -0.00578   1.64014   1.52234
  20   33290.5    300.4   0.389595189   3.85273   0.13790   1.78084  -0.81382
  21   33382.8    299.6   0.028948750   0.28548   0.07237  -0.44795   0.28211
  22   33865.1    295.3   0.307217818   2.98655   0.10651   1.61364  -0.60939
  23   34289.3    291.6   0.020382280   0.19569   0.09968   0.42849   0.04641
  24   34455.7    290.2   0.022503973   0.21502   0.10700  -0.39052  -0.22597
  25   34711.2    288.1   0.018673144   0.17710   0.10192  -0.39402  -0.10705
  26   34810.4    287.3   0.026668879   0.25222  -0.00688   0.37359   0.33555
  27   35637.5    280.6   0.140846113   1.30111  -0.16762   1.12557   0.07817
  28   35878.0    278.7   0.011569161   0.10616  -0.01524  -0.26898   0.18324
  29   36042.2    277.5   0.180691481   1.65045  -0.18440  -0.87878  -0.91880
  30   36294.0    275.5   0.036815604   0.33394  -0.21035  -0.39904  -0.36120
  31   36743.2    272.2   0.274532758   2.45976   0.12554  -0.16352   1.55475
  32   36961.4    270.6   0.098866435   0.88059  -0.25906  -0.88844   0.15544
  33   37020.8    270.1   0.022800131   0.20275   0.08623   0.21833   0.38425
  34   37151.6    269.2   0.047770312   0.42331  -0.23541   0.46808   0.38573
  35   37789.3    264.6   0.084928054   0.73987  -0.13681  -0.45633   0.71618
  36   37904.4    263.8   0.080317407   0.69758  -0.12039  -0.38179   0.73302
  37   38213.5    261.7   0.001202164   0.01036  -0.04068   0.07241   0.05880
  38   38330.2    260.9   0.063097387   0.54193  -0.22322   0.63155   0.30537
  39   38829.7    257.5   0.032384721   0.27457   0.15858   0.12496   0.48354
  40   39091.8    255.8   0.155057529   1.30582   0.09247   0.05079  -1.13784
  41   39147.6    255.4   0.020996569   0.17657   0.02054  -0.41552  -0.05909
  42   39344.5    254.2   0.018899508   0.15814  -0.13461  -0.03181   0.37284
  43   39728.4    251.7   0.068970582   0.57153  -0.25485   0.70059  -0.12553
  44   39862.8    250.9   0.025532354   0.21086  -0.43078  -0.05864   0.14783
  45   40146.5    249.1   0.258272952   2.11790   0.18573  -1.12368   0.90595
  46   40186.1    248.8   0.116656065   0.95567   0.05622  -0.97413  -0.05988

FINAL SINGLE POINT ENERGY     -4035.184591441898

DIPOLE MOMENT
-------------
                                X             Y             Z
Electronic contribution:     -0.11637       1.70853     -12.28893
Nuclear contribution   :     -0.86931      -2.70544      16.32603
                        -----------------------------------------
Total Dipole Moment    :     -0.98569      -0.99690       4.03710
                        -----------------------------------------
Magnitude (a.u.)       :      4.27359
Magnitude (Debye)      :     10.86261

Rotational constants in cm-1:     0.002976     0.000241     0.000227
Rotational constants in MHz :    89.216022     7.237218     6.820189

                             ****ORCA TERMINATED NORMALLY****
TOTAL RUN TIME: 0 days 0 hours 8 minutes 31 seconds 536 msec
