                         Program Version 4.2.0 -  RELEASE  -
|  1> # ORCA input file
|  2> # SCF done       -208.234450023924          0.000788506647
|  3> ! CAM-B3LYP def2-SVP def2/J RIJCOSX Grid4 TightSCF
|  4> %maxcore 5000
|  5> %tddft
|  6>     Mode sTDDFT
|  7>     Ethresh 5.0
|  8>     maxcore 5000
|  9> end
| 10>
| 11> %pal
| 12>   nprocs 6
| 13>   end
| 14> * xyz 0 1
| 15>    C        4.19874         5.77112        -4.82616
| 16>    N        3.73613         7.03588        -4.65056
| 17>    C        4.32393         8.23523        -5.19444
| 18>    C        4.02301         8.38320        -6.68329
| 19>    C        2.53940         7.04696        -3.90264
| 20>    O        1.93643         8.06556        -3.61791
| 21>    C        2.29470         5.65621        -3.61063
| 22>    C        3.35121         4.89568        -4.20435
| 23>    C        3.11210         3.49677        -3.91576
| 24>    O        3.71096         2.48600        -4.20125
| 25>    N        1.91707         3.50405        -3.16308
| 26>    C        1.36350         2.27564        -2.64817
| 27>    C        1.73260         2.05275        -1.18317
| 28>    C        1.42744         4.77737        -2.97399
| 29>    C        0.23615         5.06243        -2.25457
| 30>    C       -0.24225         6.33141        -2.14232
| 31>    C       -1.41177         6.74538        -1.45484
| 32>    S       -2.14085         8.26707        -1.86701
| 33>    C       -3.44647         8.02569        -0.74511
| 34>    C       -3.26926         6.85214        -0.00714
| 35>    C       -2.13085         6.13226        -0.42964
| 36>    O       -1.75851         4.96560         0.16014
| 37>    C       -4.02939         6.54340         1.24150
| 38>    O       -4.63091         7.38474         1.85049
| 39>    O       -3.95639         5.28618         1.67909
| 40>    C       -4.50437         8.96497        -0.80873
| 41>    C       -5.80091         8.74000        -0.45568
| 42>    C       -6.84621         9.67438        -0.62757
| 43>    C       -8.03624         9.70268         0.09629
| 44>    N       -8.56665         8.70934         0.94232
| 45>    O       -9.47883         9.04032         1.67973
| 46>    O       -8.12176         7.57779         0.86426
| 47>    C       -8.69431        10.95499        -0.12367
| 48>    C       -7.94886        11.70116        -0.98554
| 49>    C       -6.82215        10.92738        -1.40983
| 50>    C       -6.04463        11.18344        -2.52457
| 51>    C       -5.44567        10.19349        -3.38328
| 52>    C       -4.95927        10.79807        -4.49532
| 53>    C       -5.17977        12.21304        -4.37511
| 54>    N       -4.65462        13.15381        -5.25910
| 55>    O       -4.16509        12.75768        -6.30170
| 56>    O       -4.68746        14.34526        -4.93643
| 57>    C       -5.85899        12.47485        -3.18526
| 58>    C       -6.18252        13.78780        -2.75523
| 59>    C       -6.16240        14.27398        -1.48928
| 60>    C       -6.28564        15.66021        -1.19851
| 61>    S       -6.83971        16.17923         0.35881
| 62>    C       -6.74591        17.85732        -0.08039
| 63>    C       -6.20809        18.01040        -1.36657
| 64>    C       -5.96885        16.76291        -1.99834
| 65>    O       -5.43600        16.71181        -3.23702
| 66>    C       -5.77680        19.31204        -1.95276
| 67>    O       -5.67438        20.32250        -1.30250
| 68>    O       -5.47930        19.32184        -3.24745
| 69>    C       -7.26999        18.74711         0.88866
| 70>    C       -7.61182        20.05232         0.71436
| 71>    C       -8.14844        20.83730         1.76063
| 72>    N       -8.41466        22.17871         1.63268
| 73>    C       -8.13260        23.00683         0.48259
| 74>    C       -6.63994        23.27918         0.31647
| 75>    C       -8.95311        22.72704         2.80863
| 76>    O       -9.26926        23.89339         2.92358
| 77>    C       -9.02671        21.60696         3.72505
| 78>    C       -8.52239        20.46444         3.05448
| 79>    C       -8.60503        19.34570         3.96348
| 80>    O       -8.29451        18.17559         3.85355
| 81>    N       -9.15675        19.89304         5.13969
| 82>    C       -9.44773        19.05692         6.27911
| 83>    C      -10.92719        18.68534         6.34534
| 84>    C       -9.41421        21.23322         5.00866
| 85>    C       -9.96736        22.04010         6.05650
| 86>    C      -10.23662        23.33969         5.90544
| 87>    H        5.10293         5.58230        -5.37452
| 88>    H        5.40408         8.21318        -5.02339
| 89>    H        3.88880         9.07191        -4.64145
| 90>    H        4.42518         7.54163        -7.24302
| 91>    H        4.47017         9.29877        -7.05978
| 92>    H        2.94896         8.42844        -6.84533
| 93>    H        1.79460         1.47434        -3.25472
| 94>    H        0.27848         2.27243        -2.78594
| 95>    H        2.81285         1.98909        -1.08166
| 96>    H        1.29513         1.12348        -0.82931
| 97>    H        1.37714         2.86855        -0.55693
| 98>    H       -0.30614         4.21598        -1.85636
| 99>    H        0.29033         7.12341        -2.65387
|100>    H       -0.83701         4.76947        -0.05223
|101>    H       -3.34300         4.74181         1.16100
|102>    H       -4.23453         9.91094        -1.26015
|103>    H       -6.07056         7.82242         0.04644
|104>    H       -9.63300        11.21903         0.32564
|105>    H       -8.22598        12.65121        -1.39766
|106>    H       -5.47800         9.13800        -3.19832
|107>    H       -4.47576        10.34058        -5.33681
|108>    H       -6.38532        14.47129        -3.56861
|109>    H       -6.02392        13.61258        -0.64537
|110>    H       -5.12202        15.83459        -3.51918
|111>    H       -5.47834        18.43177        -3.64410
|112>    H       -7.45838        18.29265         1.85488
|113>    H       -7.46174        20.53077        -0.23791
|114>    H       -8.66420        23.94622         0.66042
|115>    H       -8.53956        22.53604        -0.41667
|116>    H       -6.23341        23.70154         1.23248
|117>    H       -6.49209        23.99284        -0.48914
|118>    H       -6.09623        22.37021         0.07316
|119>    H       -9.13013        19.56083         7.19589
|120>    H       -8.84848        18.15134         6.14935
|121>    H      -11.55009        19.57288         6.43292
|122>    H      -11.10677        18.04456         7.20396
|123>    H      -11.21504        18.14794         5.44518
|124>    H      -10.16147        21.54912         6.99999
|125>    H      -10.05361        23.85038         4.97456
|126>    H      -10.64833        23.91962         6.71326
|127> *
|128>
|129>                          ****END OF INPUT****

CARTESIAN COORDINATES (ANGSTROEM)
---------------------------------
  C      4.198740    5.771120   -4.826160
  N      3.736130    7.035880   -4.650560
  C      4.323930    8.235230   -5.194440
  C      4.023010    8.383200   -6.683290
  C      2.539400    7.046960   -3.902640
  O      1.936430    8.065560   -3.617910
  C      2.294700    5.656210   -3.610630
  C      3.351210    4.895680   -4.204350
  C      3.112100    3.496770   -3.915760
  O      3.710960    2.486000   -4.201250
  N      1.917070    3.504050   -3.163080
  C      1.363500    2.275640   -2.648170
  C      1.732600    2.052750   -1.183170
  C      1.427440    4.777370   -2.973990
  C      0.236150    5.062430   -2.254570
  C     -0.242250    6.331410   -2.142320
  C     -1.411770    6.745380   -1.454840
  S     -2.140850    8.267070   -1.867010
  C     -3.446470    8.025690   -0.745110
  C     -3.269260    6.852140   -0.007140
  C     -2.130850    6.132260   -0.429640
  O     -1.758510    4.965600    0.160140
  C     -4.029390    6.543400    1.241500
  O     -4.630910    7.384740    1.850490
  O     -3.956390    5.286180    1.679090
  C     -4.504370    8.964970   -0.808730
  C     -5.800910    8.740000   -0.455680
  C     -6.846210    9.674380   -0.627570
  C     -8.036240    9.702680    0.096290
  N     -8.566650    8.709340    0.942320
  O     -9.478830    9.040320    1.679730
  O     -8.121760    7.577790    0.864260
  C     -8.694310   10.954990   -0.123670
  C     -7.948860   11.701160   -0.985540
  C     -6.822150   10.927380   -1.409830
  C     -6.044630   11.183440   -2.524570
  C     -5.445670   10.193490   -3.383280
  C     -4.959270   10.798070   -4.495320
  C     -5.179770   12.213040   -4.375110
  N     -4.654620   13.153810   -5.259100
  O     -4.165090   12.757680   -6.301700
  O     -4.687460   14.345260   -4.936430
  C     -5.858990   12.474850   -3.185260
  C     -6.182520   13.787800   -2.755230
  C     -6.162400   14.273980   -1.489280
  C     -6.285640   15.660210   -1.198510
  S     -6.839710   16.179230    0.358810
  C     -6.745910   17.857320   -0.080390
  C     -6.208090   18.010400   -1.366570
  C     -5.968850   16.762910   -1.998340
  O     -5.436000   16.711810   -3.237020
  C     -5.776800   19.312040   -1.952760
  O     -5.674380   20.322500   -1.302500
  O     -5.479300   19.321840   -3.247450
  C     -7.269990   18.747110    0.888660
  C     -7.611820   20.052320    0.714360
  C     -8.148440   20.837300    1.760630
  N     -8.414660   22.178710    1.632680
  C     -8.132600   23.006830    0.482590
  C     -6.639940   23.279180    0.316470
  C     -8.953110   22.727040    2.808630
  O     -9.269260   23.893390    2.923580
  C     -9.026710   21.606960    3.725050
  C     -8.522390   20.464440    3.054480
  C     -8.605030   19.345700    3.963480
  O     -8.294510   18.175590    3.853550
  N     -9.156750   19.893040    5.139690
  C     -9.447730   19.056920    6.279110
  C    -10.927190   18.685340    6.345340
  C     -9.414210   21.233220    5.008660
  C     -9.967360   22.040100    6.056500
  C    -10.236620   23.339690    5.905440
  H      5.102930    5.582300   -5.374520
  H      5.404080    8.213180   -5.023390
  H      3.888800    9.071910   -4.641450
  H      4.425180    7.541630   -7.243020
  H      4.470170    9.298770   -7.059780
  H      2.948960    8.428440   -6.845330
  H      1.794600    1.474340   -3.254720
  H      0.278480    2.272430   -2.785940
  H      2.812850    1.989090   -1.081660
  H      1.295130    1.123480   -0.829310
  H      1.377140    2.868550   -0.556930
  H     -0.306140    4.215980   -1.856360
  H      0.290330    7.123410   -2.653870
  H     -0.837010    4.769470   -0.052230
  H     -3.343000    4.741810    1.161000
  H     -4.234530    9.910940   -1.260150
  H     -6.070560    7.822420    0.046440
  H     -9.633000   11.219030    0.325640
  H     -8.225980   12.651210   -1.397660
  H     -5.478000    9.138000   -3.198320
  H     -4.475760   10.340580   -5.336810
  H     -6.385320   14.471290   -3.568610
  H     -6.023920   13.612580   -0.645370
  H     -5.122020   15.834590   -3.519180
  H     -5.478340   18.431770   -3.644100
  H     -7.458380   18.292650    1.854880
  H     -7.461740   20.530770   -0.237910
  H     -8.664200   23.946220    0.660420
  H     -8.539560   22.536040   -0.416670
  H     -6.233410   23.701540    1.232480
  H     -6.492090   23.992840   -0.489140
  H     -6.096230   22.370210    0.073160
  H     -9.130130   19.560830    7.195890
  H     -8.848480   18.151340    6.149350
  H    -11.550090   19.572880    6.432920
  H    -11.106770   18.044560    7.203960
  H    -11.215040   18.147940    5.445180
  H    -10.161470   21.549120    6.999990
  H    -10.053610   23.850380    4.974560
  H    -10.648330   23.919620    6.713260

 Total Charge           Charge          ....    0
 Multiplicity           Mult            ....    1
 Number of Electrons    NEL             ....  526
 Basis Dimension        Dim             .... 1216

ORBITAL ENERGIES
----------------

  NO   OCC          E(Eh)            E(eV)
   0   2.0000     -88.988475     -2421.4995
   1   2.0000     -88.975392     -2421.1435
   2   2.0000     -19.302396      -525.2449
   3   2.0000     -19.286566      -524.8141
   4   2.0000     -19.255444      -523.9673
   5   2.0000     -19.250768      -523.8400
   6   2.0000     -19.249073      -523.7939
   7   2.0000     -19.244422      -523.6674
   8   2.0000     -19.238099      -523.4953
   9   2.0000     -19.237637      -523.4827
  10   2.0000     -19.198172      -522.4088
  11   2.0000     -19.197748      -522.3973
  12   2.0000     -19.193136      -522.2718
  13   2.0000     -19.191389      -522.2242
  14   2.0000     -19.190287      -522.1942
  15   2.0000     -19.181560      -521.9568
  16   2.0000     -14.658315      -398.8730
  17   2.0000     -14.646855      -398.5612
  18   2.0000     -14.460299      -393.4847
  19   2.0000     -14.459562      -393.4647
  20   2.0000     -14.450707      -393.2237
  21   2.0000     -14.444385      -393.0517
  22   2.0000     -10.409496      -283.2568
  23   2.0000     -10.403223      -283.0861
  24   2.0000     -10.379408      -282.4380
  25   2.0000     -10.379359      -282.4367
  26   2.0000     -10.379243      -282.4336
  27   2.0000     -10.371769      -282.2302
  28   2.0000     -10.370953      -282.2080
  29   2.0000     -10.365304      -282.0543
  30   2.0000     -10.351658      -281.6829
  31   2.0000     -10.343945      -281.4730
  32   2.0000     -10.340204      -281.3712
  33   2.0000     -10.337940      -281.3096
  34   2.0000     -10.335110      -281.2326
  35   2.0000     -10.334184      -281.2074
  36   2.0000     -10.334127      -281.2059
  37   2.0000     -10.333996      -281.2023
  38   2.0000     -10.333954      -281.2012
  39   2.0000     -10.331287      -281.1286
  40   2.0000     -10.330276      -281.1011
  41   2.0000     -10.328976      -281.0657
  42   2.0000     -10.326488      -280.9980
  43   2.0000     -10.319872      -280.8180
  44   2.0000     -10.318697      -280.7860
  45   2.0000     -10.318260      -280.7741
  46   2.0000     -10.318207      -280.7727
  47   2.0000     -10.314420      -280.6696
  48   2.0000     -10.313925      -280.6562
  49   2.0000     -10.312307      -280.6121
  50   2.0000     -10.310068      -280.5512
  51   2.0000     -10.306855      -280.4638
  52   2.0000     -10.306408      -280.4516
  53   2.0000     -10.304503      -280.3998
  54   2.0000     -10.304278      -280.3937
  55   2.0000     -10.303619      -280.3757
  56   2.0000     -10.301404      -280.3155
  57   2.0000     -10.294395      -280.1247
  58   2.0000     -10.293732      -280.1067
  59   2.0000     -10.293135      -280.0905
  60   2.0000     -10.289678      -279.9964
  61   2.0000     -10.285578      -279.8848
  62   2.0000     -10.284234      -279.8482
  63   2.0000     -10.276182      -279.6291
  64   2.0000     -10.275574      -279.6126
  65   2.0000     -10.269674      -279.4520
  66   2.0000     -10.265734      -279.3448
  67   2.0000     -10.265500      -279.3385
  68   2.0000     -10.262210      -279.2489
  69   2.0000     -10.256658      -279.0978
  70   2.0000     -10.253291      -279.0062
  71   2.0000     -10.243241      -278.7327
  72   2.0000      -8.084037      -219.9778
  73   2.0000      -8.071197      -219.6284
  74   2.0000      -6.053176      -164.7153
  75   2.0000      -6.049207      -164.6073
  76   2.0000      -6.046181      -164.5250
  77   2.0000      -6.040410      -164.3679
  78   2.0000      -6.036363      -164.2578
  79   2.0000      -6.033230      -164.1725
  80   2.0000      -1.324741       -36.0480
  81   2.0000      -1.317358       -35.8471
  82   2.0000      -1.198705       -32.6184
  83   2.0000      -1.187485       -32.3131
  84   2.0000      -1.179751       -32.1027
  85   2.0000      -1.168846       -31.8059
  86   2.0000      -1.141667       -31.0663
  87   2.0000      -1.138731       -30.9864
  88   2.0000      -1.134931       -30.8830
  89   2.0000      -1.132118       -30.8065
  90   2.0000      -1.129663       -30.7397
  91   2.0000      -1.120430       -30.4885
  92   2.0000      -1.097899       -29.8754
  93   2.0000      -1.088076       -29.6081
  94   2.0000      -1.069627       -29.1060
  95   2.0000      -1.061218       -28.8772
  96   2.0000      -1.059297       -28.8249
  97   2.0000      -1.049112       -28.5478
  98   2.0000      -1.026819       -27.9412
  99   2.0000      -1.015278       -27.6271
 100   2.0000      -1.005895       -27.3718
 101   2.0000      -1.002946       -27.2915
 102   2.0000      -0.939882       -25.5755
 103   2.0000      -0.931723       -25.3535
 104   2.0000      -0.929958       -25.3054
 105   2.0000      -0.921450       -25.0739
 106   2.0000      -0.920433       -25.0462
 107   2.0000      -0.913616       -24.8608
 108   2.0000      -0.901670       -24.5357
 109   2.0000      -0.889027       -24.1917
 110   2.0000      -0.886735       -24.1293
 111   2.0000      -0.882780       -24.0217
 112   2.0000      -0.872840       -23.7512
 113   2.0000      -0.866227       -23.5712
 114   2.0000      -0.863347       -23.4929
 115   2.0000      -0.862986       -23.4830
 116   2.0000      -0.850906       -23.1543
 117   2.0000      -0.831870       -22.6363
 118   2.0000      -0.828025       -22.5317
 119   2.0000      -0.818899       -22.2834
 120   2.0000      -0.812031       -22.0965
 121   2.0000      -0.807219       -21.9656
 122   2.0000      -0.798798       -21.7364
 123   2.0000      -0.783425       -21.3181
 124   2.0000      -0.777606       -21.1597
 125   2.0000      -0.768683       -20.9169
 126   2.0000      -0.765260       -20.8238
 127   2.0000      -0.752229       -20.4692
 128   2.0000      -0.738901       -20.1065
 129   2.0000      -0.738216       -20.0879
 130   2.0000      -0.733545       -19.9608
 131   2.0000      -0.727927       -19.8079
 132   2.0000      -0.724787       -19.7225
 133   2.0000      -0.719949       -19.5908
 134   2.0000      -0.716993       -19.5104
 135   2.0000      -0.715656       -19.4740
 136   2.0000      -0.709874       -19.3166
 137   2.0000      -0.704803       -19.1787
 138   2.0000      -0.700404       -19.0590
 139   2.0000      -0.690176       -18.7806
 140   2.0000      -0.688343       -18.7308
 141   2.0000      -0.681528       -18.5453
 142   2.0000      -0.669549       -18.2194
 143   2.0000      -0.659457       -17.9448
 144   2.0000      -0.657318       -17.8865
 145   2.0000      -0.654569       -17.8117
 146   2.0000      -0.647656       -17.6236
 147   2.0000      -0.644148       -17.5282
 148   2.0000      -0.641122       -17.4458
 149   2.0000      -0.637222       -17.3397
 150   2.0000      -0.633826       -17.2473
 151   2.0000      -0.631405       -17.1814
 152   2.0000      -0.628761       -17.1094
 153   2.0000      -0.625705       -17.0263
 154   2.0000      -0.623962       -16.9789
 155   2.0000      -0.617269       -16.7967
 156   2.0000      -0.614095       -16.7104
 157   2.0000      -0.601971       -16.3805
 158   2.0000      -0.600081       -16.3290
 159   2.0000      -0.593915       -16.1613
 160   2.0000      -0.593765       -16.1572
 161   2.0000      -0.586634       -15.9631
 162   2.0000      -0.586187       -15.9510
 163   2.0000      -0.581701       -15.8289
 164   2.0000      -0.579797       -15.7771
 165   2.0000      -0.578584       -15.7441
 166   2.0000      -0.575156       -15.6508
 167   2.0000      -0.570239       -15.5170
 168   2.0000      -0.567049       -15.4302
 169   2.0000      -0.565320       -15.3832
 170   2.0000      -0.560579       -15.2541
 171   2.0000      -0.558887       -15.2081
 172   2.0000      -0.552987       -15.0475
 173   2.0000      -0.551948       -15.0193
 174   2.0000      -0.548490       -14.9252
 175   2.0000      -0.544548       -14.8179
 176   2.0000      -0.541797       -14.7431
 177   2.0000      -0.539320       -14.6757
 178   2.0000      -0.538281       -14.6474
 179   2.0000      -0.535135       -14.5618
 180   2.0000      -0.534858       -14.5542
 181   2.0000      -0.531233       -14.4556
 182   2.0000      -0.529293       -14.4028
 183   2.0000      -0.525849       -14.3091
 184   2.0000      -0.523455       -14.2439
 185   2.0000      -0.521226       -14.1833
 186   2.0000      -0.520603       -14.1663
 187   2.0000      -0.519615       -14.1394
 188   2.0000      -0.517289       -14.0762
 189   2.0000      -0.514870       -14.0103
 190   2.0000      -0.514372       -13.9968
 191   2.0000      -0.513896       -13.9838
 192   2.0000      -0.511831       -13.9276
 193   2.0000      -0.510495       -13.8913
 194   2.0000      -0.507191       -13.8014
 195   2.0000      -0.506982       -13.7957
 196   2.0000      -0.501001       -13.6329
 197   2.0000      -0.499313       -13.5870
 198   2.0000      -0.497411       -13.5352
 199   2.0000      -0.493632       -13.4324
 200   2.0000      -0.489783       -13.3277
 201   2.0000      -0.487972       -13.2784
 202   2.0000      -0.487310       -13.2604
 203   2.0000      -0.482972       -13.1423
 204   2.0000      -0.481186       -13.0937
 205   2.0000      -0.477917       -13.0048
 206   2.0000      -0.477211       -12.9856
 207   2.0000      -0.474178       -12.9031
 208   2.0000      -0.472019       -12.8443
 209   2.0000      -0.469095       -12.7647
 210   2.0000      -0.465128       -12.6568
 211   2.0000      -0.464579       -12.6418
 212   2.0000      -0.462974       -12.5982
 213   2.0000      -0.461400       -12.5553
 214   2.0000      -0.458452       -12.4751
 215   2.0000      -0.458046       -12.4641
 216   2.0000      -0.457089       -12.4380
 217   2.0000      -0.456014       -12.4088
 218   2.0000      -0.449004       -12.2180
 219   2.0000      -0.448338       -12.1999
 220   2.0000      -0.445435       -12.1209
 221   2.0000      -0.442975       -12.0540
 222   2.0000      -0.439171       -11.9505
 223   2.0000      -0.438610       -11.9352
 224   2.0000      -0.437688       -11.9101
 225   2.0000      -0.435712       -11.8563
 226   2.0000      -0.434367       -11.8197
 227   2.0000      -0.431151       -11.7322
 228   2.0000      -0.428761       -11.6672
 229   2.0000      -0.426673       -11.6104
 230   2.0000      -0.418660       -11.3923
 231   2.0000      -0.414338       -11.2747
 232   2.0000      -0.412097       -11.2137
 233   2.0000      -0.409537       -11.1441
 234   2.0000      -0.407049       -11.0764
 235   2.0000      -0.395280       -10.7561
 236   2.0000      -0.392780       -10.6881
 237   2.0000      -0.390102       -10.6152
 238   2.0000      -0.384379       -10.4595
 239   2.0000      -0.381645       -10.3851
 240   2.0000      -0.378605       -10.3024
 241   2.0000      -0.377571       -10.2742
 242   2.0000      -0.373319       -10.1585
 243   2.0000      -0.366447        -9.9715
 244   2.0000      -0.361798        -9.8450
 245   2.0000      -0.354632        -9.6500
 246   2.0000      -0.352776        -9.5995
 247   2.0000      -0.346900        -9.4396
 248   2.0000      -0.346229        -9.4214
 249   2.0000      -0.344091        -9.3632
 250   2.0000      -0.343513        -9.3475
 251   2.0000      -0.339139        -9.2285
 252   2.0000      -0.336718        -9.1626
 253   2.0000      -0.329068        -8.9544
 254   2.0000      -0.326842        -8.8938
 255   2.0000      -0.325490        -8.8570
 256   2.0000      -0.320492        -8.7210
 257   2.0000      -0.317356        -8.6357
 258   2.0000      -0.309126        -8.4118
 259   2.0000      -0.284185        -7.7331
 260   2.0000      -0.273719        -7.4483
 261   2.0000      -0.250635        -6.8201
 262   2.0000      -0.232385        -6.3235
 263   0.0000      -0.142006        -3.8642
 264   0.0000      -0.091999        -2.5034
 265   0.0000      -0.081386        -2.2146
 266   0.0000      -0.061357        -1.6696
 267   0.0000      -0.044815        -1.2195

MULLIKEN ATOMIC CHARGES
-----------------------
   0 C :    0.039938
   1 N :   -0.255749
   2 C :    0.109071
   3 C :   -0.000488
   4 C :    0.182035
   5 O :   -0.220687
   6 C :   -0.113072
   7 C :    0.004801
   8 C :    0.165263
   9 O :   -0.182340
  10 N :   -0.274543
  11 C :    0.093430
  12 C :    0.009351
  13 C :    0.151553
  14 C :   -0.082811
  15 C :    0.068647
  16 C :   -0.154883
  17 S :    0.195109
  18 C :   -0.141804
  19 C :   -0.044682
  20 C :    0.134603
  21 O :   -0.216567
  22 C :    0.163750
  23 O :   -0.175846
  24 O :   -0.143861
  25 C :    0.045684
  26 C :    0.017840
  27 C :    0.007322
  28 C :    0.094097
  29 N :    0.270659
  30 O :   -0.244481
  31 O :   -0.235515
  32 C :    0.032828
  33 C :   -0.016329
  34 C :    0.018926
  35 C :    0.032985
  36 C :   -0.021142
  37 C :    0.022527
  38 C :    0.060689
  39 N :    0.293151
  40 O :   -0.235315
  41 O :   -0.305278
  42 C :    0.064555
  43 C :   -0.105709
  44 C :    0.050828
  45 C :   -0.180419
  46 S :    0.185138
  47 C :   -0.114883
  48 C :   -0.056444
  49 C :    0.161896
  50 O :   -0.228672
  51 C :    0.160183
  52 O :   -0.191614
  53 O :   -0.145954
  54 C :    0.046257
  55 C :    0.023645
  56 C :    0.106707
  57 N :   -0.256323
  58 C :    0.099406
  59 C :   -0.004855
  60 C :    0.161576
  61 O :   -0.206751
  62 C :   -0.066217
  63 C :   -0.062287
  64 C :    0.163718
  65 O :   -0.211730
  66 N :   -0.257191
  67 C :    0.100422
  68 C :    0.003585
  69 C :    0.108518
  70 C :   -0.036766
  71 C :    0.014431
  72 H :    0.017339
  73 H :    0.021105
  74 H :    0.043443
  75 H :    0.015657
  76 H :    0.025495
  77 H :    0.030625
  78 H :    0.047683
  79 H :    0.024671
  80 H :    0.036835
  81 H :    0.027024
  82 H :   -0.005943
  83 H :   -0.031219
  84 H :    0.019076
  85 H :    0.203326
  86 H :    0.181845
  87 H :    0.017595
  88 H :    0.032508
  89 H :    0.010264
  90 H :    0.004016
  91 H :    0.005685
  92 H :    0.004982
  93 H :    0.022167
  94 H :    0.018837
  95 H :    0.217925
  96 H :    0.188340
  97 H :    0.008304
  98 H :   -0.005035
  99 H :    0.038550
 100 H :    0.023493
 101 H :    0.016512
 102 H :    0.019961
 103 H :    0.042454
 104 H :    0.024007
 105 H :    0.042307
 106 H :    0.017220
 107 H :    0.022682
 108 H :    0.028402
 109 H :   -0.020369
 110 H :    0.058664
 111 H :    0.029648
Sum of atomic charges:   -0.0000000

LOEWDIN ATOMIC CHARGES
----------------------
   0 C :    0.089950
   1 N :    0.003473
   2 C :    0.038621
   3 C :   -0.059801
   4 C :    0.076295
   5 O :   -0.208514
   6 C :   -0.135025
   7 C :   -0.128174
   8 C :    0.082720
   9 O :   -0.186978
  10 N :   -0.010900
  11 C :    0.034769
  12 C :   -0.060919
  13 C :    0.083232
  14 C :   -0.079392
  15 C :    0.015555
  16 C :   -0.226693
  17 S :    0.492346
  18 C :   -0.123386
  19 C :   -0.134037
  20 C :    0.039223
  21 O :   -0.038675
  22 C :    0.078190
  23 O :   -0.154185
  24 O :   -0.020165
  25 C :   -0.020219
  26 C :    0.013817
  27 C :    0.007641
  28 C :   -0.039050
  29 N :    0.285036
  30 O :   -0.208096
  31 O :   -0.202979
  32 C :    0.026068
  33 C :   -0.045514
  34 C :    0.048561
  35 C :    0.028358
  36 C :   -0.047820
  37 C :    0.009891
  38 C :   -0.060085
  39 N :    0.296054
  40 O :   -0.199725
  41 O :   -0.251714
  42 C :    0.017811
  43 C :   -0.052929
  44 C :   -0.004776
  45 C :   -0.238752
  46 S :    0.486598
  47 C :   -0.110685
  48 C :   -0.142375
  49 C :    0.048323
  50 O :   -0.025828
  51 C :    0.085667
  52 O :   -0.172710
  53 O :   -0.021606
  54 C :   -0.021622
  55 C :   -0.003662
  56 C :    0.070388
  57 N :    0.003415
  58 C :    0.036337
  59 C :   -0.062680
  60 C :    0.079883
  61 O :   -0.199135
  62 C :   -0.125015
  63 C :   -0.116584
  64 C :    0.080640
  65 O :   -0.200844
  66 N :    0.001372
  67 C :    0.036603
  68 C :   -0.060996
  69 C :    0.081087
  70 C :   -0.055678
  71 C :    0.026644
  72 H :    0.033640
  73 H :    0.025637
  74 H :    0.036735
  75 H :    0.022827
  76 H :    0.031348
  77 H :    0.031675
  78 H :    0.039944
  79 H :    0.022067
  80 H :    0.035294
  81 H :    0.031850
  82 H :    0.013616
  83 H :    0.020717
  84 H :    0.041344
  85 H :    0.097162
  86 H :    0.074834
  87 H :    0.032744
  88 H :    0.040640
  89 H :    0.041215
  90 H :    0.031625
  91 H :    0.031645
  92 H :    0.039249
  93 H :    0.030230
  94 H :    0.034848
  95 H :    0.094582
  96 H :    0.069033
  97 H :    0.033772
  98 H :    0.032752
  99 H :    0.035081
 100 H :    0.023421
 101 H :    0.027090
 102 H :    0.030872
 103 H :    0.029158
 104 H :    0.023142
 105 H :    0.037086
 106 H :    0.022745
 107 H :    0.030345
 108 H :    0.031797
 109 H :    0.028984
 110 H :    0.033296
 111 H :    0.029313

  Mayer bond orders larger than 0.100000
B(  0-C ,  1-N ) :   1.1920 B(  0-C ,  7-C ) :   1.4558 B(  0-C , 72-H ) :   0.9903
B(  1-N ,  2-C ) :   0.9400 B(  1-N ,  4-C ) :   1.0630 B(  2-C ,  3-C ) :   1.1194
B(  2-C , 73-H ) :   0.9538 B(  2-C , 74-H ) :   0.9347 B(  3-C , 75-H ) :   0.9691
B(  3-C , 76-H ) :   0.9689 B(  3-C , 77-H ) :   0.9671 B(  4-C ,  5-O ) :   1.9994
B(  4-C ,  6-C ) :   1.0083 B(  5-O , 84-H ) :   0.1249 B(  6-C ,  7-C ) :   1.2064
B(  6-C , 13-C ) :   1.3795 B(  7-C ,  8-C ) :   0.9518 B(  8-C ,  9-O ) :   2.1786
B(  8-C , 10-N ) :   1.0105 B( 10-N , 11-C ) :   0.9484 B( 10-N , 13-C ) :   1.1557
B( 11-C , 12-C ) :   1.1183 B( 11-C , 78-H ) :   0.9266 B( 11-C , 79-H ) :   0.9508
B( 12-C , 80-H ) :   0.9637 B( 12-C , 81-H ) :   0.9682 B( 12-C , 82-H ) :   0.9674
B( 13-C , 14-C ) :   1.1742 B( 14-C , 15-C ) :   1.5994 B( 14-C , 83-H ) :   0.9488
B( 15-C , 16-C ) :   1.1309 B( 15-C , 84-H ) :   0.9198 B( 16-C , 17-S ) :   1.1033
B( 16-C , 18-C ) :   0.1036 B( 16-C , 20-C ) :   1.4219 B( 17-S , 18-C ) :   1.1799
B( 18-C , 19-C ) :   1.4374 B( 18-C , 25-C ) :   1.1662 B( 19-C , 20-C ) :   1.2688
B( 19-C , 22-C ) :   0.8835 B( 20-C , 21-O ) :   1.1885 B( 21-O , 85-H ) :   0.9311
B( 22-C , 23-O ) :   2.1626 B( 22-C , 24-O ) :   1.2804 B( 24-O , 86-H ) :   0.9314
B( 25-C , 26-C ) :   1.5922 B( 25-C , 87-H ) :   0.9324 B( 26-C , 27-C ) :   1.2278
B( 26-C , 88-H ) :   0.9420 B( 27-C , 28-C ) :   1.5032 B( 27-C , 34-C ) :   0.9876
B( 28-C , 29-N ) :   0.9404 B( 28-C , 32-C ) :   1.1428 B( 29-N , 30-O ) :   1.5321
B( 29-N , 31-O ) :   1.5138 B( 30-O , 31-O ) :   0.2667 B( 32-C , 33-C ) :   1.5534
B( 32-C , 89-H ) :   1.0117 B( 33-C , 34-C ) :   1.1542 B( 33-C , 90-H ) :   1.0027
B( 34-C , 35-C ) :   1.4887 B( 35-C , 36-C ) :   1.1256 B( 35-C , 42-C ) :   1.0515
B( 36-C , 37-C ) :   1.5910 B( 36-C , 91-H ) :   1.0000 B( 37-C , 38-C ) :   1.1167
B( 37-C , 92-H ) :   1.0153 B( 38-C , 39-N ) :   0.9801 B( 38-C , 42-C ) :   1.4880
B( 39-N , 40-O ) :   1.5454 B( 39-N , 41-O ) :   1.4169 B( 40-O , 41-O ) :   0.2399
B( 42-C , 43-C ) :   1.1710 B( 43-C , 44-C ) :   1.6361 B( 43-C , 93-H ) :   0.9308
B( 44-C , 45-C ) :   1.1396 B( 44-C , 94-H ) :   0.9543 B( 45-C , 46-S ) :   1.0794
B( 45-C , 49-C ) :   1.4265 B( 46-S , 47-C ) :   1.1893 B( 47-C , 48-C ) :   1.4184
B( 47-C , 54-C ) :   1.1617 B( 48-C , 49-C ) :   1.2438 B( 48-C , 51-C ) :   0.8911
B( 49-C , 50-O ) :   1.1958 B( 50-O , 95-H ) :   0.8993 B( 51-C , 52-O ) :   2.0824
B( 51-C , 53-O ) :   1.3145 B( 53-O , 96-H ) :   0.9145 B( 54-C , 55-C ) :   1.6181
B( 54-C , 97-H ) :   0.9180 B( 55-C , 56-C ) :   1.1906 B( 55-C , 98-H ) :   0.9436
B( 56-C , 57-N ) :   1.1630 B( 56-C , 63-C ) :   1.3248 B( 57-N , 58-C ) :   0.9405
B( 57-N , 60-C ) :   1.0599 B( 58-C , 59-C ) :   1.1216 B( 58-C , 99-H ) :   0.9277
B( 58-C ,100-H ) :   0.9486 B( 59-C ,101-H ) :   0.9614 B( 59-C ,102-H ) :   0.9657
B( 59-C ,103-H ) :   0.9615 B( 60-C , 61-O ) :   2.0474 B( 60-C , 62-C ) :   0.9811
B( 62-C , 63-C ) :   1.2497 B( 62-C , 69-C ) :   1.3618 B( 63-C , 64-C ) :   0.9928
B( 64-C , 65-O ) :   2.0194 B( 64-C , 66-N ) :   1.0539 B( 65-O , 97-H ) :   0.1126
B( 66-N , 67-C ) :   0.9475 B( 66-N , 69-C ) :   1.1726 B( 67-C , 68-C ) :   1.1188
B( 67-C ,104-H ) :   0.9508 B( 67-C ,105-H ) :   0.9285 B( 68-C ,106-H ) :   0.9689
B( 68-C ,107-H ) :   0.9680 B( 68-C ,108-H ) :   0.9642 B( 69-C , 70-C ) :   1.1318
B( 70-C , 71-C ) :   1.8826 B( 70-C ,109-H ) :   0.9527 B( 71-C ,110-H ) :   0.9261
B( 71-C ,111-H ) :   0.9448

-----------------------------------------------------------------------------
         ABSORPTION SPECTRUM VIA TRANSITION ELECTRIC DIPOLE MOMENTS
-----------------------------------------------------------------------------
State   Energy  Wavelength   fosc         T2         TX        TY        TZ
        (cm-1)    (nm)                  (au**2)     (au)      (au)      (au)
-----------------------------------------------------------------------------
   0    7429.8   1345.9   0.322814155  14.30370  -1.44644   3.24704   1.29159
   1   10165.9    983.7   0.094850888   3.07165  -1.60072   0.47179  -0.53549
   2   13550.8    738.0   0.055513935   1.34869  -0.93164   0.04969   0.69158
   3   15466.5    646.6   0.019067893   0.40587   0.52649  -0.03777  -0.35673
   4   16804.5    595.1   0.516569283  10.11996   0.99095  -1.31868  -2.72012
   5   20030.8    499.2   0.497376258   8.17452  -2.62745  -0.09865   1.12308
   6   20937.6    477.6   0.135606789   2.13221   0.66868  -1.23967  -0.38508
   7   21955.3    455.5   0.003106325   0.04658   0.00139   0.04733  -0.21056
   8   23631.4    423.2   0.146497898   2.04088  -1.21997   0.74260  -0.03318
   9   24689.3    405.0   0.075811430   1.01088  -0.00709  -0.17642  -0.98980
  10   24858.1    402.3   0.372076318   4.92765  -0.48366   2.16639  -0.02139
  11   25097.0    398.5   0.027593289   0.36196  -0.34603   0.47167  -0.14050
  12   25662.2    389.7   0.003504262   0.04496  -0.07791  -0.09675   0.17183
  13   26099.9    383.1   0.161938526   2.04262   0.63133  -1.04689  -0.74031
  14   26186.7    381.9   0.109550266   1.37723   1.01098  -0.26533  -0.53361
  15   26361.5    379.3   0.040305109   0.50335  -0.41821   0.37500   0.43338
  16   26669.4    375.0   0.016913141   0.20878  -0.40270  -0.12104   0.17878
  17   27429.9    364.6   0.008154505   0.09787   0.03976   0.25828  -0.17198
  18   27892.8    358.5   0.028995713   0.34223   0.41308  -0.35236  -0.21779
  19   27990.1    357.3   0.119856664   1.40972  -0.72274   0.44714   0.82912
  20   28173.0    354.9   0.083005098   0.96994  -0.59577  -0.07124   0.78098
  21   28258.8    353.9   0.069674325   0.81170   0.55982   0.30980  -0.63429
  22   28656.0    349.0   0.070262208   0.80720   0.39456  -0.77980  -0.20843
  23   28928.8    345.7   0.063011246   0.71707  -0.32864   0.56895   0.53419
  24   29371.5    340.5   0.142995181   1.60277  -0.71319   0.99292   0.32900
  25   29466.3    339.4   0.017996089   0.20106  -0.26909   0.35822  -0.01821
  26   29570.2    338.2   0.113100344   1.25917   0.80974   0.41043  -0.65958
  27   30220.1    330.9   0.042556431   0.46360   0.48570   0.06262  -0.47305
  28   30607.7    326.7   0.027223967   0.29282  -0.29645  -0.16300   0.42234
  29   31008.4    322.5   0.037186517   0.39480  -0.18732  -0.49718   0.33544
  30   31075.2    321.8   0.157041555   1.66371   0.84198   0.14060  -0.96696
  31   31284.9    319.6   0.108245756   1.13907  -0.72746   0.33751   0.70425
  32   31724.8    315.2   0.000244284   0.00253   0.04858  -0.00628   0.01166
  33   32069.5    311.8   0.004890811   0.05021   0.12577  -0.16261  -0.08915
  34   32246.6    310.1   0.020014074   0.20433   0.11293   0.24854  -0.36028
  35   32335.3    309.3   0.002155089   0.02194  -0.10606  -0.06786   0.07803
  36   32567.0    307.1   0.084661932   0.85583  -0.71173   0.22599   0.54607
  37   33332.2    300.0   0.006240770   0.06164   0.01840   0.21647  -0.12016
  38   33767.5    296.1   0.132428740   1.29110  -0.46283  -0.90523   0.50739
  39   33884.9    295.1   0.060378675   0.58661  -0.19207  -0.63167   0.38822
  40   34019.0    294.0   0.226603049   2.19290  -0.35314  -1.23534   0.73630
  41   34076.6    293.5   0.003124106   0.03018  -0.13475  -0.04096   0.10171
  42   34245.5    292.0   0.025236728   0.24261  -0.00416   0.31965  -0.37472
  43   34704.4    288.1   0.022906595   0.21730  -0.44522  -0.02815   0.13522
  44   34838.2    287.0   0.037954807   0.35866  -0.13214   0.45263   0.36923
  45   35118.4    284.8   0.089037063   0.83466   0.41369  -0.12606  -0.80476
  46   35445.5    282.1   0.021383773   0.19861   0.03872  -0.29654  -0.33042
  47   35612.4    280.8   0.001443805   0.01335  -0.03526   0.10045   0.04486
  48   35694.2    280.2   0.010012293   0.09234   0.20776   0.12032  -0.18629
  49   35910.8    278.5   0.007638357   0.07002   0.01764   0.15205   0.21586
  50   36117.2    276.9   0.006204103   0.05655   0.07860   0.22350   0.02054
  51   36399.2    274.7   0.059121655   0.53473  -0.28512  -0.55479   0.38163
  52   36555.3    273.6   0.063663094   0.57334  -0.17404  -0.41880   0.60634
  53   36884.4    271.1   0.044221216   0.39470   0.41234  -0.39804  -0.25737
  54   37011.7    270.2   0.051065838   0.45422  -0.09896   0.65906  -0.10032
  55   37115.1    269.4   0.087616287   0.77716  -0.42946   0.28072   0.71688
  56   37554.8    266.3   0.074704721   0.65487   0.45011  -0.67046   0.05249
  57   37614.6    265.9   0.028583596   0.25017  -0.04365  -0.10009   0.48810
  58   37926.3    263.7   0.024967645   0.21673  -0.29384  -0.25559   0.25507
  59   37969.8    263.4   0.011687764   0.10134  -0.02206   0.30898  -0.07338
  60   38343.8    260.8   0.054000826   0.46364   0.28143  -0.61993  -0.01142
  61   38606.9    259.0   0.015686220   0.13376  -0.23534   0.25792  -0.10886
  62   38657.7    258.7   0.055997094   0.47688  -0.33688   0.59020   0.12269
  63   39045.4    256.1   0.009734132   0.08207  -0.20426   0.02904   0.19876
  64   39244.1    254.8   0.004080954   0.03423  -0.03362  -0.00044   0.18194
  65   39509.1    253.1   0.021488899   0.17906   0.08729  -0.26843  -0.31525
  66   39801.1    251.2   0.012619823   0.10438   0.08053   0.08453  -0.30125
  67   39981.2    250.1   0.002489841   0.02050  -0.05024   0.12199  -0.05565

FINAL SINGLE POINT ENERGY     -4102.926588769729

DIPOLE MOMENT
-------------
                                X             Y             Z
Electronic contribution:    -13.93985     -19.06167     -12.11837
Nuclear contribution   :     15.17506      17.08053      11.52415
                        -----------------------------------------
Total Dipole Moment    :      1.23521      -1.98114      -0.59423
                        -----------------------------------------
Magnitude (a.u.)       :      2.40910
Magnitude (Debye)      :      6.12345

Rotational constants in cm-1:     0.001433     0.000276     0.000253
Rotational constants in MHz :    42.968910     8.261695     7.578732

                             ****ORCA TERMINATED NORMALLY****
TOTAL RUN TIME: 0 days 0 hours 12 minutes 40 seconds 151 msec
