                         Program Version 4.2.0 -  RELEASE  -
|  1> # ORCA input file
|  2> # SCF done       -172.274402484964          0.000813601946
|  3> ! CAM-B3LYP def2-SVP def2/J RIJCOSX Grid4 TightSCF
|  4> %maxcore 5000
|  5> %tddft
|  6>     Mode sTDDFT
|  7>     Ethresh 5.0
|  8>     maxcore 5000
|  9> end
| 10>
| 11> %pal
| 12>   nprocs 6
| 13>   end
| 14> * xyz 0 1
| 15>    C        0.00360        -1.05970        -3.27448
| 16>    C        1.05002        -0.16324        -3.41382
| 17>    C        1.86577        -0.26452        -4.54263
| 18>    C        2.94831         0.63618        -4.70034
| 19>    N        3.82433         1.36247        -4.82459
| 20>    C        1.63630        -1.24674        -5.52526
| 21>    C        2.48098        -1.32578        -6.65838
| 22>    N        3.15388        -1.40934        -7.58121
| 23>    C        0.58104        -2.14844        -5.37922
| 24>    C       -0.21203        -2.04244        -4.25686
| 25>    C       -1.36360        -2.89278        -3.87237
| 26>    O       -1.81740        -3.79461        -4.54309
| 27>    C       -1.77935        -2.41142        -2.53858
| 28>    C       -1.00711        -1.22033        -2.22934
| 29>    C       -1.21866        -0.34063        -1.20119
| 30>    C       -0.43829         0.81511        -0.97956
| 31>    N        0.16216         1.76524        -0.74893
| 32>    C       -2.26170        -0.42159        -0.25212
| 33>    N       -3.09152        -0.39948         0.54068
| 34>    C       -2.61491        -3.02320        -1.63745
| 35>    C       -3.43489        -4.15701        -1.75823
| 36>    C       -3.84438        -4.90589        -2.85630
| 37>    C       -4.65917        -5.96403        -2.49093
| 38>    C       -4.89725        -6.05522        -1.10345
| 39>    S       -4.11778        -4.78235        -0.24884
| 40>    C       -5.67182        -7.14714        -0.73911
| 41>    C       -6.04313        -7.90260        -1.84264
| 42>    S       -5.45203        -7.24624        -3.35248
| 43>    C       -6.77741        -9.11889        -1.82522
| 44>    C       -7.10067        -9.78509        -3.03287
| 45>    C       -7.76108       -11.05690        -3.08333
| 46>    N       -8.02486       -11.60738        -4.28603
| 47>    C       -7.66851       -10.97515        -5.36826
| 48>    C       -7.00810        -9.73049        -5.31817
| 49>    N       -6.74371        -9.16943        -4.17404
| 50>    C       -8.11875       -11.74311        -1.89266
| 51>    C       -7.83727       -11.05732        -0.69212
| 52>    C       -7.18937        -9.76884        -0.64440
| 53>    N       -7.03604        -9.34708         0.61423
| 54>    S       -7.63812       -10.43856         1.61954
| 55>    N       -8.12010       -11.50937         0.53141
| 56>    C       -8.68783       -13.04788        -1.85470
| 57>    C       -9.04819       -13.85426        -2.92360
| 58>    C       -9.52518       -15.08778        -2.50250
| 59>    C       -9.53819       -15.24742        -1.10264
| 60>    S       -8.95852       -13.82848        -0.30458
| 61>    C      -10.01395       -16.47884        -0.68225
| 62>    C      -10.37194       -17.29439        -1.75002
| 63>    S      -10.08919       -16.50521        -3.29802
| 64>    C      -10.82389       -18.62636        -1.75665
| 65>    C      -11.31498       -19.39512        -0.73810
| 66>    C      -11.28546       -20.87304        -0.88898
| 67>    O      -11.06515       -21.50038        -1.89728
| 68>    C      -11.52850       -21.40574         0.47306
| 69>    C      -11.48646       -22.71355         0.90611
| 70>    C      -11.71221       -22.96563         2.26091
| 71>    C      -11.96871       -21.90104         3.14574
| 72>    C      -12.02214       -20.58065         2.69346
| 73>    C      -11.80565       -20.33765         1.34866
| 74>    C      -11.82381       -19.09145         0.57798
| 75>    C      -12.45868       -17.94117         0.96969
| 76>    C      -12.70349       -16.85624         0.10350
| 77>    N      -12.95055       -15.96761        -0.57871
| 78>    C      -13.01411       -17.74529         2.25107
| 79>    N      -13.46061       -17.53301         3.28647
| 80>    C      -12.17123       -22.17251         4.52172
| 81>    N      -12.33053       -22.38137         5.63593
| 82>    C      -11.67477       -24.29458         2.74779
| 83>    N      -11.63915       -25.37592         3.12273
| 84>    H        1.26051         0.59938        -2.68124
| 85>    H        0.39237        -2.91020        -6.12043
| 86>    H       -2.62442        -2.59878        -0.63974
| 87>    H       -3.54370        -4.68300        -3.86255
| 88>    H       -5.95637        -7.40661         0.26308
| 89>    H       -7.90787       -11.45202        -6.30868
| 90>    H       -6.70569        -9.19959        -6.20907
| 91>    H       -8.95292       -13.53496        -3.94341
| 92>    H      -10.04773       -16.79166         0.34516
| 93>    H      -10.69443       -19.16026        -2.69386
| 94>    H      -11.28290       -23.51952         0.21759
| 95>    H      -12.21737       -19.78841         3.39904
| 96> *
| 97>
| 98>                          ****END OF INPUT****

CARTESIAN COORDINATES (ANGSTROEM)
---------------------------------
  C      0.003600   -1.059700   -3.274480
  C      1.050020   -0.163240   -3.413820
  C      1.865770   -0.264520   -4.542630
  C      2.948310    0.636180   -4.700340
  N      3.824330    1.362470   -4.824590
  C      1.636300   -1.246740   -5.525260
  C      2.480980   -1.325780   -6.658380
  N      3.153880   -1.409340   -7.581210
  C      0.581040   -2.148440   -5.379220
  C     -0.212030   -2.042440   -4.256860
  C     -1.363600   -2.892780   -3.872370
  O     -1.817400   -3.794610   -4.543090
  C     -1.779350   -2.411420   -2.538580
  C     -1.007110   -1.220330   -2.229340
  C     -1.218660   -0.340630   -1.201190
  C     -0.438290    0.815110   -0.979560
  N      0.162160    1.765240   -0.748930
  C     -2.261700   -0.421590   -0.252120
  N     -3.091520   -0.399480    0.540680
  C     -2.614910   -3.023200   -1.637450
  C     -3.434890   -4.157010   -1.758230
  C     -3.844380   -4.905890   -2.856300
  C     -4.659170   -5.964030   -2.490930
  C     -4.897250   -6.055220   -1.103450
  S     -4.117780   -4.782350   -0.248840
  C     -5.671820   -7.147140   -0.739110
  C     -6.043130   -7.902600   -1.842640
  S     -5.452030   -7.246240   -3.352480
  C     -6.777410   -9.118890   -1.825220
  C     -7.100670   -9.785090   -3.032870
  C     -7.761080  -11.056900   -3.083330
  N     -8.024860  -11.607380   -4.286030
  C     -7.668510  -10.975150   -5.368260
  C     -7.008100   -9.730490   -5.318170
  N     -6.743710   -9.169430   -4.174040
  C     -8.118750  -11.743110   -1.892660
  C     -7.837270  -11.057320   -0.692120
  C     -7.189370   -9.768840   -0.644400
  N     -7.036040   -9.347080    0.614230
  S     -7.638120  -10.438560    1.619540
  N     -8.120100  -11.509370    0.531410
  C     -8.687830  -13.047880   -1.854700
  C     -9.048190  -13.854260   -2.923600
  C     -9.525180  -15.087780   -2.502500
  C     -9.538190  -15.247420   -1.102640
  S     -8.958520  -13.828480   -0.304580
  C    -10.013950  -16.478840   -0.682250
  C    -10.371940  -17.294390   -1.750020
  S    -10.089190  -16.505210   -3.298020
  C    -10.823890  -18.626360   -1.756650
  C    -11.314980  -19.395120   -0.738100
  C    -11.285460  -20.873040   -0.888980
  O    -11.065150  -21.500380   -1.897280
  C    -11.528500  -21.405740    0.473060
  C    -11.486460  -22.713550    0.906110
  C    -11.712210  -22.965630    2.260910
  C    -11.968710  -21.901040    3.145740
  C    -12.022140  -20.580650    2.693460
  C    -11.805650  -20.337650    1.348660
  C    -11.823810  -19.091450    0.577980
  C    -12.458680  -17.941170    0.969690
  C    -12.703490  -16.856240    0.103500
  N    -12.950550  -15.967610   -0.578710
  C    -13.014110  -17.745290    2.251070
  N    -13.460610  -17.533010    3.286470
  C    -12.171230  -22.172510    4.521720
  N    -12.330530  -22.381370    5.635930
  C    -11.674770  -24.294580    2.747790
  N    -11.639150  -25.375920    3.122730
  H      1.260510    0.599380   -2.681240
  H      0.392370   -2.910200   -6.120430
  H     -2.624420   -2.598780   -0.639740
  H     -3.543700   -4.683000   -3.862550
  H     -5.956370   -7.406610    0.263080
  H     -7.907870  -11.452020   -6.308680
  H     -6.705690   -9.199590   -6.209070
  H     -8.952920  -13.534960   -3.943410
  H    -10.047730  -16.791660    0.345160
  H    -10.694430  -19.160260   -2.693860
  H    -11.282900  -23.519520    0.217590
  H    -12.217370  -19.788410    3.399040

 Total Charge           Charge          ....    0
 Multiplicity           Mult            ....    1
 Number of Electrons    NEL             ....  492
 Basis Dimension        Dim             .... 1046

ORBITAL ENERGIES
----------------

  NO   OCC          E(Eh)            E(eV)
   0   2.0000     -89.065065     -2423.5836
   1   2.0000     -88.982563     -2421.3386
   2   2.0000     -88.978349     -2421.2240
   3   2.0000     -88.976330     -2421.1690
   4   2.0000     -88.974090     -2421.1081
   5   2.0000     -19.240040      -523.5481
   6   2.0000     -19.237597      -523.4816
   7   2.0000     -14.472421      -393.8146
   8   2.0000     -14.472053      -393.8046
   9   2.0000     -14.464436      -393.5973
  10   2.0000     -14.461008      -393.5040
  11   2.0000     -14.434669      -392.7873
  12   2.0000     -14.433958      -392.7680
  13   2.0000     -14.431430      -392.6992
  14   2.0000     -14.430232      -392.6666
  15   2.0000     -14.429854      -392.6563
  16   2.0000     -14.429830      -392.6556
  17   2.0000     -14.429006      -392.6332
  18   2.0000     -14.427168      -392.5832
  19   2.0000     -10.391245      -282.7601
  20   2.0000     -10.388861      -282.6953
  21   2.0000     -10.366100      -282.0759
  22   2.0000     -10.363776      -282.0127
  23   2.0000     -10.362483      -281.9775
  24   2.0000     -10.362055      -281.9659
  25   2.0000     -10.361288      -281.9450
  26   2.0000     -10.360957      -281.9360
  27   2.0000     -10.359668      -281.9009
  28   2.0000     -10.359616      -281.8995
  29   2.0000     -10.359510      -281.8966
  30   2.0000     -10.359431      -281.8944
  31   2.0000     -10.359268      -281.8900
  32   2.0000     -10.358975      -281.8820
  33   2.0000     -10.357357      -281.8380
  34   2.0000     -10.357218      -281.8342
  35   2.0000     -10.342536      -281.4347
  36   2.0000     -10.340663      -281.3838
  37   2.0000     -10.340159      -281.3700
  38   2.0000     -10.339084      -281.3408
  39   2.0000     -10.338679      -281.3298
  40   2.0000     -10.337054      -281.2855
  41   2.0000     -10.336459      -281.2693
  42   2.0000     -10.336384      -281.2673
  43   2.0000     -10.336338      -281.2660
  44   2.0000     -10.336203      -281.2624
  45   2.0000     -10.335572      -281.2452
  46   2.0000     -10.334644      -281.2200
  47   2.0000     -10.333788      -281.1967
  48   2.0000     -10.333709      -281.1945
  49   2.0000     -10.333366      -281.1852
  50   2.0000     -10.333193      -281.1805
  51   2.0000     -10.331724      -281.1405
  52   2.0000     -10.331573      -281.1364
  53   2.0000     -10.327532      -281.0264
  54   2.0000     -10.327324      -281.0208
  55   2.0000     -10.326854      -281.0080
  56   2.0000     -10.326221      -280.9907
  57   2.0000     -10.326214      -280.9906
  58   2.0000     -10.325682      -280.9761
  59   2.0000     -10.324375      -280.9405
  60   2.0000     -10.323573      -280.9187
  61   2.0000     -10.320782      -280.8428
  62   2.0000     -10.319871      -280.8180
  63   2.0000     -10.315831      -280.7080
  64   2.0000     -10.315563      -280.7007
  65   2.0000     -10.311497      -280.5901
  66   2.0000     -10.308250      -280.5018
  67   2.0000     -10.302150      -280.3357
  68   2.0000     -10.301441      -280.3165
  69   2.0000      -8.156109      -221.9390
  70   2.0000      -8.078019      -219.8141
  71   2.0000      -8.073814      -219.6996
  72   2.0000      -8.070484      -219.6090
  73   2.0000      -8.067140      -219.5180
  74   2.0000      -6.127160      -166.7285
  75   2.0000      -6.119317      -166.5151
  76   2.0000      -6.119009      -166.5067
  77   2.0000      -6.047458      -164.5597
  78   2.0000      -6.043502      -164.4520
  79   2.0000      -6.043188      -164.4435
  80   2.0000      -6.040208      -164.3624
  81   2.0000      -6.039617      -164.3463
  82   2.0000      -6.039342      -164.3389
  83   2.0000      -6.036986      -164.2747
  84   2.0000      -6.035819      -164.2430
  85   2.0000      -6.035410      -164.2318
  86   2.0000      -6.032381      -164.1494
  87   2.0000      -6.031902      -164.1364
  88   2.0000      -6.028694      -164.0491
  89   2.0000      -1.161810       -31.6144
  90   2.0000      -1.155282       -31.4368
  91   2.0000      -1.153430       -31.3864
  92   2.0000      -1.121262       -30.5111
  93   2.0000      -1.047957       -28.5164
  94   2.0000      -1.045753       -28.4564
  95   2.0000      -1.042763       -28.3750
  96   2.0000      -1.033784       -28.1307
  97   2.0000      -1.029611       -28.0172
  98   2.0000      -1.028418       -27.9847
  99   2.0000      -1.026762       -27.9396
 100   2.0000      -1.015796       -27.6412
 101   2.0000      -1.013432       -27.5769
 102   2.0000      -1.012117       -27.5411
 103   2.0000      -1.011418       -27.5221
 104   2.0000      -1.009363       -27.4662
 105   2.0000      -1.008811       -27.4512
 106   2.0000      -1.007337       -27.4110
 107   2.0000      -0.996602       -27.1189
 108   2.0000      -0.982560       -26.7368
 109   2.0000      -0.980081       -26.6694
 110   2.0000      -0.969944       -26.3935
 111   2.0000      -0.961000       -26.1501
 112   2.0000      -0.928916       -25.2771
 113   2.0000      -0.925849       -25.1936
 114   2.0000      -0.918592       -24.9961
 115   2.0000      -0.911440       -24.8015
 116   2.0000      -0.906281       -24.6612
 117   2.0000      -0.904545       -24.6139
 118   2.0000      -0.903596       -24.5881
 119   2.0000      -0.895311       -24.3626
 120   2.0000      -0.882258       -24.0075
 121   2.0000      -0.877362       -23.8742
 122   2.0000      -0.858480       -23.3604
 123   2.0000      -0.848204       -23.0808
 124   2.0000      -0.828711       -22.5504
 125   2.0000      -0.824812       -22.4443
 126   2.0000      -0.821017       -22.3410
 127   2.0000      -0.812304       -22.1039
 128   2.0000      -0.809939       -22.0396
 129   2.0000      -0.808035       -21.9878
 130   2.0000      -0.792963       -21.5776
 131   2.0000      -0.777150       -21.1473
 132   2.0000      -0.765308       -20.8251
 133   2.0000      -0.756437       -20.5837
 134   2.0000      -0.750010       -20.4088
 135   2.0000      -0.738146       -20.0860
 136   2.0000      -0.735180       -20.0053
 137   2.0000      -0.717618       -19.5274
 138   2.0000      -0.714199       -19.4343
 139   2.0000      -0.709234       -19.2992
 140   2.0000      -0.698075       -18.9956
 141   2.0000      -0.688781       -18.7427
 142   2.0000      -0.687841       -18.7171
 143   2.0000      -0.680965       -18.5300
 144   2.0000      -0.673603       -18.3297
 145   2.0000      -0.670173       -18.2363
 146   2.0000      -0.667855       -18.1733
 147   2.0000      -0.662139       -18.0177
 148   2.0000      -0.658305       -17.9134
 149   2.0000      -0.657255       -17.8848
 150   2.0000      -0.650910       -17.7122
 151   2.0000      -0.641071       -17.4444
 152   2.0000      -0.635782       -17.3005
 153   2.0000      -0.617322       -16.7982
 154   2.0000      -0.616494       -16.7757
 155   2.0000      -0.609521       -16.5859
 156   2.0000      -0.606750       -16.5105
 157   2.0000      -0.602565       -16.3966
 158   2.0000      -0.597711       -16.2645
 159   2.0000      -0.594498       -16.1771
 160   2.0000      -0.590728       -16.0745
 161   2.0000      -0.589973       -16.0540
 162   2.0000      -0.583134       -15.8679
 163   2.0000      -0.578388       -15.7387
 164   2.0000      -0.571310       -15.5461
 165   2.0000      -0.568658       -15.4740
 166   2.0000      -0.566677       -15.4201
 167   2.0000      -0.564058       -15.3488
 168   2.0000      -0.562473       -15.3057
 169   2.0000      -0.561471       -15.2784
 170   2.0000      -0.558887       -15.2081
 171   2.0000      -0.553696       -15.0668
 172   2.0000      -0.546023       -14.8580
 173   2.0000      -0.539081       -14.6691
 174   2.0000      -0.536455       -14.5977
 175   2.0000      -0.532499       -14.4900
 176   2.0000      -0.529646       -14.4124
 177   2.0000      -0.527814       -14.3625
 178   2.0000      -0.526590       -14.3293
 179   2.0000      -0.525055       -14.2875
 180   2.0000      -0.521887       -14.2013
 181   2.0000      -0.516895       -14.0654
 182   2.0000      -0.514808       -14.0086
 183   2.0000      -0.512086       -13.9346
 184   2.0000      -0.510897       -13.9022
 185   2.0000      -0.505044       -13.7429
 186   2.0000      -0.503003       -13.6874
 187   2.0000      -0.499460       -13.5910
 188   2.0000      -0.499088       -13.5809
 189   2.0000      -0.490544       -13.3484
 190   2.0000      -0.489815       -13.3286
 191   2.0000      -0.489088       -13.3088
 192   2.0000      -0.478854       -13.0303
 193   2.0000      -0.475569       -12.9409
 194   2.0000      -0.473869       -12.8946
 195   2.0000      -0.468870       -12.7586
 196   2.0000      -0.466388       -12.6911
 197   2.0000      -0.463283       -12.6066
 198   2.0000      -0.462434       -12.5835
 199   2.0000      -0.462027       -12.5724
 200   2.0000      -0.461265       -12.5517
 201   2.0000      -0.460214       -12.5231
 202   2.0000      -0.457286       -12.4434
 203   2.0000      -0.455964       -12.4074
 204   2.0000      -0.454604       -12.3704
 205   2.0000      -0.454257       -12.3610
 206   2.0000      -0.453790       -12.3482
 207   2.0000      -0.453589       -12.3428
 208   2.0000      -0.453049       -12.3281
 209   2.0000      -0.451667       -12.2905
 210   2.0000      -0.448724       -12.2104
 211   2.0000      -0.446594       -12.1524
 212   2.0000      -0.445689       -12.1278
 213   2.0000      -0.444089       -12.0843
 214   2.0000      -0.442992       -12.0544
 215   2.0000      -0.441578       -12.0160
 216   2.0000      -0.439780       -11.9670
 217   2.0000      -0.437813       -11.9135
 218   2.0000      -0.435591       -11.8530
 219   2.0000      -0.433862       -11.8060
 220   2.0000      -0.430056       -11.7024
 221   2.0000      -0.427970       -11.6457
 222   2.0000      -0.426266       -11.5993
 223   2.0000      -0.423481       -11.5235
 224   2.0000      -0.421068       -11.4578
 225   2.0000      -0.415208       -11.2984
 226   2.0000      -0.413463       -11.2509
 227   2.0000      -0.395805       -10.7704
 228   2.0000      -0.385556       -10.4915
 229   2.0000      -0.384097       -10.4518
 230   2.0000      -0.383864       -10.4455
 231   2.0000      -0.381193       -10.3728
 232   2.0000      -0.372874       -10.1464
 233   2.0000      -0.370199       -10.0736
 234   2.0000      -0.367998       -10.0137
 235   2.0000      -0.366182        -9.9643
 236   2.0000      -0.360950        -9.8220
 237   2.0000      -0.359713        -9.7883
 238   2.0000      -0.348183        -9.4745
 239   2.0000      -0.343757        -9.3541
 240   2.0000      -0.339057        -9.2262
 241   2.0000      -0.325210        -8.8494
 242   2.0000      -0.314552        -8.5594
 243   2.0000      -0.312446        -8.5021
 244   2.0000      -0.294994        -8.0272
 245   2.0000      -0.258784        -7.0419
 246   0.0000      -0.143254        -3.8982
 247   0.0000      -0.110377        -3.0035
 248   0.0000      -0.105844        -2.8802
 249   0.0000      -0.094097        -2.5605
 250   0.0000      -0.091800        -2.4980

MULLIKEN ATOMIC CHARGES
-----------------------
   0 C :    0.045459
   1 C :   -0.039034
   2 C :   -0.059870
   3 C :   -0.179513
   4 N :    0.202445
   5 C :   -0.064850
   6 C :   -0.176072
   7 N :    0.195886
   8 C :   -0.037161
   9 C :    0.001884
  10 C :    0.160647
  11 O :   -0.148157
  12 C :   -0.101058
  13 C :    0.298226
  14 C :   -0.334185
  15 C :   -0.190009
  16 N :    0.165506
  17 C :   -0.202642
  18 N :    0.174045
  19 C :    0.054702
  20 C :   -0.121444
  21 C :    0.004873
  22 C :    0.000019
  23 C :    0.020161
  24 S :    0.156663
  25 C :   -0.045729
  26 C :   -0.162131
  27 S :    0.172681
  28 C :    0.173503
  29 C :   -0.042365
  30 C :   -0.064242
  31 N :   -0.029054
  32 C :    0.038976
  33 C :    0.056047
  34 N :   -0.081079
  35 C :    0.204761
  36 C :   -0.024886
  37 C :    0.003760
  38 N :   -0.293726
  39 S :    0.575030
  40 N :   -0.327478
  41 C :   -0.174249
  42 C :   -0.047085
  43 C :    0.031984
  44 C :    0.002675
  45 S :    0.176458
  46 C :    0.009200
  47 C :   -0.117264
  48 S :    0.167221
  49 C :    0.094503
  50 C :   -0.143842
  51 C :    0.141471
  52 O :   -0.128576
  53 C :    0.008571
  54 C :   -0.030966
  55 C :   -0.069114
  56 C :   -0.062193
  57 C :   -0.037485
  58 C :    0.033499
  59 C :    0.262820
  60 C :   -0.329237
  61 C :   -0.208439
  62 N :    0.187912
  63 C :   -0.175299
  64 N :    0.172055
  65 C :   -0.173588
  66 N :    0.199149
  67 C :   -0.173598
  68 N :    0.196933
  69 H :    0.021794
  70 H :    0.015026
  71 H :    0.020215
  72 H :    0.016874
  73 H :    0.003692
  74 H :    0.025599
  75 H :    0.026963
  76 H :    0.003417
  77 H :    0.003588
  78 H :    0.028889
  79 H :    0.017801
  80 H :    0.022034
Sum of atomic charges:   -0.0000000

LOEWDIN ATOMIC CHARGES
----------------------
   0 C :    0.002590
   1 C :    0.033629
   2 C :   -0.024774
   3 C :   -0.031643
   4 N :   -0.012106
   5 C :   -0.029619
   6 C :   -0.031769
   7 N :   -0.015654
   8 C :    0.046138
   9 C :   -0.027905
  10 C :    0.085956
  11 O :   -0.134112
  12 C :   -0.107326
  13 C :    0.069049
  14 C :   -0.128464
  15 C :   -0.021993
  16 N :   -0.038278
  17 C :   -0.026409
  18 N :   -0.036988
  19 C :    0.054820
  20 C :   -0.172574
  21 C :   -0.008750
  22 C :   -0.208281
  23 C :   -0.178440
  24 S :    0.436895
  25 C :   -0.052777
  26 C :   -0.139376
  27 S :    0.463176
  28 C :   -0.038299
  29 C :   -0.008861
  30 C :   -0.003664
  31 N :   -0.022026
  32 C :    0.021344
  33 C :    0.027953
  34 N :   -0.042201
  35 C :   -0.036820
  36 C :   -0.045115
  37 C :   -0.036704
  38 N :   -0.279212
  39 S :    0.695070
  40 N :   -0.297127
  41 C :   -0.139108
  42 C :   -0.049172
  43 C :   -0.178548
  44 C :   -0.197510
  45 S :    0.464633
  46 C :   -0.016290
  47 C :   -0.175431
  48 S :    0.446050
  49 C :    0.056540
  50 C :   -0.105022
  51 C :    0.082196
  52 O :   -0.130156
  53 C :   -0.030559
  54 C :    0.048840
  55 C :   -0.029799
  56 C :   -0.023488
  57 C :    0.030230
  58 C :    0.005022
  59 C :    0.057918
  60 C :   -0.131189
  61 C :   -0.020407
  62 N :   -0.026837
  63 C :   -0.025276
  64 N :   -0.037204
  65 C :   -0.031461
  66 N :   -0.011594
  67 C :   -0.032307
  68 N :   -0.014019
  69 H :    0.052429
  70 H :    0.053030
  71 H :    0.045437
  72 H :    0.037701
  73 H :    0.034108
  74 H :    0.032109
  75 H :    0.033918
  76 H :    0.033003
  77 H :    0.037387
  78 H :    0.048808
  79 H :    0.054635
  80 H :    0.052028

  Mayer bond orders larger than 0.100000
B(  0-C ,  1-C ) :   1.3619 B(  0-C ,  9-C ) :   1.3371 B(  0-C , 13-C ) :   0.9550
B(  1-C ,  2-C ) :   1.3885 B(  1-C , 69-H ) :   0.9866 B(  2-C ,  3-C ) :   1.0892
B(  2-C ,  5-C ) :   1.4043 B(  3-C ,  4-N ) :   3.0445 B(  5-C ,  6-C ) :   1.0856
B(  5-C ,  8-C ) :   1.3608 B(  6-C ,  7-N ) :   3.0458 B(  8-C ,  9-C ) :   1.3650
B(  8-C , 70-H ) :   1.0147 B(  9-C , 10-C ) :   0.9318 B( 10-C , 11-O ) :   2.1801
B( 10-C , 12-C ) :   0.9582 B( 12-C , 13-C ) :   1.0912 B( 12-C , 19-C ) :   1.5435
B( 13-C , 14-C ) :   1.6433 B( 14-C , 15-C ) :   1.1486 B( 14-C , 17-C ) :   1.1374
B( 15-C , 16-N ) :   2.9645 B( 17-C , 18-N ) :   2.9943 B( 19-C , 20-C ) :   1.2608
B( 19-C , 71-H ) :   0.9203 B( 20-C , 21-C ) :   1.4070 B( 20-C , 24-S ) :   1.0678
B( 21-C , 22-C ) :   1.3118 B( 21-C , 72-H ) :   0.9838 B( 22-C , 23-C ) :   1.3426
B( 22-C , 27-S ) :   1.0011 B( 23-C , 24-S ) :   1.0948 B( 23-C , 25-C ) :   1.2526
B( 25-C , 26-C ) :   1.4629 B( 25-C , 73-H ) :   0.9914 B( 26-C , 27-S ) :   1.1049
B( 26-C , 28-C ) :   1.2003 B( 28-C , 29-C ) :   1.2680 B( 28-C , 35-C ) :   0.1316
B( 28-C , 37-C ) :   1.2148 B( 29-C , 30-C ) :   1.1304 B( 29-C , 34-N ) :   1.3927
B( 30-C , 31-N ) :   1.4522 B( 30-C , 35-C ) :   1.2732 B( 31-N , 32-C ) :   1.6758
B( 32-C , 33-C ) :   1.1904 B( 32-C , 74-H ) :   0.9745 B( 33-C , 34-N ) :   1.6603
B( 33-C , 75-H ) :   0.9733 B( 35-C , 36-C ) :   1.1968 B( 35-C , 41-C ) :   1.1957
B( 36-C , 37-C ) :   1.1094 B( 36-C , 40-N ) :   1.4621 B( 37-C , 38-N ) :   1.4932
B( 38-N , 39-S ) :   1.2896 B( 38-N , 40-N ) :   0.1546 B( 39-S , 40-N ) :   1.2851
B( 41-C , 42-C ) :   1.4633 B( 41-C , 45-S ) :   1.1063 B( 42-C , 43-C ) :   1.2392
B( 42-C , 76-H ) :   0.9891 B( 43-C , 44-C ) :   1.3536 B( 43-C , 48-S ) :   1.0908
B( 44-C , 45-S ) :   1.0314 B( 44-C , 46-C ) :   1.3467 B( 46-C , 47-C ) :   1.4049
B( 46-C , 77-H ) :   0.9893 B( 47-C , 48-S ) :   1.0804 B( 47-C , 49-C ) :   1.1868
B( 49-C , 50-C ) :   1.6124 B( 49-C , 78-H ) :   0.9273 B( 50-C , 51-C ) :   0.9583
B( 50-C , 59-C ) :   1.0606 B( 51-C , 52-O ) :   2.2746 B( 51-C , 53-C ) :   0.8970
B( 53-C , 54-C ) :   1.3751 B( 53-C , 58-C ) :   1.3361 B( 54-C , 55-C ) :   1.3638
B( 54-C , 79-H ) :   1.0134 B( 55-C , 56-C ) :   1.4055 B( 55-C , 67-C ) :   1.0858
B( 56-C , 57-C ) :   1.3863 B( 56-C , 65-C ) :   1.0853 B( 57-C , 58-C ) :   1.3658
B( 57-C , 80-H ) :   0.9893 B( 58-C , 59-C ) :   0.9716 B( 59-C , 60-C ) :   1.6523
B( 60-C , 61-C ) :   1.1666 B( 60-C , 63-C ) :   1.1293 B( 61-C , 62-N ) :   3.0047
B( 63-C , 64-N ) :   2.9839 B( 65-C , 66-N ) :   3.0438 B( 67-C , 68-N ) :   3.0456

-----------------------------------------------------------------------------
         ABSORPTION SPECTRUM VIA TRANSITION ELECTRIC DIPOLE MOMENTS
-----------------------------------------------------------------------------
State   Energy  Wavelength   fosc         T2         TX        TY        TZ
        (cm-1)    (nm)                  (au**2)     (au)      (au)      (au)
-----------------------------------------------------------------------------
   0   10633.6    940.4   1.376578961  42.61843  -3.27323  -5.61919   0.57367
   1   18324.7    545.7   0.120326465   2.16172   0.54535   0.86327  -1.05786
   2   19048.4    525.0   0.145849723   2.52070   1.07722   1.14175  -0.23811
   3   20030.2    499.2   0.478267094   7.86070   1.56120   2.32789   0.06532
   4   20684.2    483.5   0.017812837   0.28351  -0.01480   0.12148   0.51820
   5   21136.9    473.1   0.015788383   0.24591  -0.01243  -0.17319   0.46450
   6   22523.2    444.0   0.316987366   4.63326  -1.35425  -1.52195   0.69494
   7   22838.3    437.9   0.002316683   0.03339   0.08166  -0.16332   0.00726
   8   23034.7    434.1   0.155142468   2.21730   0.16399   1.47663  -0.09977
   9   26167.8    382.1   0.077727535   0.97788  -0.65649  -0.57855   0.46062
  10   26800.7    373.1   0.012092144   0.14854  -0.08491  -0.03791   0.37402
  11   28033.5    356.7   0.023012719   0.27025  -0.16995  -0.41098   0.26919
  12   28271.9    353.7   0.066134858   0.77011  -0.45728   0.19776   0.72242
  13   28765.8    347.6   0.000600634   0.00687   0.05809   0.00434  -0.05900
  14   28945.9    345.5   0.044148957   0.50212  -0.18882   0.68257   0.02370
  15   29314.8    341.1   0.006496656   0.07296  -0.06194   0.13142  -0.22771
  16   29671.5    337.0   0.083119271   0.92223   0.38436   0.87996   0.01280
  17   30239.8    330.7   0.008450721   0.09200  -0.02843  -0.07793  -0.29175
  18   30524.1    327.6   0.084571330   0.91213  -0.20184  -0.02304  -0.93320
  19   30788.4    324.8   0.076449309   0.81745   0.39134   0.03609  -0.81425
  20   31170.1    320.8   0.116483147   1.23027  -0.20160   1.08526  -0.10878
  21   31353.0    318.9   0.043809375   0.46001  -0.38372  -0.16264   0.53508
  22   31616.7    316.3   0.008389998   0.08736   0.02017   0.24704  -0.16102
  23   32014.5    312.4   0.015598084   0.16040  -0.03801  -0.17873  -0.35638
  24   32169.5    310.9   0.061988193   0.63437   0.33010  -0.05719  -0.72258
  25   32386.7    308.8   0.135854714   1.38097   0.42269  -0.30461  -1.05333
  26   32704.3    305.8   0.024461868   0.24624  -0.09903   0.32494  -0.36173
  27   33658.6    297.1   0.026036911   0.25466  -0.01985   0.50206  -0.04694
  28   33718.6    296.6   0.512581136   5.00459   0.98946   1.90333  -0.63473
  29   33991.3    294.2   0.029329293   0.28406  -0.31043   0.43007  -0.05222
  30   34572.6    289.2   0.069034400   0.65737   0.34253  -0.73463  -0.01898
  31   34873.5    286.8   0.076757074   0.72460  -0.63574   0.55156   0.12738
  32   35060.5    285.2   0.025850498   0.24273   0.29818  -0.20756  -0.33277
  33   35445.5    282.1   0.044673370   0.41492  -0.20857   0.38886  -0.46926
  34   35630.9    280.7   0.252894900   2.33662  -0.55939   0.90034   1.10140
  35   35773.0    279.5   0.244281698   2.24807  -0.35228   1.41474  -0.34997
  36   35932.2    278.3   0.426488867   3.90750  -0.39831   0.28742   1.91474
  37   36597.7    273.2   0.166957910   1.50186  -0.25830   1.13177   0.39273
  38   36855.5    271.3   0.044643318   0.39878  -0.09620  -0.56849   0.25756
  39   37294.6    268.1   0.047766828   0.42165   0.01363   0.40564   0.50688
  40   37551.2    266.3   0.315720308   2.76792  -0.17794  -0.33059   1.62079
  41   37651.5    265.6   0.007710526   0.06742   0.10068  -0.21693   0.10111
  42   38094.8    262.5   0.044627739   0.38567   0.54244   0.26674  -0.14240
  43   38179.0    261.9   0.041756283   0.36006  -0.47995  -0.25364   0.25567
  44   38470.7    259.9   0.022432590   0.19197  -0.15593   0.09565   0.39813
  45   38709.0    258.3   0.008097040   0.06886  -0.14353  -0.12461  -0.18092
  46   38920.9    256.9   0.031879359   0.26965  -0.00712   0.38083   0.35294
  47   39224.8    254.9   0.051393969   0.43135   0.15441  -0.52506   0.36306
  48   39478.0    253.3   0.138008495   1.15087  -0.26203   0.56049   0.87639
  49   39745.9    251.6   0.021312101   0.17653   0.02788   0.03228   0.41798
  50   40007.8    250.0   0.031511247   0.25930   0.03957   0.42755  -0.27374
  51   40121.5    249.2   0.001753326   0.01439  -0.01447   0.02864  -0.11557
  52   40182.1    248.9   0.018069970   0.14805   0.31131   0.13865  -0.17864
  53   40250.0    248.4   0.012825899   0.10491  -0.02827  -0.20716   0.24736

FINAL SINGLE POINT ENERGY     -4706.752482727717

DIPOLE MOMENT
-------------
                                X             Y             Z
Electronic contribution:     -1.71948       1.38025       8.98934
Nuclear contribution   :      0.71190      -2.66241     -11.10604
                        -----------------------------------------
Total Dipole Moment    :     -1.00758      -1.28217      -2.11670
                        -----------------------------------------
Magnitude (a.u.)       :      2.67200
Magnitude (Debye)      :      6.79169

Rotational constants in cm-1:     0.002906     0.000206     0.000200
Rotational constants in MHz :    87.105751     6.182965     5.994492

                             ****ORCA TERMINATED NORMALLY****
TOTAL RUN TIME: 0 days 0 hours 7 minutes 36 seconds 177 msec
