                         Program Version 4.2.0 -  RELEASE  -
|  1> # ORCA input file
|  2> # SCF done       -198.218730347824          0.000981923538
|  3> ! CAM-B3LYP def2-SVP def2/J RIJCOSX Grid4 TightSCF
|  4> %maxcore 5000
|  5> %tddft
|  6>     Mode sTDDFT
|  7>     Ethresh 5.0
|  8>     maxcore 5000
|  9> end
| 10>
| 11> %pal
| 12>   nprocs 6
| 13>   end
| 14> * xyz 0 1
| 15>    C       -1.23083        -0.42268        -1.88475
| 16>    C       -1.84058         0.11270        -2.98680
| 17>    C       -1.09067         0.82148        -3.93723
| 18>    C        0.25804         0.98444        -3.77352
| 19>    C        0.91818         0.44666        -2.65022
| 20>    C        2.31072         0.61692        -2.47401
| 21>    C        2.91777         0.08036        -1.37114
| 22>    C        2.15380        -0.65660        -0.41931
| 23>    C        0.80691        -0.82896        -0.56058
| 24>    C        0.15594        -0.27426        -1.68564
| 25>    C        3.04985        -1.16727         0.63137
| 26>    O        2.76178        -1.78284         1.63186
| 27>    C        4.42846        -0.82198         0.17108
| 28>    C        4.30735         0.11427        -0.92733
| 29>    C        5.23166         1.04895        -1.31599
| 30>    C        6.49663         1.20054        -0.71682
| 31>    N        7.52683         1.37284        -0.23954
| 32>    C        4.98632         2.03296        -2.29678
| 33>    N        4.83890         2.85818        -3.08030
| 34>    C        5.48504        -1.45884         0.74454
| 35>    C        6.80127        -1.60655         0.25105
| 36>    C        7.26293        -1.47441        -1.05037
| 37>    C        8.62336        -1.73559        -1.15345
| 38>    C        9.21171        -2.07498         0.07880
| 39>    S        8.08435        -2.09305         1.35140
| 40>    C       10.59795        -2.30082        -0.13347
| 41>    C       10.88101        -2.10036        -1.49739
| 42>    C        9.65324        -1.73380        -2.18156
| 43>    C        9.48235        -1.43188        -3.50047
| 44>    C       10.54295        -1.46035        -4.43062
| 45>    N       11.39382        -1.48802        -5.19821
| 46>    C        8.21686        -1.07817        -4.01497
| 47>    N        7.18243        -0.79678        -4.42231
| 48>    C       12.23012        -2.30610        -1.80215
| 49>    C       12.94627        -2.65950        -0.68205
| 50>    S       11.97804        -2.74036         0.76598
| 51>    C       14.34356        -2.98546        -0.55731
| 52>    N       15.11314        -2.93133        -1.64477
| 53>    C       16.38246        -3.25980        -1.47926
| 54>    C       16.90242        -3.64980        -0.25563
| 55>    C       16.01760        -3.67096         0.83180
| 56>    N       14.74016        -3.33035         0.66091
| 57>    C       16.43710        -4.06692         2.15735
| 58>    C       15.59167        -4.00478         3.20494
| 59>    C       15.88451        -4.39511         4.54078
| 60>    C       17.02154        -4.99192         5.05764
| 61>    C       16.90647        -5.24521         6.42365
| 62>    C       15.67166        -4.82803         6.95379
| 63>    S       14.65826        -4.13666         5.77071
| 64>    C       15.64700        -5.13226         8.33719
| 65>    C       16.86400        -5.75871         8.68120
| 66>    C       17.70082        -5.83142         7.49372
| 67>    C       18.96867        -6.32322         7.39918
| 68>    C       19.68057        -6.83559         8.50603
| 69>    N       20.29135        -7.24033         9.38718
| 70>    C       19.67171        -6.33161         6.17530
| 71>    N       20.23920        -6.33028         5.17891
| 72>    C       16.92593        -6.13344        10.01791
| 73>    C       15.77112        -5.79329        10.70907
| 74>    S       14.60252        -4.97163         9.66657
| 75>    C       15.40948        -5.93218        12.06609
| 76>    C       15.93702        -6.74536        13.02832
| 77>    C       15.53595        -6.72336        14.42504
| 78>    C       14.88436        -5.70205        15.06651
| 79>    C       14.54429        -5.72210        16.43543
| 80>    N       14.23243        -5.68269        17.53947
| 81>    C       14.50354        -4.48086        14.47159
| 82>    N       14.18430        -3.45689        14.06020
| 83>    C       16.03509        -7.93904        15.05296
| 84>    C       16.81054        -8.65362        14.09646
| 85>    C       17.41607        -9.83930        14.39792
| 86>    C       17.26580       -10.37771        15.69543
| 87>    C       17.86370       -11.59858        16.06448
| 88>    C       17.69670       -12.10625        17.32446
| 89>    C       16.92662       -11.41404        18.27093
| 90>    C       16.33399       -10.22447        17.94509
| 91>    C       16.48425        -9.67310        16.65644
| 92>    C       15.87270        -8.44483        16.31559
| 93>    C       16.81743        -7.92493        12.81706
| 94>    O       17.37852        -8.26824        11.79868
| 95>    H       -1.80318        -0.96966        -1.14983
| 96>    H       -2.90366        -0.00760        -3.13244
| 97>    H       -1.58750         1.23831        -4.80043
| 98>    H        0.83951         1.53167        -4.50075
| 99>    H        2.86761         1.15493        -3.22520
|100>    H        0.24408        -1.38386         0.17526
|101>    H        5.25825        -1.97832         1.67077
|102>    H        6.61936        -1.24247        -1.87919
|103>    H       12.68443        -2.21320        -2.77134
|104>    H       16.99785        -3.20936        -2.36822
|105>    H       17.93838        -3.92261        -0.14040
|106>    H       17.45457        -4.41240         2.26301
|107>    H       14.59497        -3.62645         3.01898
|108>    H       17.88046        -5.23552         4.46049
|109>    H       17.75661        -6.63184        10.48157
|110>    H       14.56678        -5.31450        12.35598
|111>    H       18.00189       -10.35943        13.65469
|112>    H       18.45554       -12.12684        15.33141
|113>    H       18.15645       -13.04396        17.59843
|114>    H       16.80509       -11.82828        19.26054
|115>    H       15.74179        -9.68685        18.67098
|116>    H       15.28206        -7.93856        17.06252
|117> *
|118>
|119>                          ****END OF INPUT****

CARTESIAN COORDINATES (ANGSTROEM)
---------------------------------
  C     -1.230830   -0.422680   -1.884750
  C     -1.840580    0.112700   -2.986800
  C     -1.090670    0.821480   -3.937230
  C      0.258040    0.984440   -3.773520
  C      0.918180    0.446660   -2.650220
  C      2.310720    0.616920   -2.474010
  C      2.917770    0.080360   -1.371140
  C      2.153800   -0.656600   -0.419310
  C      0.806910   -0.828960   -0.560580
  C      0.155940   -0.274260   -1.685640
  C      3.049850   -1.167270    0.631370
  O      2.761780   -1.782840    1.631860
  C      4.428460   -0.821980    0.171080
  C      4.307350    0.114270   -0.927330
  C      5.231660    1.048950   -1.315990
  C      6.496630    1.200540   -0.716820
  N      7.526830    1.372840   -0.239540
  C      4.986320    2.032960   -2.296780
  N      4.838900    2.858180   -3.080300
  C      5.485040   -1.458840    0.744540
  C      6.801270   -1.606550    0.251050
  C      7.262930   -1.474410   -1.050370
  C      8.623360   -1.735590   -1.153450
  C      9.211710   -2.074980    0.078800
  S      8.084350   -2.093050    1.351400
  C     10.597950   -2.300820   -0.133470
  C     10.881010   -2.100360   -1.497390
  C      9.653240   -1.733800   -2.181560
  C      9.482350   -1.431880   -3.500470
  C     10.542950   -1.460350   -4.430620
  N     11.393820   -1.488020   -5.198210
  C      8.216860   -1.078170   -4.014970
  N      7.182430   -0.796780   -4.422310
  C     12.230120   -2.306100   -1.802150
  C     12.946270   -2.659500   -0.682050
  S     11.978040   -2.740360    0.765980
  C     14.343560   -2.985460   -0.557310
  N     15.113140   -2.931330   -1.644770
  C     16.382460   -3.259800   -1.479260
  C     16.902420   -3.649800   -0.255630
  C     16.017600   -3.670960    0.831800
  N     14.740160   -3.330350    0.660910
  C     16.437100   -4.066920    2.157350
  C     15.591670   -4.004780    3.204940
  C     15.884510   -4.395110    4.540780
  C     17.021540   -4.991920    5.057640
  C     16.906470   -5.245210    6.423650
  C     15.671660   -4.828030    6.953790
  S     14.658260   -4.136660    5.770710
  C     15.647000   -5.132260    8.337190
  C     16.864000   -5.758710    8.681200
  C     17.700820   -5.831420    7.493720
  C     18.968670   -6.323220    7.399180
  C     19.680570   -6.835590    8.506030
  N     20.291350   -7.240330    9.387180
  C     19.671710   -6.331610    6.175300
  N     20.239200   -6.330280    5.178910
  C     16.925930   -6.133440   10.017910
  C     15.771120   -5.793290   10.709070
  S     14.602520   -4.971630    9.666570
  C     15.409480   -5.932180   12.066090
  C     15.937020   -6.745360   13.028320
  C     15.535950   -6.723360   14.425040
  C     14.884360   -5.702050   15.066510
  C     14.544290   -5.722100   16.435430
  N     14.232430   -5.682690   17.539470
  C     14.503540   -4.480860   14.471590
  N     14.184300   -3.456890   14.060200
  C     16.035090   -7.939040   15.052960
  C     16.810540   -8.653620   14.096460
  C     17.416070   -9.839300   14.397920
  C     17.265800  -10.377710   15.695430
  C     17.863700  -11.598580   16.064480
  C     17.696700  -12.106250   17.324460
  C     16.926620  -11.414040   18.270930
  C     16.333990  -10.224470   17.945090
  C     16.484250   -9.673100   16.656440
  C     15.872700   -8.444830   16.315590
  C     16.817430   -7.924930   12.817060
  O     17.378520   -8.268240   11.798680
  H     -1.803180   -0.969660   -1.149830
  H     -2.903660   -0.007600   -3.132440
  H     -1.587500    1.238310   -4.800430
  H      0.839510    1.531670   -4.500750
  H      2.867610    1.154930   -3.225200
  H      0.244080   -1.383860    0.175260
  H      5.258250   -1.978320    1.670770
  H      6.619360   -1.242470   -1.879190
  H     12.684430   -2.213200   -2.771340
  H     16.997850   -3.209360   -2.368220
  H     17.938380   -3.922610   -0.140400
  H     17.454570   -4.412400    2.263010
  H     14.594970   -3.626450    3.018980
  H     17.880460   -5.235520    4.460490
  H     17.756610   -6.631840   10.481570
  H     14.566780   -5.314500   12.355980
  H     18.001890  -10.359430   13.654690
  H     18.455540  -12.126840   15.331410
  H     18.156450  -13.043960   17.598430
  H     16.805090  -11.828280   19.260540
  H     15.741790   -9.686850   18.670980
  H     15.282060   -7.938560   17.062520

 Total Charge           Charge          ....    0
 Multiplicity           Mult            ....    1
 Number of Electrons    NEL             ....  556
 Basis Dimension        Dim             .... 1246

ORBITAL ENERGIES
----------------

  NO   OCC          E(Eh)            E(eV)
   0   2.0000     -89.002199     -2421.8730
   1   2.0000     -89.001582     -2421.8562
   2   2.0000     -88.995963     -2421.7033
   3   2.0000     -88.990779     -2421.5622
   4   2.0000     -19.220504      -523.0165
   5   2.0000     -19.214074      -522.8415
   6   2.0000     -14.439410      -392.9163
   7   2.0000     -14.434996      -392.7962
   8   2.0000     -14.431236      -392.6939
   9   2.0000     -14.428740      -392.6260
  10   2.0000     -14.425332      -392.5332
  11   2.0000     -14.421327      -392.4243
  12   2.0000     -14.418477      -392.3467
  13   2.0000     -14.416546      -392.2942
  14   2.0000     -14.416194      -392.2846
  15   2.0000     -14.411854      -392.1665
  16   2.0000     -10.374383      -282.3013
  17   2.0000     -10.372301      -282.2447
  18   2.0000     -10.365517      -282.0601
  19   2.0000     -10.365134      -282.0496
  20   2.0000     -10.363354      -282.0012
  21   2.0000     -10.361273      -281.9446
  22   2.0000     -10.352723      -281.7119
  23   2.0000     -10.351314      -281.6736
  24   2.0000     -10.344678      -281.4930
  25   2.0000     -10.344288      -281.4824
  26   2.0000     -10.344082      -281.4768
  27   2.0000     -10.342972      -281.4466
  28   2.0000     -10.342395      -281.4309
  29   2.0000     -10.341417      -281.4043
  30   2.0000     -10.341213      -281.3987
  31   2.0000     -10.339562      -281.3538
  32   2.0000     -10.336748      -281.2772
  33   2.0000     -10.334149      -281.2065
  34   2.0000     -10.334066      -281.2042
  35   2.0000     -10.333753      -281.1957
  36   2.0000     -10.333463      -281.1878
  37   2.0000     -10.331682      -281.1394
  38   2.0000     -10.331598      -281.1371
  39   2.0000     -10.328614      -281.0559
  40   2.0000     -10.327816      -281.0342
  41   2.0000     -10.324693      -280.9492
  42   2.0000     -10.321494      -280.8621
  43   2.0000     -10.319318      -280.8029
  44   2.0000     -10.319035      -280.7952
  45   2.0000     -10.317851      -280.7630
  46   2.0000     -10.317523      -280.7541
  47   2.0000     -10.314491      -280.6716
  48   2.0000     -10.314334      -280.6673
  49   2.0000     -10.313900      -280.6555
  50   2.0000     -10.313119      -280.6342
  51   2.0000     -10.311639      -280.5940
  52   2.0000     -10.310740      -280.5695
  53   2.0000     -10.307165      -280.4722
  54   2.0000     -10.306244      -280.4471
  55   2.0000     -10.305350      -280.4228
  56   2.0000     -10.304568      -280.4015
  57   2.0000     -10.302646      -280.3492
  58   2.0000     -10.301866      -280.3280
  59   2.0000     -10.299979      -280.2767
  60   2.0000     -10.299377      -280.2603
  61   2.0000     -10.299151      -280.2542
  62   2.0000     -10.298699      -280.2418
  63   2.0000     -10.298372      -280.2330
  64   2.0000     -10.298324      -280.2316
  65   2.0000     -10.296602      -280.1848
  66   2.0000     -10.296326      -280.1773
  67   2.0000     -10.296164      -280.1729
  68   2.0000     -10.295922      -280.1663
  69   2.0000     -10.294982      -280.1407
  70   2.0000     -10.290514      -280.0191
  71   2.0000     -10.288301      -279.9589
  72   2.0000     -10.288064      -279.9525
  73   2.0000     -10.287548      -279.9384
  74   2.0000     -10.287329      -279.9325
  75   2.0000     -10.286874      -279.9201
  76   2.0000     -10.285081      -279.8713
  77   2.0000     -10.284608      -279.8584
  78   2.0000     -10.284235      -279.8482
  79   2.0000     -10.283581      -279.8305
  80   2.0000      -8.096987      -220.3302
  81   2.0000      -8.096383      -220.3138
  82   2.0000      -8.090641      -220.1575
  83   2.0000      -8.084752      -219.9973
  84   2.0000      -6.066121      -165.0675
  85   2.0000      -6.065495      -165.0505
  86   2.0000      -6.061965      -164.9545
  87   2.0000      -6.061363      -164.9381
  88   2.0000      -6.059801      -164.8956
  89   2.0000      -6.059524      -164.8880
  90   2.0000      -6.058922      -164.8717
  91   2.0000      -6.055616      -164.7817
  92   2.0000      -6.053988      -164.7374
  93   2.0000      -6.053194      -164.7158
  94   2.0000      -6.049607      -164.6182
  95   2.0000      -6.047404      -164.5582
  96   2.0000      -1.136064       -30.9139
  97   2.0000      -1.129458       -30.7341
  98   2.0000      -1.099803       -29.9272
  99   2.0000      -1.056790       -28.7567
 100   2.0000      -1.047840       -28.5132
 101   2.0000      -1.029929       -28.0258
 102   2.0000      -1.022365       -27.8200
 103   2.0000      -1.020916       -27.7805
 104   2.0000      -1.017891       -27.6982
 105   2.0000      -1.014313       -27.6009
 106   2.0000      -1.010487       -27.4967
 107   2.0000      -1.007502       -27.4155
 108   2.0000      -1.001178       -27.2434
 109   2.0000      -1.000719       -27.2309
 110   2.0000      -0.997701       -27.1488
 111   2.0000      -0.997652       -27.1475
 112   2.0000      -0.995680       -27.0938
 113   2.0000      -0.991309       -26.9749
 114   2.0000      -0.975118       -26.5343
 115   2.0000      -0.970923       -26.4201
 116   2.0000      -0.969189       -26.3730
 117   2.0000      -0.961512       -26.1641
 118   2.0000      -0.935282       -25.4503
 119   2.0000      -0.929069       -25.2812
 120   2.0000      -0.925497       -25.1840
 121   2.0000      -0.921341       -25.0710
 122   2.0000      -0.912657       -24.8347
 123   2.0000      -0.903265       -24.5791
 124   2.0000      -0.896372       -24.3915
 125   2.0000      -0.887757       -24.1571
 126   2.0000      -0.883817       -24.0499
 127   2.0000      -0.880896       -23.9704
 128   2.0000      -0.880110       -23.9490
 129   2.0000      -0.876282       -23.8448
 130   2.0000      -0.867472       -23.6051
 131   2.0000      -0.864966       -23.5369
 132   2.0000      -0.861018       -23.4295
 133   2.0000      -0.857339       -23.3294
 134   2.0000      -0.830043       -22.5866
 135   2.0000      -0.827003       -22.5039
 136   2.0000      -0.821797       -22.3622
 137   2.0000      -0.818316       -22.2675
 138   2.0000      -0.801318       -21.8050
 139   2.0000      -0.796401       -21.6712
 140   2.0000      -0.785338       -21.3701
 141   2.0000      -0.778387       -21.1810
 142   2.0000      -0.764066       -20.7913
 143   2.0000      -0.762762       -20.7558
 144   2.0000      -0.760806       -20.7026
 145   2.0000      -0.751732       -20.4557
 146   2.0000      -0.733239       -19.9525
 147   2.0000      -0.722596       -19.6628
 148   2.0000      -0.718979       -19.5644
 149   2.0000      -0.706792       -19.2328
 150   2.0000      -0.705325       -19.1929
 151   2.0000      -0.703687       -19.1483
 152   2.0000      -0.700715       -19.0674
 153   2.0000      -0.699349       -19.0302
 154   2.0000      -0.695617       -18.9287
 155   2.0000      -0.690219       -18.7818
 156   2.0000      -0.684426       -18.6242
 157   2.0000      -0.681170       -18.5356
 158   2.0000      -0.674555       -18.3556
 159   2.0000      -0.669460       -18.2169
 160   2.0000      -0.666108       -18.1257
 161   2.0000      -0.651960       -17.7407
 162   2.0000      -0.648031       -17.6338
 163   2.0000      -0.641637       -17.4598
 164   2.0000      -0.635865       -17.3028
 165   2.0000      -0.634084       -17.2543
 166   2.0000      -0.629470       -17.1288
 167   2.0000      -0.626757       -17.0549
 168   2.0000      -0.619966       -16.8701
 169   2.0000      -0.619281       -16.8515
 170   2.0000      -0.614871       -16.7315
 171   2.0000      -0.608451       -16.5568
 172   2.0000      -0.606156       -16.4943
 173   2.0000      -0.602077       -16.3833
 174   2.0000      -0.597792       -16.2668
 175   2.0000      -0.594055       -16.1651
 176   2.0000      -0.590462       -16.0673
 177   2.0000      -0.576106       -15.6766
 178   2.0000      -0.568658       -15.4740
 179   2.0000      -0.563381       -15.3304
 180   2.0000      -0.558900       -15.2084
 181   2.0000      -0.557102       -15.1595
 182   2.0000      -0.553373       -15.0580
 183   2.0000      -0.551319       -15.0022
 184   2.0000      -0.550347       -14.9757
 185   2.0000      -0.548642       -14.9293
 186   2.0000      -0.544970       -14.8294
 187   2.0000      -0.543317       -14.7844
 188   2.0000      -0.541095       -14.7239
 189   2.0000      -0.539594       -14.6831
 190   2.0000      -0.538528       -14.6541
 191   2.0000      -0.536623       -14.6023
 192   2.0000      -0.530683       -14.4406
 193   2.0000      -0.527748       -14.3608
 194   2.0000      -0.524690       -14.2775
 195   2.0000      -0.522070       -14.2062
 196   2.0000      -0.518886       -14.1196
 197   2.0000      -0.516288       -14.0489
 198   2.0000      -0.514422       -13.9981
 199   2.0000      -0.513140       -13.9632
 200   2.0000      -0.511256       -13.9120
 201   2.0000      -0.510335       -13.8869
 202   2.0000      -0.509756       -13.8712
 203   2.0000      -0.506810       -13.7910
 204   2.0000      -0.505428       -13.7534
 205   2.0000      -0.505338       -13.7509
 206   2.0000      -0.502346       -13.6695
 207   2.0000      -0.499928       -13.6037
 208   2.0000      -0.496623       -13.5138
 209   2.0000      -0.495847       -13.4927
 210   2.0000      -0.494385       -13.4529
 211   2.0000      -0.494098       -13.4451
 212   2.0000      -0.488038       -13.2802
 213   2.0000      -0.486642       -13.2422
 214   2.0000      -0.483395       -13.1539
 215   2.0000      -0.477013       -12.9802
 216   2.0000      -0.476164       -12.9571
 217   2.0000      -0.472146       -12.8478
 218   2.0000      -0.471482       -12.8297
 219   2.0000      -0.468775       -12.7560
 220   2.0000      -0.467036       -12.7087
 221   2.0000      -0.463647       -12.6165
 222   2.0000      -0.463536       -12.6135
 223   2.0000      -0.461319       -12.5531
 224   2.0000      -0.459122       -12.4933
 225   2.0000      -0.457586       -12.4516
 226   2.0000      -0.454140       -12.3578
 227   2.0000      -0.452984       -12.3263
 228   2.0000      -0.451082       -12.2746
 229   2.0000      -0.449710       -12.2372
 230   2.0000      -0.448414       -12.2020
 231   2.0000      -0.446701       -12.1554
 232   2.0000      -0.446550       -12.1513
 233   2.0000      -0.446149       -12.1403
 234   2.0000      -0.445120       -12.1123
 235   2.0000      -0.443055       -12.0561
 236   2.0000      -0.441700       -12.0193
 237   2.0000      -0.439966       -11.9721
 238   2.0000      -0.438953       -11.9445
 239   2.0000      -0.437404       -11.9024
 240   2.0000      -0.435927       -11.8622
 241   2.0000      -0.435115       -11.8401
 242   2.0000      -0.434599       -11.8260
 243   2.0000      -0.432318       -11.7640
 244   2.0000      -0.430837       -11.7237
 245   2.0000      -0.429504       -11.6874
 246   2.0000      -0.427810       -11.6413
 247   2.0000      -0.426405       -11.6031
 248   2.0000      -0.424618       -11.5545
 249   2.0000      -0.423629       -11.5275
 250   2.0000      -0.421611       -11.4726
 251   2.0000      -0.417050       -11.3485
 252   2.0000      -0.411604       -11.2003
 253   2.0000      -0.408382       -11.1126
 254   2.0000      -0.407706       -11.0942
 255   2.0000      -0.401221       -10.9178
 256   2.0000      -0.395892       -10.7728
 257   2.0000      -0.394730       -10.7411
 258   2.0000      -0.389560       -10.6005
 259   2.0000      -0.379931       -10.3385
 260   2.0000      -0.377130       -10.2622
 261   2.0000      -0.367208        -9.9922
 262   2.0000      -0.362253        -9.8574
 263   2.0000      -0.359942        -9.7945
 264   2.0000      -0.349430        -9.5085
 265   2.0000      -0.343864        -9.3570
 266   2.0000      -0.341288        -9.2869
 267   2.0000      -0.338013        -9.1978
 268   2.0000      -0.331920        -9.0320
 269   2.0000      -0.330180        -8.9847
 270   2.0000      -0.322451        -8.7743
 271   2.0000      -0.320752        -8.7281
 272   2.0000      -0.315977        -8.5982
 273   2.0000      -0.314065        -8.5461
 274   2.0000      -0.296050        -8.0559
 275   2.0000      -0.293669        -7.9911
 276   2.0000      -0.270902        -7.3716
 277   2.0000      -0.267245        -7.2721
 278   0.0000      -0.119364        -3.2481
 279   0.0000      -0.110338        -3.0025
 280   0.0000      -0.094157        -2.5621
 281   0.0000      -0.088202        -2.4001
 282   0.0000      -0.065930        -1.7940

MULLIKEN ATOMIC CHARGES
-----------------------
   0 C :   -0.016627
   1 C :    0.034964
   2 C :    0.036194
   3 C :   -0.017186
   4 C :    0.094120
   5 C :   -0.077308
   6 C :    0.027644
   7 C :    0.019393
   8 C :   -0.084854
   9 C :    0.096117
  10 C :    0.134781
  11 O :   -0.145891
  12 C :   -0.134780
  13 C :    0.269276
  14 C :   -0.326890
  15 C :   -0.203103
  16 N :    0.167350
  17 C :   -0.172368
  18 N :    0.157673
  19 C :    0.081213
  20 C :   -0.114463
  21 C :   -0.001010
  22 C :   -0.001946
  23 C :   -0.073615
  24 S :    0.213072
  25 C :   -0.099596
  26 C :    0.009660
  27 C :    0.303637
  28 C :   -0.290616
  29 C :   -0.196102
  30 N :    0.186540
  31 C :   -0.185483
  32 N :    0.169346
  33 C :   -0.033445
  34 C :   -0.041126
  35 S :    0.224302
  36 C :   -0.058208
  37 N :   -0.058469
  38 C :    0.089880
  39 C :   -0.048864
  40 C :    0.065110
  41 N :   -0.086528
  42 C :   -0.017890
  43 C :    0.084818
  44 C :   -0.067427
  45 C :   -0.025403
  46 C :    0.008789
  47 C :   -0.102764
  48 S :    0.208283
  49 C :   -0.084436
  50 C :   -0.018536
  51 C :    0.306963
  52 C :   -0.294165
  53 C :   -0.185543
  54 N :    0.192507
  55 C :   -0.186700
  56 N :    0.167639
  57 C :    0.026180
  58 C :   -0.112407
  59 S :    0.209899
  60 C :    0.028027
  61 C :   -0.095037
  62 C :    0.303832
  63 C :   -0.347746
  64 C :   -0.181604
  65 N :    0.148778
  66 C :   -0.205912
  67 N :    0.161179
  68 C :    0.051093
  69 C :   -0.006650
  70 C :   -0.081043
  71 C :    0.099027
  72 C :   -0.018022
  73 C :    0.037669
  74 C :    0.037979
  75 C :   -0.020690
  76 C :    0.099049
  77 C :   -0.085555
  78 C :    0.155109
  79 O :   -0.150391
  80 H :   -0.017573
  81 H :   -0.004538
  82 H :   -0.004738
  83 H :   -0.008169
  84 H :    0.000626
  85 H :   -0.012170
  86 H :    0.020397
  87 H :    0.026304
  88 H :    0.020757
  89 H :    0.015149
  90 H :    0.000728
  91 H :   -0.007816
  92 H :    0.003593
  93 H :    0.009630
  94 H :    0.035707
  95 H :    0.022693
  96 H :   -0.010049
  97 H :   -0.015827
  98 H :   -0.004949
  99 H :   -0.004595
 100 H :   -0.008368
 101 H :   -0.007489
Sum of atomic charges:   -0.0000000

LOEWDIN ATOMIC CHARGES
----------------------
   0 C :   -0.009673
   1 C :   -0.013182
   2 C :   -0.012684
   3 C :   -0.005124
   4 C :   -0.005019
   5 C :    0.019313
   6 C :   -0.022991
   7 C :   -0.057765
   8 C :    0.032434
   9 C :   -0.009126
  10 C :    0.083619
  11 O :   -0.145417
  12 C :   -0.088930
  13 C :    0.065903
  14 C :   -0.136371
  15 C :   -0.016104
  16 N :   -0.047507
  17 C :   -0.018552
  18 N :   -0.046946
  19 C :    0.042120
  20 C :   -0.180554
  21 C :    0.007884
  22 C :   -0.063728
  23 C :   -0.161662
  24 S :    0.499107
  25 C :   -0.180073
  26 C :   -0.064963
  27 C :    0.081228
  28 C :   -0.098014
  29 C :   -0.019179
  30 N :   -0.025684
  31 C :   -0.012863
  32 N :   -0.034118
  33 C :   -0.001062
  34 C :   -0.180252
  35 S :    0.509067
  36 C :    0.013684
  37 N :   -0.089658
  38 C :    0.060601
  39 C :   -0.065754
  40 C :    0.040098
  41 N :   -0.107885
  42 C :   -0.032931
  43 C :   -0.003738
  44 C :   -0.160179
  45 C :   -0.019756
  46 C :   -0.055122
  47 C :   -0.188672
  48 S :    0.492549
  49 C :   -0.161520
  50 C :   -0.073447
  51 C :    0.076606
  52 C :   -0.093586
  53 C :   -0.021233
  54 N :   -0.015746
  55 C :   -0.013978
  56 N :   -0.032729
  57 C :    0.022080
  58 C :   -0.175314
  59 S :    0.497156
  60 C :    0.041905
  61 C :   -0.091569
  62 C :    0.075849
  63 C :   -0.141436
  64 C :   -0.017613
  65 N :   -0.052916
  66 C :   -0.025635
  67 N :   -0.053458
  68 C :   -0.026592
  69 C :   -0.055604
  70 C :    0.033892
  71 C :   -0.008065
  72 C :   -0.008976
  73 C :   -0.011514
  74 C :   -0.012635
  75 C :   -0.005390
  76 C :   -0.006057
  77 C :    0.019844
  78 C :    0.085152
  79 O :   -0.138612
  80 H :    0.031646
  81 H :    0.032809
  82 H :    0.033229
  83 H :    0.035288
  84 H :    0.040742
  85 H :    0.039156
  86 H :    0.045462
  87 H :    0.042761
  88 H :    0.048072
  89 H :    0.031018
  90 H :    0.036253
  91 H :    0.031896
  92 H :    0.032927
  93 H :    0.041142
  94 H :    0.045451
  95 H :    0.044017
  96 H :    0.040063
  97 H :    0.032396
  98 H :    0.033020
  99 H :    0.033412
 100 H :    0.034897
 101 H :    0.039115

  Mayer bond orders larger than 0.100000
B(  0-C ,  1-C ) :   1.4886 B(  0-C ,  9-C ) :   1.2457 B(  0-C , 80-H ) :   0.9975
B(  1-C ,  2-C ) :   1.2605 B(  1-C , 81-H ) :   0.9889 B(  2-C ,  3-C ) :   1.4891
B(  2-C , 82-H ) :   0.9884 B(  3-C ,  4-C ) :   1.2409 B(  3-C , 83-H ) :   0.9979
B(  4-C ,  5-C ) :   1.2044 B(  4-C ,  9-C ) :   1.2568 B(  5-C ,  6-C ) :   1.4587
B(  5-C , 84-H ) :   0.9945 B(  6-C ,  7-C ) :   1.2136 B(  6-C , 13-C ) :   0.9979
B(  7-C ,  8-C ) :   1.4721 B(  7-C , 10-C ) :   0.9217 B(  8-C ,  9-C ) :   1.1837
B(  8-C , 85-H ) :   1.0165 B( 10-C , 11-O ) :   2.2655 B( 10-C , 12-C ) :   0.9392
B( 12-C , 13-C ) :   1.0349 B( 12-C , 19-C ) :   1.6767 B( 13-C , 14-C ) :   1.6526
B( 14-C , 15-C ) :   1.1691 B( 14-C , 17-C ) :   1.1281 B( 15-C , 16-N ) :   2.9982
B( 17-C , 18-N ) :   2.9931 B( 19-C , 20-C ) :   1.1291 B( 19-C , 86-H ) :   0.9292
B( 20-C , 21-C ) :   1.4021 B( 20-C , 24-S ) :   1.0918 B( 21-C , 22-C ) :   1.3544
B( 21-C , 87-H ) :   0.9799 B( 22-C , 23-C ) :   1.4228 B( 22-C , 27-C ) :   0.9973
B( 23-C , 24-S ) :   1.1547 B( 23-C , 25-C ) :   1.1868 B( 25-C , 26-C ) :   1.4381
B( 25-C , 35-S ) :   1.1234 B( 26-C , 27-C ) :   0.9976 B( 26-C , 33-C ) :   1.2546
B( 27-C , 28-C ) :   1.7166 B( 28-C , 29-C ) :   1.1346 B( 28-C , 31-C ) :   1.1359
B( 29-C , 30-N ) :   3.0042 B( 31-C , 32-N ) :   2.9819 B( 33-C , 34-C ) :   1.4969
B( 33-C , 88-H ) :   1.0078 B( 34-C , 35-S ) :   1.1228 B( 34-C , 36-C ) :   0.9959
B( 36-C , 37-N ) :   1.5988 B( 36-C , 41-N ) :   1.5938 B( 37-N , 38-C ) :   1.5329
B( 38-C , 39-C ) :   1.3711 B( 38-C , 89-H ) :   0.9800 B( 39-C , 40-C ) :   1.3304
B( 39-C , 90-H ) :   0.9761 B( 40-C , 41-N ) :   1.5034 B( 40-C , 42-C ) :   1.0781
B( 42-C , 43-C ) :   1.7301 B( 42-C , 91-H ) :   0.9754 B( 43-C , 44-C ) :   1.0829
B( 43-C , 92-H ) :   0.9531 B( 44-C , 45-C ) :   1.4562 B( 44-C , 48-S ) :   1.1170
B( 45-C , 46-C ) :   1.3077 B( 45-C , 93-H ) :   0.9916 B( 46-C , 47-C ) :   1.4273
B( 46-C , 51-C ) :   0.9972 B( 47-C , 48-S ) :   1.1264 B( 47-C , 49-C ) :   1.1971
B( 49-C , 50-C ) :   1.3931 B( 49-C , 59-S ) :   1.1662 B( 50-C , 51-C ) :   0.9961
B( 50-C , 57-C ) :   1.3252 B( 51-C , 52-C ) :   1.7185 B( 52-C , 53-C ) :   1.1321
B( 52-C , 55-C ) :   1.1358 B( 53-C , 54-N ) :   2.9958 B( 55-C , 56-N ) :   2.9859
B( 57-C , 58-C ) :   1.4139 B( 57-C , 94-H ) :   0.9740 B( 58-C , 59-S ) :   1.0786
B( 58-C , 60-C ) :   1.1899 B( 60-C , 61-C ) :   1.6068 B( 60-C , 95-H ) :   0.9256
B( 61-C , 62-C ) :   1.0691 B( 61-C , 78-C ) :   0.9395 B( 62-C , 63-C ) :   1.6348
B( 62-C , 68-C ) :   0.9896 B( 63-C , 64-C ) :   1.1469 B( 63-C , 66-C ) :   1.1391
B( 64-C , 65-N ) :   2.9683 B( 66-C , 67-N ) :   2.9948 B( 68-C , 69-C ) :   1.2122
B( 68-C , 77-C ) :   1.4498 B( 69-C , 70-C ) :   1.4707 B( 69-C , 78-C ) :   0.9498
B( 70-C , 71-C ) :   1.1778 B( 70-C , 96-H ) :   1.0170 B( 71-C , 72-C ) :   1.2449
B( 71-C , 76-C ) :   1.2546 B( 72-C , 73-C ) :   1.4881 B( 72-C , 97-H ) :   0.9979
B( 73-C , 74-C ) :   1.2594 B( 73-C , 98-H ) :   0.9891 B( 74-C , 75-C ) :   1.4881
B( 74-C , 99-H ) :   0.9889 B( 75-C , 76-C ) :   1.2402 B( 75-C ,100-H ) :   0.9976
B( 76-C , 77-C ) :   1.2051 B( 77-C ,101-H ) :   0.9909 B( 78-C , 79-O ) :   2.1937

-----------------------------------------------------------------------------
         ABSORPTION SPECTRUM VIA TRANSITION ELECTRIC DIPOLE MOMENTS
-----------------------------------------------------------------------------
State   Energy  Wavelength   fosc         T2         TX        TY        TZ
        (cm-1)    (nm)                  (au**2)     (au)      (au)      (au)
-----------------------------------------------------------------------------
   0   14623.6    683.8   0.301428018   6.78586  -0.49110   0.76139  -2.44233
   1   15362.6    650.9   0.170687008   3.65772   1.83154  -0.51213  -0.20225
   2   21034.0    475.4   0.927243482  14.51270  -2.68070   1.68958  -2.11468
   3   21740.6    460.0   1.254908663  19.00275  -1.34134  -0.39029   4.12931
   4   22680.2    440.9   0.005144776   0.07468   0.06933  -0.00548  -0.26428
   5   24469.2    408.7   0.002470942   0.03324   0.16821   0.07030  -0.00287
   6   24951.3    400.8   0.061933836   0.81717  -0.21822   0.55650  -0.67813
   7   25433.9    393.2   0.028131073   0.36412  -0.53192  -0.23390  -0.16271
   8   26420.2    378.5   0.009112992   0.11355  -0.23041  -0.16575   0.18163
   9   27671.3    361.4   0.028540595   0.33955  -0.36692   0.31554  -0.32458
  10   27904.9    358.4   0.195621505   2.30788   0.38947  -0.52168   1.37261
  11   28307.0    353.3   0.130100518   1.51307   0.75266  -0.56787   0.79000
  12   28640.0    349.2   0.001967990   0.02262   0.03529  -0.12544  -0.07511
  13   29055.5    344.2   0.346362964   3.92446   1.46585  -0.81830   1.05172
  14   29245.3    341.9   0.060777397   0.68417  -0.36086  -0.46680   0.57969
  15   29462.1    339.4   0.142686125   1.59438  -0.79330   0.63968  -0.74557
  16   29930.1    334.1   0.193498615   2.12836   1.19840  -0.73809   0.38397
  17   30017.4    333.1   0.335675765   3.68147   0.49603   0.72317  -1.70659
  18   30369.6    329.3   0.644025173   6.98134   2.49787   0.34748   0.78819
  19   30668.9    326.1   0.036166971   0.38823  -0.12120  -0.47392   0.38593
  20   30903.8    323.6   0.195993055   2.08787   0.55912  -0.63000   1.17404
  21   31417.1    318.3   0.089225732   0.93497   0.59525  -0.36544  -0.66866
  22   31544.0    317.0   0.232213028   2.42351   1.16973  -0.37940  -0.95462
  23   32021.1    312.3   0.053078182   0.54570  -0.69964   0.16933   0.16595
  24   32122.8    311.3   0.313515518   3.21308   1.74737  -0.19788   0.34733
  25   32264.3    309.9   0.021865106   0.22310  -0.01914   0.15593   0.44545
  26   32517.5    307.5   0.064580984   0.65383   0.77844  -0.08617   0.20106
  27   32537.3    307.3   0.288514108   2.91918  -0.52516   1.29478  -0.98333
  28   32575.4    307.0   0.004028988   0.04072   0.15764   0.10089  -0.07543
  29   32866.7    304.3   0.028337484   0.28385   0.19092   0.03393   0.49623
  30   33432.2    299.1   0.231231662   2.27697   0.49699  -0.30451   1.39185
  31   33591.8    297.7   0.010022034   0.09822  -0.29244   0.10893  -0.02880
  32   33661.5    297.1   0.381364562   3.72977  -1.92287  -0.17764   0.02774
  33   34110.1    293.2   0.199269109   1.92324  -0.96124   0.97871   0.20340
  34   34230.6    292.1   0.063249414   0.60830   0.49455  -0.57766  -0.17328
  35   34278.8    291.7   0.204597199   1.96494   0.37346  -0.93109   0.97905
  36   34398.4    290.7   0.051910729   0.49681   0.59221  -0.36320  -0.11907
  37   34460.4    290.2   0.050732895   0.48467  -0.29799   0.40478   0.48169
  38   34770.5    287.6   0.217540721   2.05971   0.04211   1.30198  -0.60232
  39   34951.3    286.1   0.242205203   2.28137   1.33283   0.69224   0.16046
  40   35107.8    284.8   0.455152313   4.26804   1.81538  -0.36039  -0.91791
  41   36082.1    277.1   0.008968592   0.08183   0.01538   0.14094  -0.24845
  42   36485.7    274.1   0.071208286   0.64252   0.79469  -0.00051   0.10479
  43   36942.2    270.7   0.024078976   0.21458  -0.13443  -0.11081  -0.42922
  44   37089.7    269.6   0.035186949   0.31232   0.38686  -0.24743   0.31850
  45   37396.9    267.4   0.077725035   0.68423  -0.51782   0.62019  -0.17735
  46   37503.9    266.6   0.173655328   1.52436  -0.92570   0.50580   0.64156
  47   37636.7    265.7   0.024557737   0.21481   0.40777  -0.10060  -0.19599
  48   38290.7    261.2   0.003045392   0.02618   0.12056  -0.06504  -0.08613
  49   38446.9    260.1   0.016988168   0.14547  -0.34379  -0.11538   0.11815
  50   38464.3    260.0   0.025230960   0.21595   0.34857  -0.22468   0.20969
  51   38926.7    256.9   0.002515383   0.02127  -0.04749   0.08988   0.10459
  52   39361.3    254.1   0.036243789   0.30314  -0.34039   0.29462   0.31697
  53   39406.0    253.8   0.058592177   0.48950   0.17532  -0.29316  -0.61059
  54   39489.0    253.2   0.085856404   0.71577   0.57501  -0.57706   0.22832
  55   39539.6    252.9   0.001999365   0.01665  -0.10545   0.00243  -0.07431
  56   39750.8    251.6   0.191864871   1.58900  -0.59362  -0.36110   1.05178
  57   39849.7    250.9   0.084085874   0.69466   0.01232  -0.46405  -0.69222
  58   39883.0    250.7   0.064433920   0.53187  -0.23249   0.44507   0.52889
  59   40111.9    249.3   0.016570928   0.13600   0.04535   0.20244  -0.30490
  60   40158.6    249.0   0.001489740   0.01221  -0.05100  -0.08189  -0.05391
  61   40313.4    248.1   0.004615045   0.03769  -0.04769  -0.10892   0.15346

FINAL SINGLE POINT ENERGY     -4738.123288860567

DIPOLE MOMENT
-------------
                                X             Y             Z
Electronic contribution:     14.50883      13.77808      -8.99942
Nuclear contribution   :    -15.01709     -16.92549       9.58816
                        -----------------------------------------
Total Dipole Moment    :     -0.50827      -3.14741       0.58874
                        -----------------------------------------
Magnitude (a.u.)       :      3.24209
Magnitude (Debye)      :      8.24074

Rotational constants in cm-1:     0.001053     0.000187     0.000163
Rotational constants in MHz :    31.567269     5.618745     4.900628

                             ****ORCA TERMINATED NORMALLY****
TOTAL RUN TIME: 0 days 0 hours 11 minutes 2 seconds 142 msec
