                         Program Version 4.2.0 -  RELEASE  -
|  1> # ORCA input file
|  2> # SCF done       -209.067122491344          0.000512222593
|  3> ! CAM-B3LYP def2-SVP def2/J RIJCOSX Grid4 TightSCF
|  4> %maxcore 5000
|  5> %tddft
|  6>     Mode sTDDFT
|  7>     Ethresh 5.0
|  8>     maxcore 5000
|  9> end
| 10>
| 11> %pal
| 12>   nprocs 6
| 13>   end
| 14> * xyz 0 1
| 15>    C        1.77804         6.00152        -4.10906
| 16>    C        0.66466         5.49718        -4.72466
| 17>    C        0.45441         4.11142        -4.78407
| 18>    C        1.35902         3.24917        -4.22669
| 19>    C        2.51451         3.73434        -3.58145
| 20>    C        3.44399         2.84804        -2.99002
| 21>    C        4.55053         3.35499        -2.36401
| 22>    C        4.77323         4.76298        -2.33347
| 23>    C        3.88910         5.64141        -2.89068
| 24>    C        2.72931         5.14211        -3.52494
| 25>    C        6.04813         5.03787        -1.65193
| 26>    O        6.54653         6.10891        -1.39196
| 27>    C        6.65081         3.69633        -1.38812
| 28>    C        5.63437         2.69595        -1.64201
| 29>    C        5.55662         1.44342        -1.09009
| 30>    C        6.50569         0.91593        -0.19427
| 31>    N        7.24025         0.45772         0.56025
| 32>    C        4.46207         0.57208        -1.27358
| 33>    N        3.59668        -0.17304        -1.38487
| 34>    C        7.96804         3.63374        -1.05567
| 35>    C        8.84846         2.52846        -1.09824
| 36>    C        8.74131         1.34640        -1.81483
| 37>    C        9.82734         0.50479        -1.60330
| 38>    C       10.77664         1.04758        -0.71866
| 39>    S       10.34551         2.59867        -0.17633
| 40>    C       11.81675         0.09338        -0.54020
| 41>    C       11.52198        -1.03831        -1.31063
| 42>    C       10.26379        -0.82400        -2.00270
| 43>    C        9.61336        -1.69122        -2.83054
| 44>    C       10.15391        -2.95378        -3.15229
| 45>    N       10.61403        -3.97040        -3.41581
| 46>    C        8.37164        -1.36392        -3.41459
| 47>    N        7.36446        -1.08246        -3.88485
| 48>    C       12.48718        -2.04594        -1.17701
| 49>    C       13.48508        -1.68016        -0.31211
| 50>    S       13.26848        -0.07937         0.33736
| 51>    C       14.67326        -2.51816         0.04851
| 52>    C       15.46784        -1.93317         1.21859
| 53>    N       15.55796        -2.46072        -1.13674
| 54>    N       15.97064        -3.39195        -1.77303
| 55>    C       15.74517        -4.82884        -1.49166
| 56>    C       14.72229        -5.01152        -0.43297
| 57>    C       14.22985        -3.90890         0.32136
| 58>    N       13.36075        -4.36813         1.17567
| 59>    O       13.30685        -5.69095         0.97999
| 60>    N       14.13099        -6.08662         0.00322
| 61>    C       15.33759        -5.48723        -2.81075
| 62>    C       17.08022        -5.30393        -0.99720
| 63>    C       18.13259        -5.79701        -1.71835
| 64>    C       19.23800        -6.07342        -0.89708
| 65>    C       19.00645        -5.76847         0.44946
| 66>    S       17.43961        -5.15021         0.71104
| 67>    C       20.16790        -6.06690         1.20876
| 68>    C       21.14311        -6.56984         0.31946
| 69>    C       20.58928        -6.59219        -1.02868
| 70>    C       21.20378        -7.00888        -2.17203
| 71>    C       22.52678        -7.50044        -2.18164
| 72>    N       23.60004        -7.90231        -2.19789
| 73>    C       20.55218        -6.97745        -3.42340
| 74>    N       20.01984        -6.95202        -4.43843
| 75>    C       22.32319        -6.88305         0.96864
| 76>    C       22.26311        -6.62859         2.34415
| 77>    S       20.69336        -5.98676         2.82439
| 78>    C       23.36092        -6.86620         3.18893
| 79>    C       23.49083        -6.69034         4.54132
| 80>    C       24.67990        -6.95971         5.33311
| 81>    C       25.90522        -7.37177         4.87885
| 82>    C       27.01836        -7.60580         5.71438
| 83>    N       27.96202        -7.81457         6.33366
| 84>    C       26.24972        -7.61103         3.53183
| 85>    N       26.61125        -7.82046         2.46205
| 86>    C       24.34790        -6.68814         6.72879
| 87>    C       22.99800        -6.23763         6.79545
| 88>    C       22.40203        -5.89912         7.97610
| 89>    C       23.14482        -5.99889         9.17333
| 90>    C       22.58632        -5.66308        10.42204
| 91>    C       23.32540        -5.76857        11.56923
| 92>    C       24.65423        -6.21465        11.51687
| 93>    C       25.22638        -6.54885        10.31924
| 94>    C       24.49476        -6.45152         9.11848
| 95>    C       25.08388        -6.79420         7.87897
| 96>    C       22.43237        -6.21777         5.44246
| 97>    O       21.30124        -5.87709         5.13373
| 98>    H        1.94559         7.06755        -4.06076
| 99>    H       -0.05959         6.16311        -5.16938
|100>    H       -0.42928         3.73017        -5.27336
|101>    H        1.19984         2.18172        -4.26654
|102>    H        3.26329         1.78662        -3.05677
|103>    H        4.07129         6.70493        -2.84762
|104>    H        8.40991         4.58502        -0.77322
|105>    H        7.92697         1.13805        -2.48477
|106>    H       12.45069        -2.99466        -1.68213
|107>    H       15.85244        -0.95485         0.94111
|108>    H       16.30532        -2.58225         1.46625
|109>    H       14.82023        -1.84438         2.08731
|110>    H       14.33425        -5.16931        -3.08579
|111>    H       15.34559        -6.56762        -2.69832
|112>    H       16.02371        -5.18693        -3.59665
|113>    H       18.10667        -5.95625        -2.77963
|114>    H       23.20650        -7.27733         0.49782
|115>    H       24.22322        -7.25033         2.65730
|116>    H       21.37698        -5.55979         7.99588
|117>    H       21.56241        -5.32053        10.45562
|118>    H       22.89000        -5.50902        12.52252
|119>    H       25.22340        -6.29234        12.43097
|120>    H       26.24937        -6.89243        10.27449
|121>    H       26.10708        -7.13406         7.87500
|122> *
|123>
|124>                          ****END OF INPUT****

CARTESIAN COORDINATES (ANGSTROEM)
---------------------------------
  C      1.778040    6.001520   -4.109060
  C      0.664660    5.497180   -4.724660
  C      0.454410    4.111420   -4.784070
  C      1.359020    3.249170   -4.226690
  C      2.514510    3.734340   -3.581450
  C      3.443990    2.848040   -2.990020
  C      4.550530    3.354990   -2.364010
  C      4.773230    4.762980   -2.333470
  C      3.889100    5.641410   -2.890680
  C      2.729310    5.142110   -3.524940
  C      6.048130    5.037870   -1.651930
  O      6.546530    6.108910   -1.391960
  C      6.650810    3.696330   -1.388120
  C      5.634370    2.695950   -1.642010
  C      5.556620    1.443420   -1.090090
  C      6.505690    0.915930   -0.194270
  N      7.240250    0.457720    0.560250
  C      4.462070    0.572080   -1.273580
  N      3.596680   -0.173040   -1.384870
  C      7.968040    3.633740   -1.055670
  C      8.848460    2.528460   -1.098240
  C      8.741310    1.346400   -1.814830
  C      9.827340    0.504790   -1.603300
  C     10.776640    1.047580   -0.718660
  S     10.345510    2.598670   -0.176330
  C     11.816750    0.093380   -0.540200
  C     11.521980   -1.038310   -1.310630
  C     10.263790   -0.824000   -2.002700
  C      9.613360   -1.691220   -2.830540
  C     10.153910   -2.953780   -3.152290
  N     10.614030   -3.970400   -3.415810
  C      8.371640   -1.363920   -3.414590
  N      7.364460   -1.082460   -3.884850
  C     12.487180   -2.045940   -1.177010
  C     13.485080   -1.680160   -0.312110
  S     13.268480   -0.079370    0.337360
  C     14.673260   -2.518160    0.048510
  C     15.467840   -1.933170    1.218590
  N     15.557960   -2.460720   -1.136740
  N     15.970640   -3.391950   -1.773030
  C     15.745170   -4.828840   -1.491660
  C     14.722290   -5.011520   -0.432970
  C     14.229850   -3.908900    0.321360
  N     13.360750   -4.368130    1.175670
  O     13.306850   -5.690950    0.979990
  N     14.130990   -6.086620    0.003220
  C     15.337590   -5.487230   -2.810750
  C     17.080220   -5.303930   -0.997200
  C     18.132590   -5.797010   -1.718350
  C     19.238000   -6.073420   -0.897080
  C     19.006450   -5.768470    0.449460
  S     17.439610   -5.150210    0.711040
  C     20.167900   -6.066900    1.208760
  C     21.143110   -6.569840    0.319460
  C     20.589280   -6.592190   -1.028680
  C     21.203780   -7.008880   -2.172030
  C     22.526780   -7.500440   -2.181640
  N     23.600040   -7.902310   -2.197890
  C     20.552180   -6.977450   -3.423400
  N     20.019840   -6.952020   -4.438430
  C     22.323190   -6.883050    0.968640
  C     22.263110   -6.628590    2.344150
  S     20.693360   -5.986760    2.824390
  C     23.360920   -6.866200    3.188930
  C     23.490830   -6.690340    4.541320
  C     24.679900   -6.959710    5.333110
  C     25.905220   -7.371770    4.878850
  C     27.018360   -7.605800    5.714380
  N     27.962020   -7.814570    6.333660
  C     26.249720   -7.611030    3.531830
  N     26.611250   -7.820460    2.462050
  C     24.347900   -6.688140    6.728790
  C     22.998000   -6.237630    6.795450
  C     22.402030   -5.899120    7.976100
  C     23.144820   -5.998890    9.173330
  C     22.586320   -5.663080   10.422040
  C     23.325400   -5.768570   11.569230
  C     24.654230   -6.214650   11.516870
  C     25.226380   -6.548850   10.319240
  C     24.494760   -6.451520    9.118480
  C     25.083880   -6.794200    7.878970
  C     22.432370   -6.217770    5.442460
  O     21.301240   -5.877090    5.133730
  H      1.945590    7.067550   -4.060760
  H     -0.059590    6.163110   -5.169380
  H     -0.429280    3.730170   -5.273360
  H      1.199840    2.181720   -4.266540
  H      3.263290    1.786620   -3.056770
  H      4.071290    6.704930   -2.847620
  H      8.409910    4.585020   -0.773220
  H      7.926970    1.138050   -2.484770
  H     12.450690   -2.994660   -1.682130
  H     15.852440   -0.954850    0.941110
  H     16.305320   -2.582250    1.466250
  H     14.820230   -1.844380    2.087310
  H     14.334250   -5.169310   -3.085790
  H     15.345590   -6.567620   -2.698320
  H     16.023710   -5.186930   -3.596650
  H     18.106670   -5.956250   -2.779630
  H     23.206500   -7.277330    0.497820
  H     24.223220   -7.250330    2.657300
  H     21.376980   -5.559790    7.995880
  H     21.562410   -5.320530   10.455620
  H     22.890000   -5.509020   12.522520
  H     25.223400   -6.292340   12.430970
  H     26.249370   -6.892430   10.274490
  H     26.107080   -7.134060    7.875000

 Total Charge           Charge          ....    0
 Multiplicity           Mult            ....    1
 Number of Electrons    NEL             ....  580
 Basis Dimension        Dim             .... 1298

ORBITAL ENERGIES
----------------

  NO   OCC          E(Eh)            E(eV)
   0   2.0000     -89.003335     -2421.9039
   1   2.0000     -89.002683     -2421.8861
   2   2.0000     -88.999947     -2421.8117
   3   2.0000     -88.995677     -2421.6955
   4   2.0000     -19.360310      -526.8208
   5   2.0000     -19.229758      -523.2683
   6   2.0000     -19.216741      -522.9141
   7   2.0000     -14.497615      -394.5002
   8   2.0000     -14.497028      -394.4842
   9   2.0000     -14.485493      -394.1703
  10   2.0000     -14.485058      -394.1585
  11   2.0000     -14.437465      -392.8634
  12   2.0000     -14.436433      -392.8353
  13   2.0000     -14.436181      -392.8285
  14   2.0000     -14.434586      -392.7851
  15   2.0000     -14.420303      -392.3964
  16   2.0000     -14.419819      -392.3832
  17   2.0000     -14.417058      -392.3081
  18   2.0000     -14.414915      -392.2498
  19   2.0000     -10.377073      -282.3745
  20   2.0000     -10.371723      -282.2289
  21   2.0000     -10.371663      -282.2273
  22   2.0000     -10.367918      -282.1254
  23   2.0000     -10.363691      -282.0104
  24   2.0000     -10.361520      -281.9513
  25   2.0000     -10.359450      -281.8950
  26   2.0000     -10.359102      -281.8855
  27   2.0000     -10.346512      -281.5429
  28   2.0000     -10.345700      -281.5208
  29   2.0000     -10.345584      -281.5177
  30   2.0000     -10.345131      -281.5053
  31   2.0000     -10.344499      -281.4881
  32   2.0000     -10.344213      -281.4804
  33   2.0000     -10.343467      -281.4601
  34   2.0000     -10.342260      -281.4272
  35   2.0000     -10.341056      -281.3944
  36   2.0000     -10.339046      -281.3398
  37   2.0000     -10.338409      -281.3224
  38   2.0000     -10.337758      -281.3047
  39   2.0000     -10.336532      -281.2713
  40   2.0000     -10.336219      -281.2628
  41   2.0000     -10.335001      -281.2297
  42   2.0000     -10.334123      -281.2058
  43   2.0000     -10.332748      -281.1684
  44   2.0000     -10.332391      -281.1586
  45   2.0000     -10.331237      -281.1273
  46   2.0000     -10.327610      -281.0286
  47   2.0000     -10.322664      -280.8940
  48   2.0000     -10.321164      -280.8532
  49   2.0000     -10.320014      -280.8219
  50   2.0000     -10.318398      -280.7779
  51   2.0000     -10.317326      -280.7487
  52   2.0000     -10.316726      -280.7324
  53   2.0000     -10.316007      -280.7128
  54   2.0000     -10.313898      -280.6554
  55   2.0000     -10.312630      -280.6209
  56   2.0000     -10.311136      -280.5803
  57   2.0000     -10.311111      -280.5796
  58   2.0000     -10.310889      -280.5736
  59   2.0000     -10.307460      -280.4803
  60   2.0000     -10.305024      -280.4140
  61   2.0000     -10.304544      -280.4009
  62   2.0000     -10.303110      -280.3619
  63   2.0000     -10.302801      -280.3535
  64   2.0000     -10.302301      -280.3399
  65   2.0000     -10.302020      -280.3322
  66   2.0000     -10.300988      -280.3041
  67   2.0000     -10.300288      -280.2851
  68   2.0000     -10.298611      -280.2395
  69   2.0000     -10.298492      -280.2362
  70   2.0000     -10.298209      -280.2285
  71   2.0000     -10.297480      -280.2087
  72   2.0000     -10.294225      -280.1201
  73   2.0000     -10.291001      -280.0324
  74   2.0000     -10.290698      -280.0241
  75   2.0000     -10.290511      -280.0190
  76   2.0000     -10.289994      -280.0050
  77   2.0000     -10.289459      -279.9904
  78   2.0000     -10.288922      -279.9758
  79   2.0000     -10.287119      -279.9268
  80   2.0000     -10.286661      -279.9143
  81   2.0000     -10.286361      -279.9061
  82   2.0000     -10.285741      -279.8893
  83   2.0000      -8.097484      -220.3437
  84   2.0000      -8.096982      -220.3301
  85   2.0000      -8.094662      -220.2669
  86   2.0000      -8.087868      -220.0821
  87   2.0000      -6.066604      -165.0807
  88   2.0000      -6.066191      -165.0694
  89   2.0000      -6.063819      -165.0049
  90   2.0000      -6.062549      -164.9703
  91   2.0000      -6.061913      -164.9530
  92   2.0000      -6.060053      -164.9024
  93   2.0000      -6.059626      -164.8908
  94   2.0000      -6.059569      -164.8893
  95   2.0000      -6.057304      -164.8276
  96   2.0000      -6.057211      -164.8251
  97   2.0000      -6.052472      -164.6961
  98   2.0000      -6.050471      -164.6417
  99   2.0000      -1.318082       -35.8668
 100   2.0000      -1.171328       -31.8734
 101   2.0000      -1.145069       -31.1589
 102   2.0000      -1.132104       -30.8061
 103   2.0000      -1.055457       -28.7204
 104   2.0000      -1.054354       -28.6904
 105   2.0000      -1.032579       -28.0979
 106   2.0000      -1.028859       -27.9967
 107   2.0000      -1.027454       -27.9585
 108   2.0000      -1.022533       -27.8245
 109   2.0000      -1.021561       -27.7981
 110   2.0000      -1.015196       -27.6249
 111   2.0000      -1.014110       -27.5953
 112   2.0000      -1.012591       -27.5540
 113   2.0000      -1.009639       -27.4737
 114   2.0000      -1.003649       -27.3107
 115   2.0000      -1.000535       -27.2259
 116   2.0000      -0.998419       -27.1684
 117   2.0000      -0.996899       -27.1270
 118   2.0000      -0.994451       -27.0604
 119   2.0000      -0.978325       -26.6216
 120   2.0000      -0.975504       -26.5448
 121   2.0000      -0.971741       -26.4424
 122   2.0000      -0.966348       -26.2957
 123   2.0000      -0.953394       -25.9432
 124   2.0000      -0.932816       -25.3832
 125   2.0000      -0.929608       -25.2959
 126   2.0000      -0.924318       -25.1520
 127   2.0000      -0.918592       -24.9962
 128   2.0000      -0.908742       -24.7281
 129   2.0000      -0.900645       -24.5078
 130   2.0000      -0.896123       -24.3848
 131   2.0000      -0.886015       -24.1097
 132   2.0000      -0.882800       -24.0222
 133   2.0000      -0.882682       -24.0190
 134   2.0000      -0.881073       -23.9752
 135   2.0000      -0.867553       -23.6073
 136   2.0000      -0.867300       -23.6004
 137   2.0000      -0.865588       -23.5538
 138   2.0000      -0.865153       -23.5420
 139   2.0000      -0.833099       -22.6698
 140   2.0000      -0.829325       -22.5671
 141   2.0000      -0.822406       -22.3788
 142   2.0000      -0.820558       -22.3285
 143   2.0000      -0.800897       -21.7935
 144   2.0000      -0.799664       -21.7600
 145   2.0000      -0.787262       -21.4225
 146   2.0000      -0.783666       -21.3246
 147   2.0000      -0.780094       -21.2274
 148   2.0000      -0.778718       -21.1900
 149   2.0000      -0.771981       -21.0067
 150   2.0000      -0.768225       -20.9045
 151   2.0000      -0.761749       -20.7283
 152   2.0000      -0.740333       -20.1455
 153   2.0000      -0.733888       -19.9701
 154   2.0000      -0.718561       -19.5530
 155   2.0000      -0.713077       -19.4038
 156   2.0000      -0.709650       -19.3106
 157   2.0000      -0.709166       -19.2974
 158   2.0000      -0.704506       -19.1706
 159   2.0000      -0.702854       -19.1256
 160   2.0000      -0.699601       -19.0371
 161   2.0000      -0.693763       -18.8782
 162   2.0000      -0.690807       -18.7978
 163   2.0000      -0.686041       -18.6681
 164   2.0000      -0.681156       -18.5352
 165   2.0000      -0.676973       -18.4214
 166   2.0000      -0.672236       -18.2925
 167   2.0000      -0.664827       -18.0909
 168   2.0000      -0.659104       -17.9351
 169   2.0000      -0.651205       -17.7202
 170   2.0000      -0.648819       -17.6553
 171   2.0000      -0.640572       -17.4309
 172   2.0000      -0.639222       -17.3941
 173   2.0000      -0.634896       -17.2764
 174   2.0000      -0.634109       -17.2550
 175   2.0000      -0.628290       -17.0966
 176   2.0000      -0.625779       -17.0283
 177   2.0000      -0.623844       -16.9757
 178   2.0000      -0.614888       -16.7319
 179   2.0000      -0.611011       -16.6265
 180   2.0000      -0.608629       -16.5616
 181   2.0000      -0.606778       -16.5113
 182   2.0000      -0.602521       -16.3954
 183   2.0000      -0.599217       -16.3055
 184   2.0000      -0.585114       -15.9218
 185   2.0000      -0.584010       -15.8917
 186   2.0000      -0.574201       -15.6248
 187   2.0000      -0.566765       -15.4225
 188   2.0000      -0.558557       -15.1991
 189   2.0000      -0.557174       -15.1615
 190   2.0000      -0.555377       -15.1126
 191   2.0000      -0.554571       -15.0906
 192   2.0000      -0.553014       -15.0483
 193   2.0000      -0.548947       -14.9376
 194   2.0000      -0.547670       -14.9028
 195   2.0000      -0.545623       -14.8472
 196   2.0000      -0.545064       -14.8319
 197   2.0000      -0.543553       -14.7908
 198   2.0000      -0.539724       -14.6866
 199   2.0000      -0.536640       -14.6027
 200   2.0000      -0.536272       -14.5927
 201   2.0000      -0.532880       -14.5004
 202   2.0000      -0.528177       -14.3724
 203   2.0000      -0.524298       -14.2669
 204   2.0000      -0.522594       -14.2205
 205   2.0000      -0.520945       -14.1756
 206   2.0000      -0.518602       -14.1119
 207   2.0000      -0.516219       -14.0470
 208   2.0000      -0.513403       -13.9704
 209   2.0000      -0.513056       -13.9610
 210   2.0000      -0.511456       -13.9174
 211   2.0000      -0.510804       -13.8997
 212   2.0000      -0.510570       -13.8933
 213   2.0000      -0.507076       -13.7982
 214   2.0000      -0.505785       -13.7631
 215   2.0000      -0.502928       -13.6854
 216   2.0000      -0.501881       -13.6569
 217   2.0000      -0.501121       -13.6362
 218   2.0000      -0.498067       -13.5531
 219   2.0000      -0.495233       -13.4760
 220   2.0000      -0.494512       -13.4564
 221   2.0000      -0.493487       -13.4285
 222   2.0000      -0.489939       -13.3319
 223   2.0000      -0.488797       -13.3008
 224   2.0000      -0.484741       -13.1905
 225   2.0000      -0.483371       -13.1532
 226   2.0000      -0.479305       -13.0426
 227   2.0000      -0.478227       -13.0132
 228   2.0000      -0.475427       -12.9370
 229   2.0000      -0.471129       -12.8201
 230   2.0000      -0.467977       -12.7343
 231   2.0000      -0.466292       -12.6884
 232   2.0000      -0.465869       -12.6769
 233   2.0000      -0.465362       -12.6631
 234   2.0000      -0.463865       -12.6224
 235   2.0000      -0.460784       -12.5386
 236   2.0000      -0.459791       -12.5115
 237   2.0000      -0.452959       -12.3256
 238   2.0000      -0.452543       -12.3143
 239   2.0000      -0.452358       -12.3093
 240   2.0000      -0.451889       -12.2965
 241   2.0000      -0.449213       -12.2237
 242   2.0000      -0.448528       -12.2051
 243   2.0000      -0.447068       -12.1653
 244   2.0000      -0.445713       -12.1285
 245   2.0000      -0.445551       -12.1241
 246   2.0000      -0.445212       -12.1148
 247   2.0000      -0.445167       -12.1136
 248   2.0000      -0.444216       -12.0877
 249   2.0000      -0.440246       -11.9797
 250   2.0000      -0.440060       -11.9746
 251   2.0000      -0.439560       -11.9610
 252   2.0000      -0.436538       -11.8788
 253   2.0000      -0.434511       -11.8237
 254   2.0000      -0.433637       -11.7999
 255   2.0000      -0.433478       -11.7955
 256   2.0000      -0.432383       -11.7658
 257   2.0000      -0.430447       -11.7131
 258   2.0000      -0.429138       -11.6774
 259   2.0000      -0.427887       -11.6434
 260   2.0000      -0.427625       -11.6363
 261   2.0000      -0.419946       -11.4273
 262   2.0000      -0.418943       -11.4000
 263   2.0000      -0.417486       -11.3604
 264   2.0000      -0.411688       -11.2026
 265   2.0000      -0.410663       -11.1747
 266   2.0000      -0.409637       -11.1468
 267   2.0000      -0.409114       -11.1325
 268   2.0000      -0.405383       -11.0310
 269   2.0000      -0.403661       -10.9842
 270   2.0000      -0.395269       -10.7558
 271   2.0000      -0.389793       -10.6068
 272   2.0000      -0.382662       -10.4127
 273   2.0000      -0.377888       -10.2829
 274   2.0000      -0.371607       -10.1119
 275   2.0000      -0.357448        -9.7267
 276   2.0000      -0.355703        -9.6792
 277   2.0000      -0.346039        -9.4162
 278   2.0000      -0.345630        -9.4051
 279   2.0000      -0.344451        -9.3730
 280   2.0000      -0.336661        -9.1610
 281   2.0000      -0.329056        -8.9541
 282   2.0000      -0.328831        -8.9479
 283   2.0000      -0.322118        -8.7653
 284   2.0000      -0.317679        -8.6445
 285   2.0000      -0.309928        -8.4336
 286   2.0000      -0.299623        -8.1531
 287   2.0000      -0.296281        -8.0622
 288   2.0000      -0.278082        -7.5670
 289   2.0000      -0.275101        -7.4859
 290   0.0000      -0.115610        -3.1459
 291   0.0000      -0.113949        -3.1007
 292   0.0000      -0.093312        -2.5392
 293   0.0000      -0.092116        -2.5066
 294   0.0000      -0.065679        -1.7872

MULLIKEN ATOMIC CHARGES
-----------------------
   0 C :   -0.018056
   1 C :    0.037084
   2 C :    0.037398
   3 C :   -0.019401
   4 C :    0.094987
   5 C :   -0.078814
   6 C :    0.027252
   7 C :    0.019802
   8 C :   -0.085968
   9 C :    0.097424
  10 C :    0.134972
  11 O :   -0.145359
  12 C :   -0.132353
  13 C :    0.271996
  14 C :   -0.329522
  15 C :   -0.202283
  16 N :    0.165711
  17 C :   -0.172486
  18 N :    0.161739
  19 C :    0.079008
  20 C :   -0.114839
  21 C :    0.000900
  22 C :   -0.002355
  23 C :   -0.076038
  24 S :    0.216152
  25 C :   -0.101337
  26 C :    0.013149
  27 C :    0.298212
  28 C :   -0.285378
  29 C :   -0.186750
  30 N :    0.171487
  31 C :   -0.185483
  32 N :    0.176426
  33 C :   -0.026350
  34 C :   -0.024805
  35 S :    0.200704
  36 C :   -0.101782
  37 C :    0.118067
  38 N :   -0.075290
  39 N :   -0.069658
  40 C :   -0.078210
  41 C :   -0.138863
  42 C :   -0.098781
  43 N :    0.078867
  44 O :   -0.116807
  45 N :    0.081416
  46 C :    0.127589
  47 C :   -0.061923
  48 C :   -0.013667
  49 C :    0.003154
  50 C :   -0.096943
  51 S :    0.194930
  52 C :   -0.070267
  53 C :    0.048157
  54 C :    0.302573
  55 C :   -0.293933
  56 C :   -0.194788
  57 N :    0.190053
  58 C :   -0.185550
  59 N :    0.173219
  60 C :   -0.061883
  61 C :   -0.052929
  62 S :    0.244850
  63 C :   -0.027828
  64 C :   -0.093829
  65 C :    0.335043
  66 C :   -0.353171
  67 C :   -0.184373
  68 N :    0.151419
  69 C :   -0.193181
  70 N :    0.154152
  71 C :    0.041878
  72 C :   -0.001402
  73 C :   -0.077461
  74 C :    0.095380
  75 C :   -0.015075
  76 C :    0.037032
  77 C :    0.035897
  78 C :   -0.015759
  79 C :    0.093190
  80 C :   -0.078981
  81 C :    0.172380
  82 O :   -0.195276
  83 H :   -0.016409
  84 H :   -0.004501
  85 H :   -0.004289
  86 H :   -0.007712
  87 H :    0.001009
  88 H :   -0.011193
  89 H :    0.022449
  90 H :    0.024797
  91 H :    0.004657
  92 H :    0.045123
  93 H :    0.022547
  94 H :    0.047100
  95 H :    0.034280
  96 H :    0.046571
  97 H :    0.046965
  98 H :    0.009892
  99 H :    0.029197
 100 H :    0.016903
 101 H :   -0.014641
 102 H :   -0.017664
 103 H :   -0.004423
 104 H :   -0.003017
 105 H :   -0.007760
 106 H :   -0.008344
Sum of atomic charges:   -0.0000000

LOEWDIN ATOMIC CHARGES
----------------------
   0 C :   -0.009550
   1 C :   -0.012382
   2 C :   -0.012097
   3 C :   -0.005130
   4 C :   -0.004902
   5 C :    0.019062
   6 C :   -0.023303
   7 C :   -0.058090
   8 C :    0.033118
   9 C :   -0.008951
  10 C :    0.083790
  11 O :   -0.144561
  12 C :   -0.088448
  13 C :    0.066488
  14 C :   -0.136430
  15 C :   -0.015632
  16 N :   -0.047704
  17 C :   -0.018736
  18 N :   -0.045933
  19 C :    0.041746
  20 C :   -0.180556
  21 C :    0.009230
  22 C :   -0.066127
  23 C :   -0.160183
  24 S :    0.502726
  25 C :   -0.183038
  26 C :   -0.057586
  27 C :    0.083544
  28 C :   -0.096980
  29 C :   -0.013472
  30 N :   -0.033108
  31 C :   -0.014419
  32 N :   -0.029093
  33 C :   -0.024605
  34 C :   -0.160334
  35 S :    0.505508
  36 C :   -0.049593
  37 C :   -0.037886
  38 N :   -0.013205
  39 N :   -0.010453
  40 C :   -0.049477
  41 C :   -0.089758
  42 C :   -0.074403
  43 N :   -0.003100
  44 O :    0.059453
  45 N :   -0.000832
  46 C :   -0.022687
  47 C :   -0.152362
  48 C :   -0.021919
  49 C :   -0.056503
  50 C :   -0.181573
  51 S :    0.490199
  52 C :   -0.170722
  53 C :   -0.076317
  54 C :    0.077354
  55 C :   -0.097270
  56 C :   -0.020653
  57 N :   -0.020930
  58 C :   -0.016376
  59 N :   -0.029139
  60 C :    0.012599
  61 C :   -0.182868
  62 S :    0.552379
  63 C :    0.058174
  64 C :   -0.108302
  65 C :    0.076521
  66 C :   -0.139505
  67 C :   -0.017076
  68 N :   -0.052275
  69 C :   -0.023303
  70 N :   -0.047232
  71 C :   -0.025081
  72 C :   -0.056537
  73 C :    0.033349
  74 C :   -0.009101
  75 C :   -0.009328
  76 C :   -0.011276
  77 C :   -0.011802
  78 C :   -0.004364
  79 C :   -0.005712
  80 C :    0.021240
  81 C :    0.087207
  82 O :   -0.178377
  83 H :    0.032011
  84 H :    0.033022
  85 H :    0.033454
  86 H :    0.035385
  87 H :    0.040635
  88 H :    0.039535
  89 H :    0.045872
  90 H :    0.043161
  91 H :    0.038789
  92 H :    0.032165
  93 H :    0.025143
  94 H :    0.037792
  95 H :    0.038692
  96 H :    0.041920
  97 H :    0.037854
  98 H :    0.044502
  99 H :    0.048431
 100 H :    0.054005
 101 H :    0.038639
 102 H :    0.031816
 103 H :    0.033206
 104 H :    0.033939
 105 H :    0.035451
 106 H :    0.039541

  Mayer bond orders larger than 0.100000
B(  0-C ,  1-C ) :   1.4883 B(  0-C ,  9-C ) :   1.2435 B(  0-C , 83-H ) :   0.9983
B(  1-C ,  2-C ) :   1.2604 B(  1-C , 84-H ) :   0.9889 B(  2-C ,  3-C ) :   1.4895
B(  2-C , 85-H ) :   0.9881 B(  3-C ,  4-C ) :   1.2410 B(  3-C , 86-H ) :   0.9983
B(  4-C ,  5-C ) :   1.2030 B(  4-C ,  9-C ) :   1.2569 B(  5-C ,  6-C ) :   1.4573
B(  5-C , 87-H ) :   0.9944 B(  6-C ,  7-C ) :   1.2142 B(  6-C , 13-C ) :   0.9994
B(  7-C ,  8-C ) :   1.4705 B(  7-C , 10-C ) :   0.9227 B(  8-C ,  9-C ) :   1.1834
B(  8-C , 88-H ) :   1.0174 B( 10-C , 11-O ) :   2.2647 B( 10-C , 12-C ) :   0.9383
B( 12-C , 13-C ) :   1.0321 B( 12-C , 19-C ) :   1.6847 B( 13-C , 14-C ) :   1.6506
B( 14-C , 15-C ) :   1.1724 B( 14-C , 17-C ) :   1.1273 B( 15-C , 16-N ) :   2.9949
B( 17-C , 18-N ) :   2.9934 B( 19-C , 20-C ) :   1.1217 B( 19-C , 89-H ) :   0.9265
B( 20-C , 21-C ) :   1.4096 B( 20-C , 24-S ) :   1.0927 B( 21-C , 22-C ) :   1.3471
B( 21-C , 90-H ) :   0.9821 B( 22-C , 23-C ) :   1.4280 B( 22-C , 27-C ) :   0.9957
B( 23-C , 24-S ) :   1.1589 B( 23-C , 25-C ) :   1.1790 B( 25-C , 26-C ) :   1.4591
B( 25-C , 35-S ) :   1.1275 B( 26-C , 27-C ) :   1.0038 B( 26-C , 33-C ) :   1.2749
B( 27-C , 28-C ) :   1.7192 B( 28-C , 29-C ) :   1.1310 B( 28-C , 31-C ) :   1.1359
B( 29-C , 30-N ) :   2.9939 B( 31-C , 32-N ) :   2.9856 B( 33-C , 34-C ) :   1.5148
B( 33-C , 91-H ) :   0.9949 B( 34-C , 35-S ) :   1.1351 B( 34-C , 36-C ) :   0.9721
B( 36-C , 37-C ) :   1.0870 B( 36-C , 38-N ) :   0.9555 B( 36-C , 42-C ) :   0.9259
B( 37-C , 92-H ) :   0.9410 B( 37-C , 93-H ) :   0.9439 B( 37-C , 94-H ) :   0.9554
B( 38-N , 39-N ) :   1.8490 B( 39-N , 40-C ) :   0.9521 B( 40-C , 41-C ) :   0.9070
B( 40-C , 46-C ) :   1.1018 B( 40-C , 47-C ) :   0.9381 B( 41-C , 42-C ) :   1.1943
B( 41-C , 45-N ) :   1.7456 B( 42-C , 43-N ) :   1.7413 B( 43-N , 44-O ) :   1.0518
B( 43-N , 45-N ) :   0.1531 B( 44-O , 45-N ) :   1.0535 B( 46-C , 95-H ) :   0.9479
B( 46-C , 96-H ) :   0.9573 B( 46-C , 97-H ) :   0.9403 B( 47-C , 48-C ) :   1.5792
B( 47-C , 51-S ) :   1.1302 B( 48-C , 49-C ) :   1.2386 B( 48-C , 98-H ) :   0.9987
B( 49-C , 50-C ) :   1.4644 B( 49-C , 54-C ) :   1.0034 B( 50-C , 51-S ) :   1.1297
B( 50-C , 52-C ) :   1.1868 B( 52-C , 53-C ) :   1.3704 B( 52-C , 62-S ) :   1.1266
B( 53-C , 54-C ) :   0.9835 B( 53-C , 60-C ) :   1.3252 B( 54-C , 55-C ) :   1.7177
B( 55-C , 56-C ) :   1.1346 B( 55-C , 58-C ) :   1.1325 B( 56-C , 57-N ) :   2.9961
B( 58-C , 59-N ) :   2.9888 B( 60-C , 61-C ) :   1.3344 B( 60-C , 99-H ) :   1.0087
B( 61-C , 62-S ) :   1.0745 B( 61-C , 63-C ) :   1.2587 B( 62-S , 82-O ) :   0.1006
B( 63-C , 64-C ) :   1.5010 B( 63-C ,100-H ) :   0.9394 B( 64-C , 65-C ) :   1.0700
B( 64-C , 81-C ) :   0.9835 B( 65-C , 66-C ) :   1.6293 B( 65-C , 71-C ) :   0.9831
B( 66-C , 67-C ) :   1.1502 B( 66-C , 69-C ) :   1.1424 B( 67-C , 68-N ) :   2.9621
B( 69-C , 70-N ) :   2.9600 B( 71-C , 72-C ) :   1.2128 B( 71-C , 80-C ) :   1.4577
B( 72-C , 73-C ) :   1.4649 B( 72-C , 81-C ) :   0.9683 B( 73-C , 74-C ) :   1.1794
B( 73-C ,101-H ) :   1.0160 B( 74-C , 75-C ) :   1.2438 B( 74-C , 79-C ) :   1.2557
B( 75-C , 76-C ) :   1.4879 B( 75-C ,102-H ) :   0.9972 B( 76-C , 77-C ) :   1.2606
B( 76-C ,103-H ) :   0.9891 B( 77-C , 78-C ) :   1.4864 B( 77-C ,104-H ) :   0.9893
B( 78-C , 79-C ) :   1.2439 B( 78-C ,105-H ) :   0.9964 B( 79-C , 80-C ) :   1.2022
B( 80-C ,106-H ) :   0.9880 B( 81-C , 82-O ) :   2.0998

-----------------------------------------------------------------------------
         ABSORPTION SPECTRUM VIA TRANSITION ELECTRIC DIPOLE MOMENTS
-----------------------------------------------------------------------------
State   Energy  Wavelength   fosc         T2         TX        TY        TZ
        (cm-1)    (nm)                  (au**2)     (au)      (au)      (au)
-----------------------------------------------------------------------------
   0   15792.0    633.2   0.141432497   2.94842   1.46657  -0.84610   0.28580
   1   16643.5    600.8   0.180333335   3.56703   1.32930  -0.30661   1.30614
   2   21811.2    458.5   0.795959802  12.01397  -3.18159   1.28564  -0.48844
   3   22977.5    435.2   0.896169316  12.83992   2.13546  -0.37633   2.85273
   4   24232.8    412.7   0.062867449   0.85408   0.61340   0.12384   0.68006
   5   24928.9    401.1   0.002692955   0.03556  -0.10232   0.15540   0.03072
   6   25479.7    392.5   0.032616509   0.42142   0.33767  -0.35369   0.42697
   7   26214.2    381.5   0.131814457   1.65540   0.31337   0.03996   1.24724
   8   26832.7    372.7   0.011281946   0.13842   0.23441   0.02105   0.28814
   9   27582.4    362.6   0.004468549   0.05333   0.19401   0.09686   0.07946
  10   27740.3    360.5   0.018425057   0.21866   0.44200   0.06688   0.13720
  11   28273.3    353.7   0.022258833   0.25918   0.03464   0.12128   0.49323
  12   28395.9    352.2   0.091262377   1.05806  -0.02427  -0.00045  -1.02834
  13   28497.1    350.9   0.015631471   0.18058   0.28882  -0.19623   0.24220
  14   29109.6    343.5   0.022580204   0.25537   0.43024  -0.25658  -0.06655
  15   29432.2    339.8   0.005494602   0.06146  -0.04239   0.18410   0.16053
  16   29468.0    339.4   0.021199582   0.23684   0.11946  -0.44980  -0.14229
  17   30463.9    328.3   0.162259483   1.75348  -0.48701  -0.77875  -0.95386
  18   30841.5    324.2   0.356919405   3.80987  -0.26544   0.37566   1.89691
  19   31075.6    321.8   0.666434353   7.06014   1.56362  -2.14805   0.03351
  20   31115.9    321.4   0.101448170   1.07334  -0.28009  -0.31979   0.94479
  21   31574.3    316.7   0.107997189   1.12604  -0.78295  -0.37479  -0.61038
  22   32088.4    311.6   0.241807490   2.48083  -1.35618   0.50843   0.61895
  23   32392.5    308.7   0.381180584   3.87402   1.89154  -0.41811   0.34827
  24   32524.0    307.5   0.415913735   4.20993  -0.95630  -0.20224  -1.80403
  25   33041.0    302.7   0.521454562   5.19564  -0.35191   0.34527   2.22544
  26   33131.4    301.8   0.022624848   0.22481   0.22747  -0.09497   0.40503
  27   33570.7    297.9   0.004358845   0.04275   0.11723  -0.15753   0.06470
  28   33685.5    296.9   0.280004900   2.73652  -0.90936   0.90028  -1.04837
  29   33984.4    294.3   0.000471547   0.00457  -0.02244  -0.00951   0.06304
  30   34085.7    293.4   0.049483435   0.47793   0.28483  -0.60466  -0.17660
  31   34320.4    291.4   0.000052145   0.00050   0.01535   0.01041  -0.01249
  32   34448.9    290.3   0.143442171   1.37081   1.05602  -0.26097   0.43305
  33   34551.0    289.4   0.185337182   1.76594  -1.00522   0.35645  -0.79273
  34   34856.4    286.9   0.433094452   4.09050  -0.40803   0.49570   1.91789
  35   34954.8    286.1   0.346305950   3.26158  -0.38182   1.76422   0.05753
  36   35053.0    285.3   0.002476247   0.02326   0.02349  -0.14414  -0.04391
  37   35576.2    281.1   0.032107178   0.29711   0.11092  -0.16262  -0.50829
  38   35675.4    280.3   0.189321414   1.74705  -0.29274   0.29180   1.25547
  39   36249.6    275.9   0.012040446   0.10935   0.05404   0.15542  -0.28684
  40   36286.5    275.6   0.136386258   1.23737   0.86976  -0.12816   0.68151
  41   36381.1    274.9   0.004349008   0.03935   0.17565  -0.04273   0.08170
  42   36805.3    271.7   0.001297936   0.01161   0.08857  -0.05923  -0.01600
  43   37115.1    269.4   0.000636413   0.00564  -0.05507   0.05098   0.00368
  44   37816.9    264.4   0.746666379   6.50004   2.18972  -1.29768   0.14569
  45   38245.6    261.5   0.049719275   0.42798  -0.58677  -0.18540  -0.22203
  46   38425.2    260.2   0.024857160   0.21297   0.42716  -0.10305   0.14100
  47   38521.4    259.6   0.087296673   0.74606  -0.83042   0.22740   0.06892
  48   38595.0    259.1   0.013354138   0.11391   0.08115  -0.20138  -0.25840
  49   39041.3    256.1   0.008869928   0.07479   0.01084  -0.26035   0.08304
  50   39102.6    255.7   0.007864784   0.06622   0.06612  -0.22170  -0.11266
  51   39146.3    255.5   0.002685410   0.02258   0.12968  -0.00488   0.07579
  52   39378.0    253.9   0.009257894   0.07740  -0.21510  -0.15508   0.08413
  53   39555.9    252.8   0.000898476   0.00748   0.08153   0.02571  -0.01304
  54   39953.5    250.3   0.006887356   0.05675  -0.16860   0.16377  -0.03877
  55   40045.4    249.7   0.035876963   0.29494  -0.51145   0.12361  -0.13448
  56   40174.0    248.9   0.074168300   0.60778   0.36049   0.68154  -0.11547
  57   40213.6    248.7   0.076651751   0.62752   0.67512   0.41369   0.02424

FINAL SINGLE POINT ENERGY     -4923.689079847711

DIPOLE MOMENT
-------------
                                X             Y             Z
Electronic contribution:     13.48155     -10.26750      -9.38066
Nuclear contribution   :    -15.03828      13.39622      11.49880
                        -----------------------------------------
Total Dipole Moment    :     -1.55673       3.12872       2.11814
                        -----------------------------------------
Magnitude (a.u.)       :      4.08642
Magnitude (Debye)      :     10.38685

Rotational constants in cm-1:     0.001549     0.000176     0.000164
Rotational constants in MHz :    46.436889     5.287912     4.919235

                             ****ORCA TERMINATED NORMALLY****
TOTAL RUN TIME: 0 days 0 hours 11 minutes 40 seconds 78 msec
