                         Program Version 4.2.0 -  RELEASE  -
|  1> # ORCA input file
|  2> # SCF done       -214.955887029642          0.000488324186
|  3> ! CAM-B3LYP def2-SVP def2/J RIJCOSX Grid4 TightSCF
|  4> %maxcore 5000
|  5> %tddft
|  6>     Mode sTDDFT
|  7>     Ethresh 5.0
|  8>     maxcore 5000
|  9> end
| 10>
| 11> %pal
| 12>   nprocs 6
| 13>   end
| 14> * xyz 0 1
| 15>    C        0.39421         3.41506        -0.92658
| 16>    C        1.17563         4.16008        -0.08142
| 17>    C        2.57906         4.25829        -0.18477
| 18>    N        3.71946         4.38405        -0.22056
| 19>    C        0.70110         4.89661         1.02427
| 20>    N        0.39191         5.50072         1.95075
| 21>    C        0.87891         2.56525        -2.00485
| 22>    C       -0.21752         1.84330        -2.53906
| 23>    C       -0.08304         0.94906        -3.57381
| 24>    C        1.19417         0.75838        -4.10871
| 25>    C        2.28358         1.48728        -3.57224
| 26>    C        2.14776         2.39052        -2.52459
| 27>    S        3.76275         1.09966        -4.39217
| 28>    C        2.92939        -0.01226        -5.42200
| 29>    C        1.60458        -0.09539        -5.17080
| 30>    C       -1.45259         2.21638        -1.82977
| 31>    O       -2.56605         1.79709        -2.06248
| 32>    C       -1.04897         3.26272        -0.85339
| 33>    C       -1.88463         4.09709        -0.16614
| 34>    C       -3.27740         3.98345         0.03107
| 35>    C       -4.12492         2.88442        -0.02821
| 36>    C       -5.44084         3.22513         0.25059
| 37>    C       -5.61416         4.60208         0.52612
| 38>    S       -4.14462         5.45608         0.48419
| 39>    C       -6.98873         4.85735         0.73100
| 40>    C       -7.68831         3.63809         0.59241
| 41>    C       -6.73835         2.57361         0.30901
| 42>    C       -7.01227         1.24765         0.14831
| 43>    C       -6.00778         0.28051        -0.07404
| 44>    N       -5.21022        -0.52732        -0.23174
| 45>    C       -8.32852         0.74236         0.21760
| 46>    N       -9.39472         0.32327         0.26847
| 47>    C       -9.05786         3.78564         0.74718
| 48>    C       -9.41523         5.10703         0.99774
| 49>    S       -8.02719         6.17702         1.05714
| 50>    C      -10.73442         5.60408         1.16344
| 51>    C      -10.99160         6.97482         1.39450
| 52>    C      -12.31287         7.52293         1.51987
| 53>    N      -12.44872         8.84964         1.72681
| 54>    C      -11.39870         9.59909         1.81290
| 55>    C      -10.09184         9.05650         1.69144
| 56>    N       -9.92207         7.79106         1.48873
| 57>    F       -9.01246         9.82446         1.77787
| 58>    F      -11.57767        10.89775         2.01422
| 59>    C      -13.46495         6.70497         1.41691
| 60>    C      -13.20743         5.33060         1.20700
| 61>    C      -11.88127         4.78090         1.08476
| 62>    N      -11.91858         3.46184         0.88842
| 63>    S      -13.43856         2.96267         0.86123
| 64>    N      -14.14305         4.38708         1.09245
| 65>    C      -14.80406         7.17651         1.49063
| 66>    C      -15.26067         8.47232         1.70929
| 67>    C      -16.64569         8.54955         1.67943
| 68>    C      -17.25950         7.30070         1.43623
| 69>    S      -16.12555         6.03829         1.25917
| 70>    C      -18.65988         7.48862         1.40631
| 71>    C      -18.93571         8.85542         1.62618
| 72>    C      -17.68080         9.56142         1.82135
| 73>    C      -17.53014        10.88559         2.10923
| 74>    C      -16.26802        11.48701         2.30244
| 75>    N      -15.25017        11.99008         2.45801
| 76>    C      -18.64787        11.73837         2.23319
| 77>    N      -19.56620        12.41935         2.32270
| 78>    C      -20.29350         9.14056         1.62487
| 79>    C      -21.06788         8.00767         1.41302
| 80>    S      -20.07651         6.57254         1.18136
| 81>    C      -22.47233         7.89893         1.31074
| 82>    C      -23.43048         8.77313         1.72267
| 83>    C      -23.42174         9.92555         2.60020
| 84>    C      -22.61124        10.12248         3.68847
| 85>    C      -22.75727        11.19616         4.59219
| 86>    N      -22.83967        12.04341         5.36141
| 87>    C      -21.60621         9.22299         4.09240
| 88>    N      -20.79273         8.50592         4.47032
| 89>    C      -24.61402        10.70779         2.29407
| 90>    C      -25.45616         9.94373         1.44429
| 91>    C      -24.79564         8.66737         1.12612
| 92>    O      -25.22529         7.73966         0.47993
| 93>    C      -26.67701        10.40426         1.01241
| 94>    C      -27.07781        11.67835         1.42586
| 95>    C      -26.22069        12.43935         2.25830
| 96>    C      -24.98968        11.97168         2.70391
| 97>    S      -26.91377        13.98547         2.62801
| 98>    C      -28.31765        13.60771         1.69133
| 99>    C      -28.27647        12.38317         1.12212
|100>    H       -0.93853         0.41356        -3.95524
|101>    H        3.00660         2.92559        -2.15515
|102>    H        3.49270        -0.54315        -6.16465
|103>    H        0.92781        -0.73313        -5.71001
|104>    H       -1.45020         4.99521         0.25787
|105>    H       -3.78332         1.89431        -0.26366
|106>    H       -9.78855         3.00098         0.68040
|107>    H      -14.59064         9.29478         1.87472
|108>    H      -20.71249        10.12503         1.72549
|109>    H      -22.84758         7.03514         0.76988
|110>    H      -27.30260         9.79990         0.37408
|111>    H      -24.36401        12.58837         3.32791
|112>    H      -29.09984        14.33859         1.62287
|113>    H      -29.05871        11.97867         0.50569
|114> *
|115>
|116>                          ****END OF INPUT****

CARTESIAN COORDINATES (ANGSTROEM)
---------------------------------
  C      0.394210    3.415060   -0.926580
  C      1.175630    4.160080   -0.081420
  C      2.579060    4.258290   -0.184770
  N      3.719460    4.384050   -0.220560
  C      0.701100    4.896610    1.024270
  N      0.391910    5.500720    1.950750
  C      0.878910    2.565250   -2.004850
  C     -0.217520    1.843300   -2.539060
  C     -0.083040    0.949060   -3.573810
  C      1.194170    0.758380   -4.108710
  C      2.283580    1.487280   -3.572240
  C      2.147760    2.390520   -2.524590
  S      3.762750    1.099660   -4.392170
  C      2.929390   -0.012260   -5.422000
  C      1.604580   -0.095390   -5.170800
  C     -1.452590    2.216380   -1.829770
  O     -2.566050    1.797090   -2.062480
  C     -1.048970    3.262720   -0.853390
  C     -1.884630    4.097090   -0.166140
  C     -3.277400    3.983450    0.031070
  C     -4.124920    2.884420   -0.028210
  C     -5.440840    3.225130    0.250590
  C     -5.614160    4.602080    0.526120
  S     -4.144620    5.456080    0.484190
  C     -6.988730    4.857350    0.731000
  C     -7.688310    3.638090    0.592410
  C     -6.738350    2.573610    0.309010
  C     -7.012270    1.247650    0.148310
  C     -6.007780    0.280510   -0.074040
  N     -5.210220   -0.527320   -0.231740
  C     -8.328520    0.742360    0.217600
  N     -9.394720    0.323270    0.268470
  C     -9.057860    3.785640    0.747180
  C     -9.415230    5.107030    0.997740
  S     -8.027190    6.177020    1.057140
  C    -10.734420    5.604080    1.163440
  C    -10.991600    6.974820    1.394500
  C    -12.312870    7.522930    1.519870
  N    -12.448720    8.849640    1.726810
  C    -11.398700    9.599090    1.812900
  C    -10.091840    9.056500    1.691440
  N     -9.922070    7.791060    1.488730
  F     -9.012460    9.824460    1.777870
  F    -11.577670   10.897750    2.014220
  C    -13.464950    6.704970    1.416910
  C    -13.207430    5.330600    1.207000
  C    -11.881270    4.780900    1.084760
  N    -11.918580    3.461840    0.888420
  S    -13.438560    2.962670    0.861230
  N    -14.143050    4.387080    1.092450
  C    -14.804060    7.176510    1.490630
  C    -15.260670    8.472320    1.709290
  C    -16.645690    8.549550    1.679430
  C    -17.259500    7.300700    1.436230
  S    -16.125550    6.038290    1.259170
  C    -18.659880    7.488620    1.406310
  C    -18.935710    8.855420    1.626180
  C    -17.680800    9.561420    1.821350
  C    -17.530140   10.885590    2.109230
  C    -16.268020   11.487010    2.302440
  N    -15.250170   11.990080    2.458010
  C    -18.647870   11.738370    2.233190
  N    -19.566200   12.419350    2.322700
  C    -20.293500    9.140560    1.624870
  C    -21.067880    8.007670    1.413020
  S    -20.076510    6.572540    1.181360
  C    -22.472330    7.898930    1.310740
  C    -23.430480    8.773130    1.722670
  C    -23.421740    9.925550    2.600200
  C    -22.611240   10.122480    3.688470
  C    -22.757270   11.196160    4.592190
  N    -22.839670   12.043410    5.361410
  C    -21.606210    9.222990    4.092400
  N    -20.792730    8.505920    4.470320
  C    -24.614020   10.707790    2.294070
  C    -25.456160    9.943730    1.444290
  C    -24.795640    8.667370    1.126120
  O    -25.225290    7.739660    0.479930
  C    -26.677010   10.404260    1.012410
  C    -27.077810   11.678350    1.425860
  C    -26.220690   12.439350    2.258300
  C    -24.989680   11.971680    2.703910
  S    -26.913770   13.985470    2.628010
  C    -28.317650   13.607710    1.691330
  C    -28.276470   12.383170    1.122120
  H     -0.938530    0.413560   -3.955240
  H      3.006600    2.925590   -2.155150
  H      3.492700   -0.543150   -6.164650
  H      0.927810   -0.733130   -5.710010
  H     -1.450200    4.995210    0.257870
  H     -3.783320    1.894310   -0.263660
  H     -9.788550    3.000980    0.680400
  H    -14.590640    9.294780    1.874720
  H    -20.712490   10.125030    1.725490
  H    -22.847580    7.035140    0.769880
  H    -27.302600    9.799900    0.374080
  H    -24.364010   12.588370    3.327910
  H    -29.099840   14.338590    1.622870
  H    -29.058710   11.978670    0.505690

 Total Charge           Charge          ....    0
 Multiplicity           Mult            ....    1
 Number of Electrons    NEL             ....  616
 Basis Dimension        Dim             .... 1288

ORBITAL ENERGIES
----------------

  NO   OCC          E(Eh)            E(eV)
   0   2.0000     -89.058097     -2423.3940
   1   2.0000     -88.996354     -2421.7139
   2   2.0000     -88.995255     -2421.6840
   3   2.0000     -88.990857     -2421.5643
   4   2.0000     -88.990348     -2421.5505
   5   2.0000     -88.966503     -2420.9016
   6   2.0000     -88.966451     -2420.9002
   7   2.0000     -24.831810      -675.7079
   8   2.0000     -24.824928      -675.5206
   9   2.0000     -19.217288      -522.9290
  10   2.0000     -19.215676      -522.8851
  11   2.0000     -14.473184      -393.8353
  12   2.0000     -14.468005      -393.6944
  13   2.0000     -14.467104      -393.6699
  14   2.0000     -14.466192      -393.6451
  15   2.0000     -14.432393      -392.7254
  16   2.0000     -14.431752      -392.7079
  17   2.0000     -14.430177      -392.6651
  18   2.0000     -14.428866      -392.6294
  19   2.0000     -14.417657      -392.3244
  20   2.0000     -14.415351      -392.2616
  21   2.0000     -14.413892      -392.2219
  22   2.0000     -14.413249      -392.2044
  23   2.0000     -10.448796      -284.3262
  24   2.0000     -10.444828      -284.2182
  25   2.0000     -10.369163      -282.1593
  26   2.0000     -10.366878      -282.0971
  27   2.0000     -10.366315      -282.0818
  28   2.0000     -10.366295      -282.0812
  29   2.0000     -10.362099      -281.9671
  30   2.0000     -10.360616      -281.9267
  31   2.0000     -10.355517      -281.7879
  32   2.0000     -10.354341      -281.7559
  33   2.0000     -10.353865      -281.7430
  34   2.0000     -10.353399      -281.7303
  35   2.0000     -10.344405      -281.4856
  36   2.0000     -10.343884      -281.4714
  37   2.0000     -10.343083      -281.4496
  38   2.0000     -10.342547      -281.4350
  39   2.0000     -10.341388      -281.4035
  40   2.0000     -10.340633      -281.3829
  41   2.0000     -10.332810      -281.1701
  42   2.0000     -10.332773      -281.1690
  43   2.0000     -10.332623      -281.1650
  44   2.0000     -10.332169      -281.1526
  45   2.0000     -10.332047      -281.1493
  46   2.0000     -10.331450      -281.1330
  47   2.0000     -10.331382      -281.1312
  48   2.0000     -10.330160      -281.0979
  49   2.0000     -10.329243      -281.0730
  50   2.0000     -10.329185      -281.0714
  51   2.0000     -10.328559      -281.0544
  52   2.0000     -10.327811      -281.0340
  53   2.0000     -10.326919      -281.0097
  54   2.0000     -10.324913      -280.9552
  55   2.0000     -10.320742      -280.8417
  56   2.0000     -10.320349      -280.8310
  57   2.0000     -10.318960      -280.7932
  58   2.0000     -10.318431      -280.7788
  59   2.0000     -10.316849      -280.7357
  60   2.0000     -10.315652      -280.7032
  61   2.0000     -10.314108      -280.6611
  62   2.0000     -10.313970      -280.6574
  63   2.0000     -10.312576      -280.6195
  64   2.0000     -10.308930      -280.5202
  65   2.0000     -10.308453      -280.5073
  66   2.0000     -10.308002      -280.4950
  67   2.0000     -10.307195      -280.4730
  68   2.0000     -10.307094      -280.4703
  69   2.0000     -10.306417      -280.4519
  70   2.0000     -10.306028      -280.4413
  71   2.0000     -10.303238      -280.3654
  72   2.0000     -10.303089      -280.3613
  73   2.0000     -10.301682      -280.3230
  74   2.0000     -10.301618      -280.3213
  75   2.0000     -10.301561      -280.3197
  76   2.0000     -10.301428      -280.3161
  77   2.0000     -10.301230      -280.3107
  78   2.0000     -10.301218      -280.3104
  79   2.0000     -10.299776      -280.2712
  80   2.0000     -10.298445      -280.2349
  81   2.0000     -10.291427      -280.0440
  82   2.0000     -10.290072      -280.0071
  83   2.0000     -10.288988      -279.9776
  84   2.0000     -10.288879      -279.9746
  85   2.0000      -8.149061      -221.7472
  86   2.0000      -8.091079      -220.1694
  87   2.0000      -8.090108      -220.1430
  88   2.0000      -8.083515      -219.9636
  89   2.0000      -8.083440      -219.9616
  90   2.0000      -8.062761      -219.3989
  91   2.0000      -8.062750      -219.3986
  92   2.0000      -6.120152      -166.5378
  93   2.0000      -6.112352      -166.3256
  94   2.0000      -6.111831      -166.3114
  95   2.0000      -6.060221      -164.9070
  96   2.0000      -6.059179      -164.8787
  97   2.0000      -6.056073      -164.7941
  98   2.0000      -6.055094      -164.7675
  99   2.0000      -6.053586      -164.7264
 100   2.0000      -6.053007      -164.7107
 101   2.0000      -6.052884      -164.7073
 102   2.0000      -6.052647      -164.7009
 103   2.0000      -6.048272      -164.5819
 104   2.0000      -6.048241      -164.5810
 105   2.0000      -6.046005      -164.5202
 106   2.0000      -6.045893      -164.5171
 107   2.0000      -6.032245      -164.1457
 108   2.0000      -6.032239      -164.1456
 109   2.0000      -6.027984      -164.0298
 110   2.0000      -6.027959      -164.0291
 111   2.0000      -6.024450      -163.9336
 112   2.0000      -6.024429      -163.9330
 113   2.0000      -1.358307       -36.9614
 114   2.0000      -1.342935       -36.5431
 115   2.0000      -1.155972       -31.4556
 116   2.0000      -1.133029       -30.8313
 117   2.0000      -1.131145       -30.7800
 118   2.0000      -1.130154       -30.7530
 119   2.0000      -1.056795       -28.7569
 120   2.0000      -1.048709       -28.5368
 121   2.0000      -1.047228       -28.4965
 122   2.0000      -1.023805       -27.8592
 123   2.0000      -1.022707       -27.8293
 124   2.0000      -1.021164       -27.7873
 125   2.0000      -1.019924       -27.7535
 126   2.0000      -1.015152       -27.6237
 127   2.0000      -1.009209       -27.4620
 128   2.0000      -1.008339       -27.4383
 129   2.0000      -1.007996       -27.4290
 130   2.0000      -1.007733       -27.4218
 131   2.0000      -1.006118       -27.3779
 132   2.0000      -0.997679       -27.1482
 133   2.0000      -0.993439       -27.0328
 134   2.0000      -0.993232       -27.0272
 135   2.0000      -0.986916       -26.8554
 136   2.0000      -0.984879       -26.7999
 137   2.0000      -0.982567       -26.7370
 138   2.0000      -0.962414       -26.1886
 139   2.0000      -0.957817       -26.0635
 140   2.0000      -0.933098       -25.3909
 141   2.0000      -0.932541       -25.3757
 142   2.0000      -0.923761       -25.1368
 143   2.0000      -0.917919       -24.9778
 144   2.0000      -0.904864       -24.6226
 145   2.0000      -0.901117       -24.5206
 146   2.0000      -0.898038       -24.4369
 147   2.0000      -0.889691       -24.2097
 148   2.0000      -0.881636       -23.9905
 149   2.0000      -0.881073       -23.9752
 150   2.0000      -0.876670       -23.8554
 151   2.0000      -0.875527       -23.8243
 152   2.0000      -0.866085       -23.5674
 153   2.0000      -0.859663       -23.3926
 154   2.0000      -0.858124       -23.3507
 155   2.0000      -0.855551       -23.2807
 156   2.0000      -0.831118       -22.6159
 157   2.0000      -0.823361       -22.4048
 158   2.0000      -0.822885       -22.3918
 159   2.0000      -0.817552       -22.2467
 160   2.0000      -0.806472       -21.9452
 161   2.0000      -0.796773       -21.6813
 162   2.0000      -0.788340       -21.4518
 163   2.0000      -0.780429       -21.2366
 164   2.0000      -0.775914       -21.1137
 165   2.0000      -0.766976       -20.8705
 166   2.0000      -0.762918       -20.7601
 167   2.0000      -0.757410       -20.6102
 168   2.0000      -0.755518       -20.5587
 169   2.0000      -0.740684       -20.1550
 170   2.0000      -0.726170       -19.7601
 171   2.0000      -0.716676       -19.5017
 172   2.0000      -0.708394       -19.2764
 173   2.0000      -0.702254       -19.1093
 174   2.0000      -0.696481       -18.9522
 175   2.0000      -0.694783       -18.9060
 176   2.0000      -0.691901       -18.8276
 177   2.0000      -0.689606       -18.7651
 178   2.0000      -0.688657       -18.7393
 179   2.0000      -0.687089       -18.6966
 180   2.0000      -0.684499       -18.6262
 181   2.0000      -0.677797       -18.4438
 182   2.0000      -0.673433       -18.3250
 183   2.0000      -0.670570       -18.2471
 184   2.0000      -0.662126       -18.0174
 185   2.0000      -0.661534       -18.0012
 186   2.0000      -0.653372       -17.7792
 187   2.0000      -0.649395       -17.6709
 188   2.0000      -0.642545       -17.4845
 189   2.0000      -0.639057       -17.3896
 190   2.0000      -0.634183       -17.2570
 191   2.0000      -0.633037       -17.2258
 192   2.0000      -0.631829       -17.1929
 193   2.0000      -0.620561       -16.8863
 194   2.0000      -0.620080       -16.8732
 195   2.0000      -0.619643       -16.8614
 196   2.0000      -0.617421       -16.8009
 197   2.0000      -0.615451       -16.7473
 198   2.0000      -0.600204       -16.3324
 199   2.0000      -0.599738       -16.3197
 200   2.0000      -0.594891       -16.1878
 201   2.0000      -0.588646       -16.0179
 202   2.0000      -0.585516       -15.9327
 203   2.0000      -0.583929       -15.8895
 204   2.0000      -0.582123       -15.8404
 205   2.0000      -0.581070       -15.8117
 206   2.0000      -0.565331       -15.3834
 207   2.0000      -0.564866       -15.3708
 208   2.0000      -0.561357       -15.2753
 209   2.0000      -0.551328       -15.0024
 210   2.0000      -0.550634       -14.9835
 211   2.0000      -0.549786       -14.9604
 212   2.0000      -0.549161       -14.9434
 213   2.0000      -0.544607       -14.8195
 214   2.0000      -0.542566       -14.7640
 215   2.0000      -0.539585       -14.6829
 216   2.0000      -0.538847       -14.6628
 217   2.0000      -0.535467       -14.5708
 218   2.0000      -0.533978       -14.5303
 219   2.0000      -0.533536       -14.5183
 220   2.0000      -0.531935       -14.4747
 221   2.0000      -0.525735       -14.3060
 222   2.0000      -0.524612       -14.2754
 223   2.0000      -0.522715       -14.2238
 224   2.0000      -0.520204       -14.1555
 225   2.0000      -0.514882       -14.0107
 226   2.0000      -0.513337       -13.9686
 227   2.0000      -0.510967       -13.9041
 228   2.0000      -0.508594       -13.8395
 229   2.0000      -0.506738       -13.7891
 230   2.0000      -0.506292       -13.7769
 231   2.0000      -0.503002       -13.6874
 232   2.0000      -0.500757       -13.6263
 233   2.0000      -0.499242       -13.5851
 234   2.0000      -0.497592       -13.5402
 235   2.0000      -0.496747       -13.5172
 236   2.0000      -0.495904       -13.4942
 237   2.0000      -0.493005       -13.4154
 238   2.0000      -0.491633       -13.3780
 239   2.0000      -0.490846       -13.3566
 240   2.0000      -0.488642       -13.2966
 241   2.0000      -0.487317       -13.2606
 242   2.0000      -0.484116       -13.1735
 243   2.0000      -0.478059       -13.0086
 244   2.0000      -0.476155       -12.9568
 245   2.0000      -0.473201       -12.8765
 246   2.0000      -0.471125       -12.8200
 247   2.0000      -0.468021       -12.7355
 248   2.0000      -0.465347       -12.6627
 249   2.0000      -0.462838       -12.5945
 250   2.0000      -0.462285       -12.5794
 251   2.0000      -0.460730       -12.5371
 252   2.0000      -0.458244       -12.4694
 253   2.0000      -0.456408       -12.4195
 254   2.0000      -0.453737       -12.3468
 255   2.0000      -0.452687       -12.3182
 256   2.0000      -0.451021       -12.2729
 257   2.0000      -0.450286       -12.2529
 258   2.0000      -0.449775       -12.2390
 259   2.0000      -0.448042       -12.1918
 260   2.0000      -0.447153       -12.1676
 261   2.0000      -0.442583       -12.0433
 262   2.0000      -0.441851       -12.0234
 263   2.0000      -0.441303       -12.0085
 264   2.0000      -0.440218       -11.9789
 265   2.0000      -0.440026       -11.9737
 266   2.0000      -0.439301       -11.9540
 267   2.0000      -0.438505       -11.9323
 268   2.0000      -0.434481       -11.8228
 269   2.0000      -0.434114       -11.8128
 270   2.0000      -0.432512       -11.7693
 271   2.0000      -0.432186       -11.7604
 272   2.0000      -0.428896       -11.6709
 273   2.0000      -0.427359       -11.6290
 274   2.0000      -0.426549       -11.6070
 275   2.0000      -0.426307       -11.6004
 276   2.0000      -0.424418       -11.5490
 277   2.0000      -0.422142       -11.4871
 278   2.0000      -0.418589       -11.3904
 279   2.0000      -0.417256       -11.3541
 280   2.0000      -0.416943       -11.3456
 281   2.0000      -0.409299       -11.1376
 282   2.0000      -0.408990       -11.1292
 283   2.0000      -0.408868       -11.1259
 284   2.0000      -0.403589       -10.9822
 285   2.0000      -0.403120       -10.9695
 286   2.0000      -0.386472       -10.5164
 287   2.0000      -0.382743       -10.4150
 288   2.0000      -0.382445       -10.4069
 289   2.0000      -0.377821       -10.2810
 290   2.0000      -0.375321       -10.2130
 291   2.0000      -0.371065       -10.0972
 292   2.0000      -0.357941        -9.7401
 293   2.0000      -0.356660        -9.7052
 294   2.0000      -0.352707        -9.5976
 295   2.0000      -0.349304        -9.5050
 296   2.0000      -0.343632        -9.3507
 297   2.0000      -0.338141        -9.2013
 298   2.0000      -0.333601        -9.0777
 299   2.0000      -0.323852        -8.8125
 300   2.0000      -0.323036        -8.7903
 301   2.0000      -0.314321        -8.5531
 302   2.0000      -0.313785        -8.5385
 303   2.0000      -0.307985        -8.3807
 304   2.0000      -0.295683        -8.0459
 305   2.0000      -0.294129        -8.0037
 306   2.0000      -0.277602        -7.5539
 307   2.0000      -0.246261        -6.7011
 308   0.0000      -0.135480        -3.6866
 309   0.0000      -0.108320        -2.9475
 310   0.0000      -0.101169        -2.7529
 311   0.0000      -0.087120        -2.3706
 312   0.0000      -0.086699        -2.3592

MULLIKEN ATOMIC CHARGES
-----------------------
   0 C :    0.295780
   1 C :   -0.341946
   2 C :   -0.184327
   3 N :    0.148744
   4 C :   -0.203919
   5 N :    0.156927
   6 C :    0.017065
   7 C :   -0.022652
   8 C :   -0.061656
   9 C :    0.112939
  10 C :   -0.094710
  11 C :   -0.020556
  12 S :    0.141598
  13 C :   -0.049875
  14 C :    0.025487
  15 C :    0.149145
  16 O :   -0.152246
  17 C :   -0.091518
  18 C :    0.024677
  19 C :   -0.111483
  20 C :    0.034794
  21 C :   -0.022236
  22 C :   -0.088119
  23 S :    0.208011
  24 C :   -0.069652
  25 C :    0.040614
  26 C :    0.312171
  27 C :   -0.298908
  28 C :   -0.188805
  29 N :    0.186150
  30 C :   -0.187950
  31 N :    0.167924
  32 C :   -0.064746
  33 C :   -0.175970
  34 S :    0.213687
  35 C :    0.176733
  36 C :   -0.061577
  37 C :   -0.068743
  38 N :    0.006943
  39 C :    0.151026
  40 C :    0.158398
  41 N :   -0.055844
  42 F :   -0.130307
  43 F :   -0.125474
  44 C :    0.208114
  45 C :   -0.029537
  46 C :    0.000079
  47 N :   -0.281284
  48 S :    0.578655
  49 N :   -0.339862
  50 C :   -0.185625
  51 C :   -0.062466
  52 C :    0.046612
  53 C :   -0.074083
  54 S :    0.211590
  55 C :   -0.075666
  56 C :   -0.004415
  57 C :    0.312674
  58 C :   -0.292924
  59 C :   -0.189940
  60 N :    0.180826
  61 C :   -0.187009
  62 N :    0.167471
  63 C :   -0.001778
  64 C :   -0.108974
  65 S :    0.214227
  66 C :    0.077960
  67 C :   -0.129741
  68 C :    0.262855
  69 C :   -0.328468
  70 C :   -0.174635
  71 N :    0.164039
  72 C :   -0.202036
  73 N :    0.164392
  74 C :   -0.001268
  75 C :    0.006538
  76 C :    0.131800
  77 O :   -0.146293
  78 C :   -0.071638
  79 C :    0.110657
  80 C :   -0.091932
  81 C :   -0.021853
  82 S :    0.143662
  83 C :   -0.050573
  84 C :    0.024929
  85 H :   -0.010036
  86 H :   -0.006238
  87 H :    0.039726
  88 H :   -0.005371
  89 H :    0.022855
  90 H :    0.030713
  91 H :    0.022101
  92 H :    0.024859
  93 H :    0.024103
  94 H :    0.020244
  95 H :   -0.010306
  96 H :    0.003198
  97 H :    0.040071
  98 H :   -0.006590
Sum of atomic charges:   -0.0000000

LOEWDIN ATOMIC CHARGES
----------------------
   0 C :    0.075714
   1 C :   -0.142663
   2 C :   -0.018576
   3 N :   -0.053405
   4 C :   -0.025298
   5 N :   -0.053454
   6 C :   -0.022910
   7 C :   -0.053149
   8 C :    0.025202
   9 C :   -0.034598
  10 C :   -0.145486
  11 C :   -0.008461
  12 S :    0.430381
  13 C :   -0.149228
  14 C :   -0.057227
  15 C :    0.084487
  16 O :   -0.139240
  17 C :   -0.093353
  18 C :    0.041099
  19 C :   -0.176823
  20 C :    0.022910
  21 C :   -0.071702
  22 C :   -0.160024
  23 S :    0.494154
  24 C :   -0.190344
  25 C :   -0.061754
  26 C :    0.077935
  27 C :   -0.097621
  28 C :   -0.019931
  29 N :   -0.022827
  30 C :   -0.014870
  31 N :   -0.034508
  32 C :   -0.014158
  33 C :   -0.160158
  34 S :    0.515067
  35 C :   -0.043380
  36 C :   -0.014120
  37 C :   -0.006766
  38 N :   -0.027496
  39 C :    0.063518
  40 C :    0.067714
  41 N :   -0.059517
  42 F :   -0.019924
  43 F :   -0.014872
  44 C :   -0.042840
  45 C :   -0.047432
  46 C :   -0.037607
  47 N :   -0.269030
  48 S :    0.694343
  49 N :   -0.305579
  50 C :   -0.159919
  51 C :   -0.011103
  52 C :   -0.064555
  53 C :   -0.183998
  54 S :    0.517944
  55 C :   -0.160863
  56 C :   -0.061715
  57 C :    0.081291
  58 C :   -0.098369
  59 C :   -0.018957
  60 N :   -0.026451
  61 C :   -0.012627
  62 N :   -0.034351
  63 C :    0.007008
  64 C :   -0.178513
  65 S :    0.498765
  66 C :    0.038950
  67 C :   -0.087703
  68 C :    0.065429
  69 C :   -0.137016
  70 C :   -0.019542
  71 N :   -0.045648
  72 C :   -0.015812
  73 N :   -0.047539
  74 C :   -0.019049
  75 C :   -0.056311
  76 C :    0.083596
  77 O :   -0.145161
  78 C :    0.024065
  79 C :   -0.035731
  80 C :   -0.144242
  81 C :   -0.008328
  82 S :    0.432570
  83 C :   -0.149587
  84 C :   -0.057783
  85 H :    0.041252
  86 H :    0.040753
  87 H :    0.029654
  88 H :    0.035756
  89 H :    0.043952
  90 H :    0.045182
  91 H :    0.037827
  92 H :    0.038502
  93 H :    0.042395
  94 H :    0.045453
  95 H :    0.040757
  96 H :    0.042642
  97 H :    0.029626
  98 H :    0.035310

  Mayer bond orders larger than 0.100000
B(  0-C ,  1-C ) :   1.6348 B(  0-C ,  6-C ) :   1.0064 B(  0-C , 17-C ) :   1.0713
B(  1-C ,  2-C ) :   1.1402 B(  1-C ,  4-C ) :   1.1383 B(  2-C ,  3-N ) :   2.9730
B(  4-C ,  5-N ) :   2.9923 B(  6-C ,  7-C ) :   1.2658 B(  6-C , 11-C ) :   1.4121
B(  7-C ,  8-C ) :   1.4258 B(  7-C , 15-C ) :   0.9503 B(  8-C ,  9-C ) :   1.2460
B(  8-C , 85-H ) :   1.0167 B(  9-C , 10-C ) :   1.3007 B(  9-C , 14-C ) :   1.1719
B( 10-C , 11-C ) :   1.3229 B( 10-C , 12-S ) :   1.0992 B( 11-C , 86-H ) :   0.9829
B( 12-S , 13-C ) :   1.1263 B( 13-C , 14-C ) :   1.6282 B( 13-C , 87-H ) :   0.9685
B( 14-C , 88-H ) :   0.9996 B( 15-C , 16-O ) :   2.1966 B( 15-C , 17-C ) :   0.9417
B( 17-C , 18-C ) :   1.6063 B( 18-C , 19-C ) :   1.1893 B( 18-C , 89-H ) :   0.9268
B( 19-C , 20-C ) :   1.4059 B( 19-C , 23-S ) :   1.0763 B( 20-C , 21-C ) :   1.3417
B( 20-C , 90-H ) :   0.9760 B( 21-C , 22-C ) :   1.3749 B( 21-C , 26-C ) :   0.9934
B( 22-C , 23-S ) :   1.1616 B( 22-C , 24-C ) :   1.2113 B( 24-C , 25-C ) :   1.3987
B( 24-C , 34-S ) :   1.0819 B( 25-C , 26-C ) :   0.9916 B( 25-C , 32-C ) :   1.2832
B( 26-C , 27-C ) :   1.7151 B( 27-C , 28-C ) :   1.1324 B( 27-C , 30-C ) :   1.1407
B( 28-C , 29-N ) :   2.9958 B( 30-C , 31-N ) :   2.9825 B( 32-C , 33-C ) :   1.4146
B( 32-C , 91-H ) :   0.9811 B( 33-C , 34-S ) :   1.0984 B( 33-C , 35-C ) :   1.1904
B( 35-C , 36-C ) :   1.2944 B( 35-C , 44-C ) :   0.1274 B( 35-C , 46-C ) :   1.2021
B( 36-C , 37-C ) :   1.1155 B( 36-C , 41-N ) :   1.3772 B( 37-C , 38-N ) :   1.4408
B( 37-C , 44-C ) :   1.2949 B( 38-N , 39-C ) :   1.6587 B( 39-C , 40-C ) :   1.1034
B( 39-C , 43-F ) :   1.1884 B( 40-C , 41-N ) :   1.6503 B( 40-C , 42-F ) :   1.1935
B( 44-C , 45-C ) :   1.1882 B( 44-C , 50-C ) :   1.1864 B( 45-C , 46-C ) :   1.1134
B( 45-C , 49-N ) :   1.4676 B( 46-C , 47-N ) :   1.5081 B( 47-N , 48-S ) :   1.2898
B( 47-N , 49-N ) :   0.1508 B( 48-S , 49-N ) :   1.2707 B( 50-C , 51-C ) :   1.4066
B( 50-C , 54-S ) :   1.1034 B( 51-C , 52-C ) :   1.2790 B( 51-C , 92-H ) :   0.9867
B( 52-C , 53-C ) :   1.3952 B( 52-C , 57-C ) :   0.9903 B( 53-C , 54-S ) :   1.0987
B( 53-C , 55-C ) :   1.2046 B( 55-C , 56-C ) :   1.4027 B( 55-C , 65-S ) :   1.1487
B( 56-C , 57-C ) :   0.9968 B( 56-C , 63-C ) :   1.3603 B( 57-C , 58-C ) :   1.7136
B( 58-C , 59-C ) :   1.1374 B( 58-C , 61-C ) :   1.1347 B( 59-C , 60-N ) :   2.9917
B( 61-C , 62-N ) :   2.9816 B( 63-C , 64-C ) :   1.3926 B( 63-C , 93-H ) :   0.9802
B( 64-C , 65-S ) :   1.0921 B( 64-C , 66-C ) :   1.1314 B( 66-C , 67-C ) :   1.6815
B( 66-C , 94-H ) :   0.9272 B( 67-C , 68-C ) :   1.0333 B( 67-C , 76-C ) :   0.9404
B( 68-C , 69-C ) :   1.6480 B( 68-C , 74-C ) :   1.0126 B( 69-C , 70-C ) :   1.1260
B( 69-C , 72-C ) :   1.1738 B( 70-C , 71-N ) :   2.9970 B( 72-C , 73-N ) :   2.9949
B( 74-C , 75-C ) :   1.2666 B( 74-C , 81-C ) :   1.4199 B( 75-C , 76-C ) :   0.9251
B( 75-C , 78-C ) :   1.4252 B( 76-C , 77-O ) :   2.2619 B( 78-C , 79-C ) :   1.2534
B( 78-C , 95-H ) :   1.0161 B( 79-C , 80-C ) :   1.2996 B( 79-C , 84-C ) :   1.1729
B( 80-C , 81-C ) :   1.3191 B( 80-C , 82-S ) :   1.0998 B( 81-C , 96-H ) :   0.9858
B( 82-S , 83-C ) :   1.1272 B( 83-C , 84-C ) :   1.6303 B( 83-C , 97-H ) :   0.9680
B( 84-C , 98-H ) :   0.9993

-----------------------------------------------------------------------------
         ABSORPTION SPECTRUM VIA TRANSITION ELECTRIC DIPOLE MOMENTS
-----------------------------------------------------------------------------
State   Energy  Wavelength   fosc         T2         TX        TY        TZ
        (cm-1)    (nm)                  (au**2)     (au)      (au)      (au)
-----------------------------------------------------------------------------
   0    9487.8   1054.0   1.228676031  42.63297   6.15062  -2.04123  -0.79766
   1   13657.5    732.2   0.001006083   0.02425  -0.02027   0.02704   0.15202
   2   14627.0    683.7   0.002335605   0.05257  -0.00100  -0.22229   0.05616
   3   17683.8    565.5   0.001851930   0.03448  -0.07484   0.01572   0.16920
   4   20216.4    494.6   0.672717833  10.95481  -3.11555   0.86552   0.70640
   5   21145.2    472.9   0.615468893   9.58232  -3.01758   0.35569   0.59161
   6   22693.4    440.7   0.105620319   1.53223  -1.17654  -0.07774   0.37676
   7   24347.2    410.7   0.043885888   0.59341   0.63921   0.20970   0.37528
   8   24580.5    406.8   0.001323642   0.01773   0.03012   0.02988   0.12621
   9   24864.6    402.2   0.015194866   0.20118  -0.00530   0.06372  -0.44395
  10   25421.2    393.4   0.114317936   1.48045   0.82750  -0.84072  -0.29813
  11   25842.4    387.0   0.010455077   0.13319  -0.13427  -0.31489  -0.12652
  12   26102.3    383.1   0.030173348   0.38056   0.36171   0.49972   0.00146
  13   26903.3    371.7   0.007834678   0.09587   0.02895   0.29665  -0.08386
  14   26957.7    371.0   0.051820454   0.63284   0.41864  -0.50052  -0.45504
  15   27617.0    362.1   0.135209933   1.61179   0.95214  -0.77917  -0.31322
  16   27816.2    359.5   0.041433991   0.49038   0.57007  -0.30586  -0.26806
  17   27971.9    357.5   0.156138622   1.83765   1.31653  -0.10382   0.30600
  18   28204.3    354.6   0.001685582   0.01967   0.10264   0.09391   0.01792
  19   29041.8    344.3   0.068750776   0.77935  -0.52865   0.59281  -0.38530
  20   29429.3    339.8   0.043758643   0.48951   0.10520  -0.17625  -0.66886
  21   29520.6    338.7   0.023090548   0.25750  -0.38949   0.29975  -0.12629
  22   29848.7    335.0   0.116910369   1.28944  -0.23120   1.08154  -0.25740
  23   30067.4    332.6   0.152382599   1.66846   0.69495  -0.91570  -0.58906
  24   30127.6    331.9   0.106592391   1.16476  -0.48602  -0.30922  -0.91265
  25   30179.0    331.4   0.423847372   4.62359   2.11006   0.30620   0.27835
  26   30434.9    328.6   0.189095657   2.04543   0.84844  -1.15102  -0.02705
  27   30821.4    324.4   0.105233524   1.12403  -0.80002   0.16873   0.67493
  28   30884.5    323.8   0.191648645   2.04287   1.19737  -0.09012  -0.77527
  29   31250.0    320.0   0.018213633   0.19188  -0.17128   0.28241   0.28773
  30   31338.4    319.1   0.225955282   2.37367   0.43503   1.46728   0.17753
  31   31474.7    317.7   0.016138926   0.16881   0.38036  -0.13369  -0.07909
  32   31692.0    315.5   0.575846868   5.98182   1.46391  -1.90822  -0.44437
  33   31943.9    313.0   0.108657616   1.11982   0.32981  -0.96970  -0.26594
  34   32145.6    311.1   0.126382943   1.29432   0.88152  -0.71044  -0.11195
  35   32240.4    310.2   0.048010317   0.49024   0.46484  -0.52353   0.00883
  36   32387.1    308.8   0.014871528   0.15117  -0.07848  -0.37094  -0.08610
  37   32527.8    307.4   0.037277506   0.37728   0.38811  -0.40276  -0.25385
  38   33104.0    302.1   0.155426498   1.54568  -0.77476  -0.87071  -0.43277
  39   33390.3    299.5   0.144998628   1.42962   1.15675   0.26579  -0.14457
  40   33655.3    297.1   0.069192007   0.67683  -0.55627  -0.08870  -0.59960
  41   33850.8    295.4   0.044901615   0.43668   0.35668  -0.46558   0.30446
  42   34164.6    292.7   0.033294991   0.32083   0.43041  -0.30079  -0.21238
  43   34434.1    290.4   0.181423993   1.73453  -0.74926  -0.38289  -1.01318
  44   34514.4    289.7   0.361013424   3.44349  -0.16296   1.37009   1.24089
  45   34590.5    289.1   0.035491630   0.33779   0.24530  -0.44668  -0.27946
  46   34757.3    287.7   0.247161619   2.34105  -1.15737   0.32904  -0.94514
  47   34863.8    286.8   0.102199049   0.96504   0.41224   0.72352   0.52117
  48   34953.1    286.1   0.023023859   0.21685  -0.44496  -0.06200  -0.12256
  49   35263.7    283.6   0.172249624   1.60807   1.14460  -0.53487   0.10903
  50   35629.5    280.7   0.671068930   6.20059  -0.73466  -2.37808  -0.07471
  51   35819.8    279.2   0.013143485   0.12080   0.33525   0.05228   0.07534
  52   36117.9    276.9   0.005886151   0.05365   0.00931   0.23022  -0.02373
  53   36222.5    276.1   0.015028360   0.13659  -0.36801   0.03374   0.00397
  54   36339.8    275.2   0.066754596   0.60475  -0.48011  -0.61173  -0.00505
  55   36545.5    273.6   0.063114495   0.56855  -0.06130   0.67340   0.33367
  56   36841.3    271.4   0.047026088   0.42022   0.58679  -0.22631   0.15711
  57   37313.5    268.0   0.053224114   0.46959  -0.23141  -0.64377  -0.03997
  58   37386.6    267.5   0.148170777   1.30473   1.13397   0.13161   0.03919
  59   37542.6    266.4   0.062767183   0.55041   0.10767   0.66500   0.31078
  60   37810.0    264.5   0.048132616   0.41909   0.41251  -0.44049  -0.23430
  61   37910.0    263.8   0.018779811   0.16308  -0.29979  -0.27054  -0.00393
  62   38106.5    262.4   0.017155091   0.14821   0.38245   0.04142  -0.01505
  63   38191.1    261.8   0.022336843   0.19255   0.15904   0.38188   0.14636
  64   38405.2    260.4   0.048597230   0.41658  -0.16521  -0.57099  -0.25151
  65   38615.3    259.0   0.004335427   0.03696  -0.14980  -0.11832  -0.02279
  66   39046.7    256.1   0.073958476   0.62356   0.47628  -0.55457  -0.29861
  67   39079.1    255.9   0.003797800   0.03199  -0.02100   0.03573   0.17400
  68   39200.5    255.1   0.160132573   1.34482  -0.86662  -0.73068  -0.24474
  69   39483.4    253.3   0.058332480   0.48638   0.28169  -0.48468  -0.41486
  70   39688.4    252.0   0.203254794   1.68598   0.72058   0.92935   0.55051
  71   39811.7    251.2   0.017636813   0.14584   0.23606  -0.27505  -0.12029
  72   39973.7    250.2   0.108126879   0.89050   0.75756   0.51901   0.21733
  73   40218.2    248.6   0.013905234   0.11382   0.25914  -0.21518  -0.01908
  74   40289.7    248.2   0.016619509   0.13580  -0.36450   0.00717   0.05375

FINAL SINGLE POINT ENERGY     -6160.258203207817

DIPOLE MOMENT
-------------
                                X             Y             Z
Electronic contribution:      9.04667       9.20232      14.99244
Nuclear contribution   :    -11.18157     -10.01970     -18.35553
                        -----------------------------------------
Total Dipole Moment    :     -2.13490      -0.81738      -3.36310
                        -----------------------------------------
Magnitude (a.u.)       :      4.06649
Magnitude (Debye)      :     10.33619

Rotational constants in cm-1:     0.002227     0.000136     0.000131
Rotational constants in MHz :    66.748973     4.075626     3.939897

                             ****ORCA TERMINATED NORMALLY****
TOTAL RUN TIME: 0 days 0 hours 14 minutes 30 seconds 942 msec
