                         Program Version 4.2.0 -  RELEASE  -
|  1> # ORCA input file
|  2> # SCF done       -183.819584540295          0.000503714703
|  3> ! CAM-B3LYP def2-SVP def2/J RIJCOSX Grid4 TightSCF
|  4> %maxcore 5000
|  5> %tddft
|  6>     Mode sTDDFT
|  7>     Ethresh 5.0
|  8>     maxcore 5000
|  9> end
| 10>
| 11> %pal
| 12>   nprocs 6
| 13>   end
| 14> * xyz 0 1
| 15>    C        0.76357         0.10754         4.70914
| 16>    C        1.23723         1.28477         5.22532
| 17>    C        1.33592         2.42384         4.42616
| 18>    C        0.96547         2.42727         3.09027
| 19>    C        0.46895         1.20832         2.53407
| 20>    C        0.37501         0.05488         3.35854
| 21>    N       -0.08944        -1.10786         2.85318
| 22>    C       -0.45031        -1.15828         1.59982
| 23>    C       -0.35773        -0.00194         0.76661
| 24>    N        0.09073         1.12908         1.24419
| 25>    C       -0.76333        -0.03479        -0.66705
| 26>    C       -0.95781        -2.45874         1.07490
| 27>    C        1.08372         3.62645         2.30334
| 28>    C        0.72597         3.82735         0.98607
| 29>    C        0.98657         5.12728         0.55546
| 30>    C        1.55398         5.93556         1.55843
| 31>    S        1.76119         5.08845         3.02380
| 32>    C        1.77761         7.22923         1.03197
| 33>    C        1.34617         7.23820        -0.31263
| 34>    C        0.84166         5.91682        -0.65378
| 35>    C        0.34568         5.50065        -1.85548
| 36>    C        0.25613         6.35619        -2.97346
| 37>    N        0.17834         7.04048        -3.89035
| 38>    C       -0.10650         4.18119        -2.06138
| 39>    N       -0.47565         3.10973        -2.23988
| 40>    C        1.51676         8.47097        -0.92399
| 41>    C        2.07946         9.40659        -0.06195
| 42>    S        2.40306         8.73973         1.53279
| 43>    C        2.38650        10.75855        -0.35175
| 44>    C        2.98696        11.59261         0.61777
| 45>    C        3.31262        12.97179         0.35480
| 46>    N        3.88362        13.70864         1.31245
| 47>    C        4.14349        13.17630         2.48438
| 48>    C        3.81896        11.80746         2.74599
| 49>    N        3.25825        11.06834         1.81668
| 50>    C        4.09864        11.23197         4.00891
| 51>    N        4.33452        10.79049         5.03944
| 52>    C        4.74791        13.97361         3.48605
| 53>    N        5.23591        14.59554         4.31527
| 54>    C        3.04597        13.58804        -0.88823
| 55>    C        2.44320        12.75594        -1.86331
| 56>    C        2.12291        11.37045        -1.60167
| 57>    N        1.56534        10.78982        -2.66340
| 58>    S        1.45276        11.85330        -3.85946
| 59>    N        2.10250        13.10953        -3.10195
| 60>    C        3.36690        14.94921        -1.11229
| 61>    C        3.13125        15.68570        -2.26846
| 62>    C        3.56703        16.99625        -2.14717
| 63>    C        4.14727        17.26723        -0.88848
| 64>    S        4.14329        15.90402         0.14416
| 65>    C        4.55277        18.62258        -0.87267
| 66>    C        4.22878        19.20902        -2.11064
| 67>    C        3.59660        18.20859        -2.95055
| 68>    C        3.12204        18.37734        -4.21926
| 69>    C        3.19428        19.61731        -4.88626
| 70>    N        3.24405        20.62292        -5.43628
| 71>    C        2.52156        17.32877        -4.94717
| 72>    N        2.03158        16.48527        -5.55019
| 73>    C        4.59261        20.55211        -2.18974
| 74>    C        5.19134        21.00543        -1.03244
| 75>    S        5.30521        19.73077         0.18324
| 76>    C        5.69414        22.32259        -0.74327
| 77>    C        6.33539        22.58323         0.45780
| 78>    C        6.83721        23.84504         0.77732
| 79>    C        6.70958        24.89075        -0.09845
| 80>    C        6.06420        24.68224        -1.33050
| 81>    C        5.55189        23.40112        -1.66977
| 82>    N        4.93864        23.22976        -2.85624
| 83>    C        4.82184        24.23811        -3.67949
| 84>    C        5.33681        25.52435        -3.33252
| 85>    N        5.93579        25.71662        -2.18887
| 86>    C        5.21036        26.68893        -4.25556
| 87>    C        4.13801        23.99259        -4.98066
| 88>    H        0.67610        -0.78800         5.30305
| 89>    H        1.53960         1.34303         6.26007
| 90>    H        1.71317         3.33637         4.86603
| 91>    H       -1.80865        -0.32682        -0.75642
| 92>    H       -0.16573        -0.76527        -1.21062
| 93>    H       -0.62632         0.94490        -1.11671
| 94>    H       -0.94216        -3.19829         1.87016
| 95>    H       -0.33669        -2.80213         0.24901
| 96>    H       -1.97594        -2.34656         0.70526
| 97>    H        0.29767         3.03927         0.39540
| 98>    H        1.25871         8.71621        -1.93778
| 99>    H        2.66262        15.25180        -3.13249
|100>    H        4.44189        21.19940        -3.03330
|101>    H        6.45374        21.78026         1.17177
|102>    H        7.32990        23.98773         1.72730
|103>    H        7.08770        25.87607         0.12192
|104>    H        4.16174        26.89192        -4.46765
|105>    H        5.70938        26.47900        -5.20040
|106>    H        5.66151        27.56332        -3.79570
|107>    H        3.82351        22.95472        -5.04747
|108>    H        4.81117        24.21534        -5.80718
|109>    H        3.26696        24.63894        -5.07704
|110> *
|111>
|112>                          ****END OF INPUT****

CARTESIAN COORDINATES (ANGSTROEM)
---------------------------------
  C      0.763570    0.107540    4.709140
  C      1.237230    1.284770    5.225320
  C      1.335920    2.423840    4.426160
  C      0.965470    2.427270    3.090270
  C      0.468950    1.208320    2.534070
  C      0.375010    0.054880    3.358540
  N     -0.089440   -1.107860    2.853180
  C     -0.450310   -1.158280    1.599820
  C     -0.357730   -0.001940    0.766610
  N      0.090730    1.129080    1.244190
  C     -0.763330   -0.034790   -0.667050
  C     -0.957810   -2.458740    1.074900
  C      1.083720    3.626450    2.303340
  C      0.725970    3.827350    0.986070
  C      0.986570    5.127280    0.555460
  C      1.553980    5.935560    1.558430
  S      1.761190    5.088450    3.023800
  C      1.777610    7.229230    1.031970
  C      1.346170    7.238200   -0.312630
  C      0.841660    5.916820   -0.653780
  C      0.345680    5.500650   -1.855480
  C      0.256130    6.356190   -2.973460
  N      0.178340    7.040480   -3.890350
  C     -0.106500    4.181190   -2.061380
  N     -0.475650    3.109730   -2.239880
  C      1.516760    8.470970   -0.923990
  C      2.079460    9.406590   -0.061950
  S      2.403060    8.739730    1.532790
  C      2.386500   10.758550   -0.351750
  C      2.986960   11.592610    0.617770
  C      3.312620   12.971790    0.354800
  N      3.883620   13.708640    1.312450
  C      4.143490   13.176300    2.484380
  C      3.818960   11.807460    2.745990
  N      3.258250   11.068340    1.816680
  C      4.098640   11.231970    4.008910
  N      4.334520   10.790490    5.039440
  C      4.747910   13.973610    3.486050
  N      5.235910   14.595540    4.315270
  C      3.045970   13.588040   -0.888230
  C      2.443200   12.755940   -1.863310
  C      2.122910   11.370450   -1.601670
  N      1.565340   10.789820   -2.663400
  S      1.452760   11.853300   -3.859460
  N      2.102500   13.109530   -3.101950
  C      3.366900   14.949210   -1.112290
  C      3.131250   15.685700   -2.268460
  C      3.567030   16.996250   -2.147170
  C      4.147270   17.267230   -0.888480
  S      4.143290   15.904020    0.144160
  C      4.552770   18.622580   -0.872670
  C      4.228780   19.209020   -2.110640
  C      3.596600   18.208590   -2.950550
  C      3.122040   18.377340   -4.219260
  C      3.194280   19.617310   -4.886260
  N      3.244050   20.622920   -5.436280
  C      2.521560   17.328770   -4.947170
  N      2.031580   16.485270   -5.550190
  C      4.592610   20.552110   -2.189740
  C      5.191340   21.005430   -1.032440
  S      5.305210   19.730770    0.183240
  C      5.694140   22.322590   -0.743270
  C      6.335390   22.583230    0.457800
  C      6.837210   23.845040    0.777320
  C      6.709580   24.890750   -0.098450
  C      6.064200   24.682240   -1.330500
  C      5.551890   23.401120   -1.669770
  N      4.938640   23.229760   -2.856240
  C      4.821840   24.238110   -3.679490
  C      5.336810   25.524350   -3.332520
  N      5.935790   25.716620   -2.188870
  C      5.210360   26.688930   -4.255560
  C      4.138010   23.992590   -4.980660
  H      0.676100   -0.788000    5.303050
  H      1.539600    1.343030    6.260070
  H      1.713170    3.336370    4.866030
  H     -1.808650   -0.326820   -0.756420
  H     -0.165730   -0.765270   -1.210620
  H     -0.626320    0.944900   -1.116710
  H     -0.942160   -3.198290    1.870160
  H     -0.336690   -2.802130    0.249010
  H     -1.975940   -2.346560    0.705260
  H      0.297670    3.039270    0.395400
  H      1.258710    8.716210   -1.937780
  H      2.662620   15.251800   -3.132490
  H      4.441890   21.199400   -3.033300
  H      6.453740   21.780260    1.171770
  H      7.329900   23.987730    1.727300
  H      7.087700   25.876070    0.121920
  H      4.161740   26.891920   -4.467650
  H      5.709380   26.479000   -5.200400
  H      5.661510   27.563320   -3.795700
  H      3.823510   22.954720   -5.047470
  H      4.811170   24.215340   -5.807180
  H      3.266960   24.638940   -5.077040

 Total Charge           Charge          ....    0
 Multiplicity           Mult            ....    1
 Number of Electrons    NEL             ....  524
 Basis Dimension        Dim             .... 1152

ORBITAL ENERGIES
----------------

  NO   OCC          E(Eh)            E(eV)
   0   2.0000     -89.048611     -2423.1359
   1   2.0000     -88.980973     -2421.2954
   2   2.0000     -88.980868     -2421.2925
   3   2.0000     -88.980130     -2421.2724
   4   2.0000     -88.979986     -2421.2685
   5   2.0000     -14.474082      -393.8598
   6   2.0000     -14.473954      -393.8563
   7   2.0000     -14.457712      -393.4143
   8   2.0000     -14.457647      -393.4126
   9   2.0000     -14.436803      -392.8454
  10   2.0000     -14.436730      -392.8434
  11   2.0000     -14.427246      -392.5853
  12   2.0000     -14.427158      -392.5829
  13   2.0000     -14.424330      -392.5060
  14   2.0000     -14.424256      -392.5040
  15   2.0000     -14.413650      -392.2154
  16   2.0000     -14.413543      -392.2124
  17   2.0000     -14.412476      -392.1834
  18   2.0000     -14.412455      -392.1828
  19   2.0000     -10.390948      -282.7521
  20   2.0000     -10.390714      -282.7457
  21   2.0000     -10.357277      -281.8358
  22   2.0000     -10.357194      -281.8336
  23   2.0000     -10.353533      -281.7339
  24   2.0000     -10.353288      -281.7273
  25   2.0000     -10.349300      -281.6188
  26   2.0000     -10.349055      -281.6121
  27   2.0000     -10.345490      -281.5151
  28   2.0000     -10.345446      -281.5139
  29   2.0000     -10.330397      -281.1044
  30   2.0000     -10.330337      -281.1028
  31   2.0000     -10.328602      -281.0555
  32   2.0000     -10.328508      -281.0530
  33   2.0000     -10.325098      -280.9602
  34   2.0000     -10.325073      -280.9595
  35   2.0000     -10.324993      -280.9573
  36   2.0000     -10.324947      -280.9561
  37   2.0000     -10.322925      -280.9011
  38   2.0000     -10.322810      -280.8979
  39   2.0000     -10.322654      -280.8937
  40   2.0000     -10.322427      -280.8875
  41   2.0000     -10.320042      -280.8226
  42   2.0000     -10.319904      -280.8189
  43   2.0000     -10.319212      -280.8000
  44   2.0000     -10.319210      -280.8000
  45   2.0000     -10.317523      -280.7541
  46   2.0000     -10.317457      -280.7523
  47   2.0000     -10.315021      -280.6860
  48   2.0000     -10.314956      -280.6842
  49   2.0000     -10.313374      -280.6412
  50   2.0000     -10.313343      -280.6403
  51   2.0000     -10.308066      -280.4967
  52   2.0000     -10.308018      -280.4954
  53   2.0000     -10.296933      -280.1938
  54   2.0000     -10.296925      -280.1936
  55   2.0000     -10.294756      -280.1345
  56   2.0000     -10.294622      -280.1309
  57   2.0000     -10.293982      -280.1135
  58   2.0000     -10.293951      -280.1127
  59   2.0000     -10.293933      -280.1121
  60   2.0000     -10.293880      -280.1107
  61   2.0000     -10.284485      -279.8551
  62   2.0000     -10.284456      -279.8543
  63   2.0000     -10.280554      -279.7481
  64   2.0000     -10.280515      -279.7470
  65   2.0000     -10.280214      -279.7388
  66   2.0000     -10.280145      -279.7370
  67   2.0000     -10.275309      -279.6054
  68   2.0000     -10.275260      -279.6040
  69   2.0000     -10.266834      -279.3748
  70   2.0000     -10.266786      -279.3735
  71   2.0000     -10.258723      -279.1540
  72   2.0000     -10.258588      -279.1504
  73   2.0000      -8.139602      -221.4898
  74   2.0000      -8.074458      -219.7172
  75   2.0000      -8.074354      -219.7143
  76   2.0000      -8.073527      -219.6918
  77   2.0000      -8.073413      -219.6887
  78   2.0000      -6.110735      -166.2816
  79   2.0000      -6.102763      -166.0646
  80   2.0000      -6.102474      -166.0568
  81   2.0000      -6.043650      -164.4561
  82   2.0000      -6.043550      -164.4534
  83   2.0000      -6.043073      -164.4404
  84   2.0000      -6.042967      -164.4375
  85   2.0000      -6.039488      -164.3428
  86   2.0000      -6.039375      -164.3397
  87   2.0000      -6.038285      -164.3101
  88   2.0000      -6.038161      -164.3067
  89   2.0000      -6.036996      -164.2750
  90   2.0000      -6.036876      -164.2718
  91   2.0000      -6.035991      -164.2477
  92   2.0000      -6.035890      -164.2449
  93   2.0000      -1.146658       -31.2021
  94   2.0000      -1.132372       -30.8134
  95   2.0000      -1.074599       -29.2413
  96   2.0000      -1.074562       -29.2403
  97   2.0000      -1.061391       -28.8819
  98   2.0000      -1.036495       -28.2045
  99   2.0000      -1.035956       -28.1898
 100   2.0000      -1.021870       -27.8065
 101   2.0000      -1.016843       -27.6697
 102   2.0000      -1.016536       -27.6614
 103   2.0000      -1.011669       -27.5289
 104   2.0000      -1.003565       -27.3084
 105   2.0000      -1.003214       -27.2988
 106   2.0000      -1.002611       -27.2824
 107   2.0000      -0.999454       -27.1965
 108   2.0000      -0.998073       -27.1589
 109   2.0000      -0.994578       -27.0639
 110   2.0000      -0.985333       -26.8123
 111   2.0000      -0.977032       -26.5864
 112   2.0000      -0.959053       -26.0972
 113   2.0000      -0.955536       -26.0015
 114   2.0000      -0.945559       -25.7300
 115   2.0000      -0.944654       -25.7054
 116   2.0000      -0.916496       -24.9391
 117   2.0000      -0.915607       -24.9149
 118   2.0000      -0.903591       -24.5880
 119   2.0000      -0.887853       -24.1597
 120   2.0000      -0.881167       -23.9778
 121   2.0000      -0.879988       -23.9457
 122   2.0000      -0.866099       -23.5677
 123   2.0000      -0.865767       -23.5587
 124   2.0000      -0.854850       -23.2617
 125   2.0000      -0.850156       -23.1339
 126   2.0000      -0.845587       -23.0096
 127   2.0000      -0.843922       -22.9643
 128   2.0000      -0.840483       -22.8707
 129   2.0000      -0.815231       -22.1836
 130   2.0000      -0.812971       -22.1221
 131   2.0000      -0.807373       -21.9697
 132   2.0000      -0.803718       -21.8703
 133   2.0000      -0.800623       -21.7861
 134   2.0000      -0.797853       -21.7107
 135   2.0000      -0.771239       -20.9865
 136   2.0000      -0.771089       -20.9824
 137   2.0000      -0.768876       -20.9222
 138   2.0000      -0.751550       -20.4507
 139   2.0000      -0.737824       -20.0772
 140   2.0000      -0.720296       -19.6002
 141   2.0000      -0.716471       -19.4962
 142   2.0000      -0.714404       -19.4399
 143   2.0000      -0.713348       -19.4112
 144   2.0000      -0.713082       -19.4039
 145   2.0000      -0.710051       -19.3215
 146   2.0000      -0.709307       -19.3012
 147   2.0000      -0.695359       -18.9217
 148   2.0000      -0.694247       -18.8914
 149   2.0000      -0.683215       -18.5912
 150   2.0000      -0.675980       -18.3944
 151   2.0000      -0.672346       -18.2955
 152   2.0000      -0.666669       -18.1410
 153   2.0000      -0.659645       -17.9499
 154   2.0000      -0.649899       -17.6847
 155   2.0000      -0.644187       -17.5292
 156   2.0000      -0.632140       -17.2014
 157   2.0000      -0.630944       -17.1688
 158   2.0000      -0.625289       -17.0150
 159   2.0000      -0.623612       -16.9693
 160   2.0000      -0.622669       -16.9437
 161   2.0000      -0.617409       -16.8005
 162   2.0000      -0.606436       -16.5020
 163   2.0000      -0.604151       -16.4398
 164   2.0000      -0.601222       -16.3601
 165   2.0000      -0.599775       -16.3207
 166   2.0000      -0.595680       -16.2093
 167   2.0000      -0.589343       -16.0368
 168   2.0000      -0.576336       -15.6829
 169   2.0000      -0.568292       -15.4640
 170   2.0000      -0.563157       -15.3243
 171   2.0000      -0.561722       -15.2852
 172   2.0000      -0.554753       -15.0956
 173   2.0000      -0.549587       -14.9550
 174   2.0000      -0.548670       -14.9301
 175   2.0000      -0.545852       -14.8534
 176   2.0000      -0.545801       -14.8520
 177   2.0000      -0.544475       -14.8159
 178   2.0000      -0.539742       -14.6871
 179   2.0000      -0.538634       -14.6570
 180   2.0000      -0.529975       -14.4213
 181   2.0000      -0.524975       -14.2853
 182   2.0000      -0.519996       -14.1498
 183   2.0000      -0.518073       -14.0975
 184   2.0000      -0.506592       -13.7851
 185   2.0000      -0.503879       -13.7112
 186   2.0000      -0.502497       -13.6736
 187   2.0000      -0.501777       -13.6540
 188   2.0000      -0.500869       -13.6293
 189   2.0000      -0.498803       -13.5731
 190   2.0000      -0.491369       -13.3708
 191   2.0000      -0.491235       -13.3672
 192   2.0000      -0.490723       -13.3532
 193   2.0000      -0.490098       -13.3362
 194   2.0000      -0.489292       -13.3143
 195   2.0000      -0.488788       -13.3006
 196   2.0000      -0.488765       -13.3000
 197   2.0000      -0.486320       -13.2334
 198   2.0000      -0.486123       -13.2281
 199   2.0000      -0.485899       -13.2220
 200   2.0000      -0.485442       -13.2095
 201   2.0000      -0.475332       -12.9344
 202   2.0000      -0.475225       -12.9315
 203   2.0000      -0.475136       -12.9291
 204   2.0000      -0.474976       -12.9248
 205   2.0000      -0.474729       -12.9180
 206   2.0000      -0.471536       -12.8311
 207   2.0000      -0.468711       -12.7543
 208   2.0000      -0.466654       -12.6983
 209   2.0000      -0.463294       -12.6069
 210   2.0000      -0.463152       -12.6030
 211   2.0000      -0.460434       -12.5291
 212   2.0000      -0.456921       -12.4335
 213   2.0000      -0.455608       -12.3977
 214   2.0000      -0.455366       -12.3912
 215   2.0000      -0.453966       -12.3530
 216   2.0000      -0.452174       -12.3043
 217   2.0000      -0.449984       -12.2447
 218   2.0000      -0.449530       -12.2323
 219   2.0000      -0.449348       -12.2274
 220   2.0000      -0.448828       -12.2132
 221   2.0000      -0.440321       -11.9817
 222   2.0000      -0.439232       -11.9521
 223   2.0000      -0.436434       -11.8760
 224   2.0000      -0.436383       -11.8746
 225   2.0000      -0.434118       -11.8130
 226   2.0000      -0.433011       -11.7828
 227   2.0000      -0.432553       -11.7704
 228   2.0000      -0.432482       -11.7684
 229   2.0000      -0.426823       -11.6144
 230   2.0000      -0.426154       -11.5962
 231   2.0000      -0.425786       -11.5862
 232   2.0000      -0.421546       -11.4708
 233   2.0000      -0.420364       -11.4387
 234   2.0000      -0.419915       -11.4265
 235   2.0000      -0.419712       -11.4210
 236   2.0000      -0.412579       -11.2268
 237   2.0000      -0.412318       -11.2198
 238   2.0000      -0.411679       -11.2024
 239   2.0000      -0.399745       -10.8776
 240   2.0000      -0.399403       -10.8683
 241   2.0000      -0.390135       -10.6161
 242   2.0000      -0.382803       -10.4166
 243   2.0000      -0.374463       -10.1897
 244   2.0000      -0.369823       -10.0634
 245   2.0000      -0.369752       -10.0615
 246   2.0000      -0.365823        -9.9545
 247   2.0000      -0.355954        -9.6860
 248   2.0000      -0.355875        -9.6839
 249   2.0000      -0.340450        -9.2641
 250   2.0000      -0.339213        -9.2305
 251   2.0000      -0.337548        -9.1851
 252   2.0000      -0.320593        -8.7238
 253   2.0000      -0.316887        -8.6229
 254   2.0000      -0.315933        -8.5970
 255   2.0000      -0.313829        -8.5397
 256   2.0000      -0.313342        -8.5265
 257   2.0000      -0.312788        -8.5114
 258   2.0000      -0.312668        -8.5081
 259   2.0000      -0.291019        -7.9190
 260   2.0000      -0.262431        -7.1411
 261   2.0000      -0.230804        -6.2805
 262   0.0000      -0.133441        -3.6311
 263   0.0000      -0.098318        -2.6754
 264   0.0000      -0.094420        -2.5693
 265   0.0000      -0.060083        -1.6350
 266   0.0000      -0.049241        -1.3399

MULLIKEN ATOMIC CHARGES
-----------------------
   0 C :   -0.002488
   1 C :    0.043917
   2 C :   -0.075636
   3 C :    0.156788
   4 C :   -0.028390
   5 C :   -0.023409
   6 N :    0.010654
   7 C :   -0.187870
   8 C :   -0.157776
   9 N :   -0.012932
  10 C :    0.124060
  11 C :    0.134139
  12 C :   -0.114148
  13 C :   -0.054368
  14 C :    0.037969
  15 C :   -0.096629
  16 S :    0.161572
  17 C :   -0.058050
  18 C :    0.032534
  19 C :    0.317347
  20 C :   -0.318595
  21 C :   -0.189213
  22 N :    0.171385
  23 C :   -0.182782
  24 N :    0.186131
  25 C :   -0.065617
  26 C :   -0.177248
  27 S :    0.199480
  28 C :    0.192427
  29 C :   -0.063683
  30 C :   -0.065527
  31 N :   -0.001427
  32 C :   -0.101506
  33 C :   -0.103649
  34 N :   -0.001999
  35 C :   -0.244506
  36 N :    0.248729
  37 C :   -0.245334
  38 N :    0.247511
  39 C :    0.192433
  40 C :   -0.015107
  41 C :   -0.017181
  42 N :   -0.281199
  43 S :    0.577909
  44 N :   -0.283834
  45 C :   -0.176708
  46 C :   -0.066801
  47 C :    0.033499
  48 C :   -0.057398
  49 S :    0.200338
  50 C :   -0.095773
  51 C :    0.036648
  52 C :    0.317250
  53 C :   -0.318478
  54 C :   -0.179017
  55 N :    0.180601
  56 C :   -0.188467
  57 N :    0.171602
  58 C :   -0.055557
  59 C :   -0.113477
  60 S :    0.161385
  61 C :    0.154541
  62 C :   -0.076995
  63 C :    0.045148
  64 C :    0.002594
  65 C :   -0.025590
  66 C :   -0.024946
  67 N :   -0.014793
  68 C :   -0.158488
  69 C :   -0.187536
  70 N :    0.010286
  71 C :    0.135035
  72 C :    0.127017
  73 H :   -0.024881
  74 H :   -0.007931
  75 H :   -0.008796
  76 H :    0.021558
  77 H :    0.022339
  78 H :    0.035502
  79 H :    0.026931
  80 H :    0.025936
  81 H :    0.025132
  82 H :    0.016337
  83 H :    0.019917
  84 H :    0.019973
  85 H :    0.016626
  86 H :   -0.008470
  87 H :   -0.008637
  88 H :   -0.026446
  89 H :    0.025635
  90 H :    0.024966
  91 H :    0.025465
  92 H :    0.034585
  93 H :    0.022383
  94 H :    0.021075
Sum of atomic charges:   -0.0000000

LOEWDIN ATOMIC CHARGES
----------------------
   0 C :   -0.011390
   1 C :   -0.018264
   2 C :   -0.024561
   3 C :   -0.039260
   4 C :   -0.005454
   5 C :   -0.013299
   6 N :   -0.045753
   7 C :   -0.003206
   8 C :    0.008064
   9 N :   -0.041729
  10 C :   -0.055923
  11 C :   -0.052743
  12 C :   -0.145625
  13 C :   -0.025361
  14 C :   -0.066814
  15 C :   -0.184471
  16 S :    0.474745
  17 C :   -0.169437
  18 C :   -0.078863
  19 C :    0.085961
  20 C :   -0.109158
  21 C :   -0.017091
  22 N :   -0.037443
  23 C :   -0.004392
  24 N :   -0.035309
  25 C :   -0.005912
  26 C :   -0.171505
  27 S :    0.506229
  28 C :   -0.040372
  29 C :   -0.017094
  30 C :   -0.017173
  31 N :   -0.017062
  32 C :   -0.025507
  33 C :   -0.025566
  34 N :   -0.017084
  35 C :   -0.039013
  36 N :   -0.003244
  37 C :   -0.038945
  38 N :   -0.003268
  39 C :   -0.040424
  40 C :   -0.037505
  41 C :   -0.037783
  42 N :   -0.270414
  43 S :    0.697331
  44 N :   -0.270722
  45 C :   -0.171490
  46 C :   -0.006123
  47 C :   -0.078896
  48 C :   -0.169359
  49 S :    0.506094
  50 C :   -0.184523
  51 C :   -0.066843
  52 C :    0.085977
  53 C :   -0.109148
  54 C :   -0.004001
  55 N :   -0.035502
  56 C :   -0.017075
  57 N :   -0.037417
  58 C :   -0.025604
  59 C :   -0.145733
  60 S :    0.474634
  61 C :   -0.039225
  62 C :   -0.024557
  63 C :   -0.018286
  64 C :   -0.010969
  65 C :   -0.013241
  66 C :   -0.005220
  67 N :   -0.041848
  68 C :    0.008233
  69 C :   -0.003051
  70 N :   -0.045877
  71 C :   -0.052445
  72 C :   -0.055921
  73 H :    0.034615
  74 H :    0.033121
  75 H :    0.020214
  76 H :    0.037841
  77 H :    0.037951
  78 H :    0.037782
  79 H :    0.038651
  80 H :    0.038377
  81 H :    0.038256
  82 H :    0.035329
  83 H :    0.037921
  84 H :    0.037866
  85 H :    0.035309
  86 H :    0.020416
  87 H :    0.033014
  88 H :    0.034348
  89 H :    0.038253
  90 H :    0.038292
  91 H :    0.038331
  92 H :    0.037578
  93 H :    0.038251
  94 H :    0.037511

  Mayer bond orders larger than 0.100000
B(  0-C ,  1-C ) :   1.4244 B(  0-C ,  3-C ) :   0.1078 B(  0-C ,  5-C ) :   1.2608
B(  0-C , 73-H ) :   1.0094 B(  1-C ,  2-C ) :   1.2752 B(  1-C , 74-H ) :   0.9856
B(  2-C ,  3-C ) :   1.4301 B(  2-C , 75-H ) :   0.9872 B(  3-C ,  4-C ) :   1.2072
B(  3-C , 12-C ) :   1.0940 B(  4-C ,  5-C ) :   1.2617 B(  4-C ,  9-N ) :   1.4343
B(  5-C ,  6-N ) :   1.3895 B(  6-N ,  7-C ) :   1.7256 B(  7-C ,  8-C ) :   1.1590
B(  7-C , 11-C ) :   1.0968 B(  8-C ,  9-N ) :   1.6739 B(  8-C , 10-C ) :   1.0929
B( 10-C , 76-H ) :   0.9348 B( 10-C , 77-H ) :   0.9346 B( 10-C , 78-H ) :   0.9314
B( 11-C , 79-H ) :   0.9411 B( 11-C , 80-H ) :   0.9404 B( 11-C , 81-H ) :   0.9403
B( 12-C , 13-C ) :   1.4957 B( 12-C , 16-S ) :   1.0966 B( 13-C , 14-C ) :   1.2180
B( 13-C , 82-H ) :   0.9772 B( 14-C , 15-C ) :   1.4215 B( 14-C , 19-C ) :   1.0015
B( 15-C , 16-S ) :   1.1211 B( 15-C , 17-C ) :   1.1990 B( 17-C , 18-C ) :   1.3956
B( 17-C , 27-S ) :   1.0915 B( 18-C , 19-C ) :   0.9838 B( 18-C , 25-C ) :   1.2855
B( 19-C , 20-C ) :   1.7025 B( 20-C , 21-C ) :   1.1370 B( 20-C , 23-C ) :   1.1429
B( 21-C , 22-N ) :   2.9898 B( 23-C , 24-N ) :   2.9858 B( 25-C , 26-C ) :   1.4031
B( 25-C , 83-H ) :   0.9824 B( 26-C , 27-S ) :   1.0765 B( 26-C , 28-C ) :   1.2218
B( 28-C , 29-C ) :   1.2502 B( 28-C , 39-C ) :   0.1171 B( 28-C , 41-C ) :   1.1893
B( 29-C , 30-C ) :   1.0986 B( 29-C , 34-N ) :   1.4085 B( 30-C , 31-N ) :   1.4108
B( 30-C , 39-C ) :   1.2504 B( 31-N , 32-C ) :   1.6873 B( 32-C , 33-C ) :   1.2239
B( 32-C , 37-C ) :   1.1694 B( 33-C , 34-N ) :   1.6884 B( 33-C , 35-C ) :   1.1687
B( 35-C , 36-N ) :   3.0383 B( 37-C , 38-N ) :   3.0376 B( 39-C , 40-C ) :   1.1892
B( 39-C , 45-C ) :   1.2218 B( 40-C , 41-C ) :   1.0986 B( 40-C , 44-N ) :   1.5233
B( 41-C , 42-N ) :   1.5247 B( 42-N , 43-S ) :   1.2798 B( 42-N , 44-N ) :   0.1453
B( 43-S , 44-N ) :   1.2790 B( 45-C , 46-C ) :   1.4019 B( 45-C , 49-S ) :   1.0771
B( 46-C , 47-C ) :   1.2855 B( 46-C , 84-H ) :   0.9821 B( 47-C , 48-C ) :   1.3950
B( 47-C , 52-C ) :   0.9844 B( 48-C , 49-S ) :   1.0921 B( 48-C , 50-C ) :   1.1979
B( 50-C , 51-C ) :   1.4215 B( 50-C , 60-S ) :   1.1206 B( 51-C , 52-C ) :   1.0016
B( 51-C , 58-C ) :   1.2181 B( 52-C , 53-C ) :   1.7030 B( 53-C , 54-C ) :   1.1408
B( 53-C , 56-C ) :   1.1366 B( 54-C , 55-N ) :   2.9824 B( 56-C , 57-N ) :   2.9889
B( 58-C , 59-C ) :   1.4941 B( 58-C , 85-H ) :   0.9777 B( 59-C , 60-S ) :   1.0973
B( 59-C , 61-C ) :   1.0937 B( 61-C , 62-C ) :   1.4312 B( 61-C , 64-C ) :   0.1076
B( 61-C , 66-C ) :   1.2065 B( 62-C , 63-C ) :   1.2748 B( 62-C , 86-H ) :   0.9877
B( 63-C , 64-C ) :   1.4250 B( 63-C , 87-H ) :   0.9851 B( 64-C , 65-C ) :   1.2634
B( 64-C , 88-H ) :   1.0081 B( 65-C , 66-C ) :   1.2623 B( 65-C , 70-N ) :   1.3894
B( 66-C , 67-N ) :   1.4313 B( 67-N , 68-C ) :   1.6745 B( 68-C , 69-C ) :   1.1595
B( 68-C , 72-C ) :   1.0931 B( 69-C , 70-N ) :   1.7242 B( 69-C , 71-C ) :   1.0965
B( 71-C , 89-H ) :   0.9407 B( 71-C , 90-H ) :   0.9402 B( 71-C , 91-H ) :   0.9411
B( 72-C , 92-H ) :   0.9306 B( 72-C , 93-H ) :   0.9345 B( 72-C , 94-H ) :   0.9341

-----------------------------------------------------------------------------
         ABSORPTION SPECTRUM VIA TRANSITION ELECTRIC DIPOLE MOMENTS
-----------------------------------------------------------------------------
State   Energy  Wavelength   fosc         T2         TX        TY        TZ
        (cm-1)    (nm)                  (au**2)     (au)      (au)      (au)
-----------------------------------------------------------------------------
   0    6205.0   1611.6   0.483745691  25.66570  -1.12446  -4.85286   0.92254
   1   11999.7    833.4   0.000307283   0.00843  -0.01381  -0.02116  -0.08827
   2   12546.7    797.0   0.021396841   0.56143  -0.17158  -0.71587   0.13972
   3   14955.8    668.6   0.000071969   0.00158  -0.01641   0.00989   0.03489
   4   20527.6    487.1   0.217066289   3.48120   0.41377   1.78724  -0.34027
   5   21295.4    469.6   0.046428497   0.71775  -0.32044  -0.06546  -0.78153
   6   22277.3    448.9   0.391351313   5.78336   0.52893   2.30522  -0.43535
   7   22906.1    436.6   0.000791438   0.01137   0.03815  -0.00181   0.09958
   8   22947.3    435.8   0.118634136   1.70198   0.29745   1.24683  -0.24275
   9   24066.8    415.5   0.021668225   0.29640   0.19846   0.04442   0.50502
  10   24345.7    410.8   0.025844267   0.34948   0.17075   0.55369  -0.11725
  11   25234.1    396.3   0.002391977   0.03121   0.07924  -0.15772   0.00709
  12   26443.3    378.2   1.310785849  16.31896  -0.89238  -3.86828   0.74770
  13   27184.6    367.9   0.000608575   0.00737  -0.01584  -0.04652  -0.07039
  14   27553.1    362.9   0.134704480   1.60948   0.42182   0.18181   1.18258
  15   27799.3    359.7   0.005216864   0.06178   0.09980  -0.13379   0.18418
  16   28028.2    356.8   0.004611855   0.05417  -0.01228   0.22890  -0.04032
  17   28350.0    352.7   0.127443838   1.47993  -0.29162  -1.15669   0.23866
  18   28533.2    350.5   0.012680257   0.14630   0.13626   0.06942   0.35059
  19   29170.9    342.8   0.024217888   0.27331  -0.11020  -0.49979   0.10665
  20   29317.7    341.1   0.009386351   0.10540   0.12494   0.05366   0.29481
  21   29657.3    337.2   0.026400610   0.29306   0.26413   0.42305   0.21053
  22   29678.2    336.9   0.106116551   1.17712   0.35058  -0.00744   1.02672
  23   30217.7    330.9   0.133149434   1.45062   0.25284   1.15767  -0.21563
  24   31050.8    322.1   0.000402604   0.00427   0.02726   0.01744   0.05676
  25   31145.0    321.1   0.118969023   1.25754  -0.21302  -1.08141   0.20669
  26   31292.0    319.6   0.118114873   1.24264   0.41084   0.15946   1.02393
  27   31309.9    319.4   0.115976799   1.21945   0.17397   1.06584  -0.23058
  28   32251.6    310.1   0.014871966   0.15181  -0.01002  -0.16168  -0.35436
  29   32417.7    308.5   1.001364927  10.16917  -1.18610  -0.29438  -2.94545
  30   32480.8    307.9   0.009399006   0.09526   0.02673   0.05167  -0.30312
  31   32550.7    307.2   0.022919454   0.23180  -0.14407  -0.04741  -0.45695
  32   32595.2    306.8   0.015111732   0.15263  -0.08221   0.22391  -0.30941
  33   32671.3    306.1   0.102938557   1.03726  -0.42930  -0.22106  -0.89671
  34   32711.1    305.7   0.249680409   2.51284   0.51974   0.06434   1.49619
  35   32985.4    303.2   0.271508670   2.70981   0.37882   1.57817  -0.27508
  36   33733.0    296.4   0.000289967   0.00283   0.00564   0.00172   0.05287
  37   33891.1    295.1   0.070715609   0.68692   0.32319   0.15984   0.74627
  38   33953.0    294.5   0.023720183   0.22999  -0.09406  -0.41278   0.22530
  39   34832.5    287.1   0.008446690   0.07983  -0.14355  -0.02764  -0.24179
  40   35055.1    285.3   0.008371381   0.07862   0.23894  -0.02112   0.14519
  41   35343.8    282.9   0.135173862   1.25908   0.25786   1.07194  -0.20865
  42   35747.0    279.7   0.003104960   0.02860   0.04628   0.00159   0.16264
  43   36380.8    274.9   0.069566849   0.62952   0.18202   0.76283  -0.12030
  44   36750.3    272.1   0.025697762   0.23020   0.12866  -0.27404   0.37222
  45   36826.2    271.5   0.052335566   0.46786   0.23269   0.24358   0.59530
  46   36887.1    271.1   0.186060037   1.66056  -0.45856  -0.13411  -1.19678
  47   37046.9    269.9   0.110795518   0.98457   0.22241   0.94083  -0.22349
  48   37384.3    267.5   0.104120689   0.91690   0.32356   0.10505   0.89509
  49   37770.6    264.8   0.273953427   2.38780  -0.56720  -0.13510  -1.43103
  50   38234.9    261.5   0.012044125   0.10370  -0.09355  -0.30813  -0.00290
  51   38354.5    260.7   0.105793819   0.90807   0.33238   0.07430   0.88998
  52   38707.1    258.4   0.004633693   0.03941  -0.17908   0.05883   0.06229
  53   38831.3    257.5   0.000177948   0.00151   0.01272   0.00650   0.03612
  54   39353.4    254.1   0.009151343   0.07656   0.07738   0.26138  -0.04743
  55   39756.2    251.5   0.006180424   0.05118   0.21712   0.05273  -0.03546
  56   39880.2    250.8   0.178429349   1.47294  -0.24231  -1.17035   0.21098

FINAL SINGLE POINT ENERGY     -4824.160614091415

DIPOLE MOMENT
-------------
                                X             Y             Z
Electronic contribution:      5.76661       0.76225      10.62870
Nuclear contribution   :     -5.64317      -0.70768     -10.21554
                        -----------------------------------------
Total Dipole Moment    :      0.12345       0.05457       0.41316
                        -----------------------------------------
Magnitude (a.u.)       :      0.43464
Magnitude (Debye)      :      1.10478

Rotational constants in cm-1:     0.002733     0.000239     0.000220
Rotational constants in MHz :    81.923134     7.164747     6.592428

                             ****ORCA TERMINATED NORMALLY****
TOTAL RUN TIME: 0 days 0 hours 9 minutes 13 seconds 266 msec
