                         Program Version 4.2.0 -  RELEASE  -
|  1> # ORCA input file
|  2> # SCF done       -188.886383730417          0.000777325550
|  3> ! CAM-B3LYP def2-SVP def2/J RIJCOSX Grid4 TightSCF
|  4> %maxcore 5000
|  5> %tddft
|  6>     Mode sTDDFT
|  7>     Ethresh 5.0
|  8>     maxcore 5000
|  9> end
| 10>
| 11> %pal
| 12>   nprocs 6
| 13>   end
| 14> * xyz 0 1
| 15>    C       -0.79278         0.48787         1.63237
| 16>    O       -1.37558        -0.10603         0.74327
| 17>    C       -0.19456         1.83453         1.52778
| 18>    C        0.39062         2.17971         2.75821
| 19>    C        1.01468         3.40776         2.89612
| 20>    C        1.04170         4.26839         1.80319
| 21>    C        0.45690         3.91471         0.58649
| 22>    C       -0.17006         2.68337         0.44213
| 23>   Br        0.50961         5.10225        -0.88296
| 24>   Br        1.89337         5.94575         1.99486
| 25>    C        0.19013         1.07626         3.69993
| 26>    C        0.63680         1.06752         4.99802
| 27>    C        1.34761         2.12949         5.59709
| 28>    N        1.92666         2.95586         6.14390
| 29>    C        0.45636         0.02128         5.92331
| 30>    N        0.34507        -0.78215         6.73840
| 31>    C       -0.54665         0.04351         3.00417
| 32>    C       -0.98276        -1.14096         3.55942
| 33>    C       -1.66332        -2.21507         2.98079
| 34>    C       -2.03977        -3.38118         3.68878
| 35>    O       -1.90290        -3.59816         5.01535
| 36>    C       -2.28583        -2.61213         5.96569
| 37>    C       -2.53764        -4.40780         2.85761
| 38>    O       -2.88116        -5.65161         3.18569
| 39>    C       -3.21241        -5.99275         4.51938
| 40>    C       -2.58958        -4.00978         1.51158
| 41>    S       -2.01854        -2.38816         1.27692
| 42>    C       -3.07628        -4.73940         0.40844
| 43>    C       -3.88272        -5.89026         0.34772
| 44>    C       -4.18084        -6.26172        -1.00744
| 45>    N       -4.90846        -7.32797        -1.31564
| 46>    C       -5.37220        -8.04911        -0.31667
| 47>    C       -6.15282        -9.25948        -0.65527
| 48>    O       -6.39068        -9.58482        -1.80294
| 49>    C       -6.62224       -10.03743         0.50012
| 50>    C       -6.39621        -9.67934         1.76920
| 51>    C       -5.65152        -8.47110         2.16428
| 52>    O       -5.47695        -8.17400         3.32822
| 53>    C       -5.12084        -7.66087         1.03806
| 54>    N       -4.39815        -6.60770         1.34848
| 55>    C       -3.60411        -5.42235        -1.96941
| 56>    S       -2.70690        -4.16899        -1.20741
| 57>    C       -3.69953        -5.69379        -3.33967
| 58>    C       -2.95571        -5.13750        -4.37749
| 59>    O       -2.13472        -4.12055        -4.06235
| 60>    C       -1.15715        -3.67956        -4.98580
| 61>    C       -3.20021        -5.77789        -5.62324
| 62>    O       -2.48146        -5.39987        -6.70166
| 63>    C       -2.50224        -6.16351        -7.88844
| 64>    C       -4.13834        -6.80522        -5.51473
| 65>    S       -4.72238        -6.97679        -3.86923
| 66>    C       -4.70939        -7.66620        -6.48822
| 67>    C       -5.27129        -8.88378        -6.23996
| 68>    C       -6.26362        -9.44997        -7.18973
| 69>    O       -6.46617        -9.09997        -8.32901
| 70>    C       -6.98341       -10.48230        -6.40914
| 71>    C       -6.37628       -10.62514        -5.14719
| 72>    C       -5.20494        -9.76029        -5.08536
| 73>    C       -4.13218        -9.93376        -4.25433
| 74>    C       -2.92056        -9.23514        -4.43753
| 75>    N       -1.91270        -8.71414        -4.61489
| 76>    C       -4.09570       -10.84584        -3.18132
| 77>    N       -4.00787       -11.56205        -2.28909
| 78>    C       -6.90910       -11.49144        -4.21011
| 79>    C       -8.04670       -12.21094        -4.55201
| 80>    C       -8.63196       -12.08716        -5.81369
| 81>    C       -8.10118       -11.21398        -6.75511
| 82>   Br      -10.16749       -13.09848        -6.25436
| 83>   Br       -8.80586       -13.36814        -3.26827
| 84>    H        1.47720         3.71937         3.81832
| 85>    H       -0.62677         2.39683        -0.49233
| 86>    H       -0.73949        -1.28277         4.60204
| 87>    H       -2.89443        -3.12659         6.71264
| 88>    H       -2.87242        -1.81356         5.50877
| 89>    H       -1.40564        -2.19490         6.46281
| 90>    H       -2.32066        -6.06410         5.14567
| 91>    H       -3.70472        -6.96111         4.43829
| 92>    H       -3.90858        -5.27279         4.95306
| 93>    H       -7.17493       -10.93569         0.25999
| 94>    H       -6.76124       -10.27853         2.59258
| 95>    H       -0.60086        -2.90627        -4.45872
| 96>    H       -1.61632        -3.26062        -5.88256
| 97>    H       -0.48530        -4.49263        -5.26700
| 98>    H       -2.46366        -7.23398        -7.67304
| 99>    H       -1.60852        -5.86766        -8.43780
|100>    H       -3.38273        -5.93345        -8.49303
|101>    H       -4.84774        -7.29938        -7.49781
|102>    H       -6.48635       -11.58169        -3.22310
|103>    H       -8.55476       -11.10649        -7.72825
|104> *
|105>
|106>                          ****END OF INPUT****

CARTESIAN COORDINATES (ANGSTROEM)
---------------------------------
  C     -0.792780    0.487870    1.632370
  O     -1.375580   -0.106030    0.743270
  C     -0.194560    1.834530    1.527780
  C      0.390620    2.179710    2.758210
  C      1.014680    3.407760    2.896120
  C      1.041700    4.268390    1.803190
  C      0.456900    3.914710    0.586490
  C     -0.170060    2.683370    0.442130
  Br     0.509610    5.102250   -0.882960
  Br     1.893370    5.945750    1.994860
  C      0.190130    1.076260    3.699930
  C      0.636800    1.067520    4.998020
  C      1.347610    2.129490    5.597090
  N      1.926660    2.955860    6.143900
  C      0.456360    0.021280    5.923310
  N      0.345070   -0.782150    6.738400
  C     -0.546650    0.043510    3.004170
  C     -0.982760   -1.140960    3.559420
  C     -1.663320   -2.215070    2.980790
  C     -2.039770   -3.381180    3.688780
  O     -1.902900   -3.598160    5.015350
  C     -2.285830   -2.612130    5.965690
  C     -2.537640   -4.407800    2.857610
  O     -2.881160   -5.651610    3.185690
  C     -3.212410   -5.992750    4.519380
  C     -2.589580   -4.009780    1.511580
  S     -2.018540   -2.388160    1.276920
  C     -3.076280   -4.739400    0.408440
  C     -3.882720   -5.890260    0.347720
  C     -4.180840   -6.261720   -1.007440
  N     -4.908460   -7.327970   -1.315640
  C     -5.372200   -8.049110   -0.316670
  C     -6.152820   -9.259480   -0.655270
  O     -6.390680   -9.584820   -1.802940
  C     -6.622240  -10.037430    0.500120
  C     -6.396210   -9.679340    1.769200
  C     -5.651520   -8.471100    2.164280
  O     -5.476950   -8.174000    3.328220
  C     -5.120840   -7.660870    1.038060
  N     -4.398150   -6.607700    1.348480
  C     -3.604110   -5.422350   -1.969410
  S     -2.706900   -4.168990   -1.207410
  C     -3.699530   -5.693790   -3.339670
  C     -2.955710   -5.137500   -4.377490
  O     -2.134720   -4.120550   -4.062350
  C     -1.157150   -3.679560   -4.985800
  C     -3.200210   -5.777890   -5.623240
  O     -2.481460   -5.399870   -6.701660
  C     -2.502240   -6.163510   -7.888440
  C     -4.138340   -6.805220   -5.514730
  S     -4.722380   -6.976790   -3.869230
  C     -4.709390   -7.666200   -6.488220
  C     -5.271290   -8.883780   -6.239960
  C     -6.263620   -9.449970   -7.189730
  O     -6.466170   -9.099970   -8.329010
  C     -6.983410  -10.482300   -6.409140
  C     -6.376280  -10.625140   -5.147190
  C     -5.204940   -9.760290   -5.085360
  C     -4.132180   -9.933760   -4.254330
  C     -2.920560   -9.235140   -4.437530
  N     -1.912700   -8.714140   -4.614890
  C     -4.095700  -10.845840   -3.181320
  N     -4.007870  -11.562050   -2.289090
  C     -6.909100  -11.491440   -4.210110
  C     -8.046700  -12.210940   -4.552010
  C     -8.631960  -12.087160   -5.813690
  C     -8.101180  -11.213980   -6.755110
  Br   -10.167490  -13.098480   -6.254360
  Br    -8.805860  -13.368140   -3.268270
  H      1.477200    3.719370    3.818320
  H     -0.626770    2.396830   -0.492330
  H     -0.739490   -1.282770    4.602040
  H     -2.894430   -3.126590    6.712640
  H     -2.872420   -1.813560    5.508770
  H     -1.405640   -2.194900    6.462810
  H     -2.320660   -6.064100    5.145670
  H     -3.704720   -6.961110    4.438290
  H     -3.908580   -5.272790    4.953060
  H     -7.174930  -10.935690    0.259990
  H     -6.761240  -10.278530    2.592580
  H     -0.600860   -2.906270   -4.458720
  H     -1.616320   -3.260620   -5.882560
  H     -0.485300   -4.492630   -5.267000
  H     -2.463660   -7.233980   -7.673040
  H     -1.608520   -5.867660   -8.437800
  H     -3.382730   -5.933450   -8.493030
  H     -4.847740   -7.299380   -7.497810
  H     -6.486350  -11.581690   -3.223100
  H     -8.554760  -11.106490   -7.728250

 Total Charge           Charge          ....    0
 Multiplicity           Mult            ....    1
 Number of Electrons    NEL             ....  602
 Basis Dimension        Dim             .... 1150

ORBITAL ENERGIES
----------------

  NO   OCC          E(Eh)            E(eV)
   0   2.0000    -482.877430    -13139.7629
   1   2.0000    -482.874811    -13139.6916
   2   2.0000    -482.872821    -13139.6375
   3   2.0000    -482.872261    -13139.6222
   4   2.0000     -88.997331     -2421.7405
   5   2.0000     -88.965631     -2420.8779
   6   2.0000     -88.962326     -2420.7880
   7   2.0000     -62.555007     -1702.2083
   8   2.0000     -62.552431     -1702.1382
   9   2.0000     -62.550440     -1702.0840
  10   2.0000     -62.549887     -1702.0690
  11   2.0000     -56.388948     -1534.4213
  12   2.0000     -56.386392     -1534.3517
  13   2.0000     -56.386315     -1534.3496
  14   2.0000     -56.386212     -1534.3468
  15   2.0000     -56.384381     -1534.2970
  16   2.0000     -56.383821     -1534.2818
  17   2.0000     -56.383720     -1534.2790
  18   2.0000     -56.383629     -1534.2765
  19   2.0000     -56.381744     -1534.2253
  20   2.0000     -56.381649     -1534.2227
  21   2.0000     -56.381191     -1534.2102
  22   2.0000     -56.381102     -1534.2078
  23   2.0000     -19.275071      -524.5013
  24   2.0000     -19.271165      -524.3951
  25   2.0000     -19.263849      -524.1960
  26   2.0000     -19.243500      -523.6423
  27   2.0000     -19.234780      -523.4050
  28   2.0000     -19.231769      -523.3230
  29   2.0000     -19.226218      -523.1720
  30   2.0000     -19.218158      -522.9527
  31   2.0000     -14.453291      -393.2940
  32   2.0000     -14.442448      -392.9990
  33   2.0000     -14.425873      -392.5480
  34   2.0000     -14.416359      -392.2891
  35   2.0000     -14.413632      -392.2149
  36   2.0000     -14.412499      -392.1840
  37   2.0000     -10.382615      -282.5253
  38   2.0000     -10.379900      -282.4514
  39   2.0000     -10.374586      -282.3068
  40   2.0000     -10.369820      -282.1772
  41   2.0000     -10.366968      -282.0996
  42   2.0000     -10.362755      -281.9849
  43   2.0000     -10.357427      -281.8399
  44   2.0000     -10.353343      -281.7288
  45   2.0000     -10.352589      -281.7083
  46   2.0000     -10.348359      -281.5932
  47   2.0000     -10.348322      -281.5922
  48   2.0000     -10.347885      -281.5803
  49   2.0000     -10.347167      -281.5607
  50   2.0000     -10.345353      -281.5114
  51   2.0000     -10.343034      -281.4483
  52   2.0000     -10.341574      -281.4085
  53   2.0000     -10.340620      -281.3826
  54   2.0000     -10.340395      -281.3764
  55   2.0000     -10.339128      -281.3420
  56   2.0000     -10.336828      -281.2794
  57   2.0000     -10.335969      -281.2560
  58   2.0000     -10.332258      -281.1550
  59   2.0000     -10.332149      -281.1521
  60   2.0000     -10.330249      -281.1004
  61   2.0000     -10.329736      -281.0864
  62   2.0000     -10.328700      -281.0582
  63   2.0000     -10.327565      -281.0273
  64   2.0000     -10.323833      -280.9258
  65   2.0000     -10.321133      -280.8523
  66   2.0000     -10.320993      -280.8485
  67   2.0000     -10.320644      -280.8390
  68   2.0000     -10.319698      -280.8133
  69   2.0000     -10.316689      -280.7314
  70   2.0000     -10.316526      -280.7269
  71   2.0000     -10.315703      -280.7046
  72   2.0000     -10.313341      -280.6403
  73   2.0000     -10.312351      -280.6133
  74   2.0000     -10.311656      -280.5944
  75   2.0000     -10.311429      -280.5883
  76   2.0000     -10.310663      -280.5674
  77   2.0000     -10.310477      -280.5623
  78   2.0000     -10.306808      -280.4625
  79   2.0000     -10.306654      -280.4583
  80   2.0000     -10.302598      -280.3479
  81   2.0000     -10.302359      -280.3414
  82   2.0000     -10.298707      -280.2421
  83   2.0000     -10.298489      -280.2361
  84   2.0000     -10.297413      -280.2069
  85   2.0000      -8.784309      -239.0332
  86   2.0000      -8.781752      -238.9636
  87   2.0000      -8.779761      -238.9094
  88   2.0000      -8.779221      -238.8947
  89   2.0000      -8.090963      -220.1663
  90   2.0000      -8.059301      -219.3047
  91   2.0000      -8.055753      -219.2082
  92   2.0000      -6.620379      -180.1497
  93   2.0000      -6.617920      -180.0828
  94   2.0000      -6.615848      -180.0264
  95   2.0000      -6.615276      -180.0108
  96   2.0000      -6.606456      -179.7708
  97   2.0000      -6.605687      -179.7499
  98   2.0000      -6.603837      -179.6995
  99   2.0000      -6.603094      -179.6793
 100   2.0000      -6.601888      -179.6465
 101   2.0000      -6.601377      -179.6326
 102   2.0000      -6.601149      -179.6264
 103   2.0000      -6.600628      -179.6122
 104   2.0000      -6.060032      -164.9019
 105   2.0000      -6.055716      -164.7844
 106   2.0000      -6.053860      -164.7339
 107   2.0000      -6.029040      -164.0585
 108   2.0000      -6.025567      -163.9640
 109   2.0000      -6.024748      -163.9417
 110   2.0000      -6.021304      -163.8480
 111   2.0000      -6.020514      -163.8265
 112   2.0000      -6.016809      -163.7257
 113   2.0000      -2.736341       -74.4596
 114   2.0000      -2.733794       -74.3903
 115   2.0000      -2.732533       -74.3560
 116   2.0000      -2.731946       -74.3400
 117   2.0000      -2.731749       -74.3347
 118   2.0000      -2.731200       -74.3197
 119   2.0000      -2.730055       -74.2886
 120   2.0000      -2.729430       -74.2716
 121   2.0000      -2.727987       -74.2323
 122   2.0000      -2.727451       -74.2177
 123   2.0000      -2.727447       -74.2176
 124   2.0000      -2.726890       -74.2025
 125   2.0000      -2.720870       -74.0386
 126   2.0000      -2.720852       -74.0381
 127   2.0000      -2.718257       -73.9675
 128   2.0000      -2.718240       -73.9671
 129   2.0000      -2.716334       -73.9152
 130   2.0000      -2.716318       -73.9148
 131   2.0000      -2.715820       -73.9012
 132   2.0000      -2.715805       -73.9008
 133   2.0000      -1.185120       -32.2488
 134   2.0000      -1.171820       -31.8869
 135   2.0000      -1.166375       -31.7387
 136   2.0000      -1.149294       -31.2739
 137   2.0000      -1.148084       -31.2410
 138   2.0000      -1.144246       -31.1365
 139   2.0000      -1.142129       -31.0789
 140   2.0000      -1.133393       -30.8412
 141   2.0000      -1.102422       -29.9984
 142   2.0000      -1.029288       -28.0083
 143   2.0000      -1.026601       -27.9352
 144   2.0000      -1.021215       -27.7887
 145   2.0000      -1.012789       -27.5594
 146   2.0000      -1.011886       -27.5348
 147   2.0000      -1.003684       -27.3116
 148   2.0000      -0.998891       -27.1812
 149   2.0000      -0.996188       -27.1076
 150   2.0000      -0.990978       -26.9659
 151   2.0000      -0.983821       -26.7711
 152   2.0000      -0.976413       -26.5695
 153   2.0000      -0.971587       -26.4382
 154   2.0000      -0.942351       -25.6427
 155   2.0000      -0.922633       -25.1061
 156   2.0000      -0.919107       -25.0102
 157   2.0000      -0.915246       -24.9051
 158   2.0000      -0.911940       -24.8151
 159   2.0000      -0.908702       -24.7270
 160   2.0000      -0.904355       -24.6087
 161   2.0000      -0.890019       -24.2186
 162   2.0000      -0.877034       -23.8653
 163   2.0000      -0.872669       -23.7465
 164   2.0000      -0.868609       -23.6360
 165   2.0000      -0.859151       -23.3787
 166   2.0000      -0.853267       -23.2186
 167   2.0000      -0.847729       -23.0679
 168   2.0000      -0.844127       -22.9699
 169   2.0000      -0.839271       -22.8377
 170   2.0000      -0.827554       -22.5189
 171   2.0000      -0.805327       -21.9141
 172   2.0000      -0.804278       -21.8855
 173   2.0000      -0.794786       -21.6272
 174   2.0000      -0.790156       -21.5012
 175   2.0000      -0.777944       -21.1689
 176   2.0000      -0.773432       -21.0462
 177   2.0000      -0.769017       -20.9260
 178   2.0000      -0.766995       -20.8710
 179   2.0000      -0.761622       -20.7248
 180   2.0000      -0.756574       -20.5874
 181   2.0000      -0.739412       -20.1204
 182   2.0000      -0.732504       -19.9325
 183   2.0000      -0.705842       -19.2069
 184   2.0000      -0.701043       -19.0763
 185   2.0000      -0.697312       -18.9748
 186   2.0000      -0.691825       -18.8255
 187   2.0000      -0.685592       -18.6559
 188   2.0000      -0.681958       -18.5570
 189   2.0000      -0.675297       -18.3758
 190   2.0000      -0.668603       -18.1936
 191   2.0000      -0.665617       -18.1124
 192   2.0000      -0.662450       -18.0262
 193   2.0000      -0.654265       -17.8035
 194   2.0000      -0.642366       -17.4797
 195   2.0000      -0.633762       -17.2455
 196   2.0000      -0.628812       -17.1108
 197   2.0000      -0.627378       -17.0718
 198   2.0000      -0.620295       -16.8791
 199   2.0000      -0.616964       -16.7884
 200   2.0000      -0.611081       -16.6284
 201   2.0000      -0.607365       -16.5272
 202   2.0000      -0.604654       -16.4535
 203   2.0000      -0.595586       -16.2067
 204   2.0000      -0.586114       -15.9490
 205   2.0000      -0.585482       -15.9318
 206   2.0000      -0.583054       -15.8657
 207   2.0000      -0.579879       -15.7793
 208   2.0000      -0.577863       -15.7245
 209   2.0000      -0.574113       -15.6224
 210   2.0000      -0.568789       -15.4775
 211   2.0000      -0.565320       -15.3831
 212   2.0000      -0.564040       -15.3483
 213   2.0000      -0.560459       -15.2509
 214   2.0000      -0.558895       -15.2083
 215   2.0000      -0.554621       -15.0920
 216   2.0000      -0.549434       -14.9509
 217   2.0000      -0.547294       -14.8926
 218   2.0000      -0.545571       -14.8458
 219   2.0000      -0.542032       -14.7495
 220   2.0000      -0.540883       -14.7182
 221   2.0000      -0.539662       -14.6849
 222   2.0000      -0.539349       -14.6764
 223   2.0000      -0.535939       -14.5836
 224   2.0000      -0.533406       -14.5147
 225   2.0000      -0.532124       -14.4798
 226   2.0000      -0.526861       -14.3366
 227   2.0000      -0.523455       -14.2439
 228   2.0000      -0.521437       -14.1890
 229   2.0000      -0.519529       -14.1371
 230   2.0000      -0.514655       -14.0045
 231   2.0000      -0.510007       -13.8780
 232   2.0000      -0.508957       -13.8494
 233   2.0000      -0.504104       -13.7174
 234   2.0000      -0.503563       -13.7026
 235   2.0000      -0.500772       -13.6267
 236   2.0000      -0.499942       -13.6041
 237   2.0000      -0.498491       -13.5646
 238   2.0000      -0.497804       -13.5459
 239   2.0000      -0.496282       -13.5045
 240   2.0000      -0.491949       -13.3866
 241   2.0000      -0.486674       -13.2431
 242   2.0000      -0.485895       -13.2219
 243   2.0000      -0.481364       -13.0986
 244   2.0000      -0.476410       -12.9638
 245   2.0000      -0.470700       -12.8084
 246   2.0000      -0.463982       -12.6256
 247   2.0000      -0.462812       -12.5938
 248   2.0000      -0.462170       -12.5763
 249   2.0000      -0.458291       -12.4707
 250   2.0000      -0.457375       -12.4458
 251   2.0000      -0.455960       -12.4073
 252   2.0000      -0.450247       -12.2518
 253   2.0000      -0.449701       -12.2370
 254   2.0000      -0.448484       -12.2039
 255   2.0000      -0.446994       -12.1633
 256   2.0000      -0.446227       -12.1425
 257   2.0000      -0.442772       -12.0484
 258   2.0000      -0.441346       -12.0096
 259   2.0000      -0.438775       -11.9397
 260   2.0000      -0.435123       -11.8403
 261   2.0000      -0.433003       -11.7826
 262   2.0000      -0.432676       -11.7737
 263   2.0000      -0.430513       -11.7149
 264   2.0000      -0.425442       -11.5769
 265   2.0000      -0.422148       -11.4872
 266   2.0000      -0.420655       -11.4466
 267   2.0000      -0.418135       -11.3780
 268   2.0000      -0.416713       -11.3393
 269   2.0000      -0.414588       -11.2815
 270   2.0000      -0.411243       -11.1905
 271   2.0000      -0.408210       -11.1080
 272   2.0000      -0.402080       -10.9412
 273   2.0000      -0.399685       -10.8760
 274   2.0000      -0.396686       -10.7944
 275   2.0000      -0.394844       -10.7443
 276   2.0000      -0.389910       -10.6100
 277   2.0000      -0.388424       -10.5696
 278   2.0000      -0.386979       -10.5302
 279   2.0000      -0.384449       -10.4614
 280   2.0000      -0.377160       -10.2630
 281   2.0000      -0.376360       -10.2413
 282   2.0000      -0.367702       -10.0057
 283   2.0000      -0.361209        -9.8290
 284   2.0000      -0.355300        -9.6682
 285   2.0000      -0.351554        -9.5663
 286   2.0000      -0.348586        -9.4855
 287   2.0000      -0.347834        -9.4651
 288   2.0000      -0.344918        -9.3857
 289   2.0000      -0.340319        -9.2606
 290   2.0000      -0.339544        -9.2395
 291   2.0000      -0.337184        -9.1752
 292   2.0000      -0.331007        -9.0072
 293   2.0000      -0.328110        -8.9283
 294   2.0000      -0.319933        -8.7058
 295   2.0000      -0.313137        -8.5209
 296   2.0000      -0.305877        -8.3233
 297   2.0000      -0.291375        -7.9287
 298   2.0000      -0.290322        -7.9001
 299   2.0000      -0.286168        -7.7870
 300   2.0000      -0.240486        -6.5439
 301   0.0000      -0.115367        -3.1393
 302   0.0000      -0.098859        -2.6901
 303   0.0000      -0.081849        -2.2272
 304   0.0000      -0.076145        -2.0720
 305   0.0000      -0.065196        -1.7741

MULLIKEN ATOMIC CHARGES
-----------------------
   0 C :    0.161521
   1 O :   -0.174335
   2 C :   -0.007739
   3 C :    0.027313
   4 C :   -0.011335
   5 C :   -0.024411
   6 C :   -0.015004
   7 C :   -0.025660
   8 Br:    0.010440
   9 Br:    0.019492
  10 C :    0.328779
  11 C :   -0.366624
  12 C :   -0.188492
  13 N :    0.155841
  14 C :   -0.156027
  15 N :    0.132986
  16 C :   -0.111486
  17 C :   -0.017220
  18 C :   -0.119807
  19 C :    0.140287
  20 O :   -0.320530
  21 C :    0.168213
  22 C :    0.186204
  23 O :   -0.273186
  24 C :    0.193609
  25 C :   -0.121548
  26 S :    0.170485
  27 C :   -0.177333
  28 C :    0.084484
  29 C :   -0.017714
  30 N :    0.023728
  31 C :   -0.105946
  32 C :    0.174529
  33 O :   -0.133335
  34 C :   -0.015424
  35 C :   -0.008842
  36 C :    0.151775
  37 O :   -0.113619
  38 C :   -0.134493
  39 N :    0.103319
  40 C :   -0.069147
  41 S :    0.258113
  42 C :   -0.135635
  43 C :    0.143442
  44 O :   -0.313249
  45 C :    0.195148
  46 C :    0.253431
  47 O :   -0.312981
  48 C :    0.166958
  49 C :   -0.234693
  50 S :    0.185168
  51 C :    0.042454
  52 C :   -0.146432
  53 C :    0.138933
  54 O :   -0.143550
  55 C :    0.002647
  56 C :    0.011880
  57 C :    0.255811
  58 C :   -0.300200
  59 C :   -0.191564
  60 N :    0.152913
  61 C :   -0.170360
  62 N :    0.149737
  63 C :    0.015882
  64 C :   -0.020544
  65 C :   -0.018621
  66 C :   -0.026106
  67 Br:    0.006411
  68 Br:    0.008401
  69 H :    0.007639
  70 H :    0.002725
  71 H :   -0.016309
  72 H :    0.033802
  73 H :    0.030014
  74 H :    0.061813
  75 H :    0.027162
  76 H :    0.043784
  77 H :    0.005049
  78 H :    0.019492
  79 H :    0.018908
  80 H :    0.037872
  81 H :    0.033584
  82 H :    0.033743
  83 H :    0.055550
  84 H :    0.041649
  85 H :    0.043153
  86 H :    0.012892
  87 H :    0.006585
  88 H :    0.003754
Sum of atomic charges:   -0.0000000

LOEWDIN ATOMIC CHARGES
----------------------
   0 C :    0.081768
   1 O :   -0.163496
   2 C :   -0.039933
   3 C :   -0.011478
   4 C :   -0.007122
   5 C :   -0.120499
   6 C :   -0.123680
   7 C :    0.003683
   8 Br:    0.134906
   9 Br:    0.139416
  10 C :    0.078282
  11 C :   -0.148854
  12 C :   -0.020943
  13 N :   -0.051074
  14 C :   -0.008189
  15 N :   -0.057327
  16 C :   -0.123075
  17 C :    0.051889
  18 C :   -0.213703
  19 C :    0.028076
  20 O :   -0.094463
  21 C :    0.079634
  22 C :    0.003239
  23 O :   -0.068295
  24 C :    0.081920
  25 C :   -0.195892
  26 S :    0.478604
  27 C :   -0.193293
  28 C :   -0.032899
  29 C :   -0.050783
  30 N :   -0.011542
  31 C :   -0.041010
  32 C :    0.070021
  33 O :   -0.111577
  34 C :   -0.006690
  35 C :   -0.008414
  36 C :    0.064227
  37 O :   -0.102564
  38 C :   -0.045365
  39 N :    0.022571
  40 C :   -0.181047
  41 S :    0.541876
  42 C :   -0.196467
  43 C :    0.013651
  44 O :   -0.095117
  45 C :    0.085049
  46 C :    0.027525
  47 O :   -0.086064
  48 C :    0.085969
  49 C :   -0.223677
  50 S :    0.519923
  51 C :    0.039104
  52 C :   -0.102164
  53 C :    0.083520
  54 O :   -0.143649
  55 C :   -0.044918
  56 C :   -0.003477
  57 C :    0.060471
  58 C :   -0.135148
  59 C :   -0.026683
  60 N :   -0.062186
  61 C :   -0.016111
  62 N :   -0.059254
  63 C :    0.001245
  64 C :   -0.120329
  65 C :   -0.125357
  66 C :    0.003176
  67 Br:    0.131156
  68 Br:    0.133624
  69 H :    0.044624
  70 H :    0.044825
  71 H :    0.047495
  72 H :    0.025609
  73 H :    0.019277
  74 H :    0.022568
  75 H :    0.015183
  76 H :    0.024247
  77 H :    0.012239
  78 H :    0.047485
  79 H :    0.046431
  80 H :    0.027610
  81 H :    0.019112
  82 H :    0.022091
  83 H :    0.028847
  84 H :    0.031993
  85 H :    0.020889
  86 H :    0.043297
  87 H :    0.040455
  88 H :    0.045007

  Mayer bond orders larger than 0.100000
B(  0-C ,  1-O ) :   2.1348 B(  0-C ,  2-C ) :   0.9558 B(  0-C , 16-C ) :   0.9868
B(  2-C ,  3-C ) :   1.3322 B(  2-C ,  7-C ) :   1.3758 B(  3-C ,  4-C ) :   1.3739
B(  3-C , 10-C ) :   0.9808 B(  4-C ,  5-C ) :   1.3621 B(  4-C , 69-H ) :   0.9777
B(  5-C ,  6-C ) :   1.4304 B(  5-C ,  9-Br) :   1.0554 B(  6-C ,  7-C ) :   1.3434
B(  6-C ,  8-Br) :   1.0310 B(  7-C , 70-H ) :   1.0082 B( 10-C , 11-C ) :   1.6025
B( 10-C , 16-C ) :   1.1088 B( 11-C , 12-C ) :   1.1446 B( 11-C , 14-C ) :   1.1642
B( 12-C , 13-N ) :   2.9677 B( 14-C , 15-N ) :   2.9065 B( 16-C , 17-C ) :   1.4481
B( 17-C , 18-C ) :   1.3215 B( 17-C , 71-H ) :   0.9249 B( 18-C , 19-C ) :   1.3052
B( 18-C , 25-C ) :   0.1174 B( 18-C , 26-S ) :   1.0476 B( 19-C , 20-O ) :   1.1991
B( 19-C , 22-C ) :   1.2680 B( 20-O , 21-C ) :   0.8967 B( 21-C , 72-H ) :   0.9704
B( 21-C , 73-H ) :   0.9648 B( 21-C , 74-H ) :   0.9555 B( 22-C , 23-O ) :   1.2707
B( 22-C , 25-C ) :   1.3916 B( 23-O , 24-C ) :   0.9164 B( 24-C , 75-H ) :   0.9747
B( 24-C , 76-H ) :   0.9669 B( 24-C , 77-H ) :   0.9726 B( 25-C , 26-S ) :   1.0900
B( 25-C , 27-C ) :   1.1972 B( 27-C , 28-C ) :   1.3199 B( 27-C , 40-C ) :   0.1220
B( 27-C , 41-S ) :   1.1502 B( 28-C , 29-C ) :   1.1931 B( 28-C , 39-N ) :   1.4640
B( 29-C , 30-N ) :   1.4209 B( 29-C , 40-C ) :   1.2898 B( 30-N , 31-C ) :   1.6852
B( 31-C , 32-C ) :   0.9164 B( 31-C , 38-C ) :   1.1032 B( 32-C , 33-O ) :   2.1467
B( 32-C , 34-C ) :   1.0279 B( 34-C , 35-C ) :   1.6776 B( 34-C , 78-H ) :   1.0001
B( 35-C , 36-C ) :   1.0287 B( 35-C , 79-H ) :   0.9983 B( 36-C , 37-O ) :   2.1855
B( 36-C , 38-C ) :   0.8981 B( 38-C , 39-N ) :   1.7161 B( 40-C , 41-S ) :   1.1722
B( 40-C , 42-C ) :   1.2458 B( 42-C , 43-C ) :   1.4368 B( 42-C , 49-C ) :   0.1157
B( 42-C , 50-S ) :   1.1266 B( 43-C , 44-O ) :   1.2100 B( 43-C , 46-C ) :   1.2217
B( 44-O , 45-C ) :   0.9174 B( 45-C , 80-H ) :   0.9788 B( 45-C , 81-H ) :   0.9746
B( 45-C , 82-H ) :   0.9762 B( 46-C , 47-O ) :   1.1943 B( 46-C , 49-C ) :   1.3688
B( 47-O , 48-C ) :   0.9290 B( 48-C , 83-H ) :   0.9611 B( 48-C , 84-H ) :   0.9751
B( 48-C , 85-H ) :   0.9729 B( 49-C , 50-S ) :   1.0512 B( 49-C , 51-C ) :   1.1300
B( 51-C , 52-C ) :   1.6496 B( 51-C , 86-H ) :   0.9457 B( 52-C , 53-C ) :   0.9505
B( 52-C , 57-C ) :   1.0266 B( 53-C , 54-O ) :   2.2619 B( 53-C , 55-C ) :   0.9213
B( 55-C , 56-C ) :   1.3220 B( 55-C , 66-C ) :   1.3693 B( 56-C , 57-C ) :   1.0121
B( 56-C , 63-C ) :   1.3878 B( 57-C , 58-C ) :   1.6700 B( 58-C , 59-C ) :   1.1573
B( 58-C , 61-C ) :   1.1430 B( 59-C , 60-N ) :   2.9973 B( 61-C , 62-N ) :   2.9736
B( 63-C , 64-C ) :   1.3628 B( 63-C , 87-H ) :   0.9747 B( 64-C , 65-C ) :   1.4208
B( 64-C , 68-Br) :   1.0439 B( 65-C , 66-C ) :   1.3601 B( 65-C , 67-Br) :   1.0290
B( 66-C , 88-H ) :   1.0081

-----------------------------------------------------------------------------
         ABSORPTION SPECTRUM VIA TRANSITION ELECTRIC DIPOLE MOMENTS
-----------------------------------------------------------------------------
State   Energy  Wavelength   fosc         T2         TX        TY        TZ
        (cm-1)    (nm)                  (au**2)     (au)      (au)      (au)
-----------------------------------------------------------------------------
   0   11187.4    893.9   0.793052734  23.33716   1.46897   3.04994   3.44632
   1   15000.6    666.6   0.207097068   4.54509   1.29564   1.69059   0.09122
   2   18908.5    528.9   0.223544218   3.89207   0.61467   1.74427   0.68687
   3   19746.3    506.4   0.182311040   3.03950  -1.05234  -1.16750  -0.75434
   4   20266.7    493.4   0.079151437   1.28574   0.69999   0.82948  -0.32820
   5   20695.0    483.2   0.010118091   0.16096   0.07960   0.28954  -0.26606
   6   21980.1    455.0   0.005732315   0.08586  -0.18707  -0.10274   0.20077
   7   22375.7    446.9   0.102350711   1.50588  -0.55595  -1.07242  -0.21617
   8   23757.0    420.9   0.058977856   0.81728   0.15060   0.80597  -0.38080
   9   24194.3    413.3   0.007003415   0.09530   0.12603   0.26041  -0.10770
  10   24551.7    407.3   0.070985870   0.95184  -0.30686  -0.92398   0.06286
  11   24864.1    402.2   0.056907053   0.75348  -0.20544  -0.22914  -0.81164
  12   26209.5    381.5   0.022495784   0.28256  -0.24520   0.02537  -0.47095
  13   26435.3    378.3   0.022656734   0.28216   0.30953   0.15737   0.40197
  14   26738.2    374.0   0.034053550   0.41928   0.34082   0.52453   0.16731
  15   27043.2    369.8   0.072402219   0.88139  -0.57847  -0.69645  -0.24845
  16   27536.9    363.1   0.043148041   0.51585  -0.33878  -0.62431   0.10636
  17   28385.8    352.3   0.020559479   0.23844   0.27394   0.39986  -0.05928
  18   28587.1    349.8   0.002741369   0.03157   0.12417  -0.07384   0.10344
  19   29178.6    342.7   0.023708785   0.26750  -0.17814   0.08543  -0.47798
  20   29392.1    340.2   0.114118211   1.27820   0.34997   0.97906  -0.44404
  21   29532.8    338.6   0.034436026   0.38387  -0.47032  -0.34095  -0.21547
  22   30022.0    333.1   0.201504019   2.20963  -0.08460  -0.88792   1.18914
  23   30251.7    330.6   0.037240539   0.40527  -0.37608   0.18030  -0.48096
  24   30438.2    328.5   0.013030032   0.14093  -0.07966  -0.17123   0.32445
  25   30826.6    324.4   0.026767623   0.28586   0.22359   0.44444  -0.19582
  26   31191.2    320.6   0.010605138   0.11193  -0.11632  -0.13731  -0.28205
  27   31859.1    313.9   0.004713471   0.04871   0.10686   0.09363   0.16888
  28   32111.6    311.4   0.124980366   1.28131   0.46763  -0.04715   1.02976
  29   32404.3    308.6   0.002084752   0.02118  -0.14244   0.00873   0.02853
  30   32921.3    303.8   0.084453607   0.84453  -0.50552  -0.52125   0.56327
  31   32973.7    303.3   0.011076030   0.11058  -0.05846  -0.30045   0.12999
  32   33122.4    301.9   0.116837346   1.16128   0.69980   0.81005  -0.12396
  33   33189.0    301.3   0.070016032   0.69451   0.48560  -0.31667   0.59869
  34   33586.6    297.7   0.050083507   0.49091  -0.34389  -0.54191   0.28103
  35   33692.9    296.8   0.015625767   0.15268  -0.12471   0.34413   0.13676
  36   33827.0    295.6   0.197121344   1.91843  -0.91017  -1.02675   0.18925
  37   34079.2    293.4   0.139554361   1.34812   0.15131   0.46005  -1.05527
  38   34111.9    293.2   0.126387491   1.21976   0.09799   0.56548  -0.94360
  39   34380.4    290.9   0.234270513   2.24327   0.45189  -0.12629   1.42236
  40   34681.9    288.3   0.259478833   2.46306   0.17889  -0.78333   1.34813
  41   34900.1    286.5   0.519190209   4.89751   1.68765   0.88931   1.12182
  42   35178.1    284.3   0.101656787   0.95135   0.91847   0.31305  -0.09884
  43   35444.8    282.1   0.038933393   0.36161   0.40507   0.20622   0.39371
  44   35523.8    281.5   0.035049011   0.32481  -0.45757  -0.00238   0.33976
  45   35878.3    278.7   0.062520114   0.57367   0.47150   0.53403  -0.25724
  46   36113.1    276.9   0.178315480   1.62555  -0.36130  -0.89529   0.83275
  47   36283.4    275.6   0.022555549   0.20465  -0.21171   0.15561  -0.36827
  48   36395.1    274.8   0.163061179   1.47497   0.90424   0.76552   0.26701
  49   36688.1    272.6   0.025341683   0.22740  -0.08278  -0.14640   0.44622
  50   36906.6    271.0   0.006880619   0.06138  -0.01329  -0.24736  -0.00379
  51   37278.3    268.3   0.039713574   0.35072  -0.23480  -0.10272  -0.53389
  52   37395.9    267.4   0.010925953   0.09619   0.22436   0.21386   0.01049
  53   37612.3    265.9   0.003858905   0.03378  -0.00121   0.05991  -0.17374
  54   37705.9    265.2   0.072616667   0.63402  -0.38446  -0.61202   0.33414
  55   37911.3    263.8   0.037267626   0.32362  -0.16483  -0.52564   0.14197
  56   38189.4    261.9   0.015589116   0.13439  -0.05624  -0.34671   0.10497
  57   38313.7    261.0   0.020877990   0.17940  -0.01846   0.21802  -0.36266
  58   38530.4    259.5   0.022113951   0.18895   0.25371   0.31882   0.15144
  59   38785.5    257.8   0.051350180   0.43586   0.24668   0.60653  -0.08447
  60   39282.4    254.6   0.010549234   0.08841  -0.11141   0.10341   0.25555
  61   39845.0    251.0   0.178322416   1.47336  -0.34734  -0.89099   0.74756
  62   40072.3    249.5   0.073117572   0.60069  -0.28577  -0.68965   0.20836
  63   40178.1    248.9   0.006559579   0.05375   0.03458   0.19843   0.11479

FINAL SINGLE POINT ENERGY    -14257.902140206015

DIPOLE MOMENT
-------------
                                X             Y             Z
Electronic contribution:    -34.63052      40.66547     -46.14908
Nuclear contribution   :     33.32101     -40.31021      44.40722
                        -----------------------------------------
Total Dipole Moment    :     -1.30951       0.35525      -1.74186
                        -----------------------------------------
Magnitude (a.u.)       :      2.20796
Magnitude (Debye)      :      5.61219

Rotational constants in cm-1:     0.001511     0.000242     0.000215
Rotational constants in MHz :    45.312487     7.254634     6.443416

                             ****ORCA TERMINATED NORMALLY****
TOTAL RUN TIME: 0 days 0 hours 9 minutes 25 seconds 106 msec
