                         Program Version 4.2.0 -  RELEASE  -
|  1> # ORCA input file
|  2> # SCF done       -180.187177540105          0.000422154948
|  3> ! CAM-B3LYP def2-SVP def2/J RIJCOSX Grid4 TightSCF
|  4> %maxcore 5000
|  5> %tddft
|  6>     Mode sTDDFT
|  7>     Ethresh 5.0
|  8>     maxcore 5000
|  9> end
| 10>
| 11> %pal
| 12>   nprocs 6
| 13>   end
| 14> * xyz 0 1
| 15>    C       -0.51243         2.92035        -3.55213
| 16>    C        0.26267         4.04301        -3.67506
| 17>    C        0.43311         4.75688        -4.87622
| 18>    N        0.56420         5.40541        -5.81458
| 19>    C        0.99529         4.58941        -2.60015
| 20>    N        1.64810         5.01522        -1.75693
| 21>    C       -1.03097         2.11596        -4.64870
| 22>    C       -1.32060         0.80906        -4.15382
| 23>    C       -1.78126        -0.17958        -4.97512
| 24>    C       -1.98595         0.10080        -6.34513
| 25>    C       -1.70978         1.40820        -6.84174
| 26>    C       -1.22567         2.41093        -5.97135
| 27>    C       -1.92382         1.67456        -8.20953
| 28>    C       -2.38647         0.69812        -9.04888
| 29>    C       -2.65743        -0.58857        -8.55957
| 30>    C       -2.46064        -0.88098        -7.23715
| 31>    C       -1.05690         0.76119        -2.70355
| 32>    O       -1.13188        -0.18632        -1.95760
| 33>    C       -0.74142         2.17101        -2.32823
| 34>    C       -0.85333         2.58798        -1.04298
| 35>    C       -0.97500         3.93781        -0.60472
| 36>    C       -0.53509         4.48042         0.57940
| 37>    C       -0.73164         5.86673         0.67285
| 38>    S       -0.09342         6.81920         1.98776
| 39>    C        1.41738         5.86172         2.36314
| 40>    C       -1.38476         6.39410        -0.44530
| 41>    S       -1.72321         5.14887        -1.60451
| 42>    C       -1.68767         7.73270        -0.80346
| 43>    C       -1.84696         8.78513         0.12490
| 44>    C       -2.05727        10.14341        -0.30555
| 45>    N       -2.12361        11.11707         0.61086
| 46>    C       -2.07896        10.82869         1.88504
| 47>    C       -1.99491         9.46263         2.31156
| 48>    N       -1.86011         8.49701         1.43145
| 49>    C       -2.04024         9.13875         3.68890
| 50>    N       -2.08091         8.91778         4.81241
| 51>    C       -2.10736        11.87665         2.84066
| 52>    N       -2.11714        12.68320         3.65336
| 53>    C       -2.17627        10.51121        -1.66560
| 54>    C       -2.05173         9.45242        -2.59453
| 55>    C       -1.83027         8.09373        -2.16332
| 56>    N       -1.74810         7.25403        -3.19543
| 57>    S       -1.91618         8.07656        -4.56357
| 58>    N       -2.11832         9.53283        -3.92482
| 59>    C       -2.41174        11.86357        -2.03419
| 60>    C       -2.46569        12.38029        -3.32424
| 61>    C       -2.73486        13.73596        -3.34254
| 62>    S       -2.84968        14.65812        -4.84826
| 63>    C       -4.63061        15.05178        -4.85228
| 64>    C       -2.86346        14.30679        -2.06158
| 65>    S       -2.70363        13.08005        -0.83248
| 66>    C       -3.01001        15.68759        -1.85743
| 67>    C       -3.07697        16.39910        -0.68837
| 68>    C       -3.16920        17.84311        -0.58167
| 69>    C       -3.48567        18.72479        -1.58398
| 70>    C       -3.55892        20.12242        -1.41024
| 71>    N       -3.62893        21.26626        -1.33914
| 72>    C       -3.84585        18.36809        -2.89945
| 73>    N       -4.19258        18.15349        -3.97362
| 74>    C       -2.94676        18.19652         0.81656
| 75>    C       -2.83370        16.99476         1.57339
| 76>    C       -2.95637        15.84222         0.67076
| 77>    O       -2.95638        14.66788         0.98997
| 78>    C       -2.63509        17.00054         2.92360
| 79>    C       -2.53289        18.24086         3.59345
| 80>    C       -2.63854        19.44916         2.84519
| 81>    C       -2.84762        19.40818         1.44669
| 82>    C       -2.53218        20.67941         3.52469
| 83>    C       -2.33214        20.71685         4.87810
| 84>    C       -2.22842        19.52688         5.61342
| 85>    C       -2.32673        18.31487         4.98479
| 86>    H       -1.98718        -1.16539        -4.58542
| 87>    H       -1.03032         3.39562        -6.36716
| 88>    H       -1.71075         2.66583        -8.58188
| 89>    H       -2.54589         0.91160       -10.09513
| 90>    H       -3.02301        -1.34673        -9.23567
| 91>    H       -2.66737        -1.87001        -6.85540
| 92>    H       -0.90722         1.81447        -0.28399
| 93>    H       -0.04408         3.89298         1.33291
| 94>    H        2.05719         6.53813         2.92076
| 95>    H        1.90077         5.56257         1.43921
| 96>    H        1.17568         5.00305         2.98128
| 97>    H       -2.31773        11.78439        -4.20570
| 98>    H       -4.76469        15.84212        -5.58270
| 99>    H       -4.94198        15.39954        -3.87386
|100>    H       -5.18574        14.16421        -5.14220
|101>    H       -3.01714        16.26061        -2.77890
|102>    H       -2.55481        16.07171         3.46891
|103>    H       -2.91793        20.34072         0.90941
|104>    H       -2.61361        21.59330         2.95450
|105>    H       -2.25278        21.66477         5.38908
|106>    H       -2.07005        19.57518         6.68041
|107>    H       -2.24759        17.39446         5.54424
|108> *
|109>
|110>                          ****END OF INPUT****

CARTESIAN COORDINATES (ANGSTROEM)
---------------------------------
  C     -0.512430    2.920350   -3.552130
  C      0.262670    4.043010   -3.675060
  C      0.433110    4.756880   -4.876220
  N      0.564200    5.405410   -5.814580
  C      0.995290    4.589410   -2.600150
  N      1.648100    5.015220   -1.756930
  C     -1.030970    2.115960   -4.648700
  C     -1.320600    0.809060   -4.153820
  C     -1.781260   -0.179580   -4.975120
  C     -1.985950    0.100800   -6.345130
  C     -1.709780    1.408200   -6.841740
  C     -1.225670    2.410930   -5.971350
  C     -1.923820    1.674560   -8.209530
  C     -2.386470    0.698120   -9.048880
  C     -2.657430   -0.588570   -8.559570
  C     -2.460640   -0.880980   -7.237150
  C     -1.056900    0.761190   -2.703550
  O     -1.131880   -0.186320   -1.957600
  C     -0.741420    2.171010   -2.328230
  C     -0.853330    2.587980   -1.042980
  C     -0.975000    3.937810   -0.604720
  C     -0.535090    4.480420    0.579400
  C     -0.731640    5.866730    0.672850
  S     -0.093420    6.819200    1.987760
  C      1.417380    5.861720    2.363140
  C     -1.384760    6.394100   -0.445300
  S     -1.723210    5.148870   -1.604510
  C     -1.687670    7.732700   -0.803460
  C     -1.846960    8.785130    0.124900
  C     -2.057270   10.143410   -0.305550
  N     -2.123610   11.117070    0.610860
  C     -2.078960   10.828690    1.885040
  C     -1.994910    9.462630    2.311560
  N     -1.860110    8.497010    1.431450
  C     -2.040240    9.138750    3.688900
  N     -2.080910    8.917780    4.812410
  C     -2.107360   11.876650    2.840660
  N     -2.117140   12.683200    3.653360
  C     -2.176270   10.511210   -1.665600
  C     -2.051730    9.452420   -2.594530
  C     -1.830270    8.093730   -2.163320
  N     -1.748100    7.254030   -3.195430
  S     -1.916180    8.076560   -4.563570
  N     -2.118320    9.532830   -3.924820
  C     -2.411740   11.863570   -2.034190
  C     -2.465690   12.380290   -3.324240
  C     -2.734860   13.735960   -3.342540
  S     -2.849680   14.658120   -4.848260
  C     -4.630610   15.051780   -4.852280
  C     -2.863460   14.306790   -2.061580
  S     -2.703630   13.080050   -0.832480
  C     -3.010010   15.687590   -1.857430
  C     -3.076970   16.399100   -0.688370
  C     -3.169200   17.843110   -0.581670
  C     -3.485670   18.724790   -1.583980
  C     -3.558920   20.122420   -1.410240
  N     -3.628930   21.266260   -1.339140
  C     -3.845850   18.368090   -2.899450
  N     -4.192580   18.153490   -3.973620
  C     -2.946760   18.196520    0.816560
  C     -2.833700   16.994760    1.573390
  C     -2.956370   15.842220    0.670760
  O     -2.956380   14.667880    0.989970
  C     -2.635090   17.000540    2.923600
  C     -2.532890   18.240860    3.593450
  C     -2.638540   19.449160    2.845190
  C     -2.847620   19.408180    1.446690
  C     -2.532180   20.679410    3.524690
  C     -2.332140   20.716850    4.878100
  C     -2.228420   19.526880    5.613420
  C     -2.326730   18.314870    4.984790
  H     -1.987180   -1.165390   -4.585420
  H     -1.030320    3.395620   -6.367160
  H     -1.710750    2.665830   -8.581880
  H     -2.545890    0.911600  -10.095130
  H     -3.023010   -1.346730   -9.235670
  H     -2.667370   -1.870010   -6.855400
  H     -0.907220    1.814470   -0.283990
  H     -0.044080    3.892980    1.332910
  H      2.057190    6.538130    2.920760
  H      1.900770    5.562570    1.439210
  H      1.175680    5.003050    2.981280
  H     -2.317730   11.784390   -4.205700
  H     -4.764690   15.842120   -5.582700
  H     -4.941980   15.399540   -3.873860
  H     -5.185740   14.164210   -5.142200
  H     -3.017140   16.260610   -2.778900
  H     -2.554810   16.071710    3.468910
  H     -2.917930   20.340720    0.909410
  H     -2.613610   21.593300    2.954500
  H     -2.252780   21.664770    5.389080
  H     -2.070050   19.575180    6.680410
  H     -2.247590   17.394460    5.544240

 Total Charge           Charge          ....    0
 Multiplicity           Mult            ....    1
 Number of Electrons    NEL             ....  512
 Basis Dimension        Dim             .... 1124

ORBITAL ENERGIES
----------------

  NO   OCC          E(Eh)            E(eV)
   0   2.0000     -89.054257     -2423.2895
   1   2.0000     -88.971934     -2421.0494
   2   2.0000     -88.958975     -2420.6968
   3   2.0000     -88.939464     -2420.1659
   4   2.0000     -88.918693     -2419.6006
   5   2.0000     -19.222365      -523.0671
   6   2.0000     -19.214090      -522.8420
   7   2.0000     -14.470771      -393.7697
   8   2.0000     -14.464738      -393.6055
   9   2.0000     -14.464087      -393.5878
  10   2.0000     -14.461949      -393.5296
  11   2.0000     -14.431734      -392.7074
  12   2.0000     -14.429371      -392.6431
  13   2.0000     -14.426257      -392.5584
  14   2.0000     -14.422088      -392.4450
  15   2.0000     -14.412393      -392.1812
  16   2.0000     -14.408625      -392.0786
  17   2.0000     -10.388375      -282.6821
  18   2.0000     -10.382728      -282.5284
  19   2.0000     -10.374020      -282.2914
  20   2.0000     -10.362131      -281.9679
  21   2.0000     -10.356928      -281.8263
  22   2.0000     -10.353471      -281.7323
  23   2.0000     -10.353092      -281.7220
  24   2.0000     -10.352818      -281.7145
  25   2.0000     -10.351110      -281.6680
  26   2.0000     -10.349034      -281.6115
  27   2.0000     -10.335711      -281.2490
  28   2.0000     -10.335014      -281.2300
  29   2.0000     -10.331377      -281.1311
  30   2.0000     -10.330052      -281.0950
  31   2.0000     -10.329218      -281.0723
  32   2.0000     -10.329193      -281.0716
  33   2.0000     -10.325751      -280.9780
  34   2.0000     -10.324551      -280.9453
  35   2.0000     -10.324419      -280.9417
  36   2.0000     -10.323615      -280.9199
  37   2.0000     -10.323509      -280.9170
  38   2.0000     -10.323342      -280.9124
  39   2.0000     -10.315341      -280.6947
  40   2.0000     -10.314261      -280.6653
  41   2.0000     -10.312882      -280.6278
  42   2.0000     -10.311853      -280.5998
  43   2.0000     -10.311453      -280.5889
  44   2.0000     -10.308895      -280.5193
  45   2.0000     -10.305960      -280.4394
  46   2.0000     -10.305314      -280.4219
  47   2.0000     -10.304793      -280.4077
  48   2.0000     -10.304642      -280.4036
  49   2.0000     -10.304627      -280.4031
  50   2.0000     -10.304381      -280.3965
  51   2.0000     -10.299932      -280.2754
  52   2.0000     -10.297241      -280.2022
  53   2.0000     -10.296291      -280.1763
  54   2.0000     -10.293814      -280.1089
  55   2.0000     -10.292965      -280.0858
  56   2.0000     -10.292784      -280.0809
  57   2.0000     -10.292374      -280.0697
  58   2.0000     -10.292190      -280.0647
  59   2.0000     -10.291128      -280.0358
  60   2.0000     -10.290573      -280.0207
  61   2.0000     -10.290355      -280.0148
  62   2.0000     -10.289123      -279.9813
  63   2.0000     -10.288730      -279.9706
  64   2.0000     -10.281307      -279.7686
  65   2.0000     -10.280951      -279.7589
  66   2.0000     -10.280110      -279.7360
  67   2.0000     -10.279798      -279.7275
  68   2.0000     -10.279266      -279.7130
  69   2.0000     -10.279173      -279.7105
  70   2.0000     -10.279127      -279.7093
  71   2.0000      -8.145207      -221.6423
  72   2.0000      -8.066263      -219.4942
  73   2.0000      -8.051161      -219.0832
  74   2.0000      -8.033368      -218.5991
  75   2.0000      -8.013485      -218.0580
  76   2.0000      -6.116279      -166.4324
  77   2.0000      -6.108395      -166.2179
  78   2.0000      -6.108081      -166.2093
  79   2.0000      -6.035802      -164.2425
  80   2.0000      -6.031299      -164.1200
  81   2.0000      -6.028123      -164.0336
  82   2.0000      -6.020521      -163.8267
  83   2.0000      -6.015924      -163.7016
  84   2.0000      -6.013367      -163.6320
  85   2.0000      -6.003758      -163.3706
  86   2.0000      -5.999449      -163.2533
  87   2.0000      -5.993358      -163.0876
  88   2.0000      -5.984129      -162.8364
  89   2.0000      -5.980151      -162.7282
  90   2.0000      -5.972758      -162.5270
  91   2.0000      -1.151958       -31.3464
  92   2.0000      -1.137665       -30.9574
  93   2.0000      -1.130130       -30.7524
  94   2.0000      -1.128325       -30.7033
  95   2.0000      -1.055938       -28.7335
  96   2.0000      -1.029184       -28.0055
  97   2.0000      -1.018930       -27.7265
  98   2.0000      -1.014714       -27.6118
  99   2.0000      -1.013014       -27.5655
 100   2.0000      -1.006923       -27.3998
 101   2.0000      -1.005175       -27.3522
 102   2.0000      -1.003619       -27.3099
 103   2.0000      -1.000772       -27.2324
 104   2.0000      -0.993618       -27.0377
 105   2.0000      -0.992603       -27.0101
 106   2.0000      -0.988421       -26.8963
 107   2.0000      -0.979997       -26.6671
 108   2.0000      -0.976656       -26.5762
 109   2.0000      -0.964819       -26.2541
 110   2.0000      -0.934718       -25.4350
 111   2.0000      -0.922171       -25.0935
 112   2.0000      -0.918528       -24.9944
 113   2.0000      -0.916597       -24.9419
 114   2.0000      -0.911591       -24.8057
 115   2.0000      -0.902195       -24.5500
 116   2.0000      -0.895602       -24.3706
 117   2.0000      -0.889053       -24.1924
 118   2.0000      -0.886856       -24.1326
 119   2.0000      -0.876391       -23.8478
 120   2.0000      -0.874243       -23.7894
 121   2.0000      -0.869459       -23.6592
 122   2.0000      -0.847242       -23.0546
 123   2.0000      -0.840001       -22.8576
 124   2.0000      -0.835500       -22.7351
 125   2.0000      -0.827337       -22.5130
 126   2.0000      -0.824633       -22.4394
 127   2.0000      -0.821599       -22.3569
 128   2.0000      -0.815987       -22.2041
 129   2.0000      -0.805313       -21.9137
 130   2.0000      -0.795821       -21.6554
 131   2.0000      -0.775763       -21.1096
 132   2.0000      -0.768011       -20.8986
 133   2.0000      -0.756376       -20.5820
 134   2.0000      -0.751866       -20.4593
 135   2.0000      -0.739217       -20.1151
 136   2.0000      -0.735587       -20.0163
 137   2.0000      -0.726078       -19.7576
 138   2.0000      -0.720877       -19.6161
 139   2.0000      -0.713799       -19.4235
 140   2.0000      -0.708749       -19.2860
 141   2.0000      -0.700284       -19.0557
 142   2.0000      -0.698503       -19.0072
 143   2.0000      -0.695037       -18.9129
 144   2.0000      -0.692577       -18.8460
 145   2.0000      -0.685173       -18.6445
 146   2.0000      -0.684210       -18.6183
 147   2.0000      -0.671478       -18.2718
 148   2.0000      -0.667901       -18.1745
 149   2.0000      -0.662938       -18.0395
 150   2.0000      -0.653435       -17.7809
 151   2.0000      -0.640430       -17.4270
 152   2.0000      -0.636774       -17.3275
 153   2.0000      -0.629307       -17.1243
 154   2.0000      -0.627671       -17.0798
 155   2.0000      -0.623611       -16.9693
 156   2.0000      -0.615402       -16.7459
 157   2.0000      -0.611948       -16.6520
 158   2.0000      -0.605940       -16.4885
 159   2.0000      -0.605754       -16.4834
 160   2.0000      -0.603529       -16.4229
 161   2.0000      -0.599390       -16.3102
 162   2.0000      -0.587621       -15.9900
 163   2.0000      -0.579477       -15.7684
 164   2.0000      -0.571447       -15.5499
 165   2.0000      -0.568790       -15.4776
 166   2.0000      -0.564742       -15.3674
 167   2.0000      -0.559666       -15.2293
 168   2.0000      -0.554376       -15.0853
 169   2.0000      -0.550955       -14.9923
 170   2.0000      -0.549675       -14.9574
 171   2.0000      -0.543163       -14.7802
 172   2.0000      -0.541366       -14.7313
 173   2.0000      -0.538233       -14.6461
 174   2.0000      -0.537372       -14.6226
 175   2.0000      -0.533893       -14.5280
 176   2.0000      -0.533059       -14.5053
 177   2.0000      -0.529805       -14.4167
 178   2.0000      -0.525456       -14.2984
 179   2.0000      -0.522062       -14.2060
 180   2.0000      -0.520571       -14.1655
 181   2.0000      -0.518837       -14.1183
 182   2.0000      -0.517842       -14.0912
 183   2.0000      -0.512292       -13.9402
 184   2.0000      -0.511187       -13.9101
 185   2.0000      -0.508619       -13.8402
 186   2.0000      -0.507778       -13.8173
 187   2.0000      -0.505452       -13.7541
 188   2.0000      -0.504848       -13.7376
 189   2.0000      -0.500386       -13.6162
 190   2.0000      -0.500113       -13.6088
 191   2.0000      -0.497191       -13.5293
 192   2.0000      -0.493672       -13.4335
 193   2.0000      -0.493204       -13.4208
 194   2.0000      -0.492194       -13.3933
 195   2.0000      -0.490440       -13.3456
 196   2.0000      -0.487088       -13.2543
 197   2.0000      -0.484544       -13.1851
 198   2.0000      -0.479976       -13.0608
 199   2.0000      -0.478457       -13.0195
 200   2.0000      -0.476180       -12.9575
 201   2.0000      -0.472593       -12.8599
 202   2.0000      -0.470353       -12.7990
 203   2.0000      -0.460147       -12.5212
 204   2.0000      -0.459645       -12.5076
 205   2.0000      -0.458802       -12.4846
 206   2.0000      -0.457214       -12.4414
 207   2.0000      -0.454663       -12.3720
 208   2.0000      -0.453644       -12.3443
 209   2.0000      -0.452326       -12.3084
 210   2.0000      -0.449498       -12.2315
 211   2.0000      -0.447686       -12.1822
 212   2.0000      -0.444805       -12.1038
 213   2.0000      -0.442796       -12.0491
 214   2.0000      -0.442394       -12.0381
 215   2.0000      -0.440781       -11.9943
 216   2.0000      -0.439057       -11.9474
 217   2.0000      -0.437609       -11.9080
 218   2.0000      -0.435709       -11.8563
 219   2.0000      -0.434409       -11.8209
 220   2.0000      -0.430459       -11.7134
 221   2.0000      -0.428487       -11.6597
 222   2.0000      -0.428132       -11.6501
 223   2.0000      -0.426512       -11.6060
 224   2.0000      -0.423965       -11.5367
 225   2.0000      -0.423515       -11.5244
 226   2.0000      -0.421744       -11.4762
 227   2.0000      -0.419040       -11.4027
 228   2.0000      -0.417061       -11.3488
 229   2.0000      -0.413978       -11.2649
 230   2.0000      -0.411543       -11.1987
 231   2.0000      -0.406194       -11.0531
 232   2.0000      -0.403982       -10.9929
 233   2.0000      -0.400457       -10.8970
 234   2.0000      -0.394302       -10.7295
 235   2.0000      -0.387598       -10.5471
 236   2.0000      -0.384528       -10.4635
 237   2.0000      -0.375190       -10.2094
 238   2.0000      -0.373780       -10.1711
 239   2.0000      -0.367462        -9.9992
 240   2.0000      -0.362368        -9.8605
 241   2.0000      -0.354608        -9.6494
 242   2.0000      -0.350604        -9.5404
 243   2.0000      -0.346102        -9.4179
 244   2.0000      -0.343198        -9.3389
 245   2.0000      -0.331834        -9.0297
 246   2.0000      -0.329202        -8.9580
 247   2.0000      -0.320737        -8.7277
 248   2.0000      -0.316672        -8.6171
 249   2.0000      -0.311323        -8.4715
 250   2.0000      -0.308332        -8.3901
 251   2.0000      -0.301920        -8.2157
 252   2.0000      -0.294427        -8.0118
 253   2.0000      -0.287648        -7.8273
 254   2.0000      -0.282733        -7.6936
 255   2.0000      -0.250770        -6.8238
 256   0.0000      -0.135665        -3.6916
 257   0.0000      -0.096502        -2.6259
 258   0.0000      -0.084295        -2.2938
 259   0.0000      -0.062506        -1.7009
 260   0.0000      -0.054877        -1.4933

MULLIKEN ATOMIC CHARGES
-----------------------
   0 C :    0.244920
   1 C :   -0.316478
   2 C :   -0.171371
   3 N :    0.143157
   4 C :   -0.184663
   5 N :    0.165268
   6 C :    0.048220
   7 C :    0.005524
   8 C :   -0.079340
   9 C :    0.095147
  10 C :    0.096762
  11 C :   -0.086223
  12 C :   -0.018237
  13 C :    0.037784
  14 C :    0.037218
  15 C :   -0.014080
  16 C :    0.143227
  17 O :   -0.134869
  18 C :   -0.138144
  19 C :    0.084288
  20 C :   -0.105101
  21 C :    0.043485
  22 C :    0.036097
  23 S :    0.019943
  24 C :   -0.099028
  25 C :   -0.212793
  26 S :    0.187825
  27 C :    0.175149
  28 C :   -0.054100
  29 C :   -0.059922
  30 N :    0.016196
  31 C :   -0.104389
  32 C :   -0.121828
  33 N :    0.015814
  34 C :   -0.212697
  35 N :    0.236941
  36 C :   -0.206186
  37 N :    0.243194
  38 C :    0.196329
  39 C :   -0.013279
  40 C :   -0.013424
  41 N :   -0.312782
  42 S :    0.580422
  43 N :   -0.281649
  44 C :   -0.147216
  45 C :    0.013729
  46 C :   -0.021838
  47 S :   -0.031863
  48 C :   -0.067402
  49 C :   -0.051634
  50 S :    0.211477
  51 C :   -0.045839
  52 C :   -0.090797
  53 C :    0.316971
  54 C :   -0.349476
  55 C :   -0.182181
  56 N :    0.142069
  57 C :   -0.194209
  58 N :    0.150536
  59 C :    0.047670
  60 C :   -0.007077
  61 C :    0.165660
  62 O :   -0.167001
  63 C :   -0.080159
  64 C :    0.094179
  65 C :    0.095312
  66 C :   -0.083391
  67 C :   -0.019175
  68 C :    0.036473
  69 C :    0.033476
  70 C :   -0.014881
  71 H :   -0.009782
  72 H :   -0.009416
  73 H :   -0.011924
  74 H :   -0.002681
  75 H :   -0.002431
  76 H :   -0.016045
  77 H :    0.032246
  78 H :   -0.011566
  79 H :    0.061210
  80 H :    0.082091
  81 H :    0.063807
  82 H :   -0.006700
  83 H :    0.077479
  84 H :    0.055380
  85 H :    0.053298
  86 H :    0.026276
  87 H :   -0.002119
  88 H :   -0.009326
  89 H :   -0.010911
  90 H :   -0.007129
  91 H :   -0.004649
  92 H :   -0.012848
Sum of atomic charges:   -0.0000000

LOEWDIN ATOMIC CHARGES
----------------------
   0 C :    0.061888
   1 C :   -0.138715
   2 C :   -0.016478
   3 N :   -0.061173
   4 C :   -0.026847
   5 N :   -0.053130
   6 C :   -0.022741
   7 C :   -0.057708
   8 C :    0.034819
   9 C :   -0.008373
  10 C :   -0.004818
  11 C :    0.014760
  12 C :   -0.007016
  13 C :   -0.010990
  14 C :   -0.011437
  15 C :   -0.007757
  16 C :    0.083318
  17 O :   -0.137067
  18 C :   -0.083963
  19 C :    0.054470
  20 C :   -0.175581
  21 C :   -0.036563
  22 C :   -0.164853
  23 S :    0.351212
  24 C :   -0.165321
  25 C :   -0.170982
  26 S :    0.512410
  27 C :   -0.035616
  28 C :   -0.005918
  29 C :   -0.009181
  30 N :   -0.013264
  31 C :   -0.012068
  32 C :   -0.030592
  33 N :   -0.005732
  34 C :   -0.040233
  35 N :   -0.006616
  36 C :   -0.028797
  37 N :   -0.002202
  38 C :   -0.036158
  39 C :   -0.035148
  40 C :   -0.044772
  41 N :   -0.298035
  42 S :    0.700296
  43 N :   -0.271938
  44 C :   -0.164609
  45 C :   -0.050636
  46 C :   -0.170272
  47 S :    0.269726
  48 C :   -0.143109
  49 C :   -0.201864
  50 S :    0.553993
  51 C :    0.048849
  52 C :   -0.096823
  53 C :    0.077669
  54 C :   -0.143279
  55 C :   -0.017180
  56 N :   -0.057055
  57 C :   -0.018327
  58 N :   -0.053787
  59 C :   -0.025859
  60 C :   -0.055856
  61 C :    0.083193
  62 O :   -0.158398
  63 C :    0.035694
  64 C :   -0.008561
  65 C :   -0.006674
  66 C :    0.018170
  67 C :   -0.006749
  68 C :   -0.014329
  69 C :   -0.013688
  70 C :   -0.007496
  71 H :    0.040303
  72 H :    0.037640
  73 H :    0.033835
  74 H :    0.034004
  75 H :    0.033858
  76 H :    0.032617
  77 H :    0.052934
  78 H :    0.035335
  79 H :    0.032672
  80 H :    0.033805
  81 H :    0.021821
  82 H :    0.029898
  83 H :    0.035274
  84 H :    0.021589
  85 H :    0.020559
  86 H :    0.040967
  87 H :    0.043596
  88 H :    0.038446
  89 H :    0.033967
  90 H :    0.032314
  91 H :    0.032596
  92 H :    0.033840

  Mayer bond orders larger than 0.100000
B(  0-C ,  1-C ) :   1.6658 B(  0-C ,  6-C ) :   1.0154 B(  0-C , 18-C ) :   1.0172
B(  1-C ,  2-C ) :   1.1455 B(  1-C ,  4-C ) :   1.1443 B(  2-C ,  3-N ) :   2.9710
B(  4-C ,  5-N ) :   3.0042 B(  6-C ,  7-C ) :   1.2118 B(  6-C , 11-C ) :   1.4529
B(  7-C ,  8-C ) :   1.4745 B(  7-C , 16-C ) :   0.9199 B(  8-C ,  9-C ) :   1.1869
B(  8-C , 71-H ) :   1.0154 B(  9-C , 10-C ) :   1.2566 B(  9-C , 15-C ) :   1.2452
B( 10-C , 11-C ) :   1.2054 B( 10-C , 12-C ) :   1.2397 B( 11-C , 72-H ) :   0.9939
B( 12-C , 13-C ) :   1.4923 B( 12-C , 73-H ) :   0.9970 B( 13-C , 14-C ) :   1.2598
B( 13-C , 74-H ) :   0.9884 B( 14-C , 15-C ) :   1.4912 B( 14-C , 75-H ) :   0.9878
B( 15-C , 76-H ) :   0.9973 B( 16-C , 17-O ) :   2.2862 B( 16-C , 18-C ) :   0.9273
B( 18-C , 19-C ) :   1.7006 B( 19-C , 20-C ) :   1.0742 B( 19-C , 77-H ) :   0.9526
B( 20-C , 21-C ) :   1.4505 B( 20-C , 26-S ) :   1.1182 B( 21-C , 22-C ) :   1.2697
B( 21-C , 78-H ) :   0.9989 B( 22-C , 23-S ) :   1.0441 B( 22-C , 25-C ) :   1.4516
B( 23-S , 24-C ) :   0.9728 B( 24-C , 79-H ) :   0.9705 B( 24-C , 80-H ) :   0.9657
B( 24-C , 81-H ) :   0.9669 B( 25-C , 26-S ) :   1.1392 B( 25-C , 27-C ) :   1.1637
B( 27-C , 28-C ) :   1.2696 B( 27-C , 38-C ) :   0.1195 B( 27-C , 40-C ) :   1.2049
B( 28-C , 29-C ) :   1.1081 B( 28-C , 33-N ) :   1.4124 B( 29-C , 30-N ) :   1.3985
B( 29-C , 38-C ) :   1.2610 B( 30-N , 31-C ) :   1.7163 B( 31-C , 32-C ) :   1.2058
B( 31-C , 36-C ) :   1.1618 B( 32-C , 33-N ) :   1.6636 B( 32-C , 34-C ) :   1.1614
B( 34-C , 35-N ) :   3.0383 B( 36-C , 37-N ) :   3.0216 B( 38-C , 39-C ) :   1.1943
B( 38-C , 44-C ) :   1.2030 B( 39-C , 40-C ) :   1.1141 B( 39-C , 43-N ) :   1.5157
B( 40-C , 41-N ) :   1.4798 B( 41-N , 42-S ) :   1.2771 B( 41-N , 43-N ) :   0.1479
B( 42-S , 43-N ) :   1.2880 B( 44-C , 45-C ) :   1.3710 B( 44-C , 50-S ) :   1.1094
B( 45-C , 46-C ) :   1.3445 B( 45-C , 82-H ) :   0.9942 B( 46-C , 47-S ) :   1.0271
B( 46-C , 49-C ) :   1.3495 B( 47-S , 48-C ) :   0.9867 B( 48-C , 83-H ) :   0.9683
B( 48-C , 84-H ) :   0.9724 B( 48-C , 85-H ) :   0.9728 B( 49-C , 50-S ) :   1.0815
B( 49-C , 51-C ) :   1.2478 B( 51-C , 52-C ) :   1.5303 B( 51-C , 86-H ) :   0.9320
B( 52-C , 53-C ) :   1.0735 B( 52-C , 61-C ) :   0.9613 B( 53-C , 54-C ) :   1.6232
B( 53-C , 59-C ) :   0.9872 B( 54-C , 55-C ) :   1.1447 B( 54-C , 57-C ) :   1.1482
B( 55-C , 56-N ) :   2.9660 B( 57-C , 58-N ) :   2.9736 B( 59-C , 60-C ) :   1.2131
B( 59-C , 66-C ) :   1.4538 B( 60-C , 61-C ) :   0.9560 B( 60-C , 63-C ) :   1.4730
B( 61-C , 62-O ) :   2.1387 B( 63-C , 64-C ) :   1.1719 B( 63-C , 87-H ) :   1.0179
B( 64-C , 65-C ) :   1.2575 B( 64-C , 70-C ) :   1.2462 B( 65-C , 66-C ) :   1.2024
B( 65-C , 67-C ) :   1.2416 B( 66-C , 88-H ) :   0.9915 B( 67-C , 68-C ) :   1.4865
B( 67-C , 89-H ) :   0.9979 B( 68-C , 69-C ) :   1.2605 B( 68-C , 90-H ) :   0.9892
B( 69-C , 70-C ) :   1.4854 B( 69-C , 91-H ) :   0.9891 B( 70-C , 92-H ) :   0.9989

-----------------------------------------------------------------------------
         ABSORPTION SPECTRUM VIA TRANSITION ELECTRIC DIPOLE MOMENTS
-----------------------------------------------------------------------------
State   Energy  Wavelength   fosc         T2         TX        TY        TZ
        (cm-1)    (nm)                  (au**2)     (au)      (au)      (au)
-----------------------------------------------------------------------------
   0    9294.9   1075.9   0.563050308  19.94233   0.94171  -4.36500  -0.04792
   1   16274.9    614.4   0.031121344   0.62953   0.33204   0.64618   0.31896
   2   18184.7    549.9   0.137147963   2.48290   0.32697  -1.02089  -1.15489
   3   18248.0    548.0   0.063860947   1.15211   0.04856   1.04866   0.22377
   4   19859.1    503.5   0.013159158   0.21814  -0.00642  -0.45407   0.10918
   5   20720.2    482.6   0.361210638   5.73909  -0.17927   2.26599   0.75646
   6   20906.7    478.3   0.147256241   2.31880  -0.32025   1.42235  -0.43950
   7   22004.9    454.4   0.004960390   0.07421  -0.15863  -0.20402   0.08615
   8   22681.3    440.9   0.003544248   0.05144   0.11520   0.01375   0.19490
   9   24203.1    413.2   0.013813805   0.18790  -0.13936  -0.04388  -0.40810
  10   24663.2    405.5   0.010734841   0.14329  -0.28943   0.11312   0.21616
  11   25082.2    398.7   0.153161882   2.01030   0.04466  -1.37102  -0.35862
  12   25345.0    394.6   0.005561327   0.07224   0.11257   0.07101   0.23350
  13   25502.6    392.1   0.014343993   0.18517  -0.10092  -0.21297  -0.36004
  14   25818.8    387.3   0.060782277   0.77502   0.06558  -0.14059   0.86658
  15   26042.8    384.0   0.009481290   0.11985   0.04769  -0.01853   0.34240
  16   26524.3    377.0   0.028145200   0.34933   0.23737  -0.46351   0.27954
  17   27333.9    365.8   0.001127096   0.01357   0.08440   0.04192   0.06852
  18   27661.9    361.5   0.024893891   0.29627   0.26267   0.01344   0.47654
  19   27972.4    357.5   0.104893163   1.23451  -0.25060  -1.02269  -0.35469
  20   28091.4    356.0   0.170486446   1.99798   0.08518  -1.02238  -0.97235
  21   28613.1    349.5   0.161886507   1.86261   0.13681   0.50196   1.26171
  22   28676.8    348.7   0.031662325   0.36349   0.20743  -0.52611  -0.20897
  23   29194.8    342.5   0.149849352   1.68976   0.54192   0.78131   0.88637
  24   29417.5    339.9   0.012271940   0.13734  -0.30817  -0.20367  -0.02972
  25   30101.2    332.2   0.045252613   0.49492   0.09827   0.28962   0.63355
  26   30341.0    329.6   0.326061942   3.53790   0.00153  -0.87751  -1.66369
  27   30662.8    326.1   0.041205282   0.44240  -0.05980   0.30020  -0.59051
  28   31077.6    321.8   0.007565621   0.08014  -0.10626  -0.26221   0.01008
  29   31242.0    320.1   0.078979697   0.83225  -0.08606   0.67273   0.61015
  30   31804.5    314.4   0.349911017   3.62197  -0.23791   1.00120   1.60093
  31   32171.5    310.8   0.061572326   0.63007  -0.26100  -0.04890   0.74804
  32   32402.4    308.6   0.010881583   0.11056  -0.05437  -0.15047   0.29148
  33   32596.0    306.8   0.004011206   0.04051   0.15922  -0.03348  -0.11850
  34   32981.6    303.2   0.058289293   0.58183   0.31230   0.23565  -0.65480
  35   33474.9    298.7   0.013787390   0.13559  -0.34847   0.03692  -0.11313
  36   33606.2    297.6   0.322594588   3.16019   0.30471   1.07809   1.38024
  37   33825.5    295.6   0.186022327   1.81049  -0.39403  -0.64233  -1.11474
  38   33974.1    294.3   0.147988354   1.43402  -0.28495   0.89898  -0.73800
  39   34170.1    292.7   0.090149408   0.86855   0.20019   0.44197   0.79570
  40   34426.9    290.5   0.194334387   1.85835  -0.38933  -1.02810  -0.80609
  41   34944.2    286.2   0.071936528   0.67772  -0.12211  -0.17722  -0.79461
  42   35041.3    285.4   0.567350169   5.33023   0.71169   0.11430   2.19332
  43   35179.9    284.3   0.153369449   1.43523  -0.46227  -0.75627  -0.80597
  44   35404.9    282.4   0.019167573   0.17823  -0.16871   0.24527  -0.29935
  45   35589.4    281.0   0.271735344   2.51363   0.32813   0.14990   1.54385
  46   35620.4    280.7   0.006552235   0.06056   0.00733   0.24236  -0.04201
  47   35862.1    278.8   0.157451960   1.44540  -0.62082  -1.02936   0.02036
  48   36215.0    276.1   0.301906823   2.74448  -0.28855  -0.51724  -1.54715
  49   36461.8    274.3   0.010111441   0.09130   0.21666  -0.01434  -0.21011
  50   36979.2    270.4   0.043745419   0.38945   0.10226  -0.44221   0.42830
  51   37119.2    269.4   0.124231499   1.10182  -0.01087   0.74075   0.74363
  52   37395.2    267.4   0.050615418   0.44560   0.09698  -0.38568   0.53614
  53   37616.2    265.8   0.066045837   0.57802   0.07687   0.72627   0.21130
  54   37913.9    263.8   0.025583737   0.22215  -0.06996   0.42684  -0.18724
  55   38079.1    262.6   0.097077507   0.83928   0.06830   0.54756   0.73129
  56   38374.2    260.6   0.058921800   0.50549   0.30592   0.17949   0.61619
  57   38482.0    259.9   0.004071304   0.03483  -0.11377  -0.01451   0.14723
  58   38624.9    258.9   0.003558263   0.03033   0.02360  -0.02121  -0.17124
  59   38850.4    257.4   0.058472003   0.49548  -0.06122   0.69966  -0.04699
  60   38955.0    256.7   0.020528082   0.17348  -0.01212  -0.41495   0.03396
  61   39176.1    255.3   0.072501136   0.60926  -0.16908   0.73374   0.20565
  62   39462.9    253.4   0.059420800   0.49571  -0.09034  -0.69210   0.09239
  63   39542.1    252.9   0.015592042   0.12981   0.01943   0.24324  -0.26509
  64   39650.8    252.2   0.038604970   0.32053   0.12739   0.27607  -0.47758
  65   39774.9    251.4   0.110891749   0.91784  -0.09408   0.82227  -0.48256
  66   39943.0    250.4   0.088371188   0.72836  -0.09004   0.15825   0.83379
  67   40080.7    249.5   0.006191968   0.05086   0.00754   0.00448  -0.22535

FINAL SINGLE POINT ENERGY     -4755.657911349157

DIPOLE MOMENT
-------------
                                X             Y             Z
Electronic contribution:      0.93494      -2.71913       2.49377
Nuclear contribution   :     -1.28481      -0.83074      -3.51179
                        -----------------------------------------
Total Dipole Moment    :     -0.34987      -3.54987      -1.01803
                        -----------------------------------------
Magnitude (a.u.)       :      3.70950
Magnitude (Debye)      :      9.42880

Rotational constants in cm-1:     0.001938     0.000369     0.000317
Rotational constants in MHz :    58.113447    11.048393     9.502683

                             ****ORCA TERMINATED NORMALLY****
TOTAL RUN TIME: 0 days 0 hours 10 minutes 43 seconds 10 msec
