                         Program Version 4.2.0 -  RELEASE  -
|  1> # ORCA input file
|  2> # SCF done       -203.729886709535          0.000957716491
|  3> ! CAM-B3LYP def2-SVP def2/J RIJCOSX Grid4 TightSCF
|  4> %maxcore 5000
|  5> %tddft
|  6>     Mode sTDDFT
|  7>     Ethresh 5.0
|  8>     maxcore 5000
|  9> end
| 10>
| 11> %pal
| 12>   nprocs 6
| 13>   end
| 14> * xyz 0 1
| 15>    C       -7.39333        -1.02514         2.45383
| 16>    C       -8.31865        -1.72942         3.18011
| 17>    C       -7.99524        -2.68686         4.16271
| 18>    N       -7.79068        -3.47553         4.97126
| 19>    C       -9.71246        -1.58345         3.02887
| 20>    N      -10.85304        -1.49384         2.93348
| 21>    C       -5.94154        -1.14391         2.57118
| 22>    C       -5.32964        -0.25875         1.64547
| 23>    C       -3.96647        -0.14233         1.51786
| 24>    C       -3.16562        -0.93723         2.34435
| 25>    C       -3.78311        -1.81626         3.26605
| 26>    C       -5.16289        -1.93381         3.39412
| 27>    S       -2.60862        -2.70222         4.18817
| 28>    C       -1.32097        -1.89210         3.33557
| 29>    C       -1.74706        -1.00285         2.40703
| 30>   Br        0.46180        -2.29753         3.75088
| 31>    C       -6.37808         0.45551         0.91100
| 32>    O       -6.23239         1.30109         0.03231
| 33>    C       -7.65643        -0.03624         1.43468
| 34>    C       -8.85394         0.44606         0.96188
| 35>    N       -8.85583         1.38014         0.00431
| 36>    C       -9.92139         1.98582        -0.56945
| 37>    S      -11.55343         1.60240        -0.12042
| 38>    C      -12.11571         2.78771        -1.25484
| 39>    N      -13.49879         2.97627        -1.38383
| 40>    O      -13.87872         3.81510        -2.18000
| 41>    O      -14.21700         2.28549        -0.68470
| 42>    C      -11.11235         3.43034        -1.92727
| 43>    C       -9.82866         2.98449        -1.55304
| 44>    C       -8.58447         3.45861        -2.08021
| 45>    C       -8.44306         4.51850        -2.90881
| 46>    C       -7.19428         4.95702        -3.41753
| 47>    C       -6.96605         6.13706        -4.13693
| 48>    C       -5.58775         6.28896        -4.42490
| 49>    C       -4.80018         5.23762        -3.91155
| 50>    S       -5.72578         4.07352        -3.04847
| 51>    C       -3.49339         5.44770        -4.35349
| 52>    C       -3.52024         6.59018        -5.12764
| 53>    N       -4.78168         7.10854        -5.18079
| 54>    C       -5.18550         8.18855        -6.05122
| 55>    C       -4.49237         9.50808        -5.72058
| 56>    C       -2.22228         7.01845        -5.71645
| 57>    C       -1.30562         5.79324        -5.59791
| 58>    S       -1.91937         4.69670        -4.24325
| 59>    C       -8.03532         7.04953        -4.44992
| 60>    C       -8.02401         8.37682        -4.15654
| 61>    C       -9.02780         9.33987        -4.46100
| 62>    C       -8.77207        10.58167        -3.97581
| 63>    C       -7.55942        10.67988        -3.24886
| 64>    S       -6.74901         9.13330        -3.19974
| 65>    C       -7.03806        11.79041        -2.61550
| 66>    C       -7.58476        13.09043        -2.54117
| 67>    C       -6.83952        13.95660        -1.79834
| 68>    C       -5.66721        13.38844        -1.24805
| 69>    S       -5.53491        11.71151        -1.71804
| 70>    C       -4.76704        14.01129        -0.40753
| 71>    C       -3.63519        13.38502         0.10476
| 72>    C       -2.75521        13.85654         1.05422
| 73>    C       -1.40649        13.25428         1.15154
| 74>    O       -1.01413        12.25424         0.58724
| 75>    C       -0.63766        14.15199         2.03645
| 76>    C        0.67649        14.08701         2.39588
| 77>    C        1.20717        15.07765         3.25333
| 78>    C        0.35918        16.12529         3.71470
| 79>    C        0.89290        17.11055         4.56747
| 80>    C        2.20741        17.03846         4.93648
| 81>    C        3.05707        16.01602         4.49468
| 82>    C        2.55530        15.05281         3.66373
| 83>    F        2.71869        17.97823         5.75451
| 84>    C       -1.00160        16.16482         3.32688
| 85>    C       -1.49507        15.18787         2.50670
| 86>    C       -2.84365        14.94130         1.99142
| 87>    C       -3.98986        15.51326         2.49574
| 88>    C       -5.29513        15.05536         2.23251
| 89>    N       -6.38005        14.70163         2.09974
| 90>    C       -3.99692        16.56266         3.43466
| 91>    N       -4.06879        17.43612         4.17747
| 92>    H       -3.53205         0.54004         0.80423
| 93>    H       -5.58410        -2.61770         4.11183
| 94>    H       -1.09012        -0.41646         1.79098
| 95>    H       -9.81167         0.10553         1.33373
| 96>    H       -7.90104         1.65904        -0.29685
| 97>    H      -11.31556         4.18374        -2.66531
| 98>    H       -7.68701         2.93413        -1.78150
| 99>    H       -9.30698         5.09593        -3.20452
|100>    H       -6.26656         8.29839        -5.96328
|101>    H       -4.95820         7.90700        -7.08706
|102>    H       -4.57555         9.72818        -4.66008
|103>    H       -4.96103        10.31203        -6.28174
|104>    H       -3.43994         9.47474        -5.98453
|105>    H       -1.81046         7.85744        -5.14593
|106>    H       -2.31259         7.32361        -6.76092
|107>    H       -0.27659         6.05676        -5.36763
|108>    H       -1.32669         5.19582        -6.50978
|109>    H       -8.93850         6.63598        -4.87968
|110>    H       -9.89945         9.07314        -5.03202
|111>    H       -9.41988        11.42886        -4.11027
|112>    H       -8.50730        13.35020        -3.02825
|113>    H       -7.10064        14.98308        -1.61344
|114>    H       -4.97274        15.04171        -0.15685
|115>    H       -3.35386        12.43240        -0.33637
|116>    H        1.30514        13.28732         2.03360
|117>    H        0.26677        17.91074         4.93023
|118>    H        4.08553        16.01034         4.81937
|119>    H        3.19018        14.25421         3.31017
|120>    H       -1.61666        16.97316         3.68894
|121> *
|122>
|123>                          ****END OF INPUT****

CARTESIAN COORDINATES (ANGSTROEM)
---------------------------------
  C     -7.393330   -1.025140    2.453830
  C     -8.318650   -1.729420    3.180110
  C     -7.995240   -2.686860    4.162710
  N     -7.790680   -3.475530    4.971260
  C     -9.712460   -1.583450    3.028870
  N    -10.853040   -1.493840    2.933480
  C     -5.941540   -1.143910    2.571180
  C     -5.329640   -0.258750    1.645470
  C     -3.966470   -0.142330    1.517860
  C     -3.165620   -0.937230    2.344350
  C     -3.783110   -1.816260    3.266050
  C     -5.162890   -1.933810    3.394120
  S     -2.608620   -2.702220    4.188170
  C     -1.320970   -1.892100    3.335570
  C     -1.747060   -1.002850    2.407030
  Br     0.461800   -2.297530    3.750880
  C     -6.378080    0.455510    0.911000
  O     -6.232390    1.301090    0.032310
  C     -7.656430   -0.036240    1.434680
  C     -8.853940    0.446060    0.961880
  N     -8.855830    1.380140    0.004310
  C     -9.921390    1.985820   -0.569450
  S    -11.553430    1.602400   -0.120420
  C    -12.115710    2.787710   -1.254840
  N    -13.498790    2.976270   -1.383830
  O    -13.878720    3.815100   -2.180000
  O    -14.217000    2.285490   -0.684700
  C    -11.112350    3.430340   -1.927270
  C     -9.828660    2.984490   -1.553040
  C     -8.584470    3.458610   -2.080210
  C     -8.443060    4.518500   -2.908810
  C     -7.194280    4.957020   -3.417530
  C     -6.966050    6.137060   -4.136930
  C     -5.587750    6.288960   -4.424900
  C     -4.800180    5.237620   -3.911550
  S     -5.725780    4.073520   -3.048470
  C     -3.493390    5.447700   -4.353490
  C     -3.520240    6.590180   -5.127640
  N     -4.781680    7.108540   -5.180790
  C     -5.185500    8.188550   -6.051220
  C     -4.492370    9.508080   -5.720580
  C     -2.222280    7.018450   -5.716450
  C     -1.305620    5.793240   -5.597910
  S     -1.919370    4.696700   -4.243250
  C     -8.035320    7.049530   -4.449920
  C     -8.024010    8.376820   -4.156540
  C     -9.027800    9.339870   -4.461000
  C     -8.772070   10.581670   -3.975810
  C     -7.559420   10.679880   -3.248860
  S     -6.749010    9.133300   -3.199740
  C     -7.038060   11.790410   -2.615500
  C     -7.584760   13.090430   -2.541170
  C     -6.839520   13.956600   -1.798340
  C     -5.667210   13.388440   -1.248050
  S     -5.534910   11.711510   -1.718040
  C     -4.767040   14.011290   -0.407530
  C     -3.635190   13.385020    0.104760
  C     -2.755210   13.856540    1.054220
  C     -1.406490   13.254280    1.151540
  O     -1.014130   12.254240    0.587240
  C     -0.637660   14.151990    2.036450
  C      0.676490   14.087010    2.395880
  C      1.207170   15.077650    3.253330
  C      0.359180   16.125290    3.714700
  C      0.892900   17.110550    4.567470
  C      2.207410   17.038460    4.936480
  C      3.057070   16.016020    4.494680
  C      2.555300   15.052810    3.663730
  F      2.718690   17.978230    5.754510
  C     -1.001600   16.164820    3.326880
  C     -1.495070   15.187870    2.506700
  C     -2.843650   14.941300    1.991420
  C     -3.989860   15.513260    2.495740
  C     -5.295130   15.055360    2.232510
  N     -6.380050   14.701630    2.099740
  C     -3.996920   16.562660    3.434660
  N     -4.068790   17.436120    4.177470
  H     -3.532050    0.540040    0.804230
  H     -5.584100   -2.617700    4.111830
  H     -1.090120   -0.416460    1.790980
  H     -9.811670    0.105530    1.333730
  H     -7.901040    1.659040   -0.296850
  H    -11.315560    4.183740   -2.665310
  H     -7.687010    2.934130   -1.781500
  H     -9.306980    5.095930   -3.204520
  H     -6.266560    8.298390   -5.963280
  H     -4.958200    7.907000   -7.087060
  H     -4.575550    9.728180   -4.660080
  H     -4.961030   10.312030   -6.281740
  H     -3.439940    9.474740   -5.984530
  H     -1.810460    7.857440   -5.145930
  H     -2.312590    7.323610   -6.760920
  H     -0.276590    6.056760   -5.367630
  H     -1.326690    5.195820   -6.509780
  H     -8.938500    6.635980   -4.879680
  H     -9.899450    9.073140   -5.032020
  H     -9.419880   11.428860   -4.110270
  H     -8.507300   13.350200   -3.028250
  H     -7.100640   14.983080   -1.613440
  H     -4.972740   15.041710   -0.156850
  H     -3.353860   12.432400   -0.336370
  H      1.305140   13.287320    2.033600
  H      0.266770   17.910740    4.930230
  H      4.085530   16.010340    4.819370
  H      3.190180   14.254210    3.310170
  H     -1.616660   16.973160    3.688940

 Total Charge           Charge          ....    0
 Multiplicity           Mult            ....    1
 Number of Electrons    NEL             ....  598
 Basis Dimension        Dim             .... 1265

ORBITAL ENERGIES
----------------

  NO   OCC          E(Eh)            E(eV)
   0   2.0000    -482.888723    -13140.0702
   1   2.0000     -88.991816     -2421.5904
   2   2.0000     -88.980301     -2421.2771
   3   2.0000     -88.969739     -2420.9897
   4   2.0000     -88.966518     -2420.9020
   5   2.0000     -88.957908     -2420.6677
   6   2.0000     -88.922069     -2419.6925
   7   2.0000     -62.566423     -1702.5189
   8   2.0000     -56.400379     -1534.7323
   9   2.0000     -56.397651     -1534.6581
  10   2.0000     -56.397623     -1534.6573
  11   2.0000     -24.778873      -674.2674
  12   2.0000     -19.242068      -523.6033
  13   2.0000     -19.240652      -523.5648
  14   2.0000     -19.235966      -523.4372
  15   2.0000     -19.200700      -522.4776
  16   2.0000     -14.653135      -398.7321
  17   2.0000     -14.497156      -394.4877
  18   2.0000     -14.471890      -393.8001
  19   2.0000     -14.421334      -392.4244
  20   2.0000     -14.416890      -392.3035
  21   2.0000     -14.404412      -391.9640
  22   2.0000     -14.403062      -391.9272
  23   2.0000     -10.382233      -282.5149
  24   2.0000     -10.372661      -282.2545
  25   2.0000     -10.371935      -282.2347
  26   2.0000     -10.362801      -281.9862
  27   2.0000     -10.361808      -281.9591
  28   2.0000     -10.351893      -281.6893
  29   2.0000     -10.350101      -281.6406
  30   2.0000     -10.348630      -281.6005
  31   2.0000     -10.344313      -281.4831
  32   2.0000     -10.341643      -281.4104
  33   2.0000     -10.334336      -281.2116
  34   2.0000     -10.332140      -281.1518
  35   2.0000     -10.330484      -281.1068
  36   2.0000     -10.329859      -281.0898
  37   2.0000     -10.329649      -281.0840
  38   2.0000     -10.329233      -281.0727
  39   2.0000     -10.323725      -280.9228
  40   2.0000     -10.323615      -280.9198
  41   2.0000     -10.320092      -280.8240
  42   2.0000     -10.314117      -280.6614
  43   2.0000     -10.314111      -280.6612
  44   2.0000     -10.313759      -280.6517
  45   2.0000     -10.312939      -280.6293
  46   2.0000     -10.312194      -280.6091
  47   2.0000     -10.311958      -280.6026
  48   2.0000     -10.311619      -280.5934
  49   2.0000     -10.310742      -280.5696
  50   2.0000     -10.310116      -280.5525
  51   2.0000     -10.309653      -280.5399
  52   2.0000     -10.309543      -280.5369
  53   2.0000     -10.308142      -280.4988
  54   2.0000     -10.307879      -280.4917
  55   2.0000     -10.306467      -280.4532
  56   2.0000     -10.305430      -280.4250
  57   2.0000     -10.304749      -280.4065
  58   2.0000     -10.304181      -280.3910
  59   2.0000     -10.303163      -280.3633
  60   2.0000     -10.301372      -280.3146
  61   2.0000     -10.300698      -280.2962
  62   2.0000     -10.300285      -280.2850
  63   2.0000     -10.299466      -280.2627
  64   2.0000     -10.297608      -280.2121
  65   2.0000     -10.297225      -280.2018
  66   2.0000     -10.296910      -280.1932
  67   2.0000     -10.295708      -280.1605
  68   2.0000     -10.293906      -280.1114
  69   2.0000     -10.293319      -280.0954
  70   2.0000     -10.292353      -280.0692
  71   2.0000     -10.290300      -280.0133
  72   2.0000     -10.290061      -280.0068
  73   2.0000     -10.287920      -279.9485
  74   2.0000     -10.287843      -279.9464
  75   2.0000     -10.287143      -279.9274
  76   2.0000     -10.284696      -279.8608
  77   2.0000     -10.282032      -279.7883
  78   2.0000     -10.281421      -279.7717
  79   2.0000     -10.279342      -279.7151
  80   2.0000     -10.272684      -279.5339
  81   2.0000      -8.795853      -239.3473
  82   2.0000      -8.086980      -220.0579
  83   2.0000      -8.076163      -219.7636
  84   2.0000      -8.065267      -219.4671
  85   2.0000      -8.062789      -219.3996
  86   2.0000      -8.052667      -219.1242
  87   2.0000      -8.017725      -218.1734
  88   2.0000      -6.632165      -180.4704
  89   2.0000      -6.617587      -180.0737
  90   2.0000      -6.617365      -180.0677
  91   2.0000      -6.056586      -164.8081
  92   2.0000      -6.052311      -164.6917
  93   2.0000      -6.048466      -164.5871
  94   2.0000      -6.045806      -164.5147
  95   2.0000      -6.041579      -164.3997
  96   2.0000      -6.037454      -164.2875
  97   2.0000      -6.035087      -164.2231
  98   2.0000      -6.032402      -164.1500
  99   2.0000      -6.030957      -164.1107
 100   2.0000      -6.028406      -164.0413
 101   2.0000      -6.026112      -163.9788
 102   2.0000      -6.023850      -163.9173
 103   2.0000      -6.022285      -163.8747
 104   2.0000      -6.018266      -163.7653
 105   2.0000      -6.014120      -163.6525
 106   2.0000      -5.988476      -162.9547
 107   2.0000      -5.984404      -162.8439
 108   2.0000      -5.976735      -162.6352
 109   2.0000      -2.748075       -74.7789
 110   2.0000      -2.743903       -74.6654
 111   2.0000      -2.743795       -74.6625
 112   2.0000      -2.732182       -74.3464
 113   2.0000      -2.732176       -74.3463
 114   2.0000      -1.322903       -35.9980
 115   2.0000      -1.293331       -35.1933
 116   2.0000      -1.151265       -31.3275
 117   2.0000      -1.141998       -31.0753
 118   2.0000      -1.114794       -30.3351
 119   2.0000      -1.105315       -30.0772
 120   2.0000      -1.096135       -29.8274
 121   2.0000      -1.028141       -27.9771
 122   2.0000      -1.019258       -27.7354
 123   2.0000      -1.017823       -27.6964
 124   2.0000      -1.012433       -27.5497
 125   2.0000      -1.007353       -27.4115
 126   2.0000      -0.998537       -27.1716
 127   2.0000      -0.997187       -27.1348
 128   2.0000      -0.994472       -27.0610
 129   2.0000      -0.990454       -26.9516
 130   2.0000      -0.983428       -26.7604
 131   2.0000      -0.982484       -26.7347
 132   2.0000      -0.966430       -26.2979
 133   2.0000      -0.950836       -25.8736
 134   2.0000      -0.946883       -25.7660
 135   2.0000      -0.926982       -25.2245
 136   2.0000      -0.925053       -25.1720
 137   2.0000      -0.915600       -24.9147
 138   2.0000      -0.913769       -24.8649
 139   2.0000      -0.908151       -24.7120
 140   2.0000      -0.902766       -24.5655
 141   2.0000      -0.892215       -24.2784
 142   2.0000      -0.891005       -24.2455
 143   2.0000      -0.884439       -24.0668
 144   2.0000      -0.882033       -24.0013
 145   2.0000      -0.876431       -23.8489
 146   2.0000      -0.872052       -23.7297
 147   2.0000      -0.859746       -23.3949
 148   2.0000      -0.854593       -23.2547
 149   2.0000      -0.853558       -23.2265
 150   2.0000      -0.846112       -23.0239
 151   2.0000      -0.836767       -22.7696
 152   2.0000      -0.834679       -22.7128
 153   2.0000      -0.829961       -22.5844
 154   2.0000      -0.825039       -22.4504
 155   2.0000      -0.811499       -22.0820
 156   2.0000      -0.802630       -21.8407
 157   2.0000      -0.800397       -21.7799
 158   2.0000      -0.789157       -21.4741
 159   2.0000      -0.775454       -21.1012
 160   2.0000      -0.767595       -20.8873
 161   2.0000      -0.757841       -20.6219
 162   2.0000      -0.751719       -20.4553
 163   2.0000      -0.741005       -20.1638
 164   2.0000      -0.734992       -20.0002
 165   2.0000      -0.730265       -19.8715
 166   2.0000      -0.720833       -19.6149
 167   2.0000      -0.715484       -19.4693
 168   2.0000      -0.705877       -19.2079
 169   2.0000      -0.703435       -19.1414
 170   2.0000      -0.700348       -19.0574
 171   2.0000      -0.695434       -18.9237
 172   2.0000      -0.688212       -18.7272
 173   2.0000      -0.679041       -18.4776
 174   2.0000      -0.675428       -18.3793
 175   2.0000      -0.670168       -18.2362
 176   2.0000      -0.665044       -18.0968
 177   2.0000      -0.662683       -18.0325
 178   2.0000      -0.661319       -17.9954
 179   2.0000      -0.650148       -17.6914
 180   2.0000      -0.645647       -17.5690
 181   2.0000      -0.638540       -17.3756
 182   2.0000      -0.636743       -17.3267
 183   2.0000      -0.634478       -17.2650
 184   2.0000      -0.633027       -17.2255
 185   2.0000      -0.631694       -17.1893
 186   2.0000      -0.624921       -17.0050
 187   2.0000      -0.624421       -16.9914
 188   2.0000      -0.621667       -16.9164
 189   2.0000      -0.620872       -16.8948
 190   2.0000      -0.612669       -16.6716
 191   2.0000      -0.610884       -16.6230
 192   2.0000      -0.607797       -16.5390
 193   2.0000      -0.598590       -16.2885
 194   2.0000      -0.592216       -16.1150
 195   2.0000      -0.587004       -15.9732
 196   2.0000      -0.583408       -15.8753
 197   2.0000      -0.579424       -15.7669
 198   2.0000      -0.574563       -15.6347
 199   2.0000      -0.572887       -15.5890
 200   2.0000      -0.565658       -15.3923
 201   2.0000      -0.562606       -15.3093
 202   2.0000      -0.561346       -15.2750
 203   2.0000      -0.559355       -15.2208
 204   2.0000      -0.553028       -15.0487
 205   2.0000      -0.551751       -15.0139
 206   2.0000      -0.551091       -14.9960
 207   2.0000      -0.550532       -14.9807
 208   2.0000      -0.544204       -14.8086
 209   2.0000      -0.543091       -14.7783
 210   2.0000      -0.541733       -14.7413
 211   2.0000      -0.538334       -14.6488
 212   2.0000      -0.537440       -14.6245
 213   2.0000      -0.532456       -14.4889
 214   2.0000      -0.529267       -14.4021
 215   2.0000      -0.528400       -14.3785
 216   2.0000      -0.525986       -14.3128
 217   2.0000      -0.523725       -14.2513
 218   2.0000      -0.523115       -14.2347
 219   2.0000      -0.520610       -14.1665
 220   2.0000      -0.515383       -14.0243
 221   2.0000      -0.514151       -13.9908
 222   2.0000      -0.513204       -13.9650
 223   2.0000      -0.513109       -13.9624
 224   2.0000      -0.508870       -13.8470
 225   2.0000      -0.504019       -13.7150
 226   2.0000      -0.502192       -13.6653
 227   2.0000      -0.501934       -13.6583
 228   2.0000      -0.496695       -13.5158
 229   2.0000      -0.492115       -13.3911
 230   2.0000      -0.489916       -13.3313
 231   2.0000      -0.488208       -13.2848
 232   2.0000      -0.487373       -13.2621
 233   2.0000      -0.485984       -13.2243
 234   2.0000      -0.482445       -13.1280
 235   2.0000      -0.481361       -13.0985
 236   2.0000      -0.480517       -13.0755
 237   2.0000      -0.479036       -13.0352
 238   2.0000      -0.474598       -12.9145
 239   2.0000      -0.471371       -12.8267
 240   2.0000      -0.470782       -12.8106
 241   2.0000      -0.467191       -12.7129
 242   2.0000      -0.463900       -12.6234
 243   2.0000      -0.462965       -12.5979
 244   2.0000      -0.462645       -12.5892
 245   2.0000      -0.460044       -12.5184
 246   2.0000      -0.455867       -12.4048
 247   2.0000      -0.453753       -12.3472
 248   2.0000      -0.453168       -12.3313
 249   2.0000      -0.452374       -12.3097
 250   2.0000      -0.448298       -12.1988
 251   2.0000      -0.447091       -12.1660
 252   2.0000      -0.446986       -12.1631
 253   2.0000      -0.443934       -12.0801
 254   2.0000      -0.443584       -12.0705
 255   2.0000      -0.439785       -11.9672
 256   2.0000      -0.439169       -11.9504
 257   2.0000      -0.435098       -11.8396
 258   2.0000      -0.432381       -11.7657
 259   2.0000      -0.431316       -11.7367
 260   2.0000      -0.431216       -11.7340
 261   2.0000      -0.430793       -11.7225
 262   2.0000      -0.424476       -11.5506
 263   2.0000      -0.420309       -11.4372
 264   2.0000      -0.417910       -11.3719
 265   2.0000      -0.416749       -11.3403
 266   2.0000      -0.416252       -11.3268
 267   2.0000      -0.413999       -11.2655
 268   2.0000      -0.413901       -11.2628
 269   2.0000      -0.407521       -11.0892
 270   2.0000      -0.399962       -10.8835
 271   2.0000      -0.397127       -10.8064
 272   2.0000      -0.395100       -10.7512
 273   2.0000      -0.393029       -10.6949
 274   2.0000      -0.389212       -10.5910
 275   2.0000      -0.388805       -10.5799
 276   2.0000      -0.380747       -10.3606
 277   2.0000      -0.378029       -10.2867
 278   2.0000      -0.377095       -10.2613
 279   2.0000      -0.375393       -10.2150
 280   2.0000      -0.371835       -10.1182
 281   2.0000      -0.370311       -10.0767
 282   2.0000      -0.359613        -9.7856
 283   2.0000      -0.358771        -9.7626
 284   2.0000      -0.358423        -9.7532
 285   2.0000      -0.345657        -9.4058
 286   2.0000      -0.343440        -9.3455
 287   2.0000      -0.338246        -9.2041
 288   2.0000      -0.327224        -8.9042
 289   2.0000      -0.322596        -8.7783
 290   2.0000      -0.322001        -8.7621
 291   2.0000      -0.306406        -8.3377
 292   2.0000      -0.300244        -8.1700
 293   2.0000      -0.298393        -8.1197
 294   2.0000      -0.291165        -7.9230
 295   2.0000      -0.288557        -7.8520
 296   2.0000      -0.264710        -7.2031
 297   2.0000      -0.243816        -6.6346
 298   2.0000      -0.230498        -6.2722
 299   0.0000      -0.111979        -3.0471
 300   0.0000      -0.090960        -2.4752
 301   0.0000      -0.072284        -1.9669
 302   0.0000      -0.062477        -1.7001
 303   0.0000      -0.049461        -1.3459

MULLIKEN ATOMIC CHARGES
-----------------------
   0 C :    0.323816
   1 C :   -0.342330
   2 C :   -0.184013
   3 N :    0.150290
   4 C :   -0.197350
   5 N :    0.146094
   6 C :    0.009197
   7 C :   -0.007859
   8 C :   -0.063920
   9 C :    0.114564
  10 C :   -0.095744
  11 C :   -0.017832
  12 S :    0.192153
  13 C :   -0.124941
  14 C :    0.041828
  15 Br:    0.027614
  16 C :    0.165478
  17 O :   -0.221802
  18 C :   -0.129951
  19 C :    0.027687
  20 N :   -0.001935
  21 C :   -0.126697
  22 S :    0.178726
  23 C :    0.003708
  24 N :    0.275851
  25 O :   -0.251998
  26 O :   -0.253315
  27 C :   -0.000358
  28 C :    0.147384
  29 C :   -0.072238
  30 C :    0.014582
  31 C :   -0.109659
  32 C :    0.039363
  33 C :    0.071104
  34 C :   -0.111234
  35 S :    0.131404
  36 C :   -0.072676
  37 C :   -0.114305
  38 N :   -0.158241
  39 C :    0.106601
  40 C :   -0.003916
  41 C :    0.143253
  42 C :   -0.080579
  43 S :   -0.000166
  44 C :   -0.074212
  45 C :   -0.050932
  46 C :    0.054767
  47 C :    0.028244
  48 C :   -0.039987
  49 S :    0.112725
  50 C :   -0.056344
  51 C :    0.039657
  52 C :    0.042873
  53 C :   -0.015042
  54 S :    0.107343
  55 C :   -0.002786
  56 C :    0.018048
  57 C :   -0.127976
  58 C :    0.139532
  59 O :   -0.155596
  60 C :    0.002277
  61 C :   -0.084641
  62 C :    0.102116
  63 C :    0.102673
  64 C :   -0.099667
  65 C :    0.302715
  66 C :   -0.032742
  67 C :   -0.011741
  68 F :   -0.193804
  69 C :   -0.091500
  70 C :    0.043150
  71 C :    0.296114
  72 C :   -0.349208
  73 C :   -0.222932
  74 N :    0.159193
  75 C :   -0.174158
  76 N :    0.137666
  77 H :   -0.006519
  78 H :   -0.003427
  79 H :   -0.000901
  80 H :    0.045676
  81 H :    0.186956
  82 H :    0.007367
  83 H :    0.007904
  84 H :   -0.023768
  85 H :    0.035185
  86 H :    0.023965
  87 H :    0.031281
  88 H :    0.021060
  89 H :    0.017608
  90 H :    0.039957
  91 H :    0.023810
  92 H :    0.049914
  93 H :    0.063595
  94 H :    0.018437
  95 H :    0.000285
  96 H :   -0.002801
  97 H :   -0.003144
  98 H :    0.004024
  99 H :    0.012591
 100 H :    0.016690
 101 H :   -0.016547
 102 H :   -0.003059
 103 H :    0.000290
 104 H :   -0.012384
 105 H :   -0.007510
Sum of atomic charges:   -0.0000000

LOEWDIN ATOMIC CHARGES
----------------------
   0 C :    0.078739
   1 C :   -0.148447
   2 C :   -0.019913
   3 N :   -0.053586
   4 C :   -0.020205
   5 N :   -0.053358
   6 C :   -0.017838
   7 C :   -0.051695
   8 C :    0.025657
   9 C :   -0.033616
  10 C :   -0.143686
  11 C :   -0.007419
  12 S :    0.437910
  13 C :   -0.271279
  14 C :   -0.069220
  15 Br:    0.139711
  16 C :    0.097224
  17 O :   -0.173836
  18 C :   -0.146503
  19 C :    0.111015
  20 N :    0.081345
  21 C :   -0.117511
  22 S :    0.471155
  23 C :   -0.199858
  24 N :    0.273500
  25 O :   -0.217359
  26 O :   -0.220306
  27 C :    0.000565
  28 C :   -0.080940
  29 C :   -0.047069
  30 C :   -0.026759
  31 C :   -0.162338
  32 C :   -0.079525
  33 C :   -0.036563
  34 C :   -0.213369
  35 S :    0.430327
  36 C :   -0.224431
  37 C :   -0.031420
  38 N :    0.048118
  39 C :    0.038303
  40 C :   -0.065847
  41 C :   -0.039799
  42 C :   -0.102944
  43 S :    0.255095
  44 C :   -0.031052
  45 C :   -0.152676
  46 C :   -0.014637
  47 C :   -0.032787
  48 C :   -0.152396
  49 S :    0.414004
  50 C :   -0.189796
  51 C :   -0.006668
  52 C :   -0.031773
  53 C :   -0.099425
  54 S :    0.399948
  55 C :   -0.066564
  56 C :    0.053145
  57 C :   -0.104266
  58 C :    0.077482
  59 O :   -0.158567
  60 C :   -0.057279
  61 C :    0.029249
  62 C :   -0.020108
  63 C :    0.002226
  64 C :   -0.042868
  65 C :    0.091210
  66 C :   -0.040296
  67 C :    0.002600
  68 F :   -0.068065
  69 C :    0.007049
  70 C :   -0.015344
  71 C :    0.067910
  72 C :   -0.150591
  73 C :   -0.023802
  74 N :   -0.062042
  75 C :   -0.018989
  76 N :   -0.062807
  77 H :    0.042751
  78 H :    0.042266
  79 H :    0.039714
  80 H :    0.036523
  81 H :    0.084517
  82 H :    0.042816
  83 H :    0.022557
  84 H :    0.029120
  85 H :    0.029385
  86 H :    0.026069
  87 H :    0.015484
  88 H :    0.031711
  89 H :    0.023012
  90 H :    0.037013
  91 H :    0.033369
  92 H :    0.026182
  93 H :    0.024791
  94 H :    0.038431
  95 H :    0.038849
  96 H :    0.036151
  97 H :    0.036372
  98 H :    0.041170
  99 H :    0.039031
 100 H :    0.035068
 101 H :    0.037755
 102 H :    0.042659
 103 H :    0.040501
 104 H :    0.034378
 105 H :    0.038305

  Mayer bond orders larger than 0.100000
B(  0-C ,  1-C ) :   1.6264 B(  0-C ,  6-C ) :   1.0043 B(  0-C , 18-C ) :   1.0997
B(  1-C ,  2-C ) :   1.1421 B(  1-C ,  4-C ) :   1.1492 B(  2-C ,  3-N ) :   2.9682
B(  4-C ,  5-N ) :   2.9546 B(  6-C ,  7-C ) :   1.2733 B(  6-C , 11-C ) :   1.4268
B(  7-C ,  8-C ) :   1.4263 B(  7-C , 16-C ) :   0.9829 B(  8-C ,  9-C ) :   1.2411
B(  8-C , 77-H ) :   1.0177 B(  9-C , 10-C ) :   1.3097 B(  9-C , 14-C ) :   1.1652
B( 10-C , 11-C ) :   1.3211 B( 10-C , 12-S ) :   1.0906 B( 11-C , 78-H ) :   0.9790
B( 12-S , 13-C ) :   1.0878 B( 13-C , 14-C ) :   1.6161 B( 13-C , 15-Br) :   1.0213
B( 14-C , 79-H ) :   0.9998 B( 16-C , 17-O ) :   2.0248 B( 16-C , 18-C ) :   1.0081
B( 17-O , 81-H ) :   0.1451 B( 18-C , 19-C ) :   1.4478 B( 19-C , 20-N ) :   1.3443
B( 19-C , 80-H ) :   0.9322 B( 20-N , 21-C ) :   1.1985 B( 20-N , 81-H ) :   0.8179
B( 21-C , 22-S ) :   1.1308 B( 21-C , 28-C ) :   1.3658 B( 22-S , 23-C ) :   1.0831
B( 23-C , 24-N ) :   0.9648 B( 23-C , 27-C ) :   1.5027 B( 24-N , 25-O ) :   1.5304
B( 24-N , 26-O ) :   1.5188 B( 25-O , 26-O ) :   0.2618 B( 27-C , 28-C ) :   1.2148
B( 27-C , 82-H ) :   1.0003 B( 28-C , 29-C ) :   1.0850 B( 29-C , 30-C ) :   1.6843
B( 29-C , 83-H ) :   0.9647 B( 30-C , 31-C ) :   1.1804 B( 30-C , 84-H ) :   0.9636
B( 31-C , 32-C ) :   1.4217 B( 31-C , 35-S ) :   1.0984 B( 32-C , 33-C ) :   1.2057
B( 32-C , 44-C ) :   1.0433 B( 33-C , 34-C ) :   1.3967 B( 33-C , 38-N ) :   1.1750
B( 34-C , 35-S ) :   1.0320 B( 34-C , 36-C ) :   1.4196 B( 36-C , 37-C ) :   1.5360
B( 36-C , 43-S ) :   0.9410 B( 37-C , 38-N ) :   1.1947 B( 37-C , 41-C ) :   1.0627
B( 38-N , 39-C ) :   0.9472 B( 39-C , 40-C ) :   1.0977 B( 39-C , 85-H ) :   0.9513
B( 39-C , 86-H ) :   0.9466 B( 40-C , 87-H ) :   0.9620 B( 40-C , 88-H ) :   0.9631
B( 40-C , 89-H ) :   0.9645 B( 41-C , 42-C ) :   1.0423 B( 41-C , 90-H ) :   0.9039
B( 41-C , 91-H ) :   0.9245 B( 42-C , 43-S ) :   0.9960 B( 42-C , 92-H ) :   0.9521
B( 42-C , 93-H ) :   0.9546 B( 44-C , 45-C ) :   1.6719 B( 44-C , 94-H ) :   0.9515
B( 45-C , 46-C ) :   1.1072 B( 45-C , 49-S ) :   1.0326 B( 46-C , 47-C ) :   1.6174
B( 46-C , 95-H ) :   0.9994 B( 47-C , 48-C ) :   1.1708 B( 47-C , 96-H ) :   0.9938
B( 48-C , 49-S ) :   1.0647 B( 48-C , 50-C ) :   1.5017 B( 50-C , 51-C ) :   1.2016
B( 50-C , 54-S ) :   1.0374 B( 51-C , 52-C ) :   1.5627 B( 51-C , 97-H ) :   0.9943
B( 52-C , 53-C ) :   1.1714 B( 52-C , 98-H ) :   0.9999 B( 53-C , 54-S ) :   1.0821
B( 53-C , 55-C ) :   1.5111 B( 55-C , 56-C ) :   1.2140 B( 55-C , 99-H ) :   0.9614
B( 56-C , 57-C ) :   1.5340 B( 56-C ,100-H ) :   0.9373 B( 57-C , 58-C ) :   0.9610
B( 57-C , 71-C ) :   1.0893 B( 58-C , 59-O ) :   2.2519 B( 58-C , 60-C ) :   0.9196
B( 60-C , 61-C ) :   1.4798 B( 60-C , 70-C ) :   1.2168 B( 61-C , 62-C ) :   1.1835
B( 61-C ,101-H ) :   1.0147 B( 62-C , 63-C ) :   1.2598 B( 62-C , 67-C ) :   1.2367
B( 63-C , 64-C ) :   1.2042 B( 63-C , 69-C ) :   1.1968 B( 64-C , 65-C ) :   1.4386
B( 64-C ,102-H ) :   1.0065 B( 65-C , 66-C ) :   1.2587 B( 65-C , 68-F ) :   1.0852
B( 66-C , 67-C ) :   1.4575 B( 66-C ,103-H ) :   0.9925 B( 67-C ,104-H ) :   0.9964
B( 69-C , 70-C ) :   1.4684 B( 69-C ,105-H ) :   0.9914 B( 70-C , 71-C ) :   0.9905
B( 71-C , 72-C ) :   1.5961 B( 72-C , 73-C ) :   1.1692 B( 72-C , 75-C ) :   1.1380
B( 73-C , 74-N ) :   3.0109 B( 75-C , 76-N ) :   2.9696

-----------------------------------------------------------------------------
         ABSORPTION SPECTRUM VIA TRANSITION ELECTRIC DIPOLE MOMENTS
-----------------------------------------------------------------------------
State   Energy  Wavelength   fosc         T2         TX        TY        TZ
        (cm-1)    (nm)                  (au**2)     (au)      (au)      (au)
-----------------------------------------------------------------------------
   0   11833.1    845.1   0.781701788  21.74790   1.80194   4.03427   1.49182
   1   14925.1    670.0   0.725132107  15.99468  -1.93813  -2.39792  -2.54721
   2   17865.3    559.7   0.473619824   8.72762   0.67576  -1.75361   2.27944
   3   20071.7    498.2   0.024320099   0.39889   0.07332   0.32167  -0.53856
   4   21602.6    462.9   0.010326503   0.15737   0.32228  -0.17915   0.14633
   5   22554.1    443.4   0.082505601   1.20430   0.71348   0.79391  -0.25485
   6   23504.5    425.5   0.221845555   3.10725  -0.22299  -1.31749   1.14967
   7   24113.2    414.7   0.275423839   3.76030  -1.91559   0.21019  -0.21597
   8   24357.9    410.5   0.320482521   4.33152  -0.17735   1.56164  -1.36431
   9   25015.8    399.7   0.022898800   0.30135  -0.14949   0.06658  -0.52400
  10   25681.5    389.4   0.076496857   0.98061  -0.07063   0.36256  -0.91879
  11   26429.2    378.4   0.021807110   0.27164  -0.27739   0.14817  -0.41562
  12   26630.7    375.5   0.026621806   0.32910   0.18749  -0.45506   0.29474
  13   26988.5    370.5   0.001899998   0.02318   0.00898  -0.12865   0.08090
  14   27196.4    367.7   0.263367611   3.18806  -1.73506   0.41867  -0.04830
  15   27748.3    360.4   0.032642664   0.38728  -0.59107  -0.10199  -0.16587
  16   28100.3    355.9   0.009952025   0.11659   0.32657   0.09831   0.01668
  17   28157.6    355.1   0.002365393   0.02766  -0.05780   0.04495   0.14931
  18   29002.9    344.8   0.123307429   1.39966  -0.96439   0.57514  -0.37262
  19   29328.7    341.0   0.230745312   2.59009  -1.43497   0.47635  -0.55139
  20   29731.3    336.3   0.600543796   6.64977   2.54292  -0.36038   0.23120
  21   30163.4    331.5   0.090510267   0.98785  -0.70177  -0.67509   0.19908
  22   30452.5    328.4   0.002498300   0.02701  -0.15014  -0.03796   0.05499
  23   30763.4    325.1   0.428317708   4.58361   2.09020   0.36805  -0.28146
  24   31103.9    321.5   0.070069214   0.74163   0.44628   0.27042  -0.68509
  25   31877.8    313.7   0.208467686   2.15291  -1.43441   0.22415  -0.21245
  26   32030.4    312.2   0.009676103   0.09945  -0.03065   0.17354  -0.26153
  27   32237.3    310.2   0.098468693   1.00558  -0.81814  -0.50569   0.28373
  28   33125.0    301.9   0.706865886   7.02517   2.50351   0.16231   0.85514
  29   33249.5    300.8   0.027293426   0.27024  -0.42128   0.03779   0.30222
  30   33556.3    298.0   0.008168002   0.08013   0.13399   0.11787   0.21975
  31   33762.4    296.2   0.000054089   0.00053  -0.00866  -0.01576   0.01428
  32   33916.8    294.8   0.033414610   0.32434  -0.29936  -0.41963  -0.24215
  33   34045.6    293.7   0.425190348   4.11147   1.80835   0.65186  -0.64530
  34   34149.0    292.8   0.001713856   0.01652   0.00543  -0.11411  -0.05892
  35   34405.3    290.7   0.010873238   0.10404  -0.27793  -0.15512  -0.05228
  36   34911.9    286.4   0.037013415   0.34903   0.51952   0.01156  -0.28107
  37   35681.7    280.3   0.005135052   0.04738   0.20762  -0.06498   0.00695
  38   35969.5    278.0   0.038870953   0.35577   0.59175  -0.06552  -0.03621
  39   35980.5    277.9   0.095991753   0.87830  -0.92729   0.10195   0.08966
  40   36126.5    276.8   0.030137950   0.27464   0.45169  -0.13116   0.23112
  41   36284.8    275.6   0.025433349   0.23076  -0.03720   0.47727   0.03987
  42   36448.6    274.4   0.000157989   0.00143   0.03437  -0.01028  -0.01184
  43   36862.2    271.3   0.024990875   0.22319  -0.44211  -0.14819   0.07593
  44   37084.0    269.7   0.018884638   0.16765   0.01724  -0.33060   0.24094
  45   37290.9    268.2   0.001865423   0.01647   0.00053  -0.02276   0.12629
  46   37541.9    266.4   0.178270192   1.56328   1.22118  -0.11072  -0.24442
  47   37806.1    264.5   0.097703143   0.85079  -0.22067   0.61236  -0.65353
  48   38150.1    262.1   0.034726720   0.29967  -0.32474  -0.40205   0.18046
  49   38321.5    261.0   0.107499996   0.92351  -0.95214  -0.07852   0.10384
  50   38598.6    259.1   0.053934198   0.46001  -0.63151   0.18480  -0.16450
  51   38671.8    258.6   0.049615042   0.42237  -0.50098  -0.04897   0.41109
  52   38803.8    257.7   0.147772550   1.25371  -0.69766   0.76998  -0.41725
  53   38868.0    257.3   0.177485539   1.50330   1.14138  -0.44238  -0.06959
  54   39058.7    256.0   0.017809815   0.15011  -0.37423   0.09183   0.04041
  55   39250.8    254.8   0.076677495   0.64312   0.57446  -0.55929  -0.01766
  56   39985.8    250.1   0.022708335   0.18696   0.12539  -0.41375   0.00741
  57   40043.5    249.7   0.036747646   0.30212  -0.31645   0.38620  -0.22984

FINAL SINGLE POINT ENERGY     -7970.045667003744

DIPOLE MOMENT
-------------
                                X             Y             Z
Electronic contribution:     48.56242    -126.61747      87.36403
Nuclear contribution   :    -45.52730     127.20761     -92.34032
                        -----------------------------------------
Total Dipole Moment    :      3.03512       0.59014      -4.97629
                        -----------------------------------------
Magnitude (a.u.)       :      5.85865
Magnitude (Debye)      :     14.89149

Rotational constants in cm-1:     0.000564     0.000270     0.000220
Rotational constants in MHz :    16.916871     8.099025     6.590306

                             ****ORCA TERMINATED NORMALLY****
TOTAL RUN TIME: 0 days 0 hours 13 minutes 13 seconds 231 msec
