                         Program Version 4.2.0 -  RELEASE  -
|  1> # ORCA input file
|  2> # SCF done       -191.032346812690          0.000825940316
|  3> ! CAM-B3LYP def2-SVP def2/J RIJCOSX Grid4 TightSCF
|  4> %maxcore 5000
|  5> %tddft
|  6>     Mode sTDDFT
|  7>     Ethresh 5.0
|  8>     maxcore 5000
|  9> end
| 10>
| 11> %pal
| 12>   nprocs 6
| 13>   end
| 14> * xyz 0 1
| 15>    C       -6.79537        -1.15654        -2.04392
| 16>    C       -6.69540        -1.58961        -0.74730
| 17>    C       -6.52725        -2.94041        -0.37732
| 18>    N       -6.40780        -4.02230        -0.01186
| 19>    C       -6.74661        -0.77366         0.40242
| 20>    N       -6.77306        -0.18970         1.39121
| 21>    C       -6.67546        -2.00218        -3.22635
| 22>    C       -6.78932        -1.18828        -4.37884
| 23>    C       -6.70813        -1.69075        -5.65420
| 24>    C       -6.49645        -3.06555        -5.80119
| 25>    C       -6.38376        -3.87180        -4.64446
| 26>    C       -6.47089        -3.36314        -3.35431
| 27>    S       -6.12838        -5.54176        -5.05227
| 28>    C       -6.17388        -5.13818        -6.74756
| 29>    C       -6.37056        -3.82226        -6.99839
| 30>   Br       -5.96124        -6.49198        -8.02796
| 31>    C       -7.00227         0.21044        -3.96727
| 32>    O       -7.25272         1.14491        -4.70906
| 33>    C       -6.96647         0.21128        -2.49614
| 34>    C       -7.18230         1.29163        -1.68179
| 35>    C       -7.14537         2.66732        -1.98492
| 36>    S       -8.12023         3.70369        -0.96649
| 37>    C       -7.60012         5.12853        -1.80690
| 38>    C       -6.68136         4.80692        -2.80232
| 39>    C       -6.40839         3.43408        -2.88640
| 40>    C       -5.33243         2.90703        -3.78758
| 41>    C       -4.61716         1.80339        -3.19546
| 42>    N       -4.01326         0.94084        -2.74828
| 43>    C       -4.35208         4.02425        -4.16387
| 44>    C       -5.13204         5.19234        -4.74390
| 45>    C       -6.01560         5.84467        -3.67200
| 46>    O       -7.03597         6.64838        -4.24924
| 47>    C       -6.56525         7.80230        -4.89429
| 48>    C       -8.11515         6.40595        -1.46030
| 49>    C       -8.89064         6.61145        -0.36941
| 50>    C       -9.48491         7.82938         0.07015
| 51>    S       -9.76766         7.95189         1.79081
| 52>    C      -10.29432         9.57425         1.63066
| 53>    C      -10.28421        10.01231         0.34402
| 54>    C      -10.72517        11.38035        -0.06040
| 55>    C       -9.84449         9.00951        -0.57593
| 56>    C       -9.89704         9.23953        -1.99775
| 57>    C      -10.09188         8.29136        -2.93319
| 58>    C      -10.10194         8.53469        -4.33927
| 59>    C      -10.00393         7.52570        -5.22825
| 60>    C       -9.89338         7.70352        -6.64714
| 61>    C       -9.44279         6.76013        -7.48698
| 62>    C       -8.96254         5.41457        -7.03452
| 63>    C       -9.34220         6.96825        -8.97875
| 64>    N       -9.81541         8.23760        -9.47306
| 65>    C       -9.09175         9.35882        -9.45911
| 66>    C       -7.87216         9.48739        -8.85104
| 67>    C       -7.07423        10.61911        -9.02493
| 68>    C       -5.79184        10.83680        -8.57691
| 69>    C       -4.82287         9.98533        -7.94571
| 70>    C       -4.74082         8.60864        -7.97736
| 71>    C       -3.79832         7.85760        -7.25119
| 72>    N       -3.11071         7.16676        -6.64056
| 73>    C       -5.52515         7.75080        -8.76600
| 74>    N       -6.09127         6.98009        -9.40672
| 75>    C       -3.77884        10.84812        -7.38862
| 76>    C       -4.00511        12.17649        -7.82543
| 77>    C       -5.25547        12.21389        -8.61359
| 78>    O       -5.75841        13.17819        -9.15087
| 79>    C       -3.15829        13.21192        -7.51915
| 80>    C       -2.03608        12.92739        -6.73233
| 81>    C       -1.82755        11.60261        -6.28541
| 82>    C       -2.68123        10.55268        -6.60371
| 83>    S       -0.38783        11.47275        -5.31970
| 84>    C       -0.08655        13.17660        -5.53382
| 85>    C       -1.01625        13.81195        -6.28560
| 86>   Br        1.42632        13.95515        -4.74293
| 87>    H       -6.79955        -1.04443        -6.51315
| 88>    H       -6.37964        -4.02082        -2.50644
| 89>    H       -6.42491        -3.40116        -7.98571
| 90>    H       -7.45882         1.08269        -0.65499
| 91>    H       -5.81520         2.52084        -4.70101
| 92>    H       -3.63391         3.65207        -4.89557
| 93>    H       -3.79903         4.34627        -3.27792
| 94>    H       -5.77501         4.83968        -5.55460
| 95>    H       -4.43696         5.92685        -5.15312
| 96>    H       -5.38510         6.48537        -3.02585
| 97>    H       -7.44443         8.40040        -5.12777
| 98>    H       -6.03605         7.55915        -5.82090
| 99>    H       -5.89249         8.37548        -4.24445
|100>    H       -7.86619         7.21883        -2.12416
|101>    H       -9.03428         5.77508         0.30757
|102>    H      -10.58907        10.12075         2.50515
|103>    H      -11.03373        11.94895         0.81284
|104>    H      -11.56390        11.32060        -0.75287
|105>    H       -9.91335        11.91487        -0.55291
|106>    H       -9.82422        10.27436        -2.30774
|107>    H      -10.21151         7.26104        -2.63038
|108>    H      -10.11333         9.56422        -4.67688
|109>    H       -9.94861         6.51611        -4.84953
|110>    H      -10.16580         8.67974        -7.02888
|111>    H       -8.37507         5.50398        -6.12382
|112>    H       -8.34914         4.95143        -7.80352
|113>    H       -9.80449         4.75343        -6.82803
|114>    H       -9.91217         6.17740        -9.47658
|115>    H       -8.28743         6.85036        -9.27290
|116>    H      -10.73125         8.25869        -9.89188
|117>    H       -9.50598        10.19413       -10.01035
|118>    H       -7.51772         8.68584        -8.22746
|119>    H       -7.51252        11.46628        -9.54368
|120>    H       -3.35118        14.21065        -7.87812
|121>    H       -2.47472         9.56095        -6.23773
|122>    H       -0.98541        14.86078        -6.51779
|123> *
|124>
|125>                          ****END OF INPUT****

CARTESIAN COORDINATES (ANGSTROEM)
---------------------------------
  C     -6.795370   -1.156540   -2.043920
  C     -6.695400   -1.589610   -0.747300
  C     -6.527250   -2.940410   -0.377320
  N     -6.407800   -4.022300   -0.011860
  C     -6.746610   -0.773660    0.402420
  N     -6.773060   -0.189700    1.391210
  C     -6.675460   -2.002180   -3.226350
  C     -6.789320   -1.188280   -4.378840
  C     -6.708130   -1.690750   -5.654200
  C     -6.496450   -3.065550   -5.801190
  C     -6.383760   -3.871800   -4.644460
  C     -6.470890   -3.363140   -3.354310
  S     -6.128380   -5.541760   -5.052270
  C     -6.173880   -5.138180   -6.747560
  C     -6.370560   -3.822260   -6.998390
  Br    -5.961240   -6.491980   -8.027960
  C     -7.002270    0.210440   -3.967270
  O     -7.252720    1.144910   -4.709060
  C     -6.966470    0.211280   -2.496140
  C     -7.182300    1.291630   -1.681790
  C     -7.145370    2.667320   -1.984920
  S     -8.120230    3.703690   -0.966490
  C     -7.600120    5.128530   -1.806900
  C     -6.681360    4.806920   -2.802320
  C     -6.408390    3.434080   -2.886400
  C     -5.332430    2.907030   -3.787580
  C     -4.617160    1.803390   -3.195460
  N     -4.013260    0.940840   -2.748280
  C     -4.352080    4.024250   -4.163870
  C     -5.132040    5.192340   -4.743900
  C     -6.015600    5.844670   -3.672000
  O     -7.035970    6.648380   -4.249240
  C     -6.565250    7.802300   -4.894290
  C     -8.115150    6.405950   -1.460300
  C     -8.890640    6.611450   -0.369410
  C     -9.484910    7.829380    0.070150
  S     -9.767660    7.951890    1.790810
  C    -10.294320    9.574250    1.630660
  C    -10.284210   10.012310    0.344020
  C    -10.725170   11.380350   -0.060400
  C     -9.844490    9.009510   -0.575930
  C     -9.897040    9.239530   -1.997750
  C    -10.091880    8.291360   -2.933190
  C    -10.101940    8.534690   -4.339270
  C    -10.003930    7.525700   -5.228250
  C     -9.893380    7.703520   -6.647140
  C     -9.442790    6.760130   -7.486980
  C     -8.962540    5.414570   -7.034520
  C     -9.342200    6.968250   -8.978750
  N     -9.815410    8.237600   -9.473060
  C     -9.091750    9.358820   -9.459110
  C     -7.872160    9.487390   -8.851040
  C     -7.074230   10.619110   -9.024930
  C     -5.791840   10.836800   -8.576910
  C     -4.822870    9.985330   -7.945710
  C     -4.740820    8.608640   -7.977360
  C     -3.798320    7.857600   -7.251190
  N     -3.110710    7.166760   -6.640560
  C     -5.525150    7.750800   -8.766000
  N     -6.091270    6.980090   -9.406720
  C     -3.778840   10.848120   -7.388620
  C     -4.005110   12.176490   -7.825430
  C     -5.255470   12.213890   -8.613590
  O     -5.758410   13.178190   -9.150870
  C     -3.158290   13.211920   -7.519150
  C     -2.036080   12.927390   -6.732330
  C     -1.827550   11.602610   -6.285410
  C     -2.681230   10.552680   -6.603710
  S     -0.387830   11.472750   -5.319700
  C     -0.086550   13.176600   -5.533820
  C     -1.016250   13.811950   -6.285600
  Br     1.426320   13.955150   -4.742930
  H     -6.799550   -1.044430   -6.513150
  H     -6.379640   -4.020820   -2.506440
  H     -6.424910   -3.401160   -7.985710
  H     -7.458820    1.082690   -0.654990
  H     -5.815200    2.520840   -4.701010
  H     -3.633910    3.652070   -4.895570
  H     -3.799030    4.346270   -3.277920
  H     -5.775010    4.839680   -5.554600
  H     -4.436960    5.926850   -5.153120
  H     -5.385100    6.485370   -3.025850
  H     -7.444430    8.400400   -5.127770
  H     -6.036050    7.559150   -5.820900
  H     -5.892490    8.375480   -4.244450
  H     -7.866190    7.218830   -2.124160
  H     -9.034280    5.775080    0.307570
  H    -10.589070   10.120750    2.505150
  H    -11.033730   11.948950    0.812840
  H    -11.563900   11.320600   -0.752870
  H     -9.913350   11.914870   -0.552910
  H     -9.824220   10.274360   -2.307740
  H    -10.211510    7.261040   -2.630380
  H    -10.113330    9.564220   -4.676880
  H     -9.948610    6.516110   -4.849530
  H    -10.165800    8.679740   -7.028880
  H     -8.375070    5.503980   -6.123820
  H     -8.349140    4.951430   -7.803520
  H     -9.804490    4.753430   -6.828030
  H     -9.912170    6.177400   -9.476580
  H     -8.287430    6.850360   -9.272900
  H    -10.731250    8.258690   -9.891880
  H     -9.505980   10.194130  -10.010350
  H     -7.517720    8.685840   -8.227460
  H     -7.512520   11.466280   -9.543680
  H     -3.351180   14.210650   -7.878120
  H     -2.474720    9.560950   -6.237730
  H     -0.985410   14.860780   -6.517790

 Total Charge           Charge          ....    0
 Multiplicity           Mult            ....    1
 Number of Electrons    NEL             ....  578
 Basis Dimension        Dim             .... 1240

ORBITAL ENERGIES
----------------

  NO   OCC          E(Eh)            E(eV)
   0   2.0000    -482.883846    -13139.9375
   1   2.0000    -482.880105    -13139.8357
   2   2.0000     -88.973224     -2421.0845
   3   2.0000     -88.968285     -2420.9501
   4   2.0000     -88.959419     -2420.7089
   5   2.0000     -88.951514     -2420.4938
   6   2.0000     -62.561580     -1702.3872
   7   2.0000     -62.557802     -1702.2843
   8   2.0000     -56.395528     -1534.6003
   9   2.0000     -56.392819     -1534.5266
  10   2.0000     -56.392780     -1534.5255
  11   2.0000     -56.391744     -1534.4974
  12   2.0000     -56.389046     -1534.4239
  13   2.0000     -56.389010     -1534.4230
  14   2.0000     -19.224730      -523.1315
  15   2.0000     -19.211288      -522.7657
  16   2.0000     -19.205694      -522.6135
  17   2.0000     -14.479678      -394.0121
  18   2.0000     -14.417673      -392.3248
  19   2.0000     -14.417487      -392.3198
  20   2.0000     -14.405532      -391.9944
  21   2.0000     -14.405035      -391.9809
  22   2.0000     -14.394926      -391.7058
  23   2.0000     -10.360317      -281.9186
  24   2.0000     -10.358791      -281.8770
  25   2.0000     -10.356428      -281.8127
  26   2.0000     -10.356246      -281.8078
  27   2.0000     -10.352143      -281.6961
  28   2.0000     -10.339780      -281.3597
  29   2.0000     -10.335091      -281.2321
  30   2.0000     -10.331573      -281.1364
  31   2.0000     -10.330408      -281.1047
  32   2.0000     -10.329482      -281.0795
  33   2.0000     -10.323565      -280.9185
  34   2.0000     -10.323183      -280.9081
  35   2.0000     -10.322397      -280.8867
  36   2.0000     -10.322257      -280.8829
  37   2.0000     -10.317551      -280.7548
  38   2.0000     -10.315406      -280.6965
  39   2.0000     -10.314240      -280.6647
  40   2.0000     -10.312111      -280.6068
  41   2.0000     -10.309654      -280.5400
  42   2.0000     -10.309433      -280.5339
  43   2.0000     -10.308535      -280.5095
  44   2.0000     -10.308224      -280.5010
  45   2.0000     -10.307959      -280.4938
  46   2.0000     -10.304290      -280.3940
  47   2.0000     -10.303960      -280.3850
  48   2.0000     -10.302684      -280.3503
  49   2.0000     -10.302629      -280.3488
  50   2.0000     -10.300528      -280.2916
  51   2.0000     -10.299700      -280.2691
  52   2.0000     -10.298623      -280.2398
  53   2.0000     -10.297227      -280.2018
  54   2.0000     -10.296548      -280.1833
  55   2.0000     -10.295366      -280.1512
  56   2.0000     -10.294514      -280.1280
  57   2.0000     -10.293346      -280.0962
  58   2.0000     -10.292603      -280.0760
  59   2.0000     -10.290180      -280.0100
  60   2.0000     -10.289331      -279.9869
  61   2.0000     -10.289119      -279.9811
  62   2.0000     -10.287540      -279.9382
  63   2.0000     -10.287228      -279.9297
  64   2.0000     -10.283896      -279.8390
  65   2.0000     -10.283736      -279.8347
  66   2.0000     -10.281096      -279.7628
  67   2.0000     -10.280191      -279.7382
  68   2.0000     -10.279882      -279.7298
  69   2.0000     -10.278995      -279.7057
  70   2.0000     -10.278188      -279.6837
  71   2.0000     -10.277441      -279.6634
  72   2.0000     -10.273834      -279.5652
  73   2.0000     -10.272553      -279.5304
  74   2.0000     -10.271700      -279.5072
  75   2.0000     -10.271454      -279.5005
  76   2.0000     -10.270600      -279.4772
  77   2.0000     -10.268658      -279.4244
  78   2.0000     -10.263638      -279.2878
  79   2.0000     -10.262666      -279.2613
  80   2.0000      -8.791019      -239.2158
  81   2.0000      -8.787217      -239.1123
  82   2.0000      -8.069240      -219.5752
  83   2.0000      -8.064336      -219.4417
  84   2.0000      -8.055187      -219.1928
  85   2.0000      -8.047693      -218.9889
  86   2.0000      -6.627310      -180.3383
  87   2.0000      -6.623465      -180.2336
  88   2.0000      -6.612739      -179.9418
  89   2.0000      -6.612578      -179.9374
  90   2.0000      -6.608968      -179.8392
  91   2.0000      -6.608793      -179.8344
  92   2.0000      -6.038935      -164.3278
  93   2.0000      -6.034671      -164.2117
  94   2.0000      -6.034041      -164.1946
  95   2.0000      -6.030442      -164.0967
  96   2.0000      -6.029741      -164.0776
  97   2.0000      -6.025532      -163.9631
  98   2.0000      -6.024358      -163.9311
  99   2.0000      -6.020432      -163.8243
 100   2.0000      -6.017241      -163.7375
 101   2.0000      -6.016899      -163.7281
 102   2.0000      -6.012682      -163.6134
 103   2.0000      -6.009990      -163.5401
 104   2.0000      -2.743188       -74.6459
 105   2.0000      -2.739391       -74.5426
 106   2.0000      -2.739113       -74.5351
 107   2.0000      -2.738935       -74.5302
 108   2.0000      -2.735251       -74.4300
 109   2.0000      -2.735124       -74.4265
 110   2.0000      -2.727390       -74.2161
 111   2.0000      -2.727368       -74.2155
 112   2.0000      -2.723607       -74.1131
 113   2.0000      -2.723598       -74.1129
 114   2.0000      -1.124918       -30.6106
 115   2.0000      -1.124690       -30.6044
 116   2.0000      -1.120135       -30.4804
 117   2.0000      -1.073898       -29.2222
 118   2.0000      -1.021161       -27.7872
 119   2.0000      -1.014637       -27.6097
 120   2.0000      -1.013600       -27.5815
 121   2.0000      -1.005276       -27.3550
 122   2.0000      -1.002268       -27.2731
 123   2.0000      -0.997288       -27.1376
 124   2.0000      -0.986032       -26.8313
 125   2.0000      -0.984544       -26.7908
 126   2.0000      -0.983983       -26.7755
 127   2.0000      -0.981545       -26.7092
 128   2.0000      -0.980329       -26.6761
 129   2.0000      -0.940373       -25.5889
 130   2.0000      -0.935596       -25.4589
 131   2.0000      -0.929815       -25.3016
 132   2.0000      -0.925871       -25.1942
 133   2.0000      -0.912580       -24.8326
 134   2.0000      -0.910680       -24.7809
 135   2.0000      -0.905837       -24.6491
 136   2.0000      -0.900585       -24.5062
 137   2.0000      -0.900238       -24.4967
 138   2.0000      -0.887467       -24.1492
 139   2.0000      -0.882993       -24.0275
 140   2.0000      -0.877845       -23.8874
 141   2.0000      -0.876212       -23.8429
 142   2.0000      -0.872186       -23.7334
 143   2.0000      -0.865105       -23.5407
 144   2.0000      -0.850480       -23.1427
 145   2.0000      -0.846114       -23.0239
 146   2.0000      -0.833953       -22.6930
 147   2.0000      -0.831063       -22.6144
 148   2.0000      -0.825833       -22.4721
 149   2.0000      -0.821518       -22.3546
 150   2.0000      -0.813931       -22.1482
 151   2.0000      -0.799210       -21.7476
 152   2.0000      -0.792075       -21.5535
 153   2.0000      -0.780865       -21.2484
 154   2.0000      -0.771287       -20.9878
 155   2.0000      -0.766839       -20.8668
 156   2.0000      -0.761613       -20.7246
 157   2.0000      -0.752413       -20.4742
 158   2.0000      -0.750991       -20.4355
 159   2.0000      -0.747554       -20.3420
 160   2.0000      -0.718738       -19.5579
 161   2.0000      -0.714321       -19.4377
 162   2.0000      -0.709413       -19.3041
 163   2.0000      -0.703246       -19.1363
 164   2.0000      -0.696546       -18.9540
 165   2.0000      -0.689306       -18.7570
 166   2.0000      -0.682573       -18.5738
 167   2.0000      -0.681446       -18.5431
 168   2.0000      -0.680821       -18.5261
 169   2.0000      -0.668969       -18.2036
 170   2.0000      -0.660487       -17.9728
 171   2.0000      -0.659038       -17.9333
 172   2.0000      -0.656667       -17.8688
 173   2.0000      -0.650982       -17.7141
 174   2.0000      -0.649387       -17.6707
 175   2.0000      -0.638868       -17.3845
 176   2.0000      -0.633357       -17.2345
 177   2.0000      -0.622339       -16.9347
 178   2.0000      -0.622011       -16.9258
 179   2.0000      -0.619341       -16.8531
 180   2.0000      -0.616277       -16.7697
 181   2.0000      -0.608084       -16.5468
 182   2.0000      -0.601610       -16.3706
 183   2.0000      -0.593112       -16.1394
 184   2.0000      -0.592932       -16.1345
 185   2.0000      -0.591032       -16.0828
 186   2.0000      -0.590646       -16.0723
 187   2.0000      -0.581439       -15.8218
 188   2.0000      -0.581061       -15.8115
 189   2.0000      -0.577122       -15.7043
 190   2.0000      -0.572335       -15.5740
 191   2.0000      -0.569160       -15.4876
 192   2.0000      -0.557740       -15.1769
 193   2.0000      -0.556317       -15.1382
 194   2.0000      -0.546662       -14.8754
 195   2.0000      -0.543408       -14.7869
 196   2.0000      -0.540789       -14.7156
 197   2.0000      -0.538178       -14.6446
 198   2.0000      -0.537461       -14.6251
 199   2.0000      -0.534742       -14.5511
 200   2.0000      -0.532300       -14.4846
 201   2.0000      -0.530395       -14.4328
 202   2.0000      -0.529772       -14.4158
 203   2.0000      -0.527292       -14.3483
 204   2.0000      -0.523178       -14.2364
 205   2.0000      -0.520117       -14.1531
 206   2.0000      -0.518403       -14.1065
 207   2.0000      -0.514982       -14.0134
 208   2.0000      -0.512491       -13.9456
 209   2.0000      -0.511916       -13.9300
 210   2.0000      -0.508307       -13.8317
 211   2.0000      -0.506525       -13.7832
 212   2.0000      -0.505318       -13.7504
 213   2.0000      -0.503395       -13.6981
 214   2.0000      -0.500933       -13.6311
 215   2.0000      -0.500686       -13.6244
 216   2.0000      -0.497934       -13.5495
 217   2.0000      -0.493919       -13.4402
 218   2.0000      -0.492006       -13.3882
 219   2.0000      -0.490501       -13.3472
 220   2.0000      -0.488018       -13.2796
 221   2.0000      -0.486102       -13.2275
 222   2.0000      -0.483282       -13.1508
 223   2.0000      -0.481323       -13.0975
 224   2.0000      -0.477569       -12.9953
 225   2.0000      -0.475705       -12.9446
 226   2.0000      -0.474596       -12.9144
 227   2.0000      -0.469321       -12.7709
 228   2.0000      -0.468380       -12.7453
 229   2.0000      -0.463456       -12.6113
 230   2.0000      -0.461826       -12.5669
 231   2.0000      -0.458885       -12.4869
 232   2.0000      -0.457774       -12.4567
 233   2.0000      -0.456305       -12.4167
 234   2.0000      -0.453372       -12.3369
 235   2.0000      -0.451848       -12.2954
 236   2.0000      -0.450621       -12.2620
 237   2.0000      -0.448090       -12.1931
 238   2.0000      -0.446678       -12.1547
 239   2.0000      -0.444428       -12.0935
 240   2.0000      -0.443173       -12.0594
 241   2.0000      -0.441104       -12.0031
 242   2.0000      -0.439165       -11.9503
 243   2.0000      -0.438501       -11.9322
 244   2.0000      -0.437936       -11.9169
 245   2.0000      -0.435933       -11.8623
 246   2.0000      -0.434457       -11.8222
 247   2.0000      -0.433640       -11.8000
 248   2.0000      -0.431066       -11.7299
 249   2.0000      -0.429073       -11.6757
 250   2.0000      -0.428022       -11.6471
 251   2.0000      -0.424553       -11.5527
 252   2.0000      -0.423153       -11.5146
 253   2.0000      -0.420263       -11.4359
 254   2.0000      -0.416972       -11.3464
 255   2.0000      -0.415682       -11.3113
 256   2.0000      -0.414446       -11.2776
 257   2.0000      -0.413743       -11.2585
 258   2.0000      -0.411910       -11.2087
 259   2.0000      -0.409767       -11.1503
 260   2.0000      -0.409112       -11.1325
 261   2.0000      -0.407110       -11.0780
 262   2.0000      -0.398200       -10.8356
 263   2.0000      -0.395337       -10.7577
 264   2.0000      -0.391711       -10.6590
 265   2.0000      -0.388899       -10.5825
 266   2.0000      -0.386112       -10.5066
 267   2.0000      -0.380063       -10.3420
 268   2.0000      -0.378315       -10.2945
 269   2.0000      -0.376512       -10.2454
 270   2.0000      -0.373336       -10.1590
 271   2.0000      -0.369546       -10.0558
 272   2.0000      -0.365472        -9.9450
 273   2.0000      -0.362257        -9.8575
 274   2.0000      -0.347487        -9.4556
 275   2.0000      -0.341821        -9.3014
 276   2.0000      -0.335690        -9.1346
 277   2.0000      -0.334399        -9.0995
 278   2.0000      -0.329439        -8.9645
 279   2.0000      -0.320666        -8.7258
 280   2.0000      -0.314655        -8.5622
 281   2.0000      -0.312465        -8.5026
 282   2.0000      -0.307339        -8.3631
 283   2.0000      -0.300393        -8.1741
 284   2.0000      -0.292353        -7.9553
 285   2.0000      -0.285438        -7.7672
 286   2.0000      -0.274346        -7.4653
 287   2.0000      -0.265600        -7.2273
 288   2.0000      -0.239805        -6.5254
 289   0.0000      -0.087923        -2.3925
 290   0.0000      -0.081228        -2.2103
 291   0.0000      -0.057560        -1.5663
 292   0.0000      -0.048430        -1.3179
 293   0.0000      -0.039730        -1.0811

MULLIKEN ATOMIC CHARGES
-----------------------
   0 C :    0.321223
   1 C :   -0.337682
   2 C :   -0.190515
   3 N :    0.146196
   4 C :   -0.198651
   5 N :    0.155189
   6 C :    0.026542
   7 C :   -0.009245
   8 C :   -0.076023
   9 C :    0.118246
  10 C :   -0.090086
  11 C :   -0.022303
  12 S :    0.184226
  13 C :   -0.121980
  14 C :    0.035965
  15 Br:    0.018457
  16 C :    0.153158
  17 O :   -0.183069
  18 C :   -0.086543
  19 C :    0.011881
  20 C :   -0.142885
  21 S :    0.130785
  22 C :   -0.100182
  23 C :   -0.038260
  24 C :    0.033679
  25 C :    0.057544
  26 C :   -0.327682
  27 N :    0.132511
  28 C :    0.031440
  29 C :    0.086228
  30 C :    0.177458
  31 O :   -0.392845
  32 C :    0.193378
  33 C :   -0.008349
  34 C :    0.043509
  35 C :   -0.181123
  36 S :    0.120489
  37 C :   -0.119534
  38 C :   -0.093016
  39 C :    0.119115
  40 C :    0.146911
  41 C :   -0.066322
  42 C :    0.032939
  43 C :   -0.002064
  44 C :    0.012478
  45 C :    0.001711
  46 C :   -0.224773
  47 C :    0.071247
  48 C :    0.184022
  49 N :   -0.111853
  50 C :    0.080986
  51 C :   -0.043727
  52 C :    0.036033
  53 C :   -0.144936
  54 C :    0.326361
  55 C :   -0.405160
  56 C :   -0.142777
  57 N :    0.109465
  58 C :   -0.175852
  59 N :    0.143082
  60 C :    0.005394
  61 C :   -0.004004
  62 C :    0.136478
  63 O :   -0.158168
  64 C :   -0.075961
  65 C :    0.116011
  66 C :   -0.091139
  67 C :   -0.031288
  68 S :    0.180496
  69 C :   -0.124151
  70 C :    0.038649
  71 Br:    0.020355
  72 H :   -0.016352
  73 H :   -0.008057
  74 H :   -0.005880
  75 H :    0.023599
  76 H :    0.080107
  77 H :    0.027466
  78 H :    0.018825
  79 H :   -0.000459
  80 H :    0.021613
  81 H :    0.001533
  82 H :    0.034632
  83 H :    0.020890
  84 H :    0.002597
  85 H :    0.018756
  86 H :    0.002556
  87 H :    0.016662
  88 H :    0.008585
  89 H :    0.030278
  90 H :    0.029709
  91 H :   -0.022867
  92 H :    0.011676
  93 H :   -0.018858
  94 H :   -0.000791
  95 H :   -0.033831
  96 H :    0.045564
  97 H :    0.020540
  98 H :    0.034820
  99 H :    0.027493
 100 H :    0.051958
 101 H :    0.140927
 102 H :    0.024089
 103 H :    0.017480
 104 H :    0.006215
 105 H :   -0.012928
 106 H :   -0.012013
 107 H :   -0.004225
Sum of atomic charges:   -0.0000000

LOEWDIN ATOMIC CHARGES
----------------------
   0 C :    0.082084
   1 C :   -0.136597
   2 C :   -0.016164
   3 N :   -0.057220
   4 C :   -0.021298
   5 N :   -0.052869
   6 C :   -0.015299
   7 C :   -0.045848
   8 C :    0.018950
   9 C :   -0.033611
  10 C :   -0.143603
  11 C :   -0.008544
  12 S :    0.431192
  13 C :   -0.273001
  14 C :   -0.071146
  15 Br:    0.133066
  16 C :    0.086156
  17 O :   -0.159804
  18 C :   -0.090107
  19 C :    0.045227
  20 C :   -0.177628
  21 S :    0.455234
  22 C :   -0.129271
  23 C :   -0.071505
  24 C :   -0.001718
  25 C :   -0.055434
  26 C :   -0.023605
  27 N :   -0.072104
  28 C :   -0.002062
  29 C :   -0.042295
  30 C :    0.074231
  31 O :   -0.157210
  32 C :    0.063244
  33 C :   -0.046793
  34 C :   -0.029716
  35 C :   -0.174530
  36 S :    0.438018
  37 C :   -0.190047
  38 C :   -0.058076
  39 C :   -0.044948
  40 C :   -0.052661
  41 C :   -0.039131
  42 C :   -0.005521
  43 C :   -0.032046
  44 C :   -0.011152
  45 C :   -0.065424
  46 C :   -0.030654
  47 C :   -0.052731
  48 C :    0.031352
  49 N :    0.053889
  50 C :    0.097121
  51 C :   -0.114990
  52 C :    0.081346
  53 C :   -0.137180
  54 C :    0.081698
  55 C :   -0.176166
  56 C :   -0.010069
  57 N :   -0.075461
  58 C :   -0.005492
  59 N :   -0.075560
  60 C :   -0.019937
  61 C :   -0.050269
  62 C :    0.079706
  63 O :   -0.159754
  64 C :    0.019793
  65 C :   -0.035331
  66 C :   -0.146084
  67 C :   -0.017350
  68 S :    0.427821
  69 C :   -0.273492
  70 C :   -0.070455
  71 Br:    0.133857
  72 H :    0.038367
  73 H :    0.040779
  74 H :    0.037689
  75 H :    0.043814
  76 H :    0.064668
  77 H :    0.037393
  78 H :    0.030102
  79 H :    0.028845
  80 H :    0.029334
  81 H :    0.015416
  82 H :    0.023232
  83 H :    0.006980
  84 H :    0.009081
  85 H :    0.037306
  86 H :    0.021432
  87 H :    0.022007
  88 H :    0.033156
  89 H :    0.036237
  90 H :    0.034450
  91 H :    0.024660
  92 H :    0.033516
  93 H :    0.022914
  94 H :    0.030203
  95 H :    0.019355
  96 H :    0.035808
  97 H :    0.032987
  98 H :    0.041113
  99 H :    0.037721
 100 H :    0.039023
 101 H :    0.091696
 102 H :    0.037121
 103 H :    0.031221
 104 H :    0.040649
 105 H :    0.040096
 106 H :    0.038210
 107 H :    0.038397

  Mayer bond orders larger than 0.100000
B(  0-C ,  1-C ) :   1.6330 B(  0-C ,  6-C ) :   1.0015 B(  0-C , 18-C ) :   1.0833
B(  1-C ,  2-C ) :   1.1430 B(  1-C ,  4-C ) :   1.1439 B(  2-C ,  3-N ) :   2.9663
B(  4-C ,  5-N ) :   2.9741 B(  6-C ,  7-C ) :   1.2760 B(  6-C , 11-C ) :   1.4095
B(  7-C ,  8-C ) :   1.4236 B(  7-C , 16-C ) :   0.9387 B(  8-C ,  9-C ) :   1.2453
B(  8-C , 72-H ) :   1.0166 B(  9-C , 10-C ) :   1.3096 B(  9-C , 14-C ) :   1.1602
B( 10-C , 11-C ) :   1.3287 B( 10-C , 12-S ) :   1.0845 B( 11-C , 73-H ) :   0.9795
B( 12-S , 13-C ) :   1.0861 B( 13-C , 14-C ) :   1.6193 B( 13-C , 15-Br) :   1.0159
B( 14-C , 74-H ) :   1.0009 B( 16-C , 17-O ) :   2.1329 B( 16-C , 18-C ) :   0.9722
B( 18-C , 19-C ) :   1.5727 B( 19-C , 20-C ) :   1.1922 B( 19-C , 75-H ) :   0.9181
B( 20-C , 21-S ) :   1.0994 B( 20-C , 24-C ) :   1.4437 B( 21-S , 22-C ) :   1.1458
B( 22-C , 23-C ) :   1.4518 B( 22-C , 33-C ) :   1.1811 B( 23-C , 24-C ) :   1.4025
B( 23-C , 30-C ) :   0.9590 B( 24-C , 25-C ) :   0.9898 B( 25-C , 26-C ) :   1.0478
B( 25-C , 28-C ) :   1.0854 B( 25-C , 76-H ) :   0.7851 B( 26-C , 27-N ) :   3.0909
B( 28-C , 29-C ) :   1.0978 B( 28-C , 77-H ) :   0.9312 B( 28-C , 78-H ) :   0.9311
B( 29-C , 30-C ) :   1.0887 B( 29-C , 79-H ) :   0.9052 B( 29-C , 80-H ) :   0.9051
B( 30-C , 31-O ) :   0.9929 B( 30-C , 81-H ) :   0.8962 B( 31-O , 32-C ) :   0.9650
B( 32-C , 82-H ) :   0.9661 B( 32-C , 83-H ) :   0.9716 B( 32-C , 84-H ) :   0.9564
B( 33-C , 34-C ) :   1.6592 B( 33-C , 85-H ) :   0.9633 B( 34-C , 35-C ) :   1.1194
B( 34-C , 86-H ) :   0.9423 B( 35-C , 36-S ) :   1.1378 B( 35-C , 40-C ) :   1.4495
B( 36-S , 37-C ) :   1.1500 B( 37-C , 38-C ) :   1.5880 B( 37-C , 87-H ) :   0.9658
B( 38-C , 39-C ) :   1.0959 B( 38-C , 40-C ) :   1.2395 B( 39-C , 88-H ) :   0.9503
B( 39-C , 89-H ) :   0.9428 B( 39-C , 90-H ) :   0.9427 B( 40-C , 41-C ) :   1.0734
B( 41-C , 42-C ) :   1.7115 B( 41-C , 91-H ) :   0.9584 B( 42-C , 43-C ) :   1.1133
B( 42-C , 92-H ) :   0.9777 B( 43-C , 44-C ) :   1.6779 B( 43-C , 93-H ) :   0.9921
B( 44-C , 45-C ) :   1.0878 B( 44-C , 94-H ) :   0.9764 B( 45-C , 46-C ) :   1.7928
B( 45-C , 95-H ) :   0.9645 B( 46-C , 47-C ) :   1.0826 B( 46-C , 48-C ) :   1.0061
B( 47-C , 96-H ) :   0.9348 B( 47-C , 97-H ) :   0.9532 B( 47-C , 98-H ) :   0.9407
B( 48-C , 49-N ) :   0.9999 B( 48-C , 99-H ) :   0.9277 B( 48-C ,100-H ) :   0.8926
B( 49-N , 50-C ) :   1.3393 B( 49-N ,101-H ) :   0.9351 B( 50-C , 51-C ) :   1.4828
B( 50-C ,102-H ) :   0.9710 B( 51-C , 52-C ) :   1.2633 B( 51-C ,103-H ) :   0.9458
B( 52-C , 53-C ) :   1.4840 B( 52-C ,104-H ) :   0.9515 B( 53-C , 54-C ) :   1.1109
B( 53-C , 62-C ) :   0.9663 B( 54-C , 55-C ) :   1.5443 B( 54-C , 60-C ) :   1.0135
B( 55-C , 56-C ) :   1.1412 B( 55-C , 58-C ) :   1.2005 B( 56-C , 57-N ) :   2.8530
B( 58-C , 59-N ) :   2.9090 B( 59-N ,100-H ) :   0.1037 B( 60-C , 61-C ) :   1.2768
B( 60-C , 67-C ) :   1.4156 B( 61-C , 62-C ) :   0.9188 B( 61-C , 64-C ) :   1.4356
B( 62-C , 63-O ) :   2.2477 B( 64-C , 65-C ) :   1.2399 B( 64-C ,105-H ) :   1.0168
B( 65-C , 66-C ) :   1.3171 B( 65-C , 70-C ) :   1.1616 B( 66-C , 67-C ) :   1.3237
B( 66-C , 68-S ) :   1.0835 B( 67-C ,106-H ) :   0.9801 B( 68-S , 69-C ) :   1.0863
B( 69-C , 70-C ) :   1.6199 B( 69-C , 71-Br) :   1.0171 B( 70-C ,107-H ) :   1.0001

-----------------------------------------------------------------------------
         ABSORPTION SPECTRUM VIA TRANSITION ELECTRIC DIPOLE MOMENTS
-----------------------------------------------------------------------------
State   Energy  Wavelength   fosc         T2         TX        TY        TZ
        (cm-1)    (nm)                  (au**2)     (au)      (au)      (au)
-----------------------------------------------------------------------------
   0   17500.4    571.4   0.835318258  15.71375   1.03724  -3.82579  -0.03526
   1   21402.4    467.2   0.033101596   0.50917  -0.70409   0.11024  -0.03559
   2   23535.6    424.9   0.366186569   5.12215   1.78802  -1.37964  -0.14743
   3   23890.4    418.6   0.349912479   4.82183  -1.58497  -1.02047  -1.12620
   4   25004.4    399.9   0.124387803   1.63771   0.57895  -1.01990  -0.51218
   5   27075.7    369.3   0.033303849   0.40494  -0.49797   0.24117  -0.31433
   6   27446.2    364.3   0.003624780   0.04348   0.07100   0.06171   0.18609
   7   27905.7    358.3   0.498418138   5.87998  -0.12341   1.13962   2.13682
   8   28830.0    346.9   0.091210763   1.04154  -0.23941  -0.94364  -0.30620
   9   29466.8    339.4   0.041021152   0.45830   0.40451  -0.02660  -0.54219
  10   29811.3    335.4   0.178243309   1.96838  -1.25680  -0.56531  -0.26317
  11   29970.7    333.7   0.028829657   0.31668  -0.09360   0.36936   0.41412
  12   30158.1    331.6   0.030363537   0.33145   0.02774   0.36453   0.44475
  13   30645.0    326.3   0.330947805   3.55530  -1.69416  -0.62502  -0.54265
  14   30979.2    322.8   0.061115315   0.64946   0.22017  -0.70204   0.32883
  15   31250.0    320.0   0.005355120   0.05642  -0.23076  -0.01989  -0.05264
  16   31928.3    313.2   0.413604813   4.26467  -1.70172  -1.16332   0.12459
  17   32010.2    312.4   0.286226704   2.94372  -0.90276  -1.32848  -0.60322
  18   32477.0    307.9   0.387038837   3.92332   0.51060   1.37117   1.33511
  19   32561.7    307.1   0.015023239   0.15189   0.16818   0.01531   0.35124
  20   33205.1    301.2   0.315689651   3.12991   0.33401  -0.50024  -1.66376
  21   33673.3    297.0   0.176011713   1.72080   0.11080   0.16520  -1.29662
  22   34343.9    291.2   0.075590580   0.72459  -0.17911   0.69380   0.45952
  23   34775.1    287.6   0.329671985   3.12097   0.60954  -0.29367  -1.63193
  24   35142.8    284.6   0.472913683   4.43018  -0.55069  -1.80461  -0.93290
  25   35505.3    281.6   0.003632605   0.03368  -0.15932  -0.09021  -0.01277
  26   35732.8    279.9   0.025814352   0.23783  -0.27275  -0.34743  -0.20672
  27   35888.0    278.6   0.152501833   1.39895   0.07099  -0.89597  -0.76886
  28   36247.2    275.9   0.071214282   0.64680   0.19098  -0.42859  -0.65317
  29   36315.2    275.4   0.000983667   0.00892   0.03478   0.08763  -0.00530
  30   36597.0    273.2   0.016732183   0.15052  -0.05944  -0.15122  -0.35230
  31   37349.4    267.7   0.002028574   0.01788  -0.00951  -0.05596   0.12107
  32   37822.2    264.4   0.130363372   1.13471  -0.18278   0.80105   0.67795
  33   38101.0    262.5   0.156277617   1.35032   0.13376  -1.10638   0.32917
  34   38166.4    262.0   0.003958689   0.03415   0.07443   0.04544  -0.16292
  35   38582.2    259.2   0.001780640   0.01519  -0.04669  -0.04365   0.10540
  36   38987.5    256.5   0.003580269   0.03023  -0.11356   0.11884   0.05668
  37   39885.2    250.7   0.013174872   0.10875   0.15718  -0.26521  -0.11705
  38   40233.6    248.5   0.039675793   0.32465  -0.18816  -0.15247   0.51575
  39   40270.3    248.3   0.554649639   4.53429   0.43165  -0.17547  -2.07778

FINAL SINGLE POINT ENERGY     -9484.485422156096

DIPOLE MOMENT
-------------
                                X             Y             Z
Electronic contribution:    120.44695     -83.75920     -24.54668
Nuclear contribution   :   -123.01666      87.84940      21.51441
                        -----------------------------------------
Total Dipole Moment    :     -2.56971       4.09021      -3.03227
                        -----------------------------------------
Magnitude (a.u.)       :      5.70332
Magnitude (Debye)      :     14.49669

Rotational constants in cm-1:     0.000818     0.000307     0.000279
Rotational constants in MHz :    24.518812     9.203192     8.363760

                             ****ORCA TERMINATED NORMALLY****
TOTAL RUN TIME: 0 days 0 hours 12 minutes 17 seconds 274 msec
