                         Program Version 4.2.0 -  RELEASE  -
|  1> # ORCA input file
|  2> # SCF done       -205.007290254929          0.000615013895
|  3> ! CAM-B3LYP def2-SVP def2/J RIJCOSX Grid4 TightSCF
|  4> %maxcore 5000
|  5> %tddft
|  6>     Mode sTDDFT
|  7>     Ethresh 5.0
|  8>     maxcore 5000
|  9> end
| 10>
| 11> %pal
| 12>   nprocs 6
| 13>   end
| 14> * xyz 0 1
| 15>    C       -3.04030        -2.71699         0.05826
| 16>    C       -1.79587        -2.49088        -0.45840
| 17>    C       -0.79862        -3.48377        -0.58094
| 18>    N        0.04912        -4.24744        -0.70071
| 19>    C       -1.34222        -1.25469        -0.97108
| 20>    N       -0.90217        -0.28987        -1.41028
| 21>    C       -3.55672        -3.99081         0.53506
| 22>    C       -4.93614        -3.85166         0.83336
| 23>    C       -5.70205        -4.89570         1.29336
| 24>    C       -5.07755        -6.13260         1.48024
| 25>    C       -3.69732        -6.26128         1.18606
| 26>    C       -2.92439        -5.20988         0.71361
| 27>    S       -3.12774        -7.87456         1.48935
| 28>    C       -4.72711        -8.34822         1.99757
| 29>    C       -5.64242        -7.35081         1.94552
| 30>   Br       -5.03688       -10.11187         2.55134
| 31>    C       -5.36801        -2.46776         0.55346
| 32>    O       -6.49813        -2.04822         0.53482
| 33>    C       -4.11226        -1.73208         0.20222
| 34>    C       -4.01476        -0.39963         0.07699
| 35>    C       -5.10542         0.53953         0.34801
| 36>    N       -5.74094         0.44998         1.51233
| 37>    C       -6.70406         1.33189         1.72309
| 38>    C       -7.03394         2.31088         0.80268
| 39>    C       -6.28202         2.34791        -0.37937
| 40>    N       -5.31285         1.45203        -0.58446
| 41>    C       -6.47908         3.36006        -1.39314
| 42>    C       -5.85158         3.28668        -2.57871
| 43>    C       -5.91978         4.26431        -3.63322
| 44>    C       -4.98259         4.34131        -4.73000
| 45>    C       -3.83875         3.55427        -4.94092
| 46>    O       -3.44134         2.54787        -4.09664
| 47>    C       -2.69370         2.94952        -2.95012
| 48>    C       -1.28874         3.42996        -3.28584
| 49>    C       -3.12593         3.78750        -6.10710
| 50>    C       -3.48095         4.78931        -7.03683
| 51>    C       -4.60453         5.61844        -6.81275
| 52>    C       -5.33032         5.36604        -5.65499
| 53>    S       -6.77013         6.21585        -5.11018
| 54>    C       -6.89671         5.21083        -3.73297
| 55>    O       -4.77918         6.56829        -7.75400
| 56>    C       -5.99586         7.27494        -7.91514
| 57>    C       -7.10344         6.39757        -8.48571
| 58>    C       -2.60549         4.84248        -8.13788
| 59>    C       -1.60014         3.90389        -8.08555
| 60>    S       -1.72458         2.90943        -6.63484
| 61>    C       -0.54239         3.64768        -8.98098
| 62>    C       -0.20828         4.34483       -10.11224
| 63>    C        0.87843         4.03686       -10.97291
| 64>    C        1.02833         4.89075       -12.02158
| 65>    C        0.06932         5.92924       -12.05193
| 66>    S       -1.03592         5.77391       -10.71126
| 67>    C       -0.04221         6.96440       -12.96367
| 68>    C        0.75615         7.21952       -14.09729
| 69>    C        0.39125         8.34131       -14.78385
| 70>    C       -0.71187         9.02586       -14.22754
| 71>    S       -1.27458         8.19763       -12.79811
| 72>    C       -1.27410        10.19999       -14.69514
| 73>    C       -2.36942        10.81171       -14.10049
| 74>    C       -2.97423        12.00650       -14.43512
| 75>    C       -2.55911        13.09764       -15.27015
| 76>    C       -1.27024        13.46300       -15.58999
| 77>    C       -0.94375        14.57010       -16.39568
| 78>    N       -0.61692        15.44458       -17.06569
| 79>    C       -0.11262        12.85710       -15.06564
| 80>    N        0.87054        12.44356       -14.63812
| 81>    C       -3.74565        13.90804       -15.55311
| 82>    C       -4.81586        13.43621       -14.75361
| 83>    C       -4.35655        12.26146       -13.98082
| 84>    O       -4.99223        11.61805       -13.17129
| 85>    C       -6.05842        14.01885       -14.76381
| 86>    C       -6.25955        15.11366       -15.61260
| 87>    C       -5.18929        15.56811       -16.41601
| 88>    C       -3.92756        14.98347       -16.39927
| 89>    S       -5.65771        16.92454       -17.39747
| 90>    C       -7.26311        16.86390       -16.71989
| 91>    C       -7.44189        15.88011       -15.80775
| 92>   Br       -8.55295        18.10556       -17.28221
| 93>    H       -6.75086        -4.75971         1.50554
| 94>    H       -1.87775        -5.35642         0.50466
| 95>    H       -6.67392        -7.46796         2.22332
| 96>    H       -3.09426         0.06620        -0.24628
| 97>    H       -7.21550         1.24666         2.67330
| 98>    H       -7.82391         3.02063         0.98793
| 99>    H       -7.13026         4.18226        -1.13232
|100>    H       -5.23140         2.42185        -2.76045
|101>    H       -2.64657         2.04885        -2.33455
|102>    H       -3.23789         3.72984        -2.40086
|103>    H       -0.75509         3.64288        -2.36391
|104>    H       -1.32096         4.33566        -3.88880
|105>    H       -0.75204         2.65956        -3.83282
|106>    H       -7.72587         5.36203        -3.07025
|107>    H       -5.74079         8.06417        -8.62745
|108>    H       -6.30965         7.74423        -6.97704
|109>    H       -6.77846         5.95676        -9.42497
|110>    H       -7.98731         7.00192        -8.66557
|111>    H       -7.36177         5.59709        -7.79672
|112>    H       -2.73836         5.55053        -8.93328
|113>    H        0.09051         2.80457        -8.73470
|114>    H        1.51573         3.19161       -10.78175
|115>    H        1.80057         4.80816       -12.76466
|116>    H        1.57160         6.57744       -14.37784
|117>    H        0.88657         8.70435       -15.66646
|118>    H       -0.82849        10.62761       -15.58101
|119>    H       -2.88204        10.25525       -13.32035
|120>    H       -6.85268        13.64353       -14.13776
|121>    H       -3.14457        15.36490       -17.03327
|122>    H       -8.36779        15.69977       -15.29270
|123> *
|124>
|125>                          ****END OF INPUT****

CARTESIAN COORDINATES (ANGSTROEM)
---------------------------------
  C     -3.040300   -2.716990    0.058260
  C     -1.795870   -2.490880   -0.458400
  C     -0.798620   -3.483770   -0.580940
  N      0.049120   -4.247440   -0.700710
  C     -1.342220   -1.254690   -0.971080
  N     -0.902170   -0.289870   -1.410280
  C     -3.556720   -3.990810    0.535060
  C     -4.936140   -3.851660    0.833360
  C     -5.702050   -4.895700    1.293360
  C     -5.077550   -6.132600    1.480240
  C     -3.697320   -6.261280    1.186060
  C     -2.924390   -5.209880    0.713610
  S     -3.127740   -7.874560    1.489350
  C     -4.727110   -8.348220    1.997570
  C     -5.642420   -7.350810    1.945520
  Br    -5.036880  -10.111870    2.551340
  C     -5.368010   -2.467760    0.553460
  O     -6.498130   -2.048220    0.534820
  C     -4.112260   -1.732080    0.202220
  C     -4.014760   -0.399630    0.076990
  C     -5.105420    0.539530    0.348010
  N     -5.740940    0.449980    1.512330
  C     -6.704060    1.331890    1.723090
  C     -7.033940    2.310880    0.802680
  C     -6.282020    2.347910   -0.379370
  N     -5.312850    1.452030   -0.584460
  C     -6.479080    3.360060   -1.393140
  C     -5.851580    3.286680   -2.578710
  C     -5.919780    4.264310   -3.633220
  C     -4.982590    4.341310   -4.730000
  C     -3.838750    3.554270   -4.940920
  O     -3.441340    2.547870   -4.096640
  C     -2.693700    2.949520   -2.950120
  C     -1.288740    3.429960   -3.285840
  C     -3.125930    3.787500   -6.107100
  C     -3.480950    4.789310   -7.036830
  C     -4.604530    5.618440   -6.812750
  C     -5.330320    5.366040   -5.654990
  S     -6.770130    6.215850   -5.110180
  C     -6.896710    5.210830   -3.732970
  O     -4.779180    6.568290   -7.754000
  C     -5.995860    7.274940   -7.915140
  C     -7.103440    6.397570   -8.485710
  C     -2.605490    4.842480   -8.137880
  C     -1.600140    3.903890   -8.085550
  S     -1.724580    2.909430   -6.634840
  C     -0.542390    3.647680   -8.980980
  C     -0.208280    4.344830  -10.112240
  C      0.878430    4.036860  -10.972910
  C      1.028330    4.890750  -12.021580
  C      0.069320    5.929240  -12.051930
  S     -1.035920    5.773910  -10.711260
  C     -0.042210    6.964400  -12.963670
  C      0.756150    7.219520  -14.097290
  C      0.391250    8.341310  -14.783850
  C     -0.711870    9.025860  -14.227540
  S     -1.274580    8.197630  -12.798110
  C     -1.274100   10.199990  -14.695140
  C     -2.369420   10.811710  -14.100490
  C     -2.974230   12.006500  -14.435120
  C     -2.559110   13.097640  -15.270150
  C     -1.270240   13.463000  -15.589990
  C     -0.943750   14.570100  -16.395680
  N     -0.616920   15.444580  -17.065690
  C     -0.112620   12.857100  -15.065640
  N      0.870540   12.443560  -14.638120
  C     -3.745650   13.908040  -15.553110
  C     -4.815860   13.436210  -14.753610
  C     -4.356550   12.261460  -13.980820
  O     -4.992230   11.618050  -13.171290
  C     -6.058420   14.018850  -14.763810
  C     -6.259550   15.113660  -15.612600
  C     -5.189290   15.568110  -16.416010
  C     -3.927560   14.983470  -16.399270
  S     -5.657710   16.924540  -17.397470
  C     -7.263110   16.863900  -16.719890
  C     -7.441890   15.880110  -15.807750
  Br    -8.552950   18.105560  -17.282210
  H     -6.750860   -4.759710    1.505540
  H     -1.877750   -5.356420    0.504660
  H     -6.673920   -7.467960    2.223320
  H     -3.094260    0.066200   -0.246280
  H     -7.215500    1.246660    2.673300
  H     -7.823910    3.020630    0.987930
  H     -7.130260    4.182260   -1.132320
  H     -5.231400    2.421850   -2.760450
  H     -2.646570    2.048850   -2.334550
  H     -3.237890    3.729840   -2.400860
  H     -0.755090    3.642880   -2.363910
  H     -1.320960    4.335660   -3.888800
  H     -0.752040    2.659560   -3.832820
  H     -7.725870    5.362030   -3.070250
  H     -5.740790    8.064170   -8.627450
  H     -6.309650    7.744230   -6.977040
  H     -6.778460    5.956760   -9.424970
  H     -7.987310    7.001920   -8.665570
  H     -7.361770    5.597090   -7.796720
  H     -2.738360    5.550530   -8.933280
  H      0.090510    2.804570   -8.734700
  H      1.515730    3.191610  -10.781750
  H      1.800570    4.808160  -12.764660
  H      1.571600    6.577440  -14.377840
  H      0.886570    8.704350  -15.666460
  H     -0.828490   10.627610  -15.581010
  H     -2.882040   10.255250  -13.320350
  H     -6.852680   13.643530  -14.137760
  H     -3.144570   15.364900  -17.033270
  H     -8.367790   15.699770  -15.292700

 Total Charge           Charge          ....    0
 Multiplicity           Mult            ....    1
 Number of Electrons    NEL             ....  630
 Basis Dimension        Dim             .... 1302

ORBITAL ENERGIES
----------------

  NO   OCC          E(Eh)            E(eV)
   0   2.0000    -482.890407    -13140.1160
   1   2.0000    -482.875915    -13139.7217
   2   2.0000     -88.980964     -2421.2951
   3   2.0000     -88.963568     -2420.8218
   4   2.0000     -88.963342     -2420.8156
   5   2.0000     -88.962615     -2420.7958
   6   2.0000     -88.958383     -2420.6807
   7   2.0000     -88.951707     -2420.4990
   8   2.0000     -62.568095     -1702.5644
   9   2.0000     -62.553645     -1702.1712
  10   2.0000     -56.402053     -1534.7779
  11   2.0000     -56.399323     -1534.7036
  12   2.0000     -56.399299     -1534.7029
  13   2.0000     -56.387582     -1534.3841
  14   2.0000     -56.384893     -1534.3109
  15   2.0000     -56.384851     -1534.3098
  16   2.0000     -19.254621      -523.9449
  17   2.0000     -19.230943      -523.3005
  18   2.0000     -19.220029      -523.0036
  19   2.0000     -19.195182      -522.3274
  20   2.0000     -14.425153      -392.5284
  21   2.0000     -14.423013      -392.4701
  22   2.0000     -14.412978      -392.1971
  23   2.0000     -14.409320      -392.0975
  24   2.0000     -14.398047      -391.7908
  25   2.0000     -14.395571      -391.7234
  26   2.0000     -10.370988      -282.2089
  27   2.0000     -10.364653      -282.0365
  28   2.0000     -10.352007      -281.6924
  29   2.0000     -10.349864      -281.6341
  30   2.0000     -10.349804      -281.6325
  31   2.0000     -10.349543      -281.6254
  32   2.0000     -10.346750      -281.5494
  33   2.0000     -10.345901      -281.5263
  34   2.0000     -10.333980      -281.2019
  35   2.0000     -10.331727      -281.1406
  36   2.0000     -10.330667      -281.1117
  37   2.0000     -10.330069      -281.0955
  38   2.0000     -10.330044      -281.0948
  39   2.0000     -10.327451      -281.0242
  40   2.0000     -10.326011      -280.9850
  41   2.0000     -10.325240      -280.9641
  42   2.0000     -10.322785      -280.8973
  43   2.0000     -10.322054      -280.8774
  44   2.0000     -10.321595      -280.8649
  45   2.0000     -10.321514      -280.8627
  46   2.0000     -10.320296      -280.8295
  47   2.0000     -10.315104      -280.6883
  48   2.0000     -10.314391      -280.6688
  49   2.0000     -10.314001      -280.6582
  50   2.0000     -10.312282      -280.6115
  51   2.0000     -10.311913      -280.6014
  52   2.0000     -10.310519      -280.5635
  53   2.0000     -10.309635      -280.5394
  54   2.0000     -10.309461      -280.5347
  55   2.0000     -10.307188      -280.4729
  56   2.0000     -10.307106      -280.4706
  57   2.0000     -10.306955      -280.4665
  58   2.0000     -10.306232      -280.4468
  59   2.0000     -10.304578      -280.4018
  60   2.0000     -10.303294      -280.3669
  61   2.0000     -10.302578      -280.3474
  62   2.0000     -10.301927      -280.3297
  63   2.0000     -10.301655      -280.3223
  64   2.0000     -10.299514      -280.2640
  65   2.0000     -10.299289      -280.2579
  66   2.0000     -10.298386      -280.2333
  67   2.0000     -10.296720      -280.1880
  68   2.0000     -10.293440      -280.0987
  69   2.0000     -10.293360      -280.0966
  70   2.0000     -10.292734      -280.0795
  71   2.0000     -10.290218      -280.0111
  72   2.0000     -10.290137      -280.0089
  73   2.0000     -10.290017      -280.0056
  74   2.0000     -10.287627      -279.9406
  75   2.0000     -10.286714      -279.9157
  76   2.0000     -10.285468      -279.8818
  77   2.0000     -10.283361      -279.8245
  78   2.0000     -10.282665      -279.8055
  79   2.0000     -10.282389      -279.7980
  80   2.0000     -10.277755      -279.6719
  81   2.0000     -10.276498      -279.6377
  82   2.0000     -10.275377      -279.6072
  83   2.0000     -10.272800      -279.5371
  84   2.0000     -10.264377      -279.3079
  85   2.0000     -10.248527      -278.8766
  86   2.0000      -8.797512      -239.3925
  87   2.0000      -8.783074      -238.9996
  88   2.0000      -8.076878      -219.7830
  89   2.0000      -8.059396      -219.3073
  90   2.0000      -8.059359      -219.3063
  91   2.0000      -8.057800      -219.2639
  92   2.0000      -8.054616      -219.1772
  93   2.0000      -8.046795      -218.9644
  94   2.0000      -6.633828      -180.5156
  95   2.0000      -6.619333      -180.1212
  96   2.0000      -6.619261      -180.1192
  97   2.0000      -6.619008      -180.1124
  98   2.0000      -6.604812      -179.7261
  99   2.0000      -6.604663      -179.7220
 100   2.0000      -6.046598      -164.5363
 101   2.0000      -6.042282      -164.4188
 102   2.0000      -6.038110      -164.3053
 103   2.0000      -6.029096      -164.0601
 104   2.0000      -6.029063      -164.0591
 105   2.0000      -6.027535      -164.0176
 106   2.0000      -6.024931      -163.9467
 107   2.0000      -6.024827      -163.9439
 108   2.0000      -6.024227      -163.9276
 109   2.0000      -6.023034      -163.8951
 110   2.0000      -6.020586      -163.8285
 111   2.0000      -6.020445      -163.8246
 112   2.0000      -6.020188      -163.8177
 113   2.0000      -6.019397      -163.7961
 114   2.0000      -6.016455      -163.7161
 115   2.0000      -6.015764      -163.6973
 116   2.0000      -6.012432      -163.6066
 117   2.0000      -6.008034      -163.4869
 118   2.0000      -2.749710       -74.8234
 119   2.0000      -2.745605       -74.7117
 120   2.0000      -2.745440       -74.7072
 121   2.0000      -2.735165       -74.4276
 122   2.0000      -2.733841       -74.3916
 123   2.0000      -2.733836       -74.3915
 124   2.0000      -2.731153       -74.3185
 125   2.0000      -2.731026       -74.3150
 126   2.0000      -2.719498       -74.0013
 127   2.0000      -2.719461       -74.0003
 128   2.0000      -1.161013       -31.5928
 129   2.0000      -1.136251       -30.9190
 130   2.0000      -1.135054       -30.8864
 131   2.0000      -1.109006       -30.1776
 132   2.0000      -1.086932       -29.5769
 133   2.0000      -1.029307       -28.0089
 134   2.0000      -1.020411       -27.7668
 135   2.0000      -1.011149       -27.5148
 136   2.0000      -1.007914       -27.4267
 137   2.0000      -1.002416       -27.2771
 138   2.0000      -1.000278       -27.2189
 139   2.0000      -0.996679       -27.1210
 140   2.0000      -0.995687       -27.0940
 141   2.0000      -0.989264       -26.9192
 142   2.0000      -0.984606       -26.7925
 143   2.0000      -0.980149       -26.6712
 144   2.0000      -0.975709       -26.5504
 145   2.0000      -0.972610       -26.4661
 146   2.0000      -0.949112       -25.8267
 147   2.0000      -0.929223       -25.2854
 148   2.0000      -0.923385       -25.1266
 149   2.0000      -0.919472       -25.0201
 150   2.0000      -0.914626       -24.8882
 151   2.0000      -0.906313       -24.6620
 152   2.0000      -0.896486       -24.3946
 153   2.0000      -0.893420       -24.3112
 154   2.0000      -0.891971       -24.2718
 155   2.0000      -0.887069       -24.1384
 156   2.0000      -0.882308       -24.0088
 157   2.0000      -0.876394       -23.8479
 158   2.0000      -0.871565       -23.7165
 159   2.0000      -0.866400       -23.5759
 160   2.0000      -0.860978       -23.4284
 161   2.0000      -0.850967       -23.1560
 162   2.0000      -0.842354       -22.9216
 163   2.0000      -0.837731       -22.7958
 164   2.0000      -0.836252       -22.7556
 165   2.0000      -0.834869       -22.7179
 166   2.0000      -0.829006       -22.5584
 167   2.0000      -0.826418       -22.4880
 168   2.0000      -0.816067       -22.2063
 169   2.0000      -0.812630       -22.1128
 170   2.0000      -0.788369       -21.4526
 171   2.0000      -0.786515       -21.4022
 172   2.0000      -0.782487       -21.2925
 173   2.0000      -0.765195       -20.8220
 174   2.0000      -0.762647       -20.7527
 175   2.0000      -0.747947       -20.3527
 176   2.0000      -0.745684       -20.2911
 177   2.0000      -0.738846       -20.1050
 178   2.0000      -0.737367       -20.0648
 179   2.0000      -0.727016       -19.7831
 180   2.0000      -0.709268       -19.3002
 181   2.0000      -0.705513       -19.1980
 182   2.0000      -0.701444       -19.0873
 183   2.0000      -0.696627       -18.9562
 184   2.0000      -0.692779       -18.8515
 185   2.0000      -0.686405       -18.6780
 186   2.0000      -0.682735       -18.5782
 187   2.0000      -0.676358       -18.4046
 188   2.0000      -0.672060       -18.2877
 189   2.0000      -0.671045       -18.2601
 190   2.0000      -0.659250       -17.9391
 191   2.0000      -0.657830       -17.9005
 192   2.0000      -0.650457       -17.6998
 193   2.0000      -0.641430       -17.4542
 194   2.0000      -0.639629       -17.4052
 195   2.0000      -0.633800       -17.2466
 196   2.0000      -0.630164       -17.1476
 197   2.0000      -0.629535       -17.1305
 198   2.0000      -0.624000       -16.9799
 199   2.0000      -0.619799       -16.8656
 200   2.0000      -0.616872       -16.7859
 201   2.0000      -0.609225       -16.5779
 202   2.0000      -0.607713       -16.5367
 203   2.0000      -0.603521       -16.4226
 204   2.0000      -0.601785       -16.3754
 205   2.0000      -0.594279       -16.1711
 206   2.0000      -0.589580       -16.0433
 207   2.0000      -0.585090       -15.9211
 208   2.0000      -0.580133       -15.7862
 209   2.0000      -0.575220       -15.6525
 210   2.0000      -0.573601       -15.6085
 211   2.0000      -0.565710       -15.3937
 212   2.0000      -0.560502       -15.2520
 213   2.0000      -0.554687       -15.0938
 214   2.0000      -0.554259       -15.0822
 215   2.0000      -0.552692       -15.0395
 216   2.0000      -0.546260       -14.8645
 217   2.0000      -0.545160       -14.8346
 218   2.0000      -0.543983       -14.8025
 219   2.0000      -0.539887       -14.6911
 220   2.0000      -0.537057       -14.6141
 221   2.0000      -0.534728       -14.5507
 222   2.0000      -0.533649       -14.5213
 223   2.0000      -0.529895       -14.4192
 224   2.0000      -0.528399       -14.3785
 225   2.0000      -0.523654       -14.2494
 226   2.0000      -0.521634       -14.1944
 227   2.0000      -0.521095       -14.1797
 228   2.0000      -0.516803       -14.0629
 229   2.0000      -0.515042       -14.0150
 230   2.0000      -0.514605       -14.0031
 231   2.0000      -0.512986       -13.9591
 232   2.0000      -0.512202       -13.9377
 233   2.0000      -0.509611       -13.8672
 234   2.0000      -0.507168       -13.8007
 235   2.0000      -0.503507       -13.7011
 236   2.0000      -0.501195       -13.6382
 237   2.0000      -0.500198       -13.6111
 238   2.0000      -0.498256       -13.5582
 239   2.0000      -0.496158       -13.5012
 240   2.0000      -0.493838       -13.4380
 241   2.0000      -0.492601       -13.4044
 242   2.0000      -0.486797       -13.2464
 243   2.0000      -0.484820       -13.1926
 244   2.0000      -0.483399       -13.1539
 245   2.0000      -0.481206       -13.0943
 246   2.0000      -0.478970       -13.0334
 247   2.0000      -0.477243       -12.9864
 248   2.0000      -0.476104       -12.9554
 249   2.0000      -0.472634       -12.8610
 250   2.0000      -0.470325       -12.7982
 251   2.0000      -0.469617       -12.7789
 252   2.0000      -0.465432       -12.6650
 253   2.0000      -0.463905       -12.6235
 254   2.0000      -0.462785       -12.5930
 255   2.0000      -0.458481       -12.4759
 256   2.0000      -0.457079       -12.4377
 257   2.0000      -0.455386       -12.3917
 258   2.0000      -0.452746       -12.3198
 259   2.0000      -0.452573       -12.3151
 260   2.0000      -0.451611       -12.2890
 261   2.0000      -0.449313       -12.2264
 262   2.0000      -0.446268       -12.1436
 263   2.0000      -0.445664       -12.1271
 264   2.0000      -0.445237       -12.1155
 265   2.0000      -0.440408       -11.9841
 266   2.0000      -0.435334       -11.8460
 267   2.0000      -0.435051       -11.8384
 268   2.0000      -0.433465       -11.7952
 269   2.0000      -0.432116       -11.7585
 270   2.0000      -0.431586       -11.7440
 271   2.0000      -0.431241       -11.7347
 272   2.0000      -0.428198       -11.6519
 273   2.0000      -0.427490       -11.6326
 274   2.0000      -0.424782       -11.5589
 275   2.0000      -0.423106       -11.5133
 276   2.0000      -0.420255       -11.4357
 277   2.0000      -0.418706       -11.3936
 278   2.0000      -0.417201       -11.3526
 279   2.0000      -0.414385       -11.2760
 280   2.0000      -0.410814       -11.1788
 281   2.0000      -0.409059       -11.1310
 282   2.0000      -0.405701       -11.0397
 283   2.0000      -0.403485       -10.9794
 284   2.0000      -0.398274       -10.8376
 285   2.0000      -0.394160       -10.7256
 286   2.0000      -0.393382       -10.7045
 287   2.0000      -0.391605       -10.6561
 288   2.0000      -0.384865       -10.4727
 289   2.0000      -0.381409       -10.3787
 290   2.0000      -0.379545       -10.3279
 291   2.0000      -0.379192       -10.3183
 292   2.0000      -0.373438       -10.1618
 293   2.0000      -0.371065       -10.0972
 294   2.0000      -0.365680        -9.9507
 295   2.0000      -0.362785        -9.8719
 296   2.0000      -0.360643        -9.8136
 297   2.0000      -0.351182        -9.5561
 298   2.0000      -0.349024        -9.4974
 299   2.0000      -0.344503        -9.3744
 300   2.0000      -0.339556        -9.2398
 301   2.0000      -0.334543        -9.1034
 302   2.0000      -0.334001        -9.0886
 303   2.0000      -0.328647        -8.9430
 304   2.0000      -0.324117        -8.8197
 305   2.0000      -0.322051        -8.7634
 306   2.0000      -0.319722        -8.7001
 307   2.0000      -0.313702        -8.5363
 308   2.0000      -0.301697        -8.2096
 309   2.0000      -0.299229        -8.1424
 310   2.0000      -0.295265        -8.0346
 311   2.0000      -0.286127        -7.7859
 312   2.0000      -0.279749        -7.6124
 313   2.0000      -0.248198        -6.7538
 314   2.0000      -0.223018        -6.0686
 315   0.0000      -0.106631        -2.9016
 316   0.0000      -0.092216        -2.5093
 317   0.0000      -0.058436        -1.5901
 318   0.0000      -0.057425        -1.5626
 319   0.0000      -0.043910        -1.1949

MULLIKEN ATOMIC CHARGES
-----------------------
   0 C :    0.300519
   1 C :   -0.343984
   2 C :   -0.185503
   3 N :    0.156820
   4 C :   -0.186703
   5 N :    0.162783
   6 C :    0.016320
   7 C :   -0.012641
   8 C :   -0.068120
   9 C :    0.117956
  10 C :   -0.088890
  11 C :   -0.020005
  12 S :    0.188751
  13 C :   -0.123414
  14 C :    0.041949
  15 Br:    0.028361
  16 C :    0.152345
  17 O :   -0.123392
  18 C :   -0.052913
  19 C :    0.015921
  20 C :   -0.040880
  21 N :   -0.073872
  22 C :    0.088453
  23 C :   -0.041057
  24 C :    0.054690
  25 N :   -0.067866
  26 C :   -0.017132
  27 C :    0.015531
  28 C :    0.063749
  29 C :    0.133720
  30 C :    0.023534
  31 O :   -0.345787
  32 C :    0.164150
  33 C :   -0.008284
  34 C :   -0.076410
  35 C :    0.042589
  36 C :    0.127763
  37 C :   -0.164112
  38 S :    0.101350
  39 C :   -0.111102
  40 O :   -0.298102
  41 C :    0.143201
  42 C :   -0.017703
  43 C :   -0.051660
  44 C :   -0.069721
  45 S :    0.136086
  46 C :    0.060866
  47 C :   -0.039934
  48 C :    0.050919
  49 C :    0.021931
  50 C :   -0.015507
  51 S :    0.082564
  52 C :   -0.060391
  53 C :    0.042569
  54 C :    0.036393
  55 C :   -0.016967
  56 S :    0.107176
  57 C :   -0.001521
  58 C :    0.018447
  59 C :   -0.127900
  60 C :    0.293550
  61 C :   -0.350335
  62 C :   -0.180149
  63 N :    0.131539
  64 C :   -0.221125
  65 N :    0.159296
  66 C :    0.003975
  67 C :   -0.003714
  68 C :    0.136437
  69 O :   -0.163207
  70 C :   -0.077667
  71 C :    0.114345
  72 C :   -0.090315
  73 C :   -0.024040
  74 S :    0.177625
  75 C :   -0.125128
  76 C :    0.038778
  77 Br:    0.012582
  78 H :   -0.007438
  79 H :   -0.004004
  80 H :   -0.001015
  81 H :    0.046034
  82 H :    0.006039
  83 H :   -0.006612
  84 H :   -0.029318
  85 H :    0.043600
  86 H :    0.030854
  87 H :    0.012088
  88 H :    0.019322
  89 H :    0.023202
  90 H :    0.034114
  91 H :    0.025731
  92 H :    0.035738
  93 H :    0.030545
  94 H :    0.030673
  95 H :    0.026317
  96 H :    0.029642
  97 H :    0.001088
  98 H :   -0.004378
  99 H :   -0.000763
 100 H :   -0.005466
 101 H :   -0.004409
 102 H :    0.001755
 103 H :    0.007354
 104 H :    0.013642
 105 H :   -0.016392
 106 H :   -0.008668
 107 H :   -0.007655
Sum of atomic charges:   -0.0000000

LOEWDIN ATOMIC CHARGES
----------------------
   0 C :    0.078510
   1 C :   -0.131243
   2 C :   -0.017728
   3 N :   -0.046694
   4 C :   -0.015128
   5 N :   -0.047215
   6 C :   -0.022836
   7 C :   -0.048378
   8 C :    0.023168
   9 C :   -0.029033
  10 C :   -0.142780
  11 C :   -0.007686
  12 S :    0.434351
  13 C :   -0.269215
  14 C :   -0.070270
  15 Br:    0.141154
  16 C :    0.085785
  17 O :   -0.118706
  18 C :   -0.062344
  19 C :    0.072482
  20 C :    0.020210
  21 N :   -0.083069
  22 C :    0.056094
  23 C :   -0.060431
  24 C :    0.042326
  25 N :   -0.079552
  26 C :   -0.054708
  27 C :    0.030726
  28 C :   -0.067195
  29 C :   -0.041517
  30 C :    0.007320
  31 O :   -0.131158
  32 C :    0.083523
  33 C :   -0.073706
  34 C :   -0.160050
  35 C :   -0.066592
  36 C :    0.042401
  37 C :   -0.193194
  38 S :    0.427622
  39 C :   -0.153317
  40 O :   -0.087947
  41 C :    0.073067
  42 C :   -0.072884
  43 C :   -0.035043
  44 C :   -0.169288
  45 S :    0.422283
  46 C :   -0.037515
  47 C :   -0.153968
  48 C :   -0.006662
  49 C :   -0.044419
  50 C :   -0.146330
  51 S :    0.408059
  52 C :   -0.193173
  53 C :   -0.005879
  54 C :   -0.037554
  55 C :   -0.099128
  56 S :    0.402507
  57 C :   -0.071851
  58 C :    0.051394
  59 C :   -0.111488
  60 C :    0.068898
  61 C :   -0.156227
  62 C :   -0.019704
  63 N :   -0.067643
  64 C :   -0.024440
  65 N :   -0.064293
  66 C :   -0.015297
  67 C :   -0.050638
  68 C :    0.078186
  69 O :   -0.162557
  70 C :    0.017015
  71 C :   -0.037586
  72 C :   -0.145179
  73 C :   -0.016470
  74 S :    0.426063
  75 C :   -0.275865
  76 C :   -0.070860
  77 Br:    0.128111
  78 H :    0.042144
  79 H :    0.041451
  80 H :    0.039768
  81 H :    0.048751
  82 H :    0.027225
  83 H :    0.033508
  84 H :    0.022086
  85 H :    0.039538
  86 H :    0.024408
  87 H :    0.010273
  88 H :    0.033334
  89 H :    0.022988
  90 H :    0.025637
  91 H :    0.025403
  92 H :    0.032847
  93 H :    0.001693
  94 H :    0.031516
  95 H :    0.034921
  96 H :    0.020854
  97 H :    0.019733
  98 H :    0.038608
  99 H :    0.038424
 100 H :    0.034796
 101 H :    0.035980
 102 H :    0.040074
 103 H :    0.037690
 104 H :    0.033500
 105 H :    0.038540
 106 H :    0.039632
 107 H :    0.037060

  Mayer bond orders larger than 0.100000
B(  0-C ,  1-C ) :   1.6654 B(  0-C ,  6-C ) :   1.0208 B(  0-C , 18-C ) :   1.0235
B(  1-C ,  2-C ) :   1.1352 B(  1-C ,  4-C ) :   1.1426 B(  2-C ,  3-N ) :   2.9785
B(  4-C ,  5-N ) :   2.9866 B(  6-C ,  7-C ) :   1.2708 B(  6-C , 11-C ) :   1.3968
B(  7-C ,  8-C ) :   1.4234 B(  7-C , 16-C ) :   0.9328 B(  8-C ,  9-C ) :   1.2538
B(  8-C , 78-H ) :   1.0150 B(  9-C , 10-C ) :   1.2961 B(  9-C , 14-C ) :   1.1659
B( 10-C , 11-C ) :   1.3465 B( 10-C , 12-S ) :   1.0845 B( 11-C , 79-H ) :   0.9793
B( 12-S , 13-C ) :   1.0879 B( 13-C , 14-C ) :   1.6143 B( 13-C , 15-Br) :   1.0220
B( 14-C , 80-H ) :   1.0001 B( 16-C , 17-O ) :   2.2656 B( 16-C , 18-C ) :   0.9071
B( 18-C , 19-C ) :   1.8241 B( 19-C , 20-C ) :   0.9560 B( 19-C , 81-H ) :   0.9336
B( 20-C , 21-N ) :   1.4963 B( 20-C , 25-N ) :   1.5299 B( 21-N , 22-C ) :   1.5327
B( 22-C , 23-C ) :   1.3810 B( 22-C , 82-H ) :   0.9795 B( 23-C , 24-C ) :   1.3289
B( 23-C , 83-H ) :   0.9761 B( 24-C , 25-N ) :   1.4974 B( 24-C , 26-C ) :   1.0729
B( 26-C , 27-C ) :   1.7303 B( 26-C , 84-H ) :   0.9735 B( 27-C , 28-C ) :   1.0493
B( 27-C , 85-H ) :   0.9510 B( 28-C , 29-C ) :   1.1414 B( 28-C , 39-C ) :   1.5874
B( 29-C , 30-C ) :   1.3112 B( 29-C , 37-C ) :   1.2689 B( 30-C , 31-O ) :   1.1691
B( 30-C , 34-C ) :   1.3979 B( 31-O , 32-C ) :   0.9055 B( 32-C , 33-C ) :   1.1147
B( 32-C , 86-H ) :   0.9572 B( 32-C , 87-H ) :   0.9429 B( 33-C , 88-H ) :   0.9563
B( 33-C , 89-H ) :   0.9661 B( 33-C , 90-H ) :   0.9615 B( 34-C , 35-C ) :   1.3286
B( 34-C , 45-S ) :   1.0626 B( 35-C , 36-C ) :   1.2696 B( 35-C , 43-C ) :   1.2229
B( 36-C , 37-C ) :   1.3875 B( 36-C , 40-O ) :   1.2338 B( 37-C , 38-S ) :   1.0171
B( 38-S , 39-C ) :   1.1251 B( 39-C , 91-H ) :   0.9577 B( 40-O , 41-C ) :   0.9300
B( 41-C , 42-C ) :   1.1035 B( 41-C , 92-H ) :   0.9548 B( 41-C , 93-H ) :   0.9451
B( 42-C , 94-H ) :   0.9630 B( 42-C , 95-H ) :   0.9620 B( 42-C , 96-H ) :   0.9641
B( 43-C , 44-C ) :   1.4887 B( 43-C , 97-H ) :   0.9840 B( 44-C , 45-S ) :   1.0438
B( 44-C , 46-C ) :   1.1618 B( 46-C , 47-C ) :   1.6043 B( 46-C , 98-H ) :   0.9546
B( 47-C , 48-C ) :   1.1463 B( 47-C , 51-S ) :   1.0296 B( 48-C , 49-C ) :   1.5825
B( 48-C , 99-H ) :   0.9992 B( 49-C , 50-C ) :   1.1941 B( 49-C ,100-H ) :   0.9940
B( 50-C , 51-S ) :   1.0745 B( 50-C , 52-C ) :   1.4696 B( 52-C , 53-C ) :   1.2193
B( 52-C , 56-S ) :   1.0408 B( 53-C , 54-C ) :   1.5417 B( 53-C ,101-H ) :   0.9947
B( 54-C , 55-C ) :   1.1854 B( 54-C ,102-H ) :   1.0008 B( 55-C , 56-S ) :   1.0890
B( 55-C , 57-C ) :   1.4854 B( 57-C , 58-C ) :   1.2351 B( 57-C ,103-H ) :   0.9629
B( 58-C , 59-C ) :   1.5123 B( 58-C ,104-H ) :   0.9383 B( 59-C , 60-C ) :   1.0953
B( 59-C , 68-C ) :   0.9723 B( 60-C , 61-C ) :   1.5904 B( 60-C , 66-C ) :   1.0011
B( 61-C , 62-C ) :   1.1357 B( 61-C , 64-C ) :   1.1689 B( 62-C , 63-N ) :   2.9715
B( 64-C , 65-N ) :   3.0108 B( 66-C , 67-C ) :   1.2778 B( 66-C , 73-C ) :   1.4218
B( 67-C , 68-C ) :   0.9179 B( 67-C , 70-C ) :   1.4347 B( 68-C , 69-O ) :   2.2377
B( 70-C , 71-C ) :   1.2404 B( 70-C ,105-H ) :   1.0164 B( 71-C , 72-C ) :   1.3197
B( 71-C , 76-C ) :   1.1609 B( 72-C , 73-C ) :   1.3176 B( 72-C , 74-S ) :   1.0817
B( 73-C ,106-H ) :   0.9816 B( 74-S , 75-C ) :   1.0854 B( 75-C , 76-C ) :   1.6218
B( 75-C , 77-Br) :   1.0114 B( 76-C ,107-H ) :   1.0001

-----------------------------------------------------------------------------
         ABSORPTION SPECTRUM VIA TRANSITION ELECTRIC DIPOLE MOMENTS
-----------------------------------------------------------------------------
State   Energy  Wavelength   fosc         T2         TX        TY        TZ
        (cm-1)    (nm)                  (au**2)     (au)      (au)      (au)
-----------------------------------------------------------------------------
   0   11543.3    866.3   1.280688551  36.52486   0.11129   4.46246  -4.07418
   1   17840.2    560.5   0.351032492   6.47772   1.41987  -2.09201   0.29189
   2   20064.2    498.4   0.001173816   0.01926  -0.06771   0.01619   0.12005
   3   21586.5    463.3   0.068631554   1.04669   0.56809  -0.30679  -0.79362
   4   23572.5    424.2   0.003316720   0.04632   0.12977  -0.09794  -0.14103
   5   23855.0    419.2   0.023399826   0.32293   0.21378  -0.10085   0.51678
   6   24632.9    406.0   0.079221763   1.05878   0.04901   0.01839  -1.02764
   7   26298.3    380.3   0.401352969   5.02428   1.34749  -1.68916   0.59606
   8   26487.8    377.5   0.749563208   9.31619   2.27865  -0.37357  -1.99610
   9   27540.5    363.1   0.035620163   0.42579  -0.20760  -0.40044   0.47153
  10   27565.7    362.8   0.033008047   0.39421  -0.28760   0.54588   0.11622
  11   27962.6    357.6   0.022164551   0.26095  -0.30116  -0.41105   0.03599
  12   28296.5    353.4   0.344967729   4.01348   0.79805   1.66790  -0.77116
  13   28781.3    347.4   0.001826884   0.02090  -0.13619   0.03040  -0.03773
  14   29505.1    338.9   0.044422717   0.49566   0.05207   0.69927  -0.06304
  15   29607.1    337.8   0.139035113   1.54598   0.89357  -0.86296   0.05300
  16   29907.7    334.4   0.000848419   0.00934  -0.00488   0.06048   0.07522
  17   30165.1    331.5   0.013697964   0.14950  -0.28399   0.22162  -0.14046
  18   30285.8    330.2   0.043126820   0.46880   0.60747   0.15861  -0.27317
  19   30785.2    324.8   0.115531027   1.23547   0.82877   0.19030  -0.71583
  20   30911.0    323.5   0.024511859   0.26106  -0.22690   0.28768   0.35611
  21   31264.7    319.8   0.082075360   0.86424   0.79995  -0.28587  -0.37762
  22   31640.2    316.1   0.066862725   0.69570  -0.18248   0.73750  -0.34423
  23   32113.6    311.4   0.056738913   0.58166   0.67332   0.04282  -0.35563
  24   32384.8    308.8   0.396423842   4.02990  -1.82975   0.81589  -0.12742
  25   32964.7    303.4   0.003707468   0.03703  -0.15202   0.11687   0.01607
  26   33268.1    300.6   0.201024605   1.98928  -1.12556   0.71407  -0.46097
  27   33553.0    298.0   0.000134504   0.00132  -0.01331   0.00917   0.03253
  28   34148.6    292.8   0.000954092   0.00920  -0.06236  -0.07149  -0.01409
  29   34358.7    291.0   0.226629795   2.17148  -0.42984  -1.22516   0.69692
  30   34392.7    290.8   0.397891635   3.80868  -1.31182  -1.34509   0.52775
  31   34618.5    288.9   0.190751022   1.81399  -0.99410   0.90697   0.05623
  32   35220.4    283.9   0.006874317   0.06426   0.18464  -0.10807   0.13595
  33   35647.6    280.5   0.014113713   0.13034   0.12088   0.33824  -0.03641
  34   35734.2    279.8   0.001047466   0.00965   0.02319   0.09348  -0.01934
  35   35821.2    279.2   0.010653241   0.09791   0.08385   0.28751  -0.09062
  36   36342.9    275.2   0.394306988   3.57183   1.46849   0.16215  -1.17858
  37   36615.0    273.1   0.000088207   0.00079  -0.01158  -0.02476  -0.00679
  38   36782.7    271.9   0.104887066   0.93876  -0.89486  -0.14108   0.34362
  39   37284.3    268.2   0.215378049   1.90174   0.58419  -1.24502   0.10189
  40   37665.7    265.5   0.026206568   0.22906   0.16173  -0.45035   0.00919
  41   37837.6    264.3   0.093402992   0.81267   0.24004  -0.55689   0.66703
  42   38124.7    262.3   0.033001773   0.28497   0.46968  -0.20795  -0.14537
  43   38256.0    261.4   0.050790058   0.43707  -0.34463   0.54640  -0.14052
  44   38453.3    260.1   0.067438442   0.57736   0.25346  -0.46619   0.54386
  45   38820.4    257.6   0.326423429   2.76820   0.65778  -1.00058   1.15514
  46   39007.2    256.4   0.317738594   2.68164   0.67511   0.94353  -1.15569
  47   39308.6    254.4   0.012744388   0.10674   0.09101  -0.27531   0.15051
  48   39899.8    250.6   0.002124853   0.01753   0.11586  -0.00228  -0.06406
  49   40170.3    248.9   0.061182354   0.50141  -0.51558   0.47313   0.10837
  50   40245.3    248.5   0.051261874   0.41933  -0.02008  -0.63951   0.09979

FINAL SINGLE POINT ENERGY    -10466.379235440110

DIPOLE MOMENT
-------------
                                X             Y             Z
Electronic contribution:    -57.70016     -21.06391     -13.87731
Nuclear contribution   :     55.05914      17.58189      16.54287
                        -----------------------------------------
Total Dipole Moment    :     -2.64102      -3.48202       2.66556
                        -----------------------------------------
Magnitude (a.u.)       :      5.11905
Magnitude (Debye)      :     13.01159

Rotational constants in cm-1:     0.001325     0.000119     0.000113
Rotational constants in MHz :    39.717203     3.575570     3.372773

                             ****ORCA TERMINATED NORMALLY****
TOTAL RUN TIME: 0 days 0 hours 14 minutes 19 seconds 654 msec
