                         Program Version 4.2.0 -  RELEASE  -
|  1> # ORCA input file
|  2> # SCF done       -185.083745922003          0.000818484361
|  3> ! CAM-B3LYP def2-SVP def2/J RIJCOSX Grid4 TightSCF
|  4> %maxcore 5000
|  5> %tddft
|  6>     Mode sTDDFT
|  7>     Ethresh 5.0
|  8>     maxcore 5000
|  9> end
| 10>
| 11> %pal
| 12>   nprocs 6
| 13>   end
| 14> * xyz 0 1
| 15>    O        0.60265         1.23672         3.64870
| 16>    C       -0.15921         1.39257         2.53360
| 17>    N       -0.74564         0.29431         2.15672
| 18>    C       -0.35832        -0.65320         3.06528
| 19>    C        0.47411        -0.05266         3.98004
| 20>    C       -0.80356        -2.03943         2.98682
| 21>    O       -0.48654        -2.90444         3.76111
| 22>    C       -0.24977         2.66039         1.89065
| 23>    C       -0.98560         2.95615         0.76305
| 24>    C       -0.83166         4.29347         0.39177
| 25>    C        0.02751         5.00214         1.25088
| 26>    S        0.64091         4.03175         2.51256
| 27>    C        0.13499         6.33810         0.78277
| 28>    C       -0.65491         6.47238        -0.36958
| 29>    C       -1.29400         5.19379        -0.65089
| 30>    C       -2.14313         4.90984        -1.67871
| 31>    C       -2.51386         5.88427        -2.63023
| 32>    N       -2.81417         6.67728        -3.40141
| 33>    C       -2.70897         3.62967        -1.86215
| 34>    N       -3.17400         2.59452        -2.02240
| 35>    C       -0.59877         7.75153        -0.92150
| 36>    C        0.22923         8.59039        -0.19746
| 37>    S        0.94347         7.78715         1.19193
| 38>    C        0.54206         9.94342        -0.48498
| 39>    C        1.36999        10.79399         0.22449
| 40>    C        1.46416        12.04991        -0.37573
| 41>    C        0.69957        12.15061        -1.55153
| 42>    S       -0.13734        10.70814        -1.91524
| 43>    C        0.87280        13.44672        -2.09356
| 44>    C        1.74530        14.17056        -1.26238
| 45>    C        2.14446        13.31552        -0.15338
| 46>    C        2.98573        13.63407         0.87165
| 47>    C        3.59340        14.90334         0.97328
| 48>    N        4.08739        15.93501         1.05232
| 49>    C        3.30345        12.71385         1.89288
| 50>    N        3.56107        11.96602         2.72283
| 51>    C        1.98829        15.46228        -1.72451
| 52>    C        1.31283        15.73024        -2.90349
| 53>    S        0.35414        14.35270        -3.44159
| 54>    C        1.33063        16.92970        -3.67092
| 55>    C        0.64507        17.05451        -4.85861
| 56>    C        0.63564        18.19283        -5.65521
| 57>    C        1.37841        19.39463        -5.27554
| 58>    C        2.11824        19.49826        -4.14821
| 59>    S        2.29493        18.23597        -3.00169
| 60>    C        1.13626        20.33072        -6.31834
| 61>    C        0.30475        19.76675        -7.29045
| 62>    C        0.04604        20.67235        -8.34407
| 63>    C        0.67132        21.86275        -8.14585
| 64>    S        1.59547        21.94314        -6.68615
| 65>    C       -0.02148        18.41819        -6.88900
| 66>    C       -0.81915        17.47014        -7.54778
| 67>    C       -1.46007        17.63929        -8.74578
| 68>    C       -2.22754        16.61108        -9.30899
| 69>    C       -2.89545        16.69041       -10.50795
| 70>    C       -3.69169        15.65202       -11.12074
| 71>    C       -3.94890        14.39743       -10.62192
| 72>    C       -4.73872        13.43151       -11.27760
| 73>    N       -5.36982        12.60036       -11.75724
| 74>    C       -3.47433        13.88575        -9.39778
| 75>    N       -3.13037        13.39413        -8.41747
| 76>    C       -4.19457        16.16995       -12.39047
| 77>    C       -3.72828        17.49660       -12.55734
| 78>    C       -2.90295        17.87416       -11.39133
| 79>    O       -2.35333        18.94545       -11.21951
| 80>    C       -4.03352        18.25635       -13.65945
| 81>    C       -4.83842        17.67958       -14.64790
| 82>    C       -5.29899        16.35382       -14.47330
| 83>    C       -4.99032        15.58535       -13.35737
| 84>    S       -6.27747        15.83505       -15.81276
| 85>    C       -6.05691        17.38586       -16.57812
| 86>    C       -5.29107        18.24890       -15.86968
| 87>   Br       -6.85892        17.71941       -18.24094
| 88>    H        0.99133        -0.42276         4.84093
| 89>    H       -1.47591        -2.22422         2.13149
| 90>    H       -1.58587         2.22007         0.26168
| 91>    H       -1.12279         8.07003        -1.80472
| 92>    H        1.87333        10.49781         1.12736
| 93>    H        2.62597        16.17996        -1.24049
| 94>    H        0.08043        16.19050        -5.18348
| 95>    H        2.65887        20.39420        -3.88728
| 96>    H       -0.56255        20.47859        -9.20769
| 97>    H        0.64941        22.72602        -8.78178
| 98>    H       -0.93252        16.51086        -7.05611
| 99>    H       -1.38433        18.56843        -9.28317
|100>    H       -2.28788        15.68794        -8.74723
|101>    H       -3.66292        19.26471       -13.75744
|102>    H       -5.36646        14.57975       -13.27284
|103>    H       -5.05396        19.24578       -16.19352
|104> *
|105>
|106>                          ****END OF INPUT****

CARTESIAN COORDINATES (ANGSTROEM)
---------------------------------
  O      0.602650    1.236720    3.648700
  C     -0.159210    1.392570    2.533600
  N     -0.745640    0.294310    2.156720
  C     -0.358320   -0.653200    3.065280
  C      0.474110   -0.052660    3.980040
  C     -0.803560   -2.039430    2.986820
  O     -0.486540   -2.904440    3.761110
  C     -0.249770    2.660390    1.890650
  C     -0.985600    2.956150    0.763050
  C     -0.831660    4.293470    0.391770
  C      0.027510    5.002140    1.250880
  S      0.640910    4.031750    2.512560
  C      0.134990    6.338100    0.782770
  C     -0.654910    6.472380   -0.369580
  C     -1.294000    5.193790   -0.650890
  C     -2.143130    4.909840   -1.678710
  C     -2.513860    5.884270   -2.630230
  N     -2.814170    6.677280   -3.401410
  C     -2.708970    3.629670   -1.862150
  N     -3.174000    2.594520   -2.022400
  C     -0.598770    7.751530   -0.921500
  C      0.229230    8.590390   -0.197460
  S      0.943470    7.787150    1.191930
  C      0.542060    9.943420   -0.484980
  C      1.369990   10.793990    0.224490
  C      1.464160   12.049910   -0.375730
  C      0.699570   12.150610   -1.551530
  S     -0.137340   10.708140   -1.915240
  C      0.872800   13.446720   -2.093560
  C      1.745300   14.170560   -1.262380
  C      2.144460   13.315520   -0.153380
  C      2.985730   13.634070    0.871650
  C      3.593400   14.903340    0.973280
  N      4.087390   15.935010    1.052320
  C      3.303450   12.713850    1.892880
  N      3.561070   11.966020    2.722830
  C      1.988290   15.462280   -1.724510
  C      1.312830   15.730240   -2.903490
  S      0.354140   14.352700   -3.441590
  C      1.330630   16.929700   -3.670920
  C      0.645070   17.054510   -4.858610
  C      0.635640   18.192830   -5.655210
  C      1.378410   19.394630   -5.275540
  C      2.118240   19.498260   -4.148210
  S      2.294930   18.235970   -3.001690
  C      1.136260   20.330720   -6.318340
  C      0.304750   19.766750   -7.290450
  C      0.046040   20.672350   -8.344070
  C      0.671320   21.862750   -8.145850
  S      1.595470   21.943140   -6.686150
  C     -0.021480   18.418190   -6.889000
  C     -0.819150   17.470140   -7.547780
  C     -1.460070   17.639290   -8.745780
  C     -2.227540   16.611080   -9.308990
  C     -2.895450   16.690410  -10.507950
  C     -3.691690   15.652020  -11.120740
  C     -3.948900   14.397430  -10.621920
  C     -4.738720   13.431510  -11.277600
  N     -5.369820   12.600360  -11.757240
  C     -3.474330   13.885750   -9.397780
  N     -3.130370   13.394130   -8.417470
  C     -4.194570   16.169950  -12.390470
  C     -3.728280   17.496600  -12.557340
  C     -2.902950   17.874160  -11.391330
  O     -2.353330   18.945450  -11.219510
  C     -4.033520   18.256350  -13.659450
  C     -4.838420   17.679580  -14.647900
  C     -5.298990   16.353820  -14.473300
  C     -4.990320   15.585350  -13.357370
  S     -6.277470   15.835050  -15.812760
  C     -6.056910   17.385860  -16.578120
  C     -5.291070   18.248900  -15.869680
  Br    -6.858920   17.719410  -18.240940
  H      0.991330   -0.422760    4.840930
  H     -1.475910   -2.224220    2.131490
  H     -1.585870    2.220070    0.261680
  H     -1.122790    8.070030   -1.804720
  H      1.873330   10.497810    1.127360
  H      2.625970   16.179960   -1.240490
  H      0.080430   16.190500   -5.183480
  H      2.658870   20.394200   -3.887280
  H     -0.562550   20.478590   -9.207690
  H      0.649410   22.726020   -8.781780
  H     -0.932520   16.510860   -7.056110
  H     -1.384330   18.568430   -9.283170
  H     -2.287880   15.687940   -8.747230
  H     -3.662920   19.264710  -13.757440
  H     -5.366460   14.579750  -13.272840
  H     -5.053960   19.245780  -16.193520

 Total Charge           Charge          ....    0
 Multiplicity           Mult            ....    1
 Number of Electrons    NEL             ....  566
 Basis Dimension        Dim             .... 1148

ORBITAL ENERGIES
----------------

  NO   OCC          E(Eh)            E(eV)
   0   2.0000    -482.880546    -13139.8477
   1   2.0000     -89.003219     -2421.9007
   2   2.0000     -89.001530     -2421.8548
   3   2.0000     -89.001454     -2421.8527
   4   2.0000     -89.000665     -2421.8312
   5   2.0000     -88.996994     -2421.7313
   6   2.0000     -88.968816     -2420.9646
   7   2.0000     -88.965045     -2420.8620
   8   2.0000     -62.558236     -1702.2961
   9   2.0000     -56.392181     -1534.5093
  10   2.0000     -56.389477     -1534.4357
  11   2.0000     -56.389442     -1534.4347
  12   2.0000     -19.328883      -525.9656
  13   2.0000     -19.216438      -522.9059
  14   2.0000     -19.206639      -522.6392
  15   2.0000     -14.441172      -392.9643
  16   2.0000     -14.441087      -392.9620
  17   2.0000     -14.436344      -392.8329
  18   2.0000     -14.434640      -392.7865
  19   2.0000     -14.425276      -392.5317
  20   2.0000     -14.407149      -392.0385
  21   2.0000     -14.403652      -391.9433
  22   2.0000     -10.387932      -282.6700
  23   2.0000     -10.376375      -282.3555
  24   2.0000     -10.372333      -282.2455
  25   2.0000     -10.363369      -282.0016
  26   2.0000     -10.361231      -281.9434
  27   2.0000     -10.358602      -281.8719
  28   2.0000     -10.356701      -281.8202
  29   2.0000     -10.356698      -281.8201
  30   2.0000     -10.352510      -281.7061
  31   2.0000     -10.350827      -281.6603
  32   2.0000     -10.345775      -281.5229
  33   2.0000     -10.344669      -281.4928
  34   2.0000     -10.342983      -281.4469
  35   2.0000     -10.342674      -281.4385
  36   2.0000     -10.341310      -281.4013
  37   2.0000     -10.341278      -281.4005
  38   2.0000     -10.341185      -281.3979
  39   2.0000     -10.340987      -281.3926
  40   2.0000     -10.340740      -281.3859
  41   2.0000     -10.340036      -281.3667
  42   2.0000     -10.336232      -281.2632
  43   2.0000     -10.334219      -281.2084
  44   2.0000     -10.334166      -281.2070
  45   2.0000     -10.330080      -281.0958
  46   2.0000     -10.328314      -281.0477
  47   2.0000     -10.317667      -280.7580
  48   2.0000     -10.316124      -280.7160
  49   2.0000     -10.315767      -280.7063
  50   2.0000     -10.315336      -280.6946
  51   2.0000     -10.315175      -280.6902
  52   2.0000     -10.315032      -280.6863
  53   2.0000     -10.313493      -280.6444
  54   2.0000     -10.313453      -280.6433
  55   2.0000     -10.313443      -280.6431
  56   2.0000     -10.311667      -280.5947
  57   2.0000     -10.311603      -280.5930
  58   2.0000     -10.311229      -280.5828
  59   2.0000     -10.311166      -280.5811
  60   2.0000     -10.309572      -280.5377
  61   2.0000     -10.307594      -280.4839
  62   2.0000     -10.302789      -280.3531
  63   2.0000     -10.302188      -280.3368
  64   2.0000     -10.300945      -280.3030
  65   2.0000     -10.299890      -280.2743
  66   2.0000     -10.298827      -280.2453
  67   2.0000     -10.297894      -280.2199
  68   2.0000     -10.296735      -280.1884
  69   2.0000     -10.292808      -280.0816
  70   2.0000     -10.290591      -280.0212
  71   2.0000     -10.288748      -279.9711
  72   2.0000     -10.285867      -279.8927
  73   2.0000     -10.282953      -279.8134
  74   2.0000     -10.280996      -279.7601
  75   2.0000     -10.279461      -279.7183
  76   2.0000     -10.271504      -279.5018
  77   2.0000      -8.787642      -239.1239
  78   2.0000      -8.097486      -220.3438
  79   2.0000      -8.096032      -220.3042
  80   2.0000      -8.095932      -220.3015
  81   2.0000      -8.095145      -220.2801
  82   2.0000      -8.092003      -220.1946
  83   2.0000      -8.064847      -219.4556
  84   2.0000      -8.060523      -219.3380
  85   2.0000      -6.623911      -180.2458
  86   2.0000      -6.609396      -179.8508
  87   2.0000      -6.609199      -179.8454
  88   2.0000      -6.066769      -165.0852
  89   2.0000      -6.065228      -165.0433
  90   2.0000      -6.065226      -165.0432
  91   2.0000      -6.064463      -165.0224
  92   2.0000      -6.062628      -164.9725
  93   2.0000      -6.061569      -164.9437
  94   2.0000      -6.061056      -164.9297
  95   2.0000      -6.061036      -164.9292
  96   2.0000      -6.060281      -164.9086
  97   2.0000      -6.059750      -164.8942
  98   2.0000      -6.058460      -164.8591
  99   2.0000      -6.058178      -164.8514
 100   2.0000      -6.057367      -164.8293
 101   2.0000      -6.056927      -164.8174
 102   2.0000      -6.054020      -164.7383
 103   2.0000      -6.034524      -164.2077
 104   2.0000      -6.030278      -164.0922
 105   2.0000      -6.029951      -164.0833
 106   2.0000      -6.026056      -163.9773
 107   2.0000      -6.025666      -163.9667
 108   2.0000      -6.022602      -163.8833
 109   2.0000      -2.739789       -74.5535
 110   2.0000      -2.735701       -74.4422
 111   2.0000      -2.735579       -74.4389
 112   2.0000      -2.724031       -74.1246
 113   2.0000      -2.724020       -74.1244
 114   2.0000      -1.257041       -34.2058
 115   2.0000      -1.130008       -30.7491
 116   2.0000      -1.119730       -30.4694
 117   2.0000      -1.057558       -28.7776
 118   2.0000      -1.053251       -28.6604
 119   2.0000      -1.035353       -28.1734
 120   2.0000      -1.033264       -28.1165
 121   2.0000      -1.028002       -27.9733
 122   2.0000      -1.023599       -27.8535
 123   2.0000      -1.018650       -27.7189
 124   2.0000      -1.015286       -27.6273
 125   2.0000      -1.014268       -27.5996
 126   2.0000      -1.012606       -27.5544
 127   2.0000      -1.004568       -27.3357
 128   2.0000      -1.004151       -27.3243
 129   2.0000      -0.986453       -26.8427
 130   2.0000      -0.984653       -26.7938
 131   2.0000      -0.979661       -26.6579
 132   2.0000      -0.970962       -26.4212
 133   2.0000      -0.963836       -26.2273
 134   2.0000      -0.943656       -25.6782
 135   2.0000      -0.935177       -25.4475
 136   2.0000      -0.931134       -25.3374
 137   2.0000      -0.922913       -25.1137
 138   2.0000      -0.910188       -24.7675
 139   2.0000      -0.901425       -24.5290
 140   2.0000      -0.899797       -24.4847
 141   2.0000      -0.892936       -24.2980
 142   2.0000      -0.882344       -24.0098
 143   2.0000      -0.878109       -23.8946
 144   2.0000      -0.876662       -23.8552
 145   2.0000      -0.875591       -23.8261
 146   2.0000      -0.869833       -23.6694
 147   2.0000      -0.861811       -23.4511
 148   2.0000      -0.854636       -23.2558
 149   2.0000      -0.844079       -22.9686
 150   2.0000      -0.830090       -22.5879
 151   2.0000      -0.821423       -22.3521
 152   2.0000      -0.820592       -22.3294
 153   2.0000      -0.802760       -21.8442
 154   2.0000      -0.794078       -21.6080
 155   2.0000      -0.788286       -21.4503
 156   2.0000      -0.782784       -21.3006
 157   2.0000      -0.774493       -21.0750
 158   2.0000      -0.766207       -20.8495
 159   2.0000      -0.755449       -20.5568
 160   2.0000      -0.749230       -20.3876
 161   2.0000      -0.732655       -19.9366
 162   2.0000      -0.728164       -19.8143
 163   2.0000      -0.716453       -19.4957
 164   2.0000      -0.707395       -19.2492
 165   2.0000      -0.705414       -19.1953
 166   2.0000      -0.698603       -19.0099
 167   2.0000      -0.695380       -18.9223
 168   2.0000      -0.687776       -18.7153
 169   2.0000      -0.685193       -18.6450
 170   2.0000      -0.683200       -18.5908
 171   2.0000      -0.671858       -18.2822
 172   2.0000      -0.666067       -18.1246
 173   2.0000      -0.663230       -18.0474
 174   2.0000      -0.652933       -17.7672
 175   2.0000      -0.647805       -17.6277
 176   2.0000      -0.643540       -17.5116
 177   2.0000      -0.637058       -17.3352
 178   2.0000      -0.635568       -17.2947
 179   2.0000      -0.632519       -17.2117
 180   2.0000      -0.629810       -17.1380
 181   2.0000      -0.626356       -17.0440
 182   2.0000      -0.621600       -16.9146
 183   2.0000      -0.615355       -16.7447
 184   2.0000      -0.611414       -16.6374
 185   2.0000      -0.602068       -16.3831
 186   2.0000      -0.598851       -16.2956
 187   2.0000      -0.598426       -16.2840
 188   2.0000      -0.587586       -15.9890
 189   2.0000      -0.584387       -15.9020
 190   2.0000      -0.578278       -15.7358
 191   2.0000      -0.577265       -15.7082
 192   2.0000      -0.570466       -15.5232
 193   2.0000      -0.567141       -15.4327
 194   2.0000      -0.560240       -15.2449
 195   2.0000      -0.559404       -15.2222
 196   2.0000      -0.554211       -15.0809
 197   2.0000      -0.553911       -15.0727
 198   2.0000      -0.543020       -14.7763
 199   2.0000      -0.539635       -14.6842
 200   2.0000      -0.532938       -14.5020
 201   2.0000      -0.530557       -14.4372
 202   2.0000      -0.530109       -14.4250
 203   2.0000      -0.529089       -14.3972
 204   2.0000      -0.526774       -14.3343
 205   2.0000      -0.526364       -14.3231
 206   2.0000      -0.518096       -14.0981
 207   2.0000      -0.518085       -14.0978
 208   2.0000      -0.516439       -14.0530
 209   2.0000      -0.513340       -13.9687
 210   2.0000      -0.512091       -13.9347
 211   2.0000      -0.509409       -13.8617
 212   2.0000      -0.506130       -13.7725
 213   2.0000      -0.504476       -13.7275
 214   2.0000      -0.501987       -13.6598
 215   2.0000      -0.501054       -13.6344
 216   2.0000      -0.499723       -13.5981
 217   2.0000      -0.497651       -13.5418
 218   2.0000      -0.495722       -13.4893
 219   2.0000      -0.493573       -13.4308
 220   2.0000      -0.490166       -13.3381
 221   2.0000      -0.488492       -13.2925
 222   2.0000      -0.484781       -13.1916
 223   2.0000      -0.484728       -13.1901
 224   2.0000      -0.484179       -13.1752
 225   2.0000      -0.481278       -13.0962
 226   2.0000      -0.472298       -12.8519
 227   2.0000      -0.471697       -12.8355
 228   2.0000      -0.470407       -12.8004
 229   2.0000      -0.468185       -12.7400
 230   2.0000      -0.466041       -12.6816
 231   2.0000      -0.465439       -12.6652
 232   2.0000      -0.462373       -12.5818
 233   2.0000      -0.460172       -12.5219
 234   2.0000      -0.458535       -12.4774
 235   2.0000      -0.453410       -12.3379
 236   2.0000      -0.451532       -12.2868
 237   2.0000      -0.451064       -12.2741
 238   2.0000      -0.450895       -12.2695
 239   2.0000      -0.449660       -12.2359
 240   2.0000      -0.447161       -12.1679
 241   2.0000      -0.445198       -12.1145
 242   2.0000      -0.443790       -12.0762
 243   2.0000      -0.442650       -12.0451
 244   2.0000      -0.442380       -12.0378
 245   2.0000      -0.440789       -11.9945
 246   2.0000      -0.440318       -11.9817
 247   2.0000      -0.438279       -11.9262
 248   2.0000      -0.436292       -11.8721
 249   2.0000      -0.434283       -11.8174
 250   2.0000      -0.432262       -11.7624
 251   2.0000      -0.431243       -11.7347
 252   2.0000      -0.430862       -11.7243
 253   2.0000      -0.424586       -11.5536
 254   2.0000      -0.424446       -11.5498
 255   2.0000      -0.418037       -11.3754
 256   2.0000      -0.415345       -11.3021
 257   2.0000      -0.414130       -11.2691
 258   2.0000      -0.411949       -11.2097
 259   2.0000      -0.408453       -11.1146
 260   2.0000      -0.398017       -10.8306
 261   2.0000      -0.394889       -10.7455
 262   2.0000      -0.392319       -10.6756
 263   2.0000      -0.389067       -10.5870
 264   2.0000      -0.379348       -10.3226
 265   2.0000      -0.371985       -10.1222
 266   2.0000      -0.370034       -10.0691
 267   2.0000      -0.363137        -9.8815
 268   2.0000      -0.360223        -9.8022
 269   2.0000      -0.357855        -9.7377
 270   2.0000      -0.342844        -9.3293
 271   2.0000      -0.340649        -9.2695
 272   2.0000      -0.337428        -9.1819
 273   2.0000      -0.332268        -9.0415
 274   2.0000      -0.329987        -8.9794
 275   2.0000      -0.326382        -8.8813
 276   2.0000      -0.310423        -8.4470
 277   2.0000      -0.308059        -8.3827
 278   2.0000      -0.306049        -8.3280
 279   2.0000      -0.287444        -7.8217
 280   2.0000      -0.284206        -7.7336
 281   2.0000      -0.260497        -7.0885
 282   2.0000      -0.237629        -6.4662
 283   0.0000      -0.119305        -3.2465
 284   0.0000      -0.110912        -3.0181
 285   0.0000      -0.096592        -2.6284
 286   0.0000      -0.062396        -1.6979
 287   0.0000      -0.053299        -1.4504

MULLIKEN ATOMIC CHARGES
-----------------------
   0 O :   -0.175436
   1 C :    0.095119
   2 N :   -0.073303
   3 C :   -0.044860
   4 C :    0.134528
   5 C :    0.171063
   6 O :   -0.175142
   7 C :   -0.104145
   8 C :   -0.033038
   9 C :    0.008552
  10 C :   -0.092502
  11 S :    0.227199
  12 C :   -0.098921
  13 C :    0.020825
  14 C :    0.297151
  15 C :   -0.290359
  16 C :   -0.188010
  17 N :    0.175270
  18 C :   -0.192050
  19 N :    0.189248
  20 C :   -0.068458
  21 C :   -0.047415
  22 S :    0.198717
  23 C :   -0.049483
  24 C :   -0.065526
  25 C :    0.016373
  26 C :   -0.097481
  27 S :    0.206949
  28 C :   -0.087102
  29 C :    0.017944
  30 C :    0.298956
  31 C :   -0.292495
  32 C :   -0.186880
  33 N :    0.176262
  34 C :   -0.185509
  35 N :    0.173217
  36 C :   -0.054506
  37 C :   -0.068590
  38 S :    0.185868
  39 C :   -0.012030
  40 C :   -0.097578
  41 C :    0.078712
  42 C :    0.058160
  43 C :   -0.115854
  44 S :    0.152929
  45 C :   -0.115484
  46 C :    0.058536
  47 C :   -0.012931
  48 C :   -0.063477
  49 S :    0.134584
  50 C :    0.105325
  51 C :   -0.004849
  52 C :   -0.018684
  53 C :   -0.033312
  54 C :   -0.080628
  55 C :    0.340771
  56 C :   -0.366336
  57 C :   -0.187471
  58 N :    0.139359
  59 C :   -0.186255
  60 N :    0.130602
  61 C :    0.008341
  62 C :   -0.005482
  63 C :    0.142413
  64 O :   -0.168411
  65 C :   -0.076658
  66 C :    0.117174
  67 C :   -0.092667
  68 C :   -0.020475
  69 S :    0.182292
  70 C :   -0.124711
  71 C :    0.040016
  72 Br:    0.017880
  73 H :    0.037104
  74 H :   -0.005503
  75 H :    0.027341
  76 H :    0.015389
  77 H :    0.011422
  78 H :    0.022066
  79 H :    0.002161
  80 H :    0.044096
  81 H :    0.016126
  82 H :    0.030867
  83 H :   -0.019380
  84 H :    0.005153
  85 H :   -0.000794
  86 H :   -0.016002
  87 H :   -0.009653
  88 H :   -0.006229
Sum of atomic charges:   -0.0000000

LOEWDIN ATOMIC CHARGES
----------------------
   0 O :    0.019055
   1 C :    0.025852
   2 N :   -0.094901
   3 C :   -0.103124
   4 C :    0.072512
   5 C :    0.105659
   6 O :   -0.129415
   7 C :   -0.197875
   8 C :    0.002660
   9 C :   -0.071170
  10 C :   -0.174869
  11 S :    0.497705
  12 C :   -0.182537
  13 C :   -0.062825
  14 C :    0.078800
  15 C :   -0.094246
  16 C :   -0.016474
  17 N :   -0.027072
  18 C :   -0.019542
  19 N :   -0.021210
  20 C :   -0.037383
  21 C :   -0.179459
  22 S :    0.485325
  23 C :   -0.175412
  24 C :   -0.038424
  25 C :   -0.064597
  26 C :   -0.182236
  27 S :    0.494442
  28 C :   -0.171822
  29 C :   -0.069704
  30 C :    0.081952
  31 C :   -0.098306
  32 C :   -0.016429
  33 N :   -0.029241
  34 C :   -0.016275
  35 N :   -0.029756
  36 C :   -0.032731
  37 C :   -0.185035
  38 S :    0.491073
  39 C :   -0.168844
  40 C :   -0.035067
  41 C :    0.008591
  42 C :   -0.046302
  43 C :   -0.136777
  44 S :    0.482361
  45 C :   -0.203893
  46 C :   -0.031106
  47 C :   -0.058651
  48 C :   -0.158924
  49 S :    0.428038
  50 C :   -0.059866
  51 C :    0.037797
  52 C :   -0.049691
  53 C :    0.066972
  54 C :   -0.112924
  55 C :    0.077001
  56 C :   -0.153761
  57 C :   -0.018945
  58 N :   -0.064038
  59 C :   -0.017482
  60 N :   -0.069100
  61 C :   -0.019500
  62 C :   -0.049008
  63 C :    0.084877
  64 O :   -0.161896
  65 C :    0.018265
  66 C :   -0.034719
  67 C :   -0.145299
  68 C :   -0.011433
  69 S :    0.429692
  70 C :   -0.273545
  71 C :   -0.071016
  72 Br:    0.132335
  73 H :    0.037129
  74 H :    0.004352
  75 H :    0.050410
  76 H :    0.036372
  77 H :    0.036294
  78 H :    0.036158
  79 H :    0.028841
  80 H :    0.040449
  81 H :    0.039664
  82 H :    0.026166
  83 H :    0.031155
  84 H :    0.029980
  85 H :    0.038958
  86 H :    0.038861
  87 H :    0.040432
  88 H :    0.037677

  Mayer bond orders larger than 0.100000
B(  0-O ,  1-C ) :   1.2068 B(  0-O ,  4-C ) :   1.1530 B(  1-C ,  2-N ) :   1.7775
B(  1-C ,  7-C ) :   1.0459 B(  2-N ,  3-C ) :   1.2960 B(  3-C ,  4-C ) :   1.5185
B(  3-C ,  5-C ) :   0.9662 B(  4-C , 73-H ) :   0.9903 B(  5-C ,  6-O ) :   2.2046
B(  5-C , 74-H ) :   0.9524 B(  7-C ,  8-C ) :   1.4966 B(  7-C , 11-S ) :   1.1006
B(  8-C ,  9-C ) :   1.2658 B(  8-C , 75-H ) :   1.0081 B(  9-C , 10-C ) :   1.4380
B(  9-C , 14-C ) :   0.9907 B( 10-C , 11-S ) :   1.1322 B( 10-C , 12-C ) :   1.1849
B( 12-C , 13-C ) :   1.4529 B( 12-C , 22-S ) :   1.1167 B( 13-C , 14-C ) :   0.9927
B( 13-C , 20-C ) :   1.3022 B( 14-C , 15-C ) :   1.7242 B( 15-C , 16-C ) :   1.1312
B( 15-C , 18-C ) :   1.1327 B( 16-C , 17-N ) :   2.9885 B( 18-C , 19-N ) :   3.0003
B( 20-C , 21-C ) :   1.4553 B( 20-C , 76-H ) :   0.9862 B( 21-C , 22-S ) :   1.1116
B( 21-C , 23-C ) :   1.1683 B( 23-C , 24-C ) :   1.4564 B( 23-C , 27-S ) :   1.1138
B( 24-C , 25-C ) :   1.3005 B( 24-C , 77-H ) :   0.9885 B( 25-C , 26-C ) :   1.4431
B( 25-C , 30-C ) :   0.9934 B( 26-C , 27-S ) :   1.1205 B( 26-C , 28-C ) :   1.1863
B( 28-C , 29-C ) :   1.4371 B( 28-C , 38-S ) :   1.1359 B( 29-C , 30-C ) :   0.9973
B( 29-C , 36-C ) :   1.3101 B( 30-C , 31-C ) :   1.7168 B( 31-C , 32-C ) :   1.1324
B( 31-C , 34-C ) :   1.1309 B( 32-C , 33-N ) :   2.9903 B( 34-C , 35-N ) :   2.9915
B( 36-C , 37-C ) :   1.4514 B( 36-C , 78-H ) :   0.9798 B( 37-C , 38-S ) :   1.1022
B( 37-C , 39-C ) :   1.1687 B( 39-C , 40-C ) :   1.4961 B( 39-C , 44-S ) :   1.0797
B( 40-C , 41-C ) :   1.2840 B( 40-C , 79-H ) :   0.9578 B( 41-C , 42-C ) :   1.0646
B( 41-C , 50-C ) :   1.3244 B( 42-C , 43-C ) :   1.5946 B( 42-C , 45-C ) :   1.1751
B( 43-C , 44-S ) :   1.1467 B( 43-C , 80-H ) :   0.9391 B( 45-C , 46-C ) :   1.4509
B( 45-C , 49-S ) :   1.0827 B( 46-C , 47-C ) :   1.2227 B( 46-C , 50-C ) :   1.0698
B( 47-C , 48-C ) :   1.5868 B( 47-C , 81-H ) :   0.9992 B( 48-C , 49-S ) :   1.1558
B( 48-C , 82-H ) :   0.9622 B( 50-C , 51-C ) :   1.1871 B( 51-C , 52-C ) :   1.4627
B( 51-C , 83-H ) :   0.9746 B( 52-C , 53-C ) :   1.2220 B( 52-C , 84-H ) :   0.9951
B( 53-C , 54-C ) :   1.4548 B( 53-C , 85-H ) :   0.9634 B( 54-C , 55-C ) :   1.0916
B( 54-C , 63-C ) :   0.9653 B( 55-C , 56-C ) :   1.5969 B( 55-C , 61-C ) :   0.9938
B( 56-C , 57-C ) :   1.1454 B( 56-C , 59-C ) :   1.1557 B( 57-C , 58-N ) :   2.9634
B( 59-C , 60-N ) :   2.9539 B( 61-C , 62-C ) :   1.2797 B( 61-C , 68-C ) :   1.4154
B( 62-C , 63-C ) :   0.9406 B( 62-C , 65-C ) :   1.4254 B( 63-C , 64-O ) :   2.1809
B( 65-C , 66-C ) :   1.2419 B( 65-C , 86-H ) :   1.0160 B( 66-C , 67-C ) :   1.3141
B( 66-C , 71-C ) :   1.1610 B( 67-C , 68-C ) :   1.3254 B( 67-C , 69-S ) :   1.0834
B( 68-C , 87-H ) :   0.9784 B( 69-S , 70-C ) :   1.0870 B( 70-C , 71-C ) :   1.6180
B( 70-C , 72-Br) :   1.0155 B( 71-C , 88-H ) :   1.0003

-----------------------------------------------------------------------------
         ABSORPTION SPECTRUM VIA TRANSITION ELECTRIC DIPOLE MOMENTS
-----------------------------------------------------------------------------
State   Energy  Wavelength   fosc         T2         TX        TY        TZ
        (cm-1)    (nm)                  (au**2)     (au)      (au)      (au)
-----------------------------------------------------------------------------
   0   10511.5    951.3   0.298025573   9.33391   0.36263  -2.28930   1.99035
   1   12942.9    772.6   0.137868438   3.50678  -0.01543   1.64559  -0.89363
   2   15536.1    643.7   0.982090327  20.81062  -2.30880   0.17057  -3.93077
   3   16637.5    601.1   0.108383741   2.14462   0.36126  -0.89835   1.09868
   4   20029.0    499.3   0.024783383   0.40736   0.27034   0.57604   0.04956
   5   22725.1    440.0   1.042663773  15.10480  -1.56889  -3.53644  -0.37014
   6   22923.5    436.2   0.037724708   0.54178   0.42833  -0.03830   0.59736
   7   23032.6    434.2   0.162336670   2.32033   0.38294   1.44854  -0.27465
   8   24585.6    406.7   0.168556978   2.25706  -0.57187   0.53855  -1.28062
   9   25460.3    392.8   0.053017423   0.68554  -0.10846  -0.76879   0.28764
  10   26388.8    378.9   0.151824478   1.89408  -0.18872  -1.27528   0.48179
  11   26562.2    376.5   0.790698517   9.79993   0.38247   2.91698  -1.07000
  12   26752.1    373.8   0.149731209   1.84260   0.71520   0.42298   1.07339
  13   27560.8    362.8   0.032395561   0.38696  -0.35473  -0.02165  -0.51055
  14   28738.1    348.0   0.000138168   0.00158   0.02162   0.02225   0.02491
  15   28963.1    345.3   0.329092905   3.74067   0.94094   1.45650   0.85668
  16   29223.6    342.2   0.243458016   2.74262  -0.33510   1.09398  -1.19731
  17   29983.9    333.5   0.007800575   0.08565   0.08962   0.26941  -0.07096
  18   30407.2    328.9   0.096586006   1.04572  -0.58896  -0.23616  -0.80191
  19   30568.8    327.1   0.019178016   0.20654   0.28659   0.16805   0.31011
  20   31305.1    319.4   0.099003636   1.04115  -0.59553  -0.17232  -0.81043
  21   31739.3    315.1   0.189684853   1.96748   0.68736  -0.28398   1.18927
  22   31881.3    313.7   1.084948742  11.20338   2.08021   0.50787   2.57258
  23   32050.5    312.0   0.158439214   1.62743   0.62224  -0.35885   1.05427
  24   32408.5    308.6   0.000274283   0.00279  -0.00903  -0.03326   0.03998
  25   32601.7    306.7   0.072609640   0.73321  -0.45663  -0.20980  -0.69332
  26   32675.4    306.0   0.163207973   1.64435  -0.04243   1.03178  -0.76025
  27   32820.9    304.7   0.418203639   4.19481   0.41466  -1.23559   1.57993
  28   33049.6    302.6   0.283488952   2.82387   0.23993   1.59815  -0.46069
  29   33153.4    301.6   0.055198029   0.54811  -0.24682   0.10242  -0.69044
  30   33720.5    296.6   0.065243288   0.63697   0.09584   0.77993  -0.13961
  31   33994.9    294.2   0.148411244   1.43724  -0.33099   0.62117  -0.97048
  32   34399.2    290.7   0.105256356   1.00734  -0.14571   0.75641  -0.64340
  33   34662.9    288.5   0.086956425   0.82587  -0.08292   0.66060  -0.61855
  34   34783.3    287.5   0.031330166   0.29653   0.01234  -0.31175   0.44631
  35   34872.4    286.8   0.000061349   0.00058   0.02040  -0.00702  -0.01066
  36   35098.7    284.9   0.024204765   0.22703  -0.17429  -0.43155   0.10206
  37   35947.8    278.2   0.045274041   0.41462   0.12076  -0.47978   0.41213
  38   36223.2    276.1   0.033241605   0.30211  -0.11745   0.40286  -0.35500
  39   36378.0    274.9   0.000004392   0.00004   0.00562  -0.00108  -0.00264
  40   36403.3    274.7   0.012110989   0.10953   0.10827  -0.16550   0.26536
  41   36691.2    272.5   0.062657742   0.56220   0.17814  -0.55872   0.46723
  42   36820.1    271.6   0.000008145   0.00007   0.00067   0.00367  -0.00768
  43   36904.6    271.0   0.092006589   0.82076   0.50456   0.03274   0.75173
  44   37038.8    270.0   0.003778740   0.03359   0.10123   0.08286   0.12835
  45   37159.3    269.1   0.029391160   0.26039  -0.01221  -0.39375   0.32435
  46   37598.1    266.0   0.144447957   1.26480  -0.19303   0.81945  -0.74569
  47   37889.4    263.9   0.113712088   0.98802   0.18527   0.92523  -0.31250
  48   37976.7    263.3   0.239344185   2.07482  -0.56521  -1.32451  -0.03213
  49   38034.2    262.9   0.015123417   0.13090  -0.05610  -0.35669  -0.02305
  50   38415.2    260.3   0.028475791   0.24403   0.20776  -0.05093   0.44528
  51   38946.8    256.8   0.059878117   0.50614   0.28471   0.64461   0.09779
  52   39129.2    255.6   0.092683394   0.77979   0.47804  -0.15228   0.72669
  53   39394.7    253.8   0.091825927   0.76737  -0.52297   0.03135  -0.70206
  54   39877.1    250.8   0.065271047   0.53886  -0.24320   0.32461  -0.61183
  55   40059.0    249.6   0.181517670   1.49174   0.53804   1.07806   0.20012

FINAL SINGLE POINT ENERGY     -8071.265799202334

DIPOLE MOMENT
-------------
                                X             Y             Z
Electronic contribution:    -54.29101      35.41434    -113.53823
Nuclear contribution   :     56.36352     -32.29749     114.81643
                        -----------------------------------------
Total Dipole Moment    :      2.07252       3.11685       1.27820
                        -----------------------------------------
Magnitude (a.u.)       :      3.95523
Magnitude (Debye)      :     10.05339

Rotational constants in cm-1:     0.000779     0.000200     0.000159
Rotational constants in MHz :    23.355639     5.988268     4.770853

                             ****ORCA TERMINATED NORMALLY****
TOTAL RUN TIME: 0 days 0 hours 9 minutes 44 seconds 106 msec
