                         Program Version 4.2.0 -  RELEASE  -
|  1> # ORCA input file
|  2> # SCF done       -137.044492041850          0.001185484263
|  3> ! CAM-B3LYP def2-SVP def2/J RIJCOSX Grid4 TightSCF
|  4> %maxcore 5000
|  5> %tddft
|  6>     Mode sTDDFT
|  7>     Ethresh 5.0
|  8>     maxcore 5000
|  9> end
| 10>
| 11> %pal
| 12>   nprocs 6
| 13>   end
| 14> * xyz 0 1
| 15>    C        3.43164       -11.76837        -5.49522
| 16>    C        2.94703       -10.50000        -5.71321
| 17>    N        2.36893        -9.73788        -4.78674
| 18>    C        2.21109       -10.15638        -3.54744
| 19>    C        2.66536       -11.45705        -3.18324
| 20>    C        3.29140       -12.26965        -4.19327
| 21>    N        3.67256       -13.45658        -3.71265
| 22>    S        3.28274       -13.53136        -2.16000
| 23>    N        2.61375       -12.07809        -2.00668
| 24>    C        1.58704        -9.26026        -2.61612
| 25>    C        1.23230        -9.54487        -1.22748
| 26>    N        0.67825        -8.53997        -0.60377
| 27>    C        0.62667        -7.52863        -1.51150
| 28>    C        1.18643        -7.95521        -2.80049
| 29>    C        1.13880        -6.85462        -3.74050
| 30>    S        1.66603        -6.81481        -5.30004
| 31>    C        0.54591        -5.78441        -3.00006
| 32>    C        0.24125        -6.21041        -1.64138
| 33>    N       -0.32174        -5.18769        -0.92982
| 34>    C       -0.37193        -4.17162        -1.74058
| 35>    C        0.16620        -4.44259        -3.08052
| 36>    C        0.28063        -3.61629        -4.20026
| 37>    C        0.02950        -2.26558        -4.32339
| 38>    C        0.16121        -1.53718        -5.52871
| 39>    C       -0.11876        -0.20566        -5.41596
| 40>    C       -0.47608         0.18462        -4.11097
| 41>    S       -0.45999        -1.18756        -3.03314
| 42>    C       -0.82663         1.45210        -3.65931
| 43>    C       -0.99434         2.64266        -4.40155
| 44>    C       -1.41688         3.69616        -3.64684
| 45>    C       -1.62289         3.38350        -2.27858
| 46>    S       -1.19928         1.71856        -1.98582
| 47>    C       -2.01969         4.25227        -1.28300
| 48>    C       -2.32300         3.91527         0.04258
| 49>    C       -2.21025         4.85617         1.16266
| 50>    N       -2.36831         4.32429         2.33663
| 51>    C       -2.65108         3.00720         2.11066
| 52>    C       -2.66501         2.71713         0.66940
| 53>    C       -3.08820         1.37172         0.46177
| 54>    S       -3.70517         0.73290        -0.93412
| 55>    C       -3.08323         0.77429         1.78229
| 56>    C       -2.90104         1.83795         2.78383
| 57>    N       -2.94138         1.32162         4.04781
| 58>    C       -3.07944         0.03917         3.89671
| 59>    C       -3.14449        -0.39947         2.49122
| 60>    C       -3.13574        -1.76505         2.04828
| 61>    C       -2.85771        -2.10545         0.72908
| 62>    N       -2.75314        -3.34417         0.24549
| 63>    C       -2.91488        -4.37639         1.02773
| 64>    C       -3.21509        -4.20171         2.39228
| 65>    C       -3.32539        -2.86694         2.92247
| 66>    N       -3.60983        -2.87466         4.22472
| 67>    S       -3.72502        -4.40150         4.71952
| 68>    N       -3.42385        -5.13022         3.32763
| 69>    H        3.89500       -12.35567        -6.26975
| 70>    H        3.01470       -10.03901        -6.68916
| 71>    H        1.39605       -10.48614        -0.73529
| 72>    H       -0.81751        -3.25069        -1.40942
| 73>    H        0.63387        -4.11012        -5.09908
| 74>    H        0.45400        -2.02126        -6.44356
| 75>    H       -0.07149         0.49546        -6.22935
| 76>    H       -0.81551         2.68734        -5.46053
| 77>    H       -1.61455         4.68098        -4.03171
| 78>    H       -2.04837         5.30486        -1.53760
| 79>    H       -1.98078         5.90318         1.06004
| 80>    H       -3.13914        -0.62381         4.74079
| 81>    H       -2.69067        -1.32746        -0.00220
| 82>    H       -2.79892        -5.35784         0.59448
| 83> *
| 84>
| 85>                          ****END OF INPUT****

CARTESIAN COORDINATES (ANGSTROEM)
---------------------------------
  C      3.431640  -11.768370   -5.495220
  C      2.947030  -10.500000   -5.713210
  N      2.368930   -9.737880   -4.786740
  C      2.211090  -10.156380   -3.547440
  C      2.665360  -11.457050   -3.183240
  C      3.291400  -12.269650   -4.193270
  N      3.672560  -13.456580   -3.712650
  S      3.282740  -13.531360   -2.160000
  N      2.613750  -12.078090   -2.006680
  C      1.587040   -9.260260   -2.616120
  C      1.232300   -9.544870   -1.227480
  N      0.678250   -8.539970   -0.603770
  C      0.626670   -7.528630   -1.511500
  C      1.186430   -7.955210   -2.800490
  C      1.138800   -6.854620   -3.740500
  S      1.666030   -6.814810   -5.300040
  C      0.545910   -5.784410   -3.000060
  C      0.241250   -6.210410   -1.641380
  N     -0.321740   -5.187690   -0.929820
  C     -0.371930   -4.171620   -1.740580
  C      0.166200   -4.442590   -3.080520
  C      0.280630   -3.616290   -4.200260
  C      0.029500   -2.265580   -4.323390
  C      0.161210   -1.537180   -5.528710
  C     -0.118760   -0.205660   -5.415960
  C     -0.476080    0.184620   -4.110970
  S     -0.459990   -1.187560   -3.033140
  C     -0.826630    1.452100   -3.659310
  C     -0.994340    2.642660   -4.401550
  C     -1.416880    3.696160   -3.646840
  C     -1.622890    3.383500   -2.278580
  S     -1.199280    1.718560   -1.985820
  C     -2.019690    4.252270   -1.283000
  C     -2.323000    3.915270    0.042580
  C     -2.210250    4.856170    1.162660
  N     -2.368310    4.324290    2.336630
  C     -2.651080    3.007200    2.110660
  C     -2.665010    2.717130    0.669400
  C     -3.088200    1.371720    0.461770
  S     -3.705170    0.732900   -0.934120
  C     -3.083230    0.774290    1.782290
  C     -2.901040    1.837950    2.783830
  N     -2.941380    1.321620    4.047810
  C     -3.079440    0.039170    3.896710
  C     -3.144490   -0.399470    2.491220
  C     -3.135740   -1.765050    2.048280
  C     -2.857710   -2.105450    0.729080
  N     -2.753140   -3.344170    0.245490
  C     -2.914880   -4.376390    1.027730
  C     -3.215090   -4.201710    2.392280
  C     -3.325390   -2.866940    2.922470
  N     -3.609830   -2.874660    4.224720
  S     -3.725020   -4.401500    4.719520
  N     -3.423850   -5.130220    3.327630
  H      3.895000  -12.355670   -6.269750
  H      3.014700  -10.039010   -6.689160
  H      1.396050  -10.486140   -0.735290
  H     -0.817510   -3.250690   -1.409420
  H      0.633870   -4.110120   -5.099080
  H      0.454000   -2.021260   -6.443560
  H     -0.071490    0.495460   -6.229350
  H     -0.815510    2.687340   -5.460530
  H     -1.614550    4.680980   -4.031710
  H     -2.048370    5.304860   -1.537600
  H     -1.980780    5.903180    1.060040
  H     -3.139140   -0.623810    4.740790
  H     -2.690670   -1.327460   -0.002200
  H     -2.798920   -5.357840    0.594480

 Total Charge           Charge          ....    0
 Multiplicity           Mult            ....    1
 Number of Electrons    NEL             ....  408
 Basis Dimension        Dim             ....  850

ORBITAL ENERGIES
----------------

  NO   OCC          E(Eh)            E(eV)
   0   2.0000     -89.035477     -2422.7785
   1   2.0000     -89.028409     -2422.5862
   2   2.0000     -88.964041     -2420.8346
   3   2.0000     -88.961880     -2420.7758
   4   2.0000     -88.890498     -2418.8334
   5   2.0000     -88.890359     -2418.8296
   6   2.0000     -14.451804      -393.2536
   7   2.0000     -14.444927      -393.0665
   8   2.0000     -14.443593      -393.0302
   9   2.0000     -14.438868      -392.9016
  10   2.0000     -14.412211      -392.1762
  11   2.0000     -14.410518      -392.1301
  12   2.0000     -14.408493      -392.0750
  13   2.0000     -14.405660      -391.9979
  14   2.0000     -14.405457      -391.9924
  15   2.0000     -14.396081      -391.7373
  16   2.0000     -10.336078      -281.2590
  17   2.0000     -10.332612      -281.1647
  18   2.0000     -10.331843      -281.1437
  19   2.0000     -10.331483      -281.1339
  20   2.0000     -10.331192      -281.1260
  21   2.0000     -10.330443      -281.1057
  22   2.0000     -10.328654      -281.0570
  23   2.0000     -10.327500      -281.0256
  24   2.0000     -10.325555      -280.9726
  25   2.0000     -10.324670      -280.9486
  26   2.0000     -10.323625      -280.9201
  27   2.0000     -10.322787      -280.8973
  28   2.0000     -10.322274      -280.8834
  29   2.0000     -10.322018      -280.8764
  30   2.0000     -10.320137      -280.8252
  31   2.0000     -10.319846      -280.8173
  32   2.0000     -10.316313      -280.7211
  33   2.0000     -10.315316      -280.6940
  34   2.0000     -10.312130      -280.6073
  35   2.0000     -10.311741      -280.5967
  36   2.0000     -10.311179      -280.5814
  37   2.0000     -10.302874      -280.3555
  38   2.0000     -10.302457      -280.3441
  39   2.0000     -10.301914      -280.3293
  40   2.0000     -10.301077      -280.3066
  41   2.0000     -10.298040      -280.2239
  42   2.0000     -10.296785      -280.1898
  43   2.0000     -10.296177      -280.1732
  44   2.0000     -10.296137      -280.1721
  45   2.0000     -10.295677      -280.1596
  46   2.0000     -10.295080      -280.1434
  47   2.0000     -10.294243      -280.1206
  48   2.0000     -10.293788      -280.1082
  49   2.0000     -10.293634      -280.1040
  50   2.0000     -10.289957      -280.0040
  51   2.0000     -10.288609      -279.9673
  52   2.0000     -10.282533      -279.8020
  53   2.0000     -10.281942      -279.7859
  54   2.0000      -8.127304      -221.1552
  55   2.0000      -8.120265      -220.9637
  56   2.0000      -8.059972      -219.3230
  57   2.0000      -8.057146      -219.2461
  58   2.0000      -7.985969      -217.3093
  59   2.0000      -7.985489      -217.2962
  60   2.0000      -6.098399      -165.9459
  61   2.0000      -6.091348      -165.7540
  62   2.0000      -6.090579      -165.7331
  63   2.0000      -6.089970      -165.7165
  64   2.0000      -6.083565      -165.5422
  65   2.0000      -6.082922      -165.5247
  66   2.0000      -6.029630      -164.0746
  67   2.0000      -6.026514      -163.9898
  68   2.0000      -6.025566      -163.9640
  69   2.0000      -6.022296      -163.8750
  70   2.0000      -6.021076      -163.8418
  71   2.0000      -6.018963      -163.7843
  72   2.0000      -5.955019      -162.0443
  73   2.0000      -5.954718      -162.0361
  74   2.0000      -5.954355      -162.0262
  75   2.0000      -5.954021      -162.0171
  76   2.0000      -5.944780      -161.7657
  77   2.0000      -5.944774      -161.7655
  78   2.0000      -1.134917       -30.8827
  79   2.0000      -1.127729       -30.6871
  80   2.0000      -1.078534       -29.3484
  81   2.0000      -1.069516       -29.1030
  82   2.0000      -1.059441       -28.8289
  83   2.0000      -1.049372       -28.5549
  84   2.0000      -1.045559       -28.4511
  85   2.0000      -1.038195       -28.2507
  86   2.0000      -1.011647       -27.5283
  87   2.0000      -0.988679       -26.9033
  88   2.0000      -0.986880       -26.8544
  89   2.0000      -0.980244       -26.6738
  90   2.0000      -0.957521       -26.0555
  91   2.0000      -0.949200       -25.8290
  92   2.0000      -0.916624       -24.9426
  93   2.0000      -0.909436       -24.7470
  94   2.0000      -0.902099       -24.5474
  95   2.0000      -0.901214       -24.5233
  96   2.0000      -0.894478       -24.3400
  97   2.0000      -0.875495       -23.8234
  98   2.0000      -0.870795       -23.6955
  99   2.0000      -0.854803       -23.2604
 100   2.0000      -0.847481       -23.0611
 101   2.0000      -0.843249       -22.9460
 102   2.0000      -0.839481       -22.8434
 103   2.0000      -0.833572       -22.6827
 104   2.0000      -0.827196       -22.5091
 105   2.0000      -0.821695       -22.3595
 106   2.0000      -0.790419       -21.5084
 107   2.0000      -0.778561       -21.1857
 108   2.0000      -0.769512       -20.9395
 109   2.0000      -0.760971       -20.7071
 110   2.0000      -0.755004       -20.5447
 111   2.0000      -0.743129       -20.2216
 112   2.0000      -0.729227       -19.8433
 113   2.0000      -0.724852       -19.7242
 114   2.0000      -0.718443       -19.5498
 115   2.0000      -0.715703       -19.4753
 116   2.0000      -0.702226       -19.1085
 117   2.0000      -0.695980       -18.9386
 118   2.0000      -0.692486       -18.8435
 119   2.0000      -0.687404       -18.7052
 120   2.0000      -0.683868       -18.6090
 121   2.0000      -0.663272       -18.0485
 122   2.0000      -0.645405       -17.5624
 123   2.0000      -0.643002       -17.4970
 124   2.0000      -0.638437       -17.3728
 125   2.0000      -0.630076       -17.1453
 126   2.0000      -0.624270       -16.9872
 127   2.0000      -0.619984       -16.8706
 128   2.0000      -0.615893       -16.7593
 129   2.0000      -0.614860       -16.7312
 130   2.0000      -0.600557       -16.3420
 131   2.0000      -0.594854       -16.1868
 132   2.0000      -0.590662       -16.0727
 133   2.0000      -0.587703       -15.9922
 134   2.0000      -0.579309       -15.7638
 135   2.0000      -0.564202       -15.3527
 136   2.0000      -0.562542       -15.3075
 137   2.0000      -0.560067       -15.2402
 138   2.0000      -0.557049       -15.1581
 139   2.0000      -0.553899       -15.0724
 140   2.0000      -0.551224       -14.9996
 141   2.0000      -0.549397       -14.9498
 142   2.0000      -0.543950       -14.8016
 143   2.0000      -0.539595       -14.6831
 144   2.0000      -0.538557       -14.6549
 145   2.0000      -0.530069       -14.4239
 146   2.0000      -0.529026       -14.3955
 147   2.0000      -0.516763       -14.0618
 148   2.0000      -0.513105       -13.9623
 149   2.0000      -0.511997       -13.9321
 150   2.0000      -0.506059       -13.7706
 151   2.0000      -0.502676       -13.6785
 152   2.0000      -0.501730       -13.6528
 153   2.0000      -0.494803       -13.4643
 154   2.0000      -0.493297       -13.4233
 155   2.0000      -0.491685       -13.3794
 156   2.0000      -0.484314       -13.1788
 157   2.0000      -0.480880       -13.0854
 158   2.0000      -0.479736       -13.0543
 159   2.0000      -0.478387       -13.0176
 160   2.0000      -0.473974       -12.8975
 161   2.0000      -0.472603       -12.8602
 162   2.0000      -0.471302       -12.8248
 163   2.0000      -0.470872       -12.8131
 164   2.0000      -0.467966       -12.7340
 165   2.0000      -0.467291       -12.7156
 166   2.0000      -0.463336       -12.6080
 167   2.0000      -0.460751       -12.5377
 168   2.0000      -0.448825       -12.2132
 169   2.0000      -0.445277       -12.1166
 170   2.0000      -0.434512       -11.8237
 171   2.0000      -0.429014       -11.6741
 172   2.0000      -0.424303       -11.5459
 173   2.0000      -0.421605       -11.4724
 174   2.0000      -0.419538       -11.4162
 175   2.0000      -0.418505       -11.3881
 176   2.0000      -0.410279       -11.1643
 177   2.0000      -0.408703       -11.1214
 178   2.0000      -0.402928       -10.9642
 179   2.0000      -0.396698       -10.7947
 180   2.0000      -0.380713       -10.3597
 181   2.0000      -0.375428       -10.2159
 182   2.0000      -0.372165       -10.1271
 183   2.0000      -0.359385        -9.7794
 184   2.0000      -0.358255        -9.7486
 185   2.0000      -0.355656        -9.6779
 186   2.0000      -0.352671        -9.5967
 187   2.0000      -0.350674        -9.5423
 188   2.0000      -0.349637        -9.5141
 189   2.0000      -0.344385        -9.3712
 190   2.0000      -0.343600        -9.3498
 191   2.0000      -0.341668        -9.2973
 192   2.0000      -0.339864        -9.2482
 193   2.0000      -0.337617        -9.1870
 194   2.0000      -0.332713        -9.0536
 195   2.0000      -0.329230        -8.9588
 196   2.0000      -0.309576        -8.4240
 197   2.0000      -0.297573        -8.0974
 198   2.0000      -0.292053        -7.9472
 199   2.0000      -0.285592        -7.7713
 200   2.0000      -0.275154        -7.4873
 201   2.0000      -0.265000        -7.2110
 202   2.0000      -0.264087        -7.1862
 203   2.0000      -0.225034        -6.1235
 204   0.0000      -0.123139        -3.3508
 205   0.0000      -0.102903        -2.8001
 206   0.0000      -0.090675        -2.4674
 207   0.0000      -0.072711        -1.9786
 208   0.0000      -0.060427        -1.6443

MULLIKEN ATOMIC CHARGES
-----------------------
   0 C :   -0.021296
   1 C :    0.032506
   2 N :   -0.011415
   3 C :   -0.027666
   4 C :   -0.025200
   5 C :    0.071982
   6 N :   -0.268157
   7 S :    0.524581
   8 N :   -0.272957
   9 C :   -0.032605
  10 C :    0.066959
  11 N :   -0.021376
  12 C :   -0.012894
  13 C :    0.000065
  14 C :   -0.016818
  15 S :   -0.101270
  16 C :   -0.002756
  17 C :    0.018441
  18 N :   -0.039164
  19 C :    0.068374
  20 C :    0.023379
  21 C :   -0.051185
  22 C :   -0.015938
  23 C :    0.038759
  24 C :    0.030945
  25 C :   -0.023874
  26 S :    0.091850
  27 C :   -0.057802
  28 C :    0.036862
  29 C :    0.043522
  30 C :   -0.026371
  31 S :    0.143348
  32 C :   -0.029223
  33 C :    0.002181
  34 C :    0.060290
  35 N :   -0.031767
  36 C :    0.007714
  37 C :   -0.003347
  38 C :   -0.079709
  39 S :   -0.112550
  40 C :    0.006129
  41 C :   -0.003989
  42 N :   -0.031791
  43 C :    0.062007
  44 C :   -0.033621
  45 C :    0.046351
  46 C :    0.001914
  47 N :   -0.069209
  48 C :    0.042817
  49 C :    0.001702
  50 C :    0.020548
  51 N :   -0.294271
  52 S :    0.521983
  53 N :   -0.251923
  54 H :   -0.003949
  55 H :    0.007450
  56 H :    0.011120
  57 H :    0.022479
  58 H :   -0.003847
  59 H :    0.003618
  60 H :   -0.003829
  61 H :   -0.010392
  62 H :   -0.007784
  63 H :   -0.010845
  64 H :    0.001438
  65 H :    0.013539
  66 H :   -0.020974
  67 H :    0.006914
Sum of atomic charges:    0.0000000

LOEWDIN ATOMIC CHARGES
----------------------
   0 C :   -0.038534
   1 C :    0.022536
   2 N :   -0.048485
   3 C :    0.011316
   4 C :   -0.065791
   5 C :   -0.044570
   6 N :   -0.285378
   7 S :    0.661329
   8 N :   -0.280546
   9 C :   -0.053004
  10 C :    0.087750
  11 N :   -0.089346
  12 C :    0.028361
  13 C :    0.000539
  14 C :   -0.147928
  15 S :    0.077127
  16 C :   -0.035331
  17 C :    0.044190
  18 N :   -0.080699
  19 C :    0.097282
  20 C :   -0.048188
  21 C :   -0.030054
  22 C :   -0.139809
  23 C :   -0.015928
  24 C :   -0.029196
  25 C :   -0.159781
  26 S :    0.403008
  27 C :   -0.183152
  28 C :   -0.032022
  29 C :   -0.027868
  30 C :   -0.137852
  31 S :    0.464985
  32 C :   -0.053735
  33 C :   -0.057558
  34 C :    0.082855
  35 N :   -0.079953
  36 C :    0.034583
  37 C :   -0.055280
  38 C :   -0.173627
  39 S :    0.054773
  40 C :   -0.027390
  41 C :    0.026145
  42 N :   -0.086922
  43 C :    0.084323
  44 C :   -0.033353
  45 C :   -0.056357
  46 C :    0.034906
  47 N :   -0.059212
  48 C :    0.056804
  49 C :   -0.078429
  50 C :   -0.035169
  51 N :   -0.295421
  52 S :    0.660078
  53 N :   -0.265595
  54 H :    0.040523
  55 H :    0.025921
  56 H :    0.022765
  57 H :    0.013959
  58 H :    0.035197
  59 H :    0.040079
  60 H :    0.035994
  61 H :    0.033137
  62 H :    0.035547
  63 H :    0.037143
  64 H :    0.023347
  65 H :    0.021366
  66 H :    0.002834
  67 H :    0.030755

  Mayer bond orders larger than 0.100000
B(  0-C ,  1-C ) :   1.4854 B(  0-C ,  3-C ) :   0.1079 B(  0-C ,  5-C ) :   1.2385
B(  0-C , 54-H ) :   0.9901 B(  1-C ,  2-N ) :   1.3888 B(  1-C , 55-H ) :   0.9719
B(  2-N ,  3-C ) :   1.7702 B(  2-N ,  9-C ) :  -0.1069 B(  3-C ,  4-C ) :   1.1248
B(  3-C ,  9-C ) :   1.0289 B(  4-C ,  5-C ) :   1.1744 B(  4-C ,  8-N ) :   1.5402
B(  5-C ,  6-N ) :   1.4975 B(  6-N ,  7-S ) :   1.2873 B(  6-N ,  8-N ) :   0.1532
B(  7-S ,  8-N ) :   1.2721 B(  9-C , 10-C ) :   1.0630 B(  9-C , 13-C ) :   1.5276
B( 10-C , 11-N ) :   1.6904 B( 10-C , 56-H ) :   0.9757 B( 11-N , 12-C ) :   1.2890
B( 12-C , 13-C ) :   1.0720 B( 12-C , 17-C ) :   1.4772 B( 13-C , 14-C ) :   1.0171
B( 14-C , 15-S ) :   1.7090 B( 14-C , 16-C ) :   1.0443 B( 16-C , 17-C ) :   1.0856
B( 16-C , 20-C ) :   1.4514 B( 17-C , 18-N ) :   1.2555 B( 18-N , 19-C ) :   1.7207
B( 19-C , 20-C ) :   0.9854 B( 19-C , 57-H ) :   0.9778 B( 20-C , 21-C ) :   1.1696
B( 21-C , 22-C ) :   1.5162 B( 21-C , 58-H ) :   0.9563 B( 22-C , 23-C ) :   1.1589
B( 22-C , 26-S ) :   1.0404 B( 23-C , 24-C ) :   1.5628 B( 23-C , 59-H ) :   1.0020
B( 24-C , 25-C ) :   1.2029 B( 24-C , 60-H ) :   0.9957 B( 25-C , 26-S ) :   1.0713
B( 25-C , 27-C ) :   1.4569 B( 27-C , 28-C ) :   1.1907 B( 27-C , 31-S ) :   1.0701
B( 28-C , 29-C ) :   1.5869 B( 28-C , 61-H ) :   0.9922 B( 29-C , 30-C ) :   1.1523
B( 29-C , 62-H ) :   0.9958 B( 30-C , 31-S ) :   1.0851 B( 30-C , 32-C ) :   1.5085
B( 32-C , 33-C ) :   1.2087 B( 32-C , 63-H ) :   0.9596 B( 33-C , 34-C ) :   1.0201
B( 33-C , 37-C ) :   1.3819 B( 34-C , 35-N ) :   1.7405 B( 34-C , 64-H ) :   0.9913
B( 35-N , 36-C ) :   1.2526 B( 36-C , 37-C ) :   1.0822 B( 36-C , 41-C ) :   1.5253
B( 37-C , 38-C ) :   1.1126 B( 38-C , 39-S ) :   1.6123 B( 38-C , 40-C ) :   0.9994
B( 40-C , 41-C ) :   1.0701 B( 40-C , 44-C ) :   1.5637 B( 41-C , 42-N ) :   1.2558
B( 42-N , 43-C ) :   1.7395 B( 43-C , 44-C ) :   1.0238 B( 43-C , 65-H ) :   0.9771
B( 44-C , 45-C ) :   1.0413 B( 45-C , 46-C ) :   1.4738 B( 45-C , 48-C ) :   0.1033
B( 45-C , 50-C ) :   1.1893 B( 46-C , 47-N ) :   1.3997 B( 46-C , 66-H ) :   0.9571
B( 47-N , 48-C ) :   1.6730 B( 48-C , 49-C ) :   1.1778 B( 48-C , 67-H ) :   0.9883
B( 49-C , 50-C ) :   1.1751 B( 49-C , 53-N ) :   1.4941 B( 50-C , 51-N ) :   1.5161
B( 51-N , 52-S ) :   1.2520 B( 51-N , 53-N ) :   0.1517 B( 52-S , 53-N ) :   1.3098

-----------------------------------------------------------------------------
         ABSORPTION SPECTRUM VIA TRANSITION ELECTRIC DIPOLE MOMENTS
-----------------------------------------------------------------------------
State   Energy  Wavelength   fosc         T2         TX        TY        TZ
        (cm-1)    (nm)                  (au**2)     (au)      (au)      (au)
-----------------------------------------------------------------------------
   0    8441.5   1184.6   0.416366841  16.23804  -1.50381   3.45696   1.42338
   1   10731.1    931.9   0.034852259   1.06920  -0.10702  -0.61803   0.82206
   2   10969.0    911.7   0.000616786   0.01851   0.02541   0.09987  -0.08884
   3   13006.0    768.9   0.007879065   0.19944  -0.15661   0.34787   0.23216
   4   13667.5    731.7   0.009460221   0.22787   0.17315  -0.36432  -0.25527
   5   13808.4    724.2   0.331975883   7.91478   1.24209  -1.95887  -1.59211
   6   16571.8    603.4   0.068152284   1.35390   0.12407  -1.15693  -0.00324
   7   17205.1    581.2   0.059189136   1.13256  -0.18335   0.99624  -0.32626
   8   17795.0    562.0   0.007279785   0.13468  -0.24764   0.19149   0.19153
   9   18643.5    536.4   0.064167888   1.13309  -0.17795  -0.81731   0.65836
  10   20112.4    497.2   0.029477873   0.48251   0.11812   0.58640  -0.35312
  11   20866.4    479.2   0.031252616   0.49308  -0.32471   0.42195   0.45782
  12   20938.2    477.6   0.040147653   0.63124  -0.30524  -0.04000   0.73244
  13   22238.8    449.7   0.011890121   0.17602  -0.21105   0.34117   0.12278
  14   22977.5    435.2   0.065566872   0.93941   0.10690  -0.96107   0.06579
  15   23408.7    427.2   0.008352731   0.11747   0.19450  -0.26664   0.09243
  16   23713.6    421.7   0.125064760   1.73625   0.07787   1.02510  -0.82423
  17   23775.8    420.6   0.099922345   1.38357  -0.03033  -1.08057   0.46370
  18   24222.5    412.8   0.324245566   4.40687  -0.27910   2.03744  -0.42166
  19   24263.5    412.1   0.309558036   4.20015   0.14089  -1.98981   0.47006
  20   24701.9    404.8   0.019859811   0.26468  -0.06708   0.26471  -0.43602
  21   24895.0    401.7   0.011748653   0.15536   0.06336  -0.31088   0.23389
  22   25140.5    397.8   0.094931940   1.24312  -0.13432   1.06137  -0.31396
  23   25185.4    397.1   0.048594664   0.63521  -0.08648   0.75752  -0.23214
  24   25245.9    396.1   0.164917381   2.15056   0.25232  -1.38730   0.40285
  25   26285.1    380.4   0.474792942   5.94662  -0.63130   2.35317   0.10330
  26   26654.5    375.2   0.064987052   0.80266   0.39484  -0.77609  -0.21081
  27   26836.4    372.6   0.017242267   0.21152   0.02829   0.33162  -0.31740
  28   27017.5    370.1   0.103100040   1.25629  -0.42753  -0.86194   0.57495
  29   27654.3    361.6   0.047280990   0.56286   0.04296  -0.70633  -0.24921
  30   28129.8    355.5   0.029940960   0.35041  -0.12951   0.50858   0.27383
  31   28552.7    350.2   0.016572788   0.19108  -0.00618   0.41267   0.14406
  32   28679.8    348.7   0.017478675   0.20064   0.02002   0.44651   0.02937
  33   28945.5    345.5   0.017089068   0.19436  -0.04549   0.42494   0.10825
  34   29258.4    341.8   0.016459796   0.18520   0.04208  -0.42809  -0.01318
  35   29423.8    339.9   0.095877822   1.07274  -0.33957   0.97848  -0.00418
  36   29940.9    334.0   0.000143848   0.00158  -0.00310  -0.01295  -0.03747
  37   30126.4    331.9   0.027906090   0.30495   0.28949   0.15305  -0.44466
  38   30256.7    330.5   0.009077015   0.09876  -0.16487   0.12492   0.23660
  39   30524.5    327.6   0.024656849   0.26593   0.19404   0.26031  -0.40065
  40   30978.0    322.8   0.050278284   0.53432  -0.14551   0.47646   0.53492
  41   31203.1    320.5   0.039890827   0.42087  -0.14589   0.56370  -0.28605
  42   31626.1    316.2   0.117068778   1.21863   0.26407   1.06400  -0.12960
  43   32497.6    307.7   0.032802806   0.33230  -0.03849   0.56526   0.10631
  44   32791.8    305.0   0.002313545   0.02323  -0.10848  -0.09741  -0.04439
  45   32851.5    304.4   0.002716348   0.02722   0.02300   0.12653  -0.10336
  46   33091.6    302.2   0.013231292   0.13163  -0.24835  -0.05635   0.25842
  47   33198.3    301.2   0.002928765   0.02904   0.00342  -0.04892  -0.16321
  48   33653.8    297.1   0.018971246   0.18558  -0.03318   0.42951  -0.00159
  49   33759.1    296.2   0.033744535   0.32907  -0.00423  -0.43956   0.36857
  50   34030.0    293.9   0.028033706   0.27120   0.07643  -0.46438  -0.22295
  51   34239.3    292.1   0.028726446   0.27621  -0.20571  -0.01150   0.48348
  52   34292.9    291.6   0.014935940   0.14338  -0.12910  -0.34275   0.09614
  53   34401.3    290.7   0.005240408   0.05015   0.06794   0.19255  -0.09196
  54   34504.0    289.8   0.030481031   0.29083   0.00046  -0.36403   0.39788
  55   34782.6    287.5   0.047945834   0.45380   0.07452  -0.08772  -0.66374
  56   34829.3    287.1   0.051678046   0.48847   0.01155   0.27875  -0.64081
  57   35003.1    285.7   0.001627203   0.01530   0.00454   0.08539  -0.08940
  58   35182.7    284.2   0.011190432   0.10471  -0.08730   0.23754  -0.20166
  59   35248.9    283.7   0.049095603   0.45853  -0.04969   0.16688   0.65438
  60   35644.1    280.6   0.006265881   0.05787  -0.12120   0.13775   0.15558
  61   35720.6    280.0   0.025331654   0.23346  -0.01684   0.18584   0.44569
  62   36017.8    277.6   0.075364829   0.68885  -0.17241  -0.34469   0.73506
  63   36061.2    277.3   0.027877402   0.25450   0.07828   0.24153  -0.43593
  64   36215.0    276.1   0.018671670   0.16973  -0.00715   0.26958  -0.31146
  65   36397.8    274.7   0.016379980   0.14815   0.00411   0.03267  -0.38350
  66   36503.3    273.9   0.171749808   1.54896  -0.05716  -0.83739   0.91895
  67   37227.3    268.6   0.056645647   0.50093  -0.00029  -0.54602   0.45033
  68   37264.0    268.4   0.035985354   0.31792   0.29296   0.24302  -0.41597
  69   37434.4    267.1   0.041486577   0.36485   0.00175   0.01415   0.60386
  70   37756.5    264.9   0.003034043   0.02645   0.02050  -0.13727  -0.08480
  71   38011.3    263.1   0.030995750   0.26845  -0.03853  -0.49573   0.14567
  72   38125.1    262.3   0.000737779   0.00637  -0.01302   0.02092  -0.07592
  73   38363.5    260.7   0.022444121   0.19260  -0.24100   0.01945   0.36625
  74   38502.0    259.7   0.001168650   0.00999  -0.00395  -0.09741  -0.02212
  75   38527.5    259.6   0.001370509   0.01171  -0.06162  -0.07764  -0.04344
  76   38705.5    258.4   0.066186714   0.56296  -0.06504   0.49056   0.56398
  77   38910.4    257.0   0.096753424   0.81861  -0.03458  -0.65505  -0.62316
  78   39438.4    253.6   0.119742993   0.99955  -0.42442  -0.19335   0.88433
  79   39517.0    253.1   0.010274786   0.08560   0.14244  -0.03296  -0.25342
  80   39705.6    251.9   0.010644023   0.08825   0.13129   0.18823   0.18864
  81   39729.6    251.7   0.059383224   0.49207   0.09530   0.19743  -0.66634
  82   39814.8    251.2   0.005355836   0.04429   0.18796  -0.06291  -0.07071
  83   40005.4    250.0   0.009437810   0.07767   0.04717   0.22466   0.15801
  84   40035.8    249.8   0.013965370   0.11484  -0.08027   0.05221  -0.32507
  85   40268.1    248.3   0.026524951   0.21685  -0.19906   0.08355   0.41261

FINAL SINGLE POINT ENERGY     -4389.624097403290

DIPOLE MOMENT
-------------
                                X             Y             Z
Electronic contribution:     -1.71941     -18.00964      16.57778
Nuclear contribution   :      2.74928      17.74168     -19.02826
                        -----------------------------------------
Total Dipole Moment    :      1.02987      -0.26796      -2.45048
                        -----------------------------------------
Magnitude (a.u.)       :      2.67157
Magnitude (Debye)      :      6.79059

Rotational constants in cm-1:     0.002346     0.000628     0.000507
Rotational constants in MHz :    70.340584    18.840822    15.193923

                             ****ORCA TERMINATED NORMALLY****
TOTAL RUN TIME: 0 days 0 hours 6 minutes 33 seconds 231 msec
