                         Program Version 4.2.0 -  RELEASE  -
|  1> # ORCA input file
|  2> # SCF done       -186.209063824882          0.000894117490
|  3> ! CAM-B3LYP def2-SVP def2/J RIJCOSX Grid4 TightSCF
|  4> %maxcore 5000
|  5> %tddft
|  6>     Mode sTDDFT
|  7>     Ethresh 5.0
|  8>     maxcore 5000
|  9> end
| 10>
| 11> %pal
| 12>   nprocs 6
| 13>   end
| 14> * xyz 0 1
| 15>    C       -6.97176         0.95565         2.32673
| 16>    C       -6.03128         1.34379         3.24645
| 17>    C       -6.02109         0.93939         4.59576
| 18>    N       -5.96606         0.65609         5.70749
| 19>    C       -4.91024         2.14036         2.94247
| 20>    N       -3.93846         2.72740         2.76428
| 21>    C       -8.01613        -0.03902         2.52485
| 22>    C       -8.63075        -0.29951         1.27317
| 23>    C       -9.64903        -1.20923         1.12978
| 24>    C      -10.07947        -1.89423         2.27167
| 25>    C       -9.46050        -1.62493         3.51489
| 26>    C       -8.42900        -0.70438         3.66211
| 27>    S      -10.16070        -2.57858         4.78512
| 28>    C      -11.25015        -3.31756         3.66367
| 29>    C      -11.10441        -2.87417         2.39586
| 30>    C       -8.02577         0.56669         0.24327
| 31>    O       -8.37289         0.66357        -0.92206
| 32>    C       -7.01443         1.37018         0.94099
| 33>    C       -6.37333         2.47673         0.44359
| 34>    C       -6.19500         2.86615        -0.88954
| 35>    C       -6.17446         2.18844        -2.10341
| 36>    C       -5.76928         2.96981        -3.22223
| 37>    C       -5.66287         2.13596        -4.37218
| 38>    C       -5.94278         0.82589        -4.15165
| 39>    S       -6.40905         0.52885        -2.49386
| 40>    C       -5.91141        -0.27835        -5.14368
| 41>    F       -5.27598         2.56733        -5.58994
| 42>    C       -5.51469         4.30455        -2.88913
| 43>    S       -5.72325         4.52771        -1.16802
| 44>    C       -5.16424         5.43821        -3.67324
| 45>    C       -4.82755         6.63318        -3.06513
| 46>    C       -4.51559         7.81104        -3.72378
| 47>    C       -4.51401         7.89426        -5.18454
| 48>    C       -4.81167         6.84787        -5.98792
| 49>    S       -5.22991         5.28800        -5.42213
| 50>    C       -4.17392         9.24070        -5.48194
| 51>    C       -3.99291         9.96463        -4.29784
| 52>    C       -3.63905        11.30812        -4.55907
| 53>    C       -3.57184        11.56141        -5.89204
| 54>    S       -3.92693        10.19286        -6.88932
| 55>    C       -4.20469         9.08225        -3.18069
| 56>    C       -4.16654         9.36305        -1.80364
| 57>    C       -4.10493        10.59318        -1.21955
| 58>    C       -4.13455        10.78360         0.17337
| 59>    C       -4.26194        11.97921         0.86539
| 60>    C       -4.31574        11.85539         2.26784
| 61>    C       -4.47028        13.12970         2.87542
| 62>    C       -4.53047        14.17049         2.00309
| 63>    S       -4.39806        13.62875         0.34394
| 64>    C       -4.68569        15.61097         2.32350
| 65>    F       -4.55022        13.30369         4.20444
| 66>    C       -4.23880        10.52988         2.71297
| 67>    S       -4.05881         9.47195         1.32465
| 68>    C       -4.18766        10.11845         4.04958
| 69>    C       -4.19123         8.86324         4.59640
| 70>    C       -4.54482         7.56547         4.08264
| 71>    C       -5.53421         7.29237         3.16591
| 72>    C       -5.90629         5.99911         2.76643
| 73>    N       -6.26030         4.97359         2.38501
| 74>    C       -6.38352         8.28301         2.63554
| 75>    N       -7.13205         9.05490         2.23088
| 76>    C       -3.89961         6.57061         4.93105
| 77>    C       -3.39216         7.22328         6.08473
| 78>    C       -3.61663         8.67545         5.95626
| 79>    O       -3.34890         9.54454         6.75603
| 80>    C       -2.78751         6.53532         7.10820
| 81>    C       -2.67074         5.14627         6.98423
| 82>    C       -3.15766         4.51050         5.81654
| 83>    C       -3.77282         5.20554         4.78130
| 84>    S       -2.89655         2.79727         5.87307
| 85>    C       -2.16041         2.94076         7.43151
| 86>    C       -2.10288         4.20979         7.89246
| 87>    H      -10.09993        -1.38947         0.16629
| 88>    H       -7.99077        -0.52469         4.63000
| 89>    H      -11.94506        -4.04796         4.03013
| 90>    H      -11.69596        -3.21779         1.56649
| 91>    H       -5.98105         3.18500         1.16472
| 92>    H       -5.60872         0.10348        -6.11580
| 93>    H       -6.89577        -0.73629        -5.23157
| 94>    H       -5.21080        -1.05113        -4.82954
| 95>    H       -4.81364         6.63362        -1.98351
| 96>    H       -4.81274         6.92383        -7.06395
| 97>    H       -3.43130        12.05583        -3.81606
| 98>    H       -3.32632        12.48958        -6.37042
| 99>    H       -4.23890         8.51097        -1.13833
|100>    H       -4.09514        11.49401        -1.81484
|101>    H       -4.81513        15.73542         3.39606
|102>    H       -5.55119        16.02570         1.80832
|103>    H       -3.80641        16.17056         2.00509
|104>    H       -4.02046        10.91706         4.76729
|105>    H       -2.41873         7.05171         7.98091
|106>    H       -4.10384         4.68144         3.89967
|107>    H       -1.80990         2.05000         7.91572
|108>    H       -1.67893         4.48905         8.84014
|109> *
|110>
|111>                          ****END OF INPUT****

CARTESIAN COORDINATES (ANGSTROEM)
---------------------------------
  C     -6.971760    0.955650    2.326730
  C     -6.031280    1.343790    3.246450
  C     -6.021090    0.939390    4.595760
  N     -5.966060    0.656090    5.707490
  C     -4.910240    2.140360    2.942470
  N     -3.938460    2.727400    2.764280
  C     -8.016130   -0.039020    2.524850
  C     -8.630750   -0.299510    1.273170
  C     -9.649030   -1.209230    1.129780
  C    -10.079470   -1.894230    2.271670
  C     -9.460500   -1.624930    3.514890
  C     -8.429000   -0.704380    3.662110
  S    -10.160700   -2.578580    4.785120
  C    -11.250150   -3.317560    3.663670
  C    -11.104410   -2.874170    2.395860
  C     -8.025770    0.566690    0.243270
  O     -8.372890    0.663570   -0.922060
  C     -7.014430    1.370180    0.940990
  C     -6.373330    2.476730    0.443590
  C     -6.195000    2.866150   -0.889540
  C     -6.174460    2.188440   -2.103410
  C     -5.769280    2.969810   -3.222230
  C     -5.662870    2.135960   -4.372180
  C     -5.942780    0.825890   -4.151650
  S     -6.409050    0.528850   -2.493860
  C     -5.911410   -0.278350   -5.143680
  F     -5.275980    2.567330   -5.589940
  C     -5.514690    4.304550   -2.889130
  S     -5.723250    4.527710   -1.168020
  C     -5.164240    5.438210   -3.673240
  C     -4.827550    6.633180   -3.065130
  C     -4.515590    7.811040   -3.723780
  C     -4.514010    7.894260   -5.184540
  C     -4.811670    6.847870   -5.987920
  S     -5.229910    5.288000   -5.422130
  C     -4.173920    9.240700   -5.481940
  C     -3.992910    9.964630   -4.297840
  C     -3.639050   11.308120   -4.559070
  C     -3.571840   11.561410   -5.892040
  S     -3.926930   10.192860   -6.889320
  C     -4.204690    9.082250   -3.180690
  C     -4.166540    9.363050   -1.803640
  C     -4.104930   10.593180   -1.219550
  C     -4.134550   10.783600    0.173370
  C     -4.261940   11.979210    0.865390
  C     -4.315740   11.855390    2.267840
  C     -4.470280   13.129700    2.875420
  C     -4.530470   14.170490    2.003090
  S     -4.398060   13.628750    0.343940
  C     -4.685690   15.610970    2.323500
  F     -4.550220   13.303690    4.204440
  C     -4.238800   10.529880    2.712970
  S     -4.058810    9.471950    1.324650
  C     -4.187660   10.118450    4.049580
  C     -4.191230    8.863240    4.596400
  C     -4.544820    7.565470    4.082640
  C     -5.534210    7.292370    3.165910
  C     -5.906290    5.999110    2.766430
  N     -6.260300    4.973590    2.385010
  C     -6.383520    8.283010    2.635540
  N     -7.132050    9.054900    2.230880
  C     -3.899610    6.570610    4.931050
  C     -3.392160    7.223280    6.084730
  C     -3.616630    8.675450    5.956260
  O     -3.348900    9.544540    6.756030
  C     -2.787510    6.535320    7.108200
  C     -2.670740    5.146270    6.984230
  C     -3.157660    4.510500    5.816540
  C     -3.772820    5.205540    4.781300
  S     -2.896550    2.797270    5.873070
  C     -2.160410    2.940760    7.431510
  C     -2.102880    4.209790    7.892460
  H    -10.099930   -1.389470    0.166290
  H     -7.990770   -0.524690    4.630000
  H    -11.945060   -4.047960    4.030130
  H    -11.695960   -3.217790    1.566490
  H     -5.981050    3.185000    1.164720
  H     -5.608720    0.103480   -6.115800
  H     -6.895770   -0.736290   -5.231570
  H     -5.210800   -1.051130   -4.829540
  H     -4.813640    6.633620   -1.983510
  H     -4.812740    6.923830   -7.063950
  H     -3.431300   12.055830   -3.816060
  H     -3.326320   12.489580   -6.370420
  H     -4.238900    8.510970   -1.138330
  H     -4.095140   11.494010   -1.814840
  H     -4.815130   15.735420    3.396060
  H     -5.551190   16.025700    1.808320
  H     -3.806410   16.170560    2.005090
  H     -4.020460   10.917060    4.767290
  H     -2.418730    7.051710    7.980910
  H     -4.103840    4.681440    3.899670
  H     -1.809900    2.050000    7.915720
  H     -1.678930    4.489050    8.840140

 Total Charge           Charge          ....    0
 Multiplicity           Mult            ....    1
 Number of Electrons    NEL             ....  548
 Basis Dimension        Dim             .... 1150

ORBITAL ENERGIES
----------------

  NO   OCC          E(Eh)            E(eV)
   0   2.0000     -88.983154     -2421.3547
   1   2.0000     -88.972158     -2421.0555
   2   2.0000     -88.963502     -2420.8200
   3   2.0000     -88.963393     -2420.8170
   4   2.0000     -88.959576     -2420.7131
   5   2.0000     -88.959553     -2420.7125
   6   2.0000     -88.958851     -2420.6934
   7   2.0000     -88.944130     -2420.2928
   8   2.0000     -24.791650      -674.6151
   9   2.0000     -24.788352      -674.5253
  10   2.0000     -19.206090      -522.6243
  11   2.0000     -19.192254      -522.2478
  12   2.0000     -14.407577      -392.0501
  13   2.0000     -14.407024      -392.0351
  14   2.0000     -14.405452      -391.9923
  15   2.0000     -14.394955      -391.7066
  16   2.0000     -10.359266      -281.8900
  17   2.0000     -10.358128      -281.8590
  18   2.0000     -10.354352      -281.7562
  19   2.0000     -10.343855      -281.4706
  20   2.0000     -10.339854      -281.3617
  21   2.0000     -10.338535      -281.3258
  22   2.0000     -10.335137      -281.2334
  23   2.0000     -10.329887      -281.0905
  24   2.0000     -10.329175      -281.0711
  25   2.0000     -10.324211      -280.9361
  26   2.0000     -10.323843      -280.9261
  27   2.0000     -10.321526      -280.8630
  28   2.0000     -10.319192      -280.7995
  29   2.0000     -10.317802      -280.7617
  30   2.0000     -10.314066      -280.6600
  31   2.0000     -10.313875      -280.6548
  32   2.0000     -10.313043      -280.6322
  33   2.0000     -10.312069      -280.6057
  34   2.0000     -10.309101      -280.5249
  35   2.0000     -10.308550      -280.5099
  36   2.0000     -10.308280      -280.5026
  37   2.0000     -10.307327      -280.4766
  38   2.0000     -10.306926      -280.4657
  39   2.0000     -10.306528      -280.4549
  40   2.0000     -10.305863      -280.4368
  41   2.0000     -10.305611      -280.4299
  42   2.0000     -10.305484      -280.4265
  43   2.0000     -10.303323      -280.3677
  44   2.0000     -10.301825      -280.3269
  45   2.0000     -10.299036      -280.2510
  46   2.0000     -10.298643      -280.2403
  47   2.0000     -10.297678      -280.2141
  48   2.0000     -10.297414      -280.2069
  49   2.0000     -10.296139      -280.1722
  50   2.0000     -10.295969      -280.1676
  51   2.0000     -10.294882      -280.1380
  52   2.0000     -10.293646      -280.1043
  53   2.0000     -10.293591      -280.1029
  54   2.0000     -10.291984      -280.0591
  55   2.0000     -10.289988      -280.0048
  56   2.0000     -10.286834      -279.9190
  57   2.0000     -10.285252      -279.8759
  58   2.0000     -10.284178      -279.8467
  59   2.0000     -10.284095      -279.8444
  60   2.0000     -10.283340      -279.8239
  61   2.0000     -10.282830      -279.8100
  62   2.0000     -10.282470      -279.8002
  63   2.0000     -10.281907      -279.7849
  64   2.0000     -10.281613      -279.7769
  65   2.0000     -10.281365      -279.7702
  66   2.0000     -10.279925      -279.7310
  67   2.0000     -10.278139      -279.6824
  68   2.0000     -10.278006      -279.6788
  69   2.0000     -10.273818      -279.5648
  70   2.0000     -10.269412      -279.4449
  71   2.0000     -10.268132      -279.4101
  72   2.0000      -8.078260      -219.8206
  73   2.0000      -8.067012      -219.5146
  74   2.0000      -8.059029      -219.2973
  75   2.0000      -8.057584      -219.2580
  76   2.0000      -8.055771      -219.2087
  77   2.0000      -8.054603      -219.1769
  78   2.0000      -8.054236      -219.1669
  79   2.0000      -8.039887      -218.7764
  80   2.0000      -6.047810      -164.5693
  81   2.0000      -6.043072      -164.4403
  82   2.0000      -6.040209      -164.3624
  83   2.0000      -6.036515      -164.2619
  84   2.0000      -6.032203      -164.1446
  85   2.0000      -6.028854      -164.0535
  86   2.0000      -6.028462      -164.0428
  87   2.0000      -6.027008      -164.0032
  88   2.0000      -6.025302      -163.9568
  89   2.0000      -6.024398      -163.9322
  90   2.0000      -6.024199      -163.9268
  91   2.0000      -6.023952      -163.9201
  92   2.0000      -6.022932      -163.8923
  93   2.0000      -6.021046      -163.8410
  94   2.0000      -6.020974      -163.8390
  95   2.0000      -6.020363      -163.8224
  96   2.0000      -6.019571      -163.8008
  97   2.0000      -6.019501      -163.7990
  98   2.0000      -6.017452      -163.7432
  99   2.0000      -6.015611      -163.6931
 100   2.0000      -6.015500      -163.6901
 101   2.0000      -6.009419      -163.5246
 102   2.0000      -6.004983      -163.4039
 103   2.0000      -6.001664      -163.3136
 104   2.0000      -1.303573       -35.4720
 105   2.0000      -1.300462       -35.3874
 106   2.0000      -1.120167       -30.4813
 107   2.0000      -1.107263       -30.1301
 108   2.0000      -1.023589       -27.8533
 109   2.0000      -1.015393       -27.6302
 110   2.0000      -1.012886       -27.5620
 111   2.0000      -1.010991       -27.5105
 112   2.0000      -1.003873       -27.3168
 113   2.0000      -1.000238       -27.2179
 114   2.0000      -0.989209       -26.9177
 115   2.0000      -0.985555       -26.8183
 116   2.0000      -0.982045       -26.7228
 117   2.0000      -0.979497       -26.6535
 118   2.0000      -0.976274       -26.5658
 119   2.0000      -0.965100       -26.2617
 120   2.0000      -0.957677       -26.0597
 121   2.0000      -0.955718       -26.0064
 122   2.0000      -0.937015       -25.4975
 123   2.0000      -0.923805       -25.1380
 124   2.0000      -0.915743       -24.9186
 125   2.0000      -0.909906       -24.7598
 126   2.0000      -0.902712       -24.5640
 127   2.0000      -0.889557       -24.2061
 128   2.0000      -0.881388       -23.9838
 129   2.0000      -0.874315       -23.7913
 130   2.0000      -0.872162       -23.7327
 131   2.0000      -0.864743       -23.5308
 132   2.0000      -0.859695       -23.3935
 133   2.0000      -0.857560       -23.3354
 134   2.0000      -0.854673       -23.2568
 135   2.0000      -0.842255       -22.9189
 136   2.0000      -0.838051       -22.8045
 137   2.0000      -0.834378       -22.7046
 138   2.0000      -0.821853       -22.3638
 139   2.0000      -0.814900       -22.1746
 140   2.0000      -0.806945       -21.9581
 141   2.0000      -0.801656       -21.8142
 142   2.0000      -0.795266       -21.6403
 143   2.0000      -0.785456       -21.3733
 144   2.0000      -0.782048       -21.2806
 145   2.0000      -0.780960       -21.2510
 146   2.0000      -0.765217       -20.8226
 147   2.0000      -0.751711       -20.4551
 148   2.0000      -0.747896       -20.3513
 149   2.0000      -0.738573       -20.0976
 150   2.0000      -0.729225       -19.8432
 151   2.0000      -0.722241       -19.6532
 152   2.0000      -0.701974       -19.1017
 153   2.0000      -0.697873       -18.9901
 154   2.0000      -0.681560       -18.5462
 155   2.0000      -0.680505       -18.5175
 156   2.0000      -0.675171       -18.3723
 157   2.0000      -0.669634       -18.2217
 158   2.0000      -0.667216       -18.1559
 159   2.0000      -0.665539       -18.1102
 160   2.0000      -0.661716       -18.0062
 161   2.0000      -0.660164       -17.9640
 162   2.0000      -0.656405       -17.8617
 163   2.0000      -0.653448       -17.7812
 164   2.0000      -0.643438       -17.5088
 165   2.0000      -0.642058       -17.4713
 166   2.0000      -0.637712       -17.3530
 167   2.0000      -0.633296       -17.2329
 168   2.0000      -0.630288       -17.1510
 169   2.0000      -0.615803       -16.7568
 170   2.0000      -0.611254       -16.6331
 171   2.0000      -0.605364       -16.4728
 172   2.0000      -0.599142       -16.3035
 173   2.0000      -0.596348       -16.2275
 174   2.0000      -0.588888       -16.0245
 175   2.0000      -0.584655       -15.9093
 176   2.0000      -0.579429       -15.7671
 177   2.0000      -0.577383       -15.7114
 178   2.0000      -0.571367       -15.5477
 179   2.0000      -0.569582       -15.4991
 180   2.0000      -0.566118       -15.4049
 181   2.0000      -0.565442       -15.3865
 182   2.0000      -0.561906       -15.2902
 183   2.0000      -0.559638       -15.2285
 184   2.0000      -0.548758       -14.9325
 185   2.0000      -0.542737       -14.7686
 186   2.0000      -0.538973       -14.6662
 187   2.0000      -0.533172       -14.5083
 188   2.0000      -0.532958       -14.5025
 189   2.0000      -0.527364       -14.3503
 190   2.0000      -0.525575       -14.3016
 191   2.0000      -0.524510       -14.2726
 192   2.0000      -0.522618       -14.2212
 193   2.0000      -0.520198       -14.1553
 194   2.0000      -0.518678       -14.1139
 195   2.0000      -0.517527       -14.0826
 196   2.0000      -0.514615       -14.0034
 197   2.0000      -0.512516       -13.9463
 198   2.0000      -0.512433       -13.9440
 199   2.0000      -0.510835       -13.9005
 200   2.0000      -0.506536       -13.7836
 201   2.0000      -0.505832       -13.7644
 202   2.0000      -0.504057       -13.7161
 203   2.0000      -0.503479       -13.7004
 204   2.0000      -0.500409       -13.6168
 205   2.0000      -0.500157       -13.6100
 206   2.0000      -0.498222       -13.5573
 207   2.0000      -0.491529       -13.3752
 208   2.0000      -0.490971       -13.3600
 209   2.0000      -0.488553       -13.2942
 210   2.0000      -0.486914       -13.2496
 211   2.0000      -0.484585       -13.1862
 212   2.0000      -0.482155       -13.1201
 213   2.0000      -0.478821       -13.0294
 214   2.0000      -0.478166       -13.0116
 215   2.0000      -0.474259       -12.9052
 216   2.0000      -0.471270       -12.8239
 217   2.0000      -0.470246       -12.7961
 218   2.0000      -0.467290       -12.7156
 219   2.0000      -0.466477       -12.6935
 220   2.0000      -0.460485       -12.5304
 221   2.0000      -0.457933       -12.4610
 222   2.0000      -0.455970       -12.4076
 223   2.0000      -0.452613       -12.3162
 224   2.0000      -0.449704       -12.2371
 225   2.0000      -0.448837       -12.2135
 226   2.0000      -0.444263       -12.0890
 227   2.0000      -0.442324       -12.0363
 228   2.0000      -0.439801       -11.9676
 229   2.0000      -0.437742       -11.9116
 230   2.0000      -0.435595       -11.8531
 231   2.0000      -0.433277       -11.7901
 232   2.0000      -0.431865       -11.7516
 233   2.0000      -0.429120       -11.6769
 234   2.0000      -0.428040       -11.6476
 235   2.0000      -0.427167       -11.6238
 236   2.0000      -0.426149       -11.5961
 237   2.0000      -0.424128       -11.5411
 238   2.0000      -0.423601       -11.5268
 239   2.0000      -0.421197       -11.4614
 240   2.0000      -0.419339       -11.4108
 241   2.0000      -0.417448       -11.3593
 242   2.0000      -0.413626       -11.2553
 243   2.0000      -0.412607       -11.2276
 244   2.0000      -0.410942       -11.1823
 245   2.0000      -0.410159       -11.1610
 246   2.0000      -0.407851       -11.0982
 247   2.0000      -0.403692       -10.9850
 248   2.0000      -0.402808       -10.9610
 249   2.0000      -0.402227       -10.9452
 250   2.0000      -0.399011       -10.8576
 251   2.0000      -0.395061       -10.7501
 252   2.0000      -0.391113       -10.6427
 253   2.0000      -0.384727       -10.4690
 254   2.0000      -0.370734       -10.0882
 255   2.0000      -0.369426       -10.0526
 256   2.0000      -0.357386        -9.7250
 257   2.0000      -0.353474        -9.6185
 258   2.0000      -0.349271        -9.5041
 259   2.0000      -0.335689        -9.1346
 260   2.0000      -0.329242        -8.9591
 261   2.0000      -0.322421        -8.7735
 262   2.0000      -0.315579        -8.5873
 263   2.0000      -0.311515        -8.4768
 264   2.0000      -0.306564        -8.3420
 265   2.0000      -0.304272        -8.2797
 266   2.0000      -0.301207        -8.1963
 267   2.0000      -0.293482        -7.9861
 268   2.0000      -0.292433        -7.9575
 269   2.0000      -0.286472        -7.7953
 270   2.0000      -0.276494        -7.5238
 271   2.0000      -0.273577        -7.4444
 272   2.0000      -0.254109        -6.9147
 273   2.0000      -0.222265        -6.0481
 274   0.0000      -0.102138        -2.7793
 275   0.0000      -0.080717        -2.1964
 276   0.0000      -0.060364        -1.6426
 277   0.0000      -0.047313        -1.2875
 278   0.0000      -0.038663        -1.0521

MULLIKEN ATOMIC CHARGES
-----------------------
   0 C :    0.305124
   1 C :   -0.341932
   2 C :   -0.196131
   3 N :    0.148631
   4 C :   -0.126169
   5 N :    0.099454
   6 C :    0.011571
   7 C :   -0.013040
   8 C :   -0.068549
   9 C :    0.112660
  10 C :   -0.095184
  11 C :   -0.022391
  12 S :    0.135919
  13 C :   -0.051641
  14 C :    0.023971
  15 C :    0.134571
  16 O :   -0.176555
  17 C :   -0.097143
  18 C :    0.033024
  19 C :   -0.141195
  20 C :   -0.013281
  21 C :    0.042195
  22 C :    0.220174
  23 C :   -0.298405
  24 S :    0.203444
  25 C :    0.118452
  26 F :   -0.191341
  27 C :   -0.084188
  28 S :    0.149610
  29 C :   -0.049929
  30 C :   -0.086719
  31 C :    0.074259
  32 C :    0.060252
  33 C :   -0.123196
  34 S :    0.176719
  35 C :   -0.109590
  36 C :    0.052273
  37 C :   -0.002279
  38 C :   -0.065167
  39 S :    0.134211
  40 C :    0.097108
  41 C :   -0.020436
  42 C :   -0.022620
  43 C :   -0.082907
  44 C :   -0.047997
  45 C :    0.132743
  46 C :    0.235969
  47 C :   -0.294495
  48 S :    0.128249
  49 C :    0.112356
  50 F :   -0.180497
  51 C :   -0.108435
  52 S :    0.137849
  53 C :    0.008410
  54 C :   -0.150213
  55 C :    0.264559
  56 C :   -0.348979
  57 C :   -0.139919
  58 N :    0.130046
  59 C :   -0.230100
  60 N :    0.167362
  61 C :    0.010772
  62 C :   -0.000133
  63 C :    0.136034
  64 O :   -0.153551
  65 C :   -0.076462
  66 C :    0.108923
  67 C :   -0.088974
  68 C :   -0.027023
  69 S :    0.154791
  70 C :   -0.048069
  71 C :    0.021807
  72 H :   -0.017283
  73 H :   -0.007709
  74 H :    0.036305
  75 H :   -0.009585
  76 H :    0.021043
  77 H :    0.031617
  78 H :    0.040720
  79 H :    0.038736
  80 H :    0.011899
  81 H :    0.041594
  82 H :   -0.010273
  83 H :    0.028491
  84 H :   -0.014387
  85 H :   -0.026511
  86 H :    0.039430
  87 H :    0.040676
  88 H :    0.042126
  89 H :    0.021705
  90 H :   -0.017371
  91 H :   -0.017946
  92 H :    0.032678
  93 H :   -0.014610
Sum of atomic charges:   -0.0000000

LOEWDIN ATOMIC CHARGES
----------------------
   0 C :    0.084082
   1 C :   -0.143414
   2 C :   -0.020796
   3 N :   -0.060845
   4 C :   -0.002902
   5 N :   -0.073996
   6 C :   -0.022286
   7 C :   -0.049085
   8 C :    0.018327
   9 C :   -0.036265
  10 C :   -0.148105
  11 C :   -0.008764
  12 S :    0.425743
  13 C :   -0.152603
  14 C :   -0.058893
  15 C :    0.068498
  16 O :   -0.171321
  17 C :   -0.105670
  18 C :    0.046221
  19 C :   -0.189753
  20 C :   -0.155961
  21 C :   -0.099658
  22 C :    0.019225
  23 C :   -0.191848
  24 S :    0.482926
  25 C :   -0.056510
  26 F :   -0.070654
  27 C :   -0.156670
  28 S :    0.486188
  29 C :   -0.187834
  30 C :   -0.015816
  31 C :   -0.008028
  32 C :   -0.052488
  33 C :   -0.139051
  34 S :    0.492788
  35 C :   -0.197469
  36 C :   -0.035711
  37 C :   -0.064754
  38 C :   -0.161051
  39 S :    0.427781
  40 C :   -0.050869
  41 C :    0.007068
  42 C :   -0.064389
  43 C :   -0.141779
  44 C :   -0.198074
  45 C :   -0.054676
  46 C :    0.034050
  47 C :   -0.176906
  48 S :    0.396142
  49 C :   -0.055978
  50 F :   -0.056893
  51 C :   -0.185681
  52 S :    0.477346
  53 C :    0.045565
  54 C :   -0.113338
  55 C :    0.071573
  56 C :   -0.169248
  57 C :    0.008399
  58 N :   -0.080401
  59 C :   -0.042470
  60 N :   -0.061645
  61 C :   -0.024062
  62 C :   -0.055506
  63 C :    0.082194
  64 O :   -0.153898
  65 C :    0.018114
  66 C :   -0.037195
  67 C :   -0.143301
  68 C :   -0.010452
  69 S :    0.449004
  70 C :   -0.153040
  71 C :   -0.062645
  72 H :    0.038201
  73 H :    0.040203
  74 H :    0.028272
  75 H :    0.034076
  76 H :    0.038739
  77 H :    0.041103
  78 H :    0.041931
  79 H :    0.041036
  80 H :    0.028334
  81 H :    0.039013
  82 H :    0.030104
  83 H :    0.025037
  84 H :    0.023928
  85 H :    0.029777
  86 H :    0.044825
  87 H :    0.042032
  88 H :    0.042489
  89 H :    0.049615
  90 H :    0.038019
  91 H :    0.033783
  92 H :    0.026967
  93 H :    0.031928

  Mayer bond orders larger than 0.100000
B(  0-C ,  1-C ) :   1.6259 B(  0-C ,  6-C ) :   1.0054 B(  0-C , 17-C ) :   1.0785
B(  1-C ,  2-C ) :   1.1451 B(  1-C ,  4-C ) :   1.1682 B(  2-C ,  3-N ) :   2.9674
B(  4-C ,  5-N ) :   2.8188 B(  6-C ,  7-C ) :   1.2678 B(  6-C , 11-C ) :   1.4182
B(  7-C ,  8-C ) :   1.4337 B(  7-C , 15-C ) :   0.9385 B(  8-C ,  9-C ) :   1.2407
B(  8-C , 72-H ) :   1.0161 B(  9-C , 10-C ) :   1.3104 B(  9-C , 14-C ) :   1.1715
B( 10-C , 11-C ) :   1.3162 B( 10-C , 12-S ) :   1.0947 B( 11-C , 73-H ) :   0.9846
B( 12-S , 13-C ) :   1.1273 B( 13-C , 14-C ) :   1.6268 B( 13-C , 74-H ) :   0.9691
B( 14-C , 75-H ) :   0.9994 B( 15-C , 16-O ) :   2.1569 B( 15-C , 17-C ) :   0.9883
B( 17-C , 18-C ) :   1.5216 B( 18-C , 19-C ) :   1.2650 B( 18-C , 76-H ) :   0.8987
B( 19-C , 20-C ) :   1.4147 B( 19-C , 28-S ) :   1.1077 B( 20-C , 21-C ) :   1.2553
B( 20-C , 24-S ) :   1.1166 B( 21-C , 22-C ) :   1.0897 B( 21-C , 27-C ) :   1.3480
B( 22-C , 23-C ) :   1.6493 B( 22-C , 26-F ) :   1.1213 B( 23-C , 24-S ) :   1.0703
B( 23-C , 25-C ) :   1.0689 B( 25-C , 77-H ) :   0.9557 B( 25-C , 78-H ) :   0.9479
B( 25-C , 79-H ) :   0.9468 B( 27-C , 28-S ) :   1.1549 B( 27-C , 29-C ) :   1.1838
B( 29-C , 30-C ) :   1.4631 B( 29-C , 34-S ) :   1.0782 B( 30-C , 31-C ) :   1.2903
B( 30-C , 80-H ) :   0.9568 B( 31-C , 32-C ) :   1.0599 B( 31-C , 40-C ) :   1.3243
B( 32-C , 33-C ) :   1.5821 B( 32-C , 35-C ) :   1.1837 B( 33-C , 34-S ) :   1.1570
B( 33-C , 81-H ) :   0.9402 B( 35-C , 36-C ) :   1.4401 B( 35-C , 39-S ) :   1.0800
B( 36-C , 37-C ) :   1.2121 B( 36-C , 40-C ) :   1.0893 B( 37-C , 38-C ) :   1.5888
B( 37-C , 82-H ) :   0.9992 B( 38-C , 39-S ) :   1.1549 B( 38-C , 83-H ) :   0.9651
B( 40-C , 41-C ) :   1.2172 B( 41-C , 42-C ) :   1.5564 B( 41-C , 84-H ) :   0.9560
B( 42-C , 43-C ) :   1.2091 B( 42-C , 85-H ) :   0.9795 B( 43-C , 44-C ) :   1.4259
B( 43-C , 52-S ) :   1.1522 B( 44-C , 45-C ) :   1.2865 B( 44-C , 48-S ) :   1.0298
B( 45-C , 46-C ) :   1.1059 B( 45-C , 51-C ) :   1.3300 B( 46-C , 47-C ) :   1.6313
B( 46-C , 50-F ) :   1.1333 B( 47-C , 48-S ) :   1.0768 B( 47-C , 49-C ) :   1.0660
B( 49-C , 86-H ) :   0.9553 B( 49-C , 87-H ) :   0.9479 B( 49-C , 88-H ) :   0.9485
B( 51-C , 52-S ) :   1.0682 B( 51-C , 53-C ) :   1.2459 B( 53-C , 54-C ) :   1.5481
B( 53-C , 89-H ) :   0.9380 B( 54-C , 55-C ) :   1.0732 B( 54-C , 63-C ) :   0.9528
B( 55-C , 56-C ) :   1.5896 B( 55-C , 61-C ) :   1.0216 B( 56-C , 57-C ) :   1.1557
B( 56-C , 59-C ) :   1.1579 B( 57-C , 58-N ) :   2.9236 B( 58-N , 76-H ) :   0.1065
B( 59-C , 60-N ) :   3.0280 B( 61-C , 62-C ) :   1.2604 B( 61-C , 68-C ) :   1.4116
B( 62-C , 63-C ) :   0.9232 B( 62-C , 65-C ) :   1.4388 B( 63-C , 64-O ) :   2.2524
B( 65-C , 66-C ) :   1.2438 B( 65-C , 90-H ) :   1.0154 B( 66-C , 67-C ) :   1.3004
B( 66-C , 71-C ) :   1.1773 B( 67-C , 68-C ) :   1.3274 B( 67-C , 69-S ) :   1.1074
B( 68-C , 91-H ) :   0.9731 B( 69-S , 70-C ) :   1.1338 B( 70-C , 71-C ) :   1.6223
B( 70-C , 92-H ) :   0.9688 B( 71-C , 93-H ) :   0.9983

-----------------------------------------------------------------------------
         ABSORPTION SPECTRUM VIA TRANSITION ELECTRIC DIPOLE MOMENTS
-----------------------------------------------------------------------------
State   Energy  Wavelength   fosc         T2         TX        TY        TZ
        (cm-1)    (nm)                  (au**2)     (au)      (au)      (au)
-----------------------------------------------------------------------------
   0   11149.6    896.9   0.306805762   9.05896   0.86713   2.38086   1.62436
   1   16306.8    613.2   0.569702961  11.50149  -0.60902  -2.07381   2.61341
   2   18471.0    541.4   1.115990795  19.89046  -0.96199  -2.85390   3.28942
   3   20887.2    478.8   0.120629298   1.90129  -0.23543  -1.30735  -0.36974
   4   22209.8    450.3   0.293037558   4.34365   0.33490   1.68765   1.17614
   5   22739.8    439.8   0.049236015   0.71281   0.16199  -0.45414  -0.69306
   6   23279.6    429.6   0.029554434   0.41795   0.59529  -0.19354  -0.16160
   7   24084.3    415.2   0.060752734   0.83044  -0.14251  -0.24089  -0.86724
   8   24676.7    405.2   0.288257026   3.84563   0.02738  -0.64032   1.85334
   9   25078.7    398.7   0.118019268   1.54926   0.14179   0.14025   1.22861
  10   26286.5    380.4   0.073025092   0.91456  -0.41433  -0.69960   0.50345
  11   26732.6    374.1   0.005282910   0.06506   0.11942  -0.00417   0.22535
  12   27109.6    368.9   0.066117931   0.80292  -0.31596  -0.78802  -0.28655
  13   27159.9    368.2   0.118519559   1.43661   0.69973  -0.28435   0.93066
  14   27804.6    359.7   0.139387671   1.65038  -0.80371  -0.52137   0.85593
  15   27925.7    358.1   0.037257933   0.43923   0.16073   0.55667   0.32173
  16   28428.2    351.8   0.023523040   0.27241  -0.11259   0.30596   0.40758
  17   28714.4    348.3   0.185313877   2.12463  -0.39858   1.37470   0.27563
  18   28821.8    347.0   0.049794349   0.56877   0.33188   0.55129  -0.39332
  19   28934.8    345.6   0.074144360   0.84359  -0.18587   0.80303   0.40521
  20   29503.8    338.9   0.068546608   0.76486   0.24335  -0.33768  -0.76916
  21   30388.8    329.1   0.130745420   1.41641  -0.24513  -1.05859  -0.48550
  22   30806.1    324.6   0.161765353   1.72872   0.49612   1.04895   0.61830
  23   31114.7    321.4   0.038551029   0.40789   0.33937   0.20569   0.50041
  24   31642.2    316.0   0.150567418   1.56653   0.81717   0.18078   0.93064
  25   31878.2    313.7   0.264652892   2.73312  -0.63527  -1.39328   0.62315
  26   32092.7    311.6   0.085287844   0.87490  -0.40064  -0.82967   0.16133
  27   32373.3    308.9   0.324432724   3.29923  -1.67322  -0.11513  -0.69736
  28   32468.6    308.0   0.212245703   2.15204   0.05783  -1.33071   0.61475
  29   32708.5    305.7   0.098049572   0.98687  -0.39203   0.91271  -0.01220
  30   32824.0    304.7   0.014591747   0.14635  -0.24579   0.24547   0.16025
  31   33206.6    301.1   0.370878677   3.67692   0.42036   1.86058  -0.19610
  32   33435.6    299.1   0.026475170   0.26068   0.42217   0.19272  -0.21286
  33   33503.8    298.5   0.070831834   0.69600   0.79701   0.16961  -0.17892
  34   33953.7    294.5   0.053002810   0.51391   0.00288   0.30675  -0.64792
  35   34072.2    293.5   0.085285281   0.82404   0.40173  -0.58107   0.57009
  36   34360.9    291.0   0.045038805   0.43152   0.09541  -0.10926   0.64068
  37   35046.6    285.3   0.004440506   0.04171   0.12136   0.13178   0.09808
  38   35252.1    283.7   0.111651732   1.04269   0.31493  -0.92670  -0.29111
  39   35516.1    281.6   0.015007553   0.13911  -0.23613  -0.28392  -0.05237
  40   35960.5    278.1   0.132576596   1.21371   0.38770  -0.41347   0.94470
  41   36273.2    275.7   0.032478636   0.29477  -0.17284   0.32658  -0.39780
  42   36355.9    275.1   0.038545779   0.34904   0.40146   0.11944   0.41666
  43   36690.8    272.5   0.038588584   0.34624  -0.39737  -0.33564  -0.27511
  44   36791.5    271.8   0.254770307   2.27970   0.68080   0.51895   1.24374
  45   37274.6    268.3   0.015599502   0.13778  -0.28003   0.16971  -0.17481
  46   37470.8    266.9   0.342970518   3.01328   0.49659   1.59507   0.47162
  47   37931.2    263.6   0.067588601   0.58661   0.36315   0.57202   0.35710
  48   38223.5    261.6   0.097839758   0.84267   0.30625   0.74302   0.44364
  49   38349.9    260.8   0.059920630   0.51438   0.28666   0.47020  -0.45948
  50   38454.0    260.1   0.020812398   0.17818   0.12066  -0.40015  -0.05914
  51   38815.0    257.6   0.105163145   0.89195   0.19271   0.82902   0.40931
  52   38891.9    257.1   0.064723793   0.54787   0.18121   0.56866   0.43779
  53   39272.6    254.6   0.139726094   1.17129  -0.52077  -0.89274  -0.32109
  54   39387.7    253.9   0.128032282   1.07012   0.03849   0.12926  -1.02564
  55   39495.6    253.2   0.014832082   0.12363  -0.19785  -0.28748   0.04290
  56   39666.5    252.1   0.023156519   0.19219  -0.17535  -0.03115  -0.40058
  57   39961.6    250.2   0.046119820   0.37994   0.12768   0.51748   0.30961
  58   40096.1    249.4   0.059834012   0.49127  -0.39824   0.36464  -0.44690
  59   40273.7    248.3   0.040634743   0.33216   0.03708  -0.56386  -0.11336

FINAL SINGLE POINT ENERGY     -5897.389528952111

DIPOLE MOMENT
-------------
                                X             Y             Z
Electronic contribution:      0.18023      -2.38234      -3.65873
Nuclear contribution   :     -0.11271       1.75556       0.37218
                        -----------------------------------------
Total Dipole Moment    :      0.06753      -0.62678      -3.28655
                        -----------------------------------------
Magnitude (a.u.)       :      3.34646
Magnitude (Debye)      :      8.50603

Rotational constants in cm-1:     0.000874     0.000566     0.000377
Rotational constants in MHz :    26.196944    16.958253    11.311682

                             ****ORCA TERMINATED NORMALLY****
TOTAL RUN TIME: 0 days 0 hours 11 minutes 56 seconds 821 msec
