                         Program Version 4.2.0 -  RELEASE  -
|  1> # ORCA input file
|  2> # SCF done       -198.310108255454          0.000804805615
|  3> ! CAM-B3LYP def2-SVP def2/J RIJCOSX Grid4 TightSCF
|  4> %maxcore 5000
|  5> %tddft
|  6>     Mode sTDDFT
|  7>     Ethresh 5.0
|  8>     maxcore 5000
|  9> end
| 10>
| 11> %pal
| 12>   nprocs 6
| 13>   end
| 14> * xyz 0 1
| 15>    C        0.36245         2.15351         3.46273
| 16>    C        0.93286         3.00976         4.36988
| 17>    C        2.26989         2.91687         4.80930
| 18>    N        3.34902         2.89678         5.20020
| 19>    C        0.26628         4.06812         5.02236
| 20>    N       -0.21090         4.93275         5.60867
| 21>    C        1.01240         0.98901         2.87520
| 22>    C        0.05295         0.26845         2.12397
| 23>    C        0.35496        -0.88917         1.44913
| 24>    C        1.67094        -1.35805         1.51742
| 25>    C        2.62527        -0.62903         2.26697
| 26>    C        2.31810         0.54072         2.95092
| 27>    S        4.19081        -1.38034         2.21085
| 28>    C        3.55099        -2.64670         1.19699
| 29>    C        2.23322        -2.51575         0.91357
| 30>   Br        4.68382        -4.01942         0.60671
| 31>    C       -1.24982         0.95916         2.18930
| 32>    O       -2.26975         0.60543         1.63743
| 33>    C       -1.01001         2.18315         2.99052
| 34>    C       -1.84507         3.26029         3.12109
| 35>    C       -3.21154         3.38291         2.80759
| 36>    C       -4.20240         2.43485         2.58178
| 37>    C       -5.44195         3.01583         2.35654
| 38>    C       -5.40980         4.43007         2.39870
| 39>    S       -3.86136         5.03071         2.75392
| 40>    C       -6.70603         4.91709         2.11953
| 41>    C       -7.56423         3.82203         1.91044
| 42>    C       -6.80127         2.59169         2.07102
| 43>    C       -7.27993         1.31694         1.99670
| 44>    C       -6.47473         0.17896         2.22120
| 45>    N       -5.85162        -0.76184         2.42069
| 46>    C       -8.63710         1.04915         1.71806
| 47>    N       -9.74121         0.83638         1.49253
| 48>    C       -8.87016         4.20455         1.61719
| 49>    C       -9.01387         5.58254         1.59671
| 50>    S       -7.51140         6.41808         1.95367
| 51>    C      -10.19100         6.31819         1.31923
| 52>    C      -10.33981         7.69233         1.26956
| 53>    C      -11.64387         8.06618         0.94969
| 54>    C      -12.49759         6.96274         0.75606
| 55>    S      -11.69461         5.47066         0.96844
| 56>    C      -13.78619         7.44170         0.42880
| 57>    C      -13.75453         8.84648         0.41038
| 58>    C      -12.40563         9.28478         0.74314
| 59>    C      -11.95698        10.56922         0.84245
| 60>    C      -10.61967        10.86990         1.17632
| 61>    N       -9.53238        11.11259         1.44693
| 62>    C      -12.80127        11.67706         0.61951
| 63>    N      -13.48768        12.57736         0.43777
| 64>    C      -14.98234         9.41603         0.08320
| 65>    C      -15.95781         8.46040        -0.14959
| 66>    S      -15.33476         6.82416         0.04796
| 67>    C      -17.31953         8.67302        -0.50458
| 68>    C      -18.19897         7.63713        -0.71038
| 69>    C      -19.54062         7.77922        -1.05867
| 70>    C      -20.09450         9.11097        -1.35542
| 71>    C      -19.41468        10.26732        -1.20305
| 72>    S      -17.79314        10.36351        -0.65404
| 73>    C      -21.42124         8.87685        -1.80613
| 74>    C      -21.68654         7.50571        -1.78202
| 75>    C      -22.99892         7.21152        -2.21526
| 76>    C      -23.67679         8.33908        -2.55243
| 77>    S      -22.76270         9.79781        -2.35558
| 78>    C      -20.53055         6.80769        -1.29029
| 79>    C      -20.50795         5.39700        -1.09106
| 80>    C      -19.67167         4.71248        -0.28172
| 81>    C      -19.65525         3.28298        -0.07926
| 82>    C      -18.74156         2.74988         0.85458
| 83>    C      -18.66652         1.40444         1.10903
| 84>    C      -19.51220         0.51754         0.43551
| 85>    C      -20.43206         1.02216        -0.50915
| 86>    C      -20.48598         2.39610        -0.75268
| 87>    C      -21.27584         0.08842        -1.17573
| 88>    C      -21.20707        -1.24356        -0.91219
| 89>    C      -20.26017        -1.79053         0.06871
| 90>    O      -20.13395        -2.95717         0.36719
| 91>    N      -19.47054        -0.82508         0.66923
| 92>    C      -22.05794        -2.15009        -1.58277
| 93>    N      -22.76315        -2.85764        -2.14420
| 94>    H       -0.40080        -1.41585         0.88789
| 95>    H        3.08150         1.06234         3.50346
| 96>    H        1.67886        -3.20527         0.30350
| 97>    H       -1.40199         4.17535         3.49742
| 98>    H       -4.00700         1.37875         2.58185
| 99>    H       -9.68621         3.53243         1.42109
|100>    H       -9.52751         8.37182         1.45619
|101>    H      -15.17219        10.47177         0.01214
|102>    H      -17.79192         6.63935        -0.62167
|103>    H      -19.85454        11.23018        -1.41023
|104>    H      -23.42356         6.22604        -2.27748
|105>    H      -24.68363         8.41644        -2.91372
|106>    H      -21.28678         4.86325        -1.61969
|107>    H      -18.95817         5.25811         0.31889
|108>    H      -18.08390         3.42520         1.38237
|109>    H      -17.95874         1.01969         1.82846
|110>    H      -21.19577         2.75331        -1.48222
|111>    H      -21.98512         0.45700        -1.90450
|112>    H      -18.80562        -1.17680         1.34945
|113> *
|114>
|115>                          ****END OF INPUT****

CARTESIAN COORDINATES (ANGSTROEM)
---------------------------------
  C      0.362450    2.153510    3.462730
  C      0.932860    3.009760    4.369880
  C      2.269890    2.916870    4.809300
  N      3.349020    2.896780    5.200200
  C      0.266280    4.068120    5.022360
  N     -0.210900    4.932750    5.608670
  C      1.012400    0.989010    2.875200
  C      0.052950    0.268450    2.123970
  C      0.354960   -0.889170    1.449130
  C      1.670940   -1.358050    1.517420
  C      2.625270   -0.629030    2.266970
  C      2.318100    0.540720    2.950920
  S      4.190810   -1.380340    2.210850
  C      3.550990   -2.646700    1.196990
  C      2.233220   -2.515750    0.913570
  Br     4.683820   -4.019420    0.606710
  C     -1.249820    0.959160    2.189300
  O     -2.269750    0.605430    1.637430
  C     -1.010010    2.183150    2.990520
  C     -1.845070    3.260290    3.121090
  C     -3.211540    3.382910    2.807590
  C     -4.202400    2.434850    2.581780
  C     -5.441950    3.015830    2.356540
  C     -5.409800    4.430070    2.398700
  S     -3.861360    5.030710    2.753920
  C     -6.706030    4.917090    2.119530
  C     -7.564230    3.822030    1.910440
  C     -6.801270    2.591690    2.071020
  C     -7.279930    1.316940    1.996700
  C     -6.474730    0.178960    2.221200
  N     -5.851620   -0.761840    2.420690
  C     -8.637100    1.049150    1.718060
  N     -9.741210    0.836380    1.492530
  C     -8.870160    4.204550    1.617190
  C     -9.013870    5.582540    1.596710
  S     -7.511400    6.418080    1.953670
  C    -10.191000    6.318190    1.319230
  C    -10.339810    7.692330    1.269560
  C    -11.643870    8.066180    0.949690
  C    -12.497590    6.962740    0.756060
  S    -11.694610    5.470660    0.968440
  C    -13.786190    7.441700    0.428800
  C    -13.754530    8.846480    0.410380
  C    -12.405630    9.284780    0.743140
  C    -11.956980   10.569220    0.842450
  C    -10.619670   10.869900    1.176320
  N     -9.532380   11.112590    1.446930
  C    -12.801270   11.677060    0.619510
  N    -13.487680   12.577360    0.437770
  C    -14.982340    9.416030    0.083200
  C    -15.957810    8.460400   -0.149590
  S    -15.334760    6.824160    0.047960
  C    -17.319530    8.673020   -0.504580
  C    -18.198970    7.637130   -0.710380
  C    -19.540620    7.779220   -1.058670
  C    -20.094500    9.110970   -1.355420
  C    -19.414680   10.267320   -1.203050
  S    -17.793140   10.363510   -0.654040
  C    -21.421240    8.876850   -1.806130
  C    -21.686540    7.505710   -1.782020
  C    -22.998920    7.211520   -2.215260
  C    -23.676790    8.339080   -2.552430
  S    -22.762700    9.797810   -2.355580
  C    -20.530550    6.807690   -1.290290
  C    -20.507950    5.397000   -1.091060
  C    -19.671670    4.712480   -0.281720
  C    -19.655250    3.282980   -0.079260
  C    -18.741560    2.749880    0.854580
  C    -18.666520    1.404440    1.109030
  C    -19.512200    0.517540    0.435510
  C    -20.432060    1.022160   -0.509150
  C    -20.485980    2.396100   -0.752680
  C    -21.275840    0.088420   -1.175730
  C    -21.207070   -1.243560   -0.912190
  C    -20.260170   -1.790530    0.068710
  O    -20.133950   -2.957170    0.367190
  N    -19.470540   -0.825080    0.669230
  C    -22.057940   -2.150090   -1.582770
  N    -22.763150   -2.857640   -2.144200
  H     -0.400800   -1.415850    0.887890
  H      3.081500    1.062340    3.503460
  H      1.678860   -3.205270    0.303500
  H     -1.401990    4.175350    3.497420
  H     -4.007000    1.378750    2.581850
  H     -9.686210    3.532430    1.421090
  H     -9.527510    8.371820    1.456190
  H    -15.172190   10.471770    0.012140
  H    -17.791920    6.639350   -0.621670
  H    -19.854540   11.230180   -1.410230
  H    -23.423560    6.226040   -2.277480
  H    -24.683630    8.416440   -2.913720
  H    -21.286780    4.863250   -1.619690
  H    -18.958170    5.258110    0.318890
  H    -18.083900    3.425200    1.382370
  H    -17.958740    1.019690    1.828460
  H    -21.195770    2.753310   -1.482220
  H    -21.985120    0.457000   -1.904500
  H    -18.805620   -1.176800    1.349450

 Total Charge           Charge          ....    0
 Multiplicity           Mult            ....    1
 Number of Electrons    NEL             ....  604
 Basis Dimension        Dim             .... 1247

ORBITAL ENERGIES
----------------

  NO   OCC          E(Eh)            E(eV)
   0   2.0000    -482.886609    -13140.0127
   1   2.0000     -89.004219     -2421.9279
   2   2.0000     -89.004093     -2421.9245
   3   2.0000     -89.001202     -2421.8458
   4   2.0000     -89.000807     -2421.8351
   5   2.0000     -88.984039     -2421.3788
   6   2.0000     -88.976846     -2421.1831
   7   2.0000     -88.963027     -2420.8070
   8   2.0000     -62.564331     -1702.4620
   9   2.0000     -56.398286     -1534.6754
  10   2.0000     -56.395562     -1534.6012
  11   2.0000     -56.395530     -1534.6004
  12   2.0000     -19.221139      -523.0338
  13   2.0000     -19.190571      -522.2020
  14   2.0000     -14.474217      -393.8635
  15   2.0000     -14.441239      -392.9661
  16   2.0000     -14.440596      -392.9486
  17   2.0000     -14.440507      -392.9462
  18   2.0000     -14.435756      -392.8169
  19   2.0000     -14.418447      -392.3459
  20   2.0000     -14.416571      -392.2949
  21   2.0000     -14.400669      -391.8621
  22   2.0000     -10.391807      -282.7754
  23   2.0000     -10.376500      -282.3589
  24   2.0000     -10.375361      -282.3279
  25   2.0000     -10.372755      -282.2570
  26   2.0000     -10.362959      -281.9905
  27   2.0000     -10.361930      -281.9624
  28   2.0000     -10.360300      -281.9181
  29   2.0000     -10.352089      -281.6947
  30   2.0000     -10.348138      -281.5872
  31   2.0000     -10.347158      -281.5605
  32   2.0000     -10.346408      -281.5401
  33   2.0000     -10.344435      -281.4864
  34   2.0000     -10.343853      -281.4706
  35   2.0000     -10.343107      -281.4503
  36   2.0000     -10.341698      -281.4119
  37   2.0000     -10.341437      -281.4048
  38   2.0000     -10.341255      -281.3999
  39   2.0000     -10.340779      -281.3869
  40   2.0000     -10.340484      -281.3789
  41   2.0000     -10.339463      -281.3511
  42   2.0000     -10.336822      -281.2792
  43   2.0000     -10.335663      -281.2477
  44   2.0000     -10.334890      -281.2267
  45   2.0000     -10.331978      -281.1474
  46   2.0000     -10.330921      -281.1187
  47   2.0000     -10.327310      -281.0204
  48   2.0000     -10.325279      -280.9651
  49   2.0000     -10.321704      -280.8678
  50   2.0000     -10.321514      -280.8627
  51   2.0000     -10.321008      -280.8489
  52   2.0000     -10.319564      -280.8096
  53   2.0000     -10.316644      -280.7302
  54   2.0000     -10.315232      -280.6917
  55   2.0000     -10.315189      -280.6906
  56   2.0000     -10.314884      -280.6823
  57   2.0000     -10.313464      -280.6436
  58   2.0000     -10.312857      -280.6271
  59   2.0000     -10.310673      -280.5677
  60   2.0000     -10.310149      -280.5534
  61   2.0000     -10.309400      -280.5330
  62   2.0000     -10.307788      -280.4892
  63   2.0000     -10.307644      -280.4853
  64   2.0000     -10.305458      -280.4258
  65   2.0000     -10.305022      -280.4139
  66   2.0000     -10.304009      -280.3863
  67   2.0000     -10.303195      -280.3642
  68   2.0000     -10.302780      -280.3529
  69   2.0000     -10.301119      -280.3077
  70   2.0000     -10.300139      -280.2810
  71   2.0000     -10.299009      -280.2503
  72   2.0000     -10.297981      -280.2223
  73   2.0000     -10.296882      -280.1924
  74   2.0000     -10.296170      -280.1730
  75   2.0000     -10.294373      -280.1241
  76   2.0000     -10.293564      -280.1021
  77   2.0000     -10.293346      -280.0962
  78   2.0000     -10.287627      -279.9406
  79   2.0000     -10.284624      -279.8589
  80   2.0000     -10.284595      -279.8581
  81   2.0000     -10.281878      -279.7841
  82   2.0000     -10.279955      -279.7318
  83   2.0000      -8.793768      -239.2906
  84   2.0000      -8.098620      -220.3746
  85   2.0000      -8.098466      -220.3705
  86   2.0000      -8.095572      -220.2917
  87   2.0000      -8.095353      -220.2858
  88   2.0000      -8.079304      -219.8491
  89   2.0000      -8.072938      -219.6758
  90   2.0000      -8.058453      -219.2817
  91   2.0000      -6.630104      -180.4143
  92   2.0000      -6.615489      -180.0166
  93   2.0000      -6.615279      -180.0109
  94   2.0000      -6.067965      -165.1177
  95   2.0000      -6.067778      -165.1126
  96   2.0000      -6.064697      -165.0288
  97   2.0000      -6.064696      -165.0288
  98   2.0000      -6.063769      -165.0035
  99   2.0000      -6.063605      -164.9991
 100   2.0000      -6.060802      -164.9228
 101   2.0000      -6.060714      -164.9204
 102   2.0000      -6.060561      -164.9162
 103   2.0000      -6.060547      -164.9159
 104   2.0000      -6.058101      -164.8493
 105   2.0000      -6.057593      -164.8355
 106   2.0000      -6.048967      -164.6008
 107   2.0000      -6.044391      -164.4762
 108   2.0000      -6.042615      -164.4279
 109   2.0000      -6.040997      -164.3839
 110   2.0000      -6.038349      -164.3118
 111   2.0000      -6.034139      -164.1973
 112   2.0000      -6.027926      -164.0282
 113   2.0000      -6.023644      -163.9117
 114   2.0000      -6.020438      -163.8244
 115   2.0000      -2.745922       -74.7203
 116   2.0000      -2.741901       -74.6109
 117   2.0000      -2.741723       -74.6061
 118   2.0000      -2.730112       -74.2901
 119   2.0000      -2.730093       -74.2896
 120   2.0000      -1.139313       -31.0023
 121   2.0000      -1.136778       -30.9333
 122   2.0000      -1.061029       -28.8721
 123   2.0000      -1.058663       -28.8077
 124   2.0000      -1.055307       -28.7164
 125   2.0000      -1.033010       -28.1096
 126   2.0000      -1.030903       -28.0523
 127   2.0000      -1.025307       -27.9000
 128   2.0000      -1.020234       -27.7620
 129   2.0000      -1.017939       -27.6995
 130   2.0000      -1.015563       -27.6349
 131   2.0000      -1.014966       -27.6186
 132   2.0000      -1.012630       -27.5551
 133   2.0000      -1.004211       -27.3260
 134   2.0000      -0.996361       -27.1124
 135   2.0000      -0.992187       -26.9988
 136   2.0000      -0.986926       -26.8556
 137   2.0000      -0.982305       -26.7299
 138   2.0000      -0.972407       -26.4605
 139   2.0000      -0.970485       -26.4082
 140   2.0000      -0.964473       -26.2446
 141   2.0000      -0.945792       -25.7363
 142   2.0000      -0.938011       -25.5246
 143   2.0000      -0.934589       -25.4314
 144   2.0000      -0.930402       -25.3175
 145   2.0000      -0.920964       -25.0607
 146   2.0000      -0.910370       -24.7724
 147   2.0000      -0.902796       -24.5663
 148   2.0000      -0.898568       -24.4513
 149   2.0000      -0.891419       -24.2567
 150   2.0000      -0.887668       -24.1547
 151   2.0000      -0.882334       -24.0095
 152   2.0000      -0.881368       -23.9832
 153   2.0000      -0.871045       -23.7023
 154   2.0000      -0.865538       -23.5525
 155   2.0000      -0.864666       -23.5287
 156   2.0000      -0.863514       -23.4974
 157   2.0000      -0.857203       -23.3257
 158   2.0000      -0.840564       -22.8729
 159   2.0000      -0.832918       -22.6648
 160   2.0000      -0.830958       -22.6115
 161   2.0000      -0.817306       -22.2400
 162   2.0000      -0.801154       -21.8005
 163   2.0000      -0.793733       -21.5986
 164   2.0000      -0.788505       -21.4563
 165   2.0000      -0.780642       -21.2423
 166   2.0000      -0.769470       -20.9384
 167   2.0000      -0.768706       -20.9176
 168   2.0000      -0.762296       -20.7431
 169   2.0000      -0.753861       -20.5136
 170   2.0000      -0.751836       -20.4585
 171   2.0000      -0.742929       -20.2161
 172   2.0000      -0.725644       -19.7458
 173   2.0000      -0.717805       -19.5325
 174   2.0000      -0.716754       -19.5039
 175   2.0000      -0.706794       -19.2328
 176   2.0000      -0.699637       -19.0381
 177   2.0000      -0.699047       -19.0220
 178   2.0000      -0.694129       -18.8882
 179   2.0000      -0.689490       -18.7620
 180   2.0000      -0.684846       -18.6356
 181   2.0000      -0.674265       -18.3477
 182   2.0000      -0.671458       -18.2713
 183   2.0000      -0.663565       -18.0565
 184   2.0000      -0.661242       -17.9933
 185   2.0000      -0.656700       -17.8697
 186   2.0000      -0.651814       -17.7367
 187   2.0000      -0.644260       -17.5312
 188   2.0000      -0.641552       -17.4575
 189   2.0000      -0.637531       -17.3481
 190   2.0000      -0.632544       -17.2124
 191   2.0000      -0.631347       -17.1798
 192   2.0000      -0.625618       -17.0239
 193   2.0000      -0.625362       -17.0170
 194   2.0000      -0.621249       -16.9050
 195   2.0000      -0.607791       -16.5388
 196   2.0000      -0.603202       -16.4140
 197   2.0000      -0.601581       -16.3699
 198   2.0000      -0.596308       -16.2264
 199   2.0000      -0.592416       -16.1205
 200   2.0000      -0.589929       -16.0528
 201   2.0000      -0.582376       -15.8473
 202   2.0000      -0.576999       -15.7009
 203   2.0000      -0.571074       -15.5397
 204   2.0000      -0.564623       -15.3642
 205   2.0000      -0.561464       -15.2782
 206   2.0000      -0.559565       -15.2265
 207   2.0000      -0.557213       -15.1625
 208   2.0000      -0.555681       -15.1208
 209   2.0000      -0.553648       -15.0655
 210   2.0000      -0.552884       -15.0447
 211   2.0000      -0.546033       -14.8583
 212   2.0000      -0.543923       -14.8009
 213   2.0000      -0.541522       -14.7356
 214   2.0000      -0.538012       -14.6400
 215   2.0000      -0.534176       -14.5357
 216   2.0000      -0.528444       -14.3797
 217   2.0000      -0.524137       -14.2625
 218   2.0000      -0.522437       -14.2162
 219   2.0000      -0.522311       -14.2128
 220   2.0000      -0.519853       -14.1459
 221   2.0000      -0.519617       -14.1395
 222   2.0000      -0.519199       -14.1281
 223   2.0000      -0.514030       -13.9875
 224   2.0000      -0.513151       -13.9635
 225   2.0000      -0.511593       -13.9212
 226   2.0000      -0.510748       -13.8982
 227   2.0000      -0.506019       -13.7695
 228   2.0000      -0.505853       -13.7650
 229   2.0000      -0.503567       -13.7028
 230   2.0000      -0.499889       -13.6027
 231   2.0000      -0.498196       -13.5566
 232   2.0000      -0.496868       -13.5205
 233   2.0000      -0.495340       -13.4789
 234   2.0000      -0.492226       -13.3942
 235   2.0000      -0.490884       -13.3576
 236   2.0000      -0.489282       -13.3140
 237   2.0000      -0.486944       -13.2504
 238   2.0000      -0.482833       -13.1386
 239   2.0000      -0.476336       -12.9618
 240   2.0000      -0.473586       -12.8869
 241   2.0000      -0.471504       -12.8303
 242   2.0000      -0.470332       -12.7984
 243   2.0000      -0.468213       -12.7407
 244   2.0000      -0.468158       -12.7392
 245   2.0000      -0.466084       -12.6828
 246   2.0000      -0.464012       -12.6264
 247   2.0000      -0.462710       -12.5910
 248   2.0000      -0.459524       -12.5043
 249   2.0000      -0.457860       -12.4590
 250   2.0000      -0.455840       -12.4040
 251   2.0000      -0.453964       -12.3530
 252   2.0000      -0.452007       -12.2997
 253   2.0000      -0.451422       -12.2838
 254   2.0000      -0.451082       -12.2746
 255   2.0000      -0.450802       -12.2669
 256   2.0000      -0.449932       -12.2433
 257   2.0000      -0.448757       -12.2113
 258   2.0000      -0.447574       -12.1791
 259   2.0000      -0.445994       -12.1361
 260   2.0000      -0.445574       -12.1247
 261   2.0000      -0.443053       -12.0561
 262   2.0000      -0.440851       -11.9962
 263   2.0000      -0.440521       -11.9872
 264   2.0000      -0.439507       -11.9596
 265   2.0000      -0.436378       -11.8745
 266   2.0000      -0.433727       -11.8023
 267   2.0000      -0.433149       -11.7866
 268   2.0000      -0.429561       -11.6890
 269   2.0000      -0.429333       -11.6827
 270   2.0000      -0.426280       -11.5997
 271   2.0000      -0.425123       -11.5682
 272   2.0000      -0.423598       -11.5267
 273   2.0000      -0.416714       -11.3394
 274   2.0000      -0.416048       -11.3213
 275   2.0000      -0.411120       -11.1872
 276   2.0000      -0.410531       -11.1711
 277   2.0000      -0.406752       -11.0683
 278   2.0000      -0.406147       -11.0518
 279   2.0000      -0.400393       -10.8953
 280   2.0000      -0.395473       -10.7614
 281   2.0000      -0.389188       -10.5904
 282   2.0000      -0.380755       -10.3609
 283   2.0000      -0.376048       -10.2328
 284   2.0000      -0.367362        -9.9964
 285   2.0000      -0.363721        -9.8974
 286   2.0000      -0.361688        -9.8420
 287   2.0000      -0.359551        -9.7839
 288   2.0000      -0.347276        -9.4499
 289   2.0000      -0.345863        -9.4114
 290   2.0000      -0.341017        -9.2796
 291   2.0000      -0.337212        -9.1760
 292   2.0000      -0.331912        -9.0318
 293   2.0000      -0.331495        -9.0204
 294   2.0000      -0.322556        -8.7772
 295   2.0000      -0.317574        -8.6416
 296   2.0000      -0.304378        -8.2825
 297   2.0000      -0.297786        -8.1032
 298   2.0000      -0.295211        -8.0331
 299   2.0000      -0.281400        -7.6573
 300   2.0000      -0.260889        -7.0991
 301   2.0000      -0.233465        -6.3529
 302   0.0000      -0.122782        -3.3411
 303   0.0000      -0.114624        -3.1191
 304   0.0000      -0.092515        -2.5175
 305   0.0000      -0.073494        -1.9999
 306   0.0000      -0.064247        -1.7482

MULLIKEN ATOMIC CHARGES
-----------------------
   0 C :    0.301640
   1 C :   -0.344577
   2 C :   -0.186598
   3 N :    0.151083
   4 C :   -0.203824
   5 N :    0.156090
   6 C :    0.015199
   7 C :   -0.016714
   8 C :   -0.070034
   9 C :    0.118693
  10 C :   -0.088191
  11 C :   -0.019902
  12 S :    0.187194
  13 C :   -0.123667
  14 C :    0.038170
  15 Br:    0.025589
  16 C :    0.151966
  17 O :   -0.152455
  18 C :   -0.092878
  19 C :    0.028245
  20 C :   -0.112286
  21 C :    0.022029
  22 C :   -0.018096
  23 C :   -0.080678
  24 S :    0.210311
  25 C :   -0.104976
  26 C :    0.026318
  27 C :    0.303915
  28 C :   -0.291350
  29 C :   -0.189060
  30 N :    0.192757
  31 C :   -0.187798
  32 N :    0.170539
  33 C :   -0.071085
  34 C :   -0.042305
  35 S :    0.205429
  36 C :   -0.058142
  37 C :   -0.058172
  38 C :    0.010807
  39 C :   -0.092773
  40 S :    0.196022
  41 C :   -0.097319
  42 C :    0.025054
  43 C :    0.297031
  44 C :   -0.291003
  45 C :   -0.187402
  46 N :    0.177100
  47 C :   -0.187251
  48 N :    0.177034
  49 C :   -0.064326
  50 C :   -0.053133
  51 S :    0.165664
  52 C :   -0.026991
  53 C :   -0.101269
  54 C :    0.050570
  55 C :    0.053291
  56 C :   -0.120891
  57 S :    0.130272
  58 C :   -0.104270
  59 C :    0.050298
  60 C :    0.003330
  61 C :   -0.063670
  62 S :    0.133056
  63 C :    0.080477
  64 C :    0.000760
  65 C :   -0.027422
  66 C :    0.128894
  67 C :   -0.013634
  68 C :   -0.014563
  69 C :    0.084314
  70 C :    0.046042
  71 C :   -0.077685
  72 C :    0.085864
  73 C :   -0.227420
  74 C :    0.127855
  75 O :   -0.166387
  76 N :   -0.029474
  77 C :   -0.138799
  78 N :    0.123337
  79 H :   -0.006687
  80 H :   -0.006449
  81 H :   -0.001169
  82 H :    0.020282
  83 H :    0.036264
  84 H :    0.013703
  85 H :    0.014488
  86 H :    0.022963
  87 H :   -0.008553
  88 H :    0.039383
  89 H :   -0.018718
  90 H :    0.028227
  91 H :   -0.026918
  92 H :   -0.030018
  93 H :   -0.015571
  94 H :   -0.029747
  95 H :   -0.027782
  96 H :    0.008077
  97 H :    0.134454
Sum of atomic charges:   -0.0000000

LOEWDIN ATOMIC CHARGES
----------------------
   0 C :    0.075957
   1 C :   -0.143023
   2 C :   -0.018806
   3 N :   -0.052679
   4 C :   -0.025405
   5 N :   -0.053431
   6 C :   -0.021713
   7 C :   -0.050513
   8 C :    0.023849
   9 C :   -0.031975
  10 C :   -0.143481
  11 C :   -0.009311
  12 S :    0.433653
  13 C :   -0.270962
  14 C :   -0.069738
  15 Br:    0.138326
  16 C :    0.085330
  17 O :   -0.139619
  18 C :   -0.096820
  19 C :    0.042178
  20 C :   -0.177858
  21 C :    0.023729
  22 C :   -0.077177
  23 C :   -0.157347
  24 S :    0.496617
  25 C :   -0.191793
  26 C :   -0.050059
  27 C :    0.077252
  28 C :   -0.093114
  29 C :   -0.021207
  30 N :   -0.015213
  31 C :   -0.013972
  32 N :   -0.033370
  33 C :   -0.043958
  34 C :   -0.166713
  35 S :    0.488805
  36 C :   -0.185364
  37 C :   -0.031070
  38 C :   -0.070956
  39 C :   -0.172446
  40 S :    0.484696
  41 C :   -0.185844
  42 C :   -0.062909
  43 C :    0.081421
  44 C :   -0.096963
  45 C :   -0.016396
  46 N :   -0.029322
  47 C :   -0.016683
  48 N :   -0.027327
  49 C :   -0.043323
  50 C :   -0.170922
  51 S :    0.472758
  52 C :   -0.187526
  53 C :   -0.029821
  54 C :   -0.025196
  55 C :   -0.047686
  56 C :   -0.137448
  57 S :    0.457665
  58 C :   -0.202412
  59 C :   -0.040682
  60 C :   -0.065126
  61 C :   -0.162286
  62 S :    0.424663
  63 C :   -0.045976
  64 C :   -0.013551
  65 C :   -0.033142
  66 C :   -0.038728
  67 C :    0.009930
  68 C :   -0.048701
  69 C :    0.049812
  70 C :   -0.059818
  71 C :    0.011632
  72 C :    0.067358
  73 C :   -0.112392
  74 C :    0.069970
  75 O :   -0.191837
  76 N :    0.048096
  77 C :   -0.024309
  78 N :   -0.044625
  79 H :    0.042350
  80 H :    0.041084
  81 H :    0.039601
  82 H :    0.043795
  83 H :    0.045298
  84 H :    0.035745
  85 H :    0.037035
  86 H :    0.035656
  87 H :    0.024879
  88 H :    0.038330
  89 H :    0.029506
  90 H :    0.024344
  91 H :    0.026121
  92 H :    0.023036
  93 H :    0.031742
  94 H :    0.031881
  95 H :    0.029490
  96 H :    0.046580
  97 H :    0.099877

  Mayer bond orders larger than 0.100000
B(  0-C ,  1-C ) :   1.6291 B(  0-C ,  6-C ) :   1.0037 B(  0-C , 18-C ) :   1.0765
B(  1-C ,  2-C ) :   1.1421 B(  1-C ,  4-C ) :   1.1411 B(  2-C ,  3-N ) :   2.9719
B(  4-C ,  5-N ) :   2.9900 B(  6-C ,  7-C ) :   1.2727 B(  6-C , 11-C ) :   1.4097
B(  7-C ,  8-C ) :   1.4214 B(  7-C , 16-C ) :   0.9483 B(  8-C ,  9-C ) :   1.2448
B(  8-C , 79-H ) :   1.0178 B(  9-C , 10-C ) :   1.3041 B(  9-C , 14-C ) :   1.1632
B( 10-C , 11-C ) :   1.3292 B( 10-C , 12-S ) :   1.0866 B( 11-C , 80-H ) :   0.9814
B( 12-S , 13-C ) :   1.0870 B( 13-C , 14-C ) :   1.6172 B( 13-C , 15-Br) :   1.0197
B( 14-C , 81-H ) :   1.0009 B( 16-C , 17-O ) :   2.1881 B( 16-C , 18-C ) :   0.9461
B( 18-C , 19-C ) :   1.5911 B( 19-C , 20-C ) :   1.2068 B( 19-C , 82-H ) :   0.9230
B( 20-C , 21-C ) :   1.4018 B( 20-C , 24-S ) :   1.0710 B( 21-C , 22-C ) :   1.3340
B( 21-C , 83-H ) :   0.9741 B( 22-C , 23-C ) :   1.3758 B( 22-C , 27-C ) :   0.9967
B( 23-C , 24-S ) :   1.1694 B( 23-C , 25-C ) :   1.2091 B( 25-C , 26-C ) :   1.4381
B( 25-C , 35-S ) :   1.1035 B( 26-C , 27-C ) :   0.9927 B( 26-C , 33-C ) :   1.3123
B( 27-C , 28-C ) :   1.7187 B( 28-C , 29-C ) :   1.1343 B( 28-C , 31-C ) :   1.1358
B( 29-C , 30-N ) :   2.9959 B( 31-C , 32-N ) :   2.9867 B( 33-C , 34-C ) :   1.4415
B( 33-C , 84-H ) :   0.9853 B( 34-C , 35-S ) :   1.1222 B( 34-C , 36-C ) :   1.1782
B( 36-C , 37-C ) :   1.4539 B( 36-C , 40-S ) :   1.1001 B( 37-C , 38-C ) :   1.3057
B( 37-C , 85-H ) :   0.9859 B( 38-C , 39-C ) :   1.4349 B( 38-C , 43-C ) :   0.9972
B( 39-C , 40-S ) :   1.1246 B( 39-C , 41-C ) :   1.1943 B( 41-C , 42-C ) :   1.4475
B( 41-C , 51-S ) :   1.1115 B( 42-C , 43-C ) :   0.9943 B( 42-C , 49-C ) :   1.3026
B( 43-C , 44-C ) :   1.7166 B( 44-C , 45-C ) :   1.1327 B( 44-C , 47-C ) :   1.1334
B( 45-C , 46-N ) :   2.9920 B( 47-C , 48-N ) :   2.9898 B( 49-C , 50-C ) :   1.4526
B( 49-C , 86-H ) :   0.9807 B( 50-C , 51-S ) :   1.1064 B( 50-C , 52-C ) :   1.1725
B( 52-C , 53-C ) :   1.5216 B( 52-C , 57-S ) :   1.0514 B( 53-C , 54-C ) :   1.2434
B( 53-C , 87-H ) :   0.9576 B( 54-C , 55-C ) :   1.0472 B( 54-C , 63-C ) :   1.4026
B( 55-C , 56-C ) :   1.6142 B( 55-C , 58-C ) :   1.1792 B( 56-C , 57-S ) :   1.1348
B( 56-C , 88-H ) :   0.9411 B( 58-C , 59-C ) :   1.4356 B( 58-C , 62-S ) :   1.0772
B( 59-C , 60-C ) :   1.2135 B( 59-C , 63-C ) :   1.1093 B( 60-C , 61-C ) :   1.5889
B( 60-C , 89-H ) :   0.9987 B( 61-C , 62-S ) :   1.1544 B( 61-C , 90-H ) :   0.9656
B( 63-C , 64-C ) :   1.1325 B( 64-C , 65-C ) :   1.6722 B( 64-C , 91-H ) :   0.9532
B( 65-C , 66-C ) :   1.0714 B( 65-C , 92-H ) :   0.9795 B( 66-C , 67-C ) :   1.2736
B( 66-C , 71-C ) :   1.3616 B( 67-C , 68-C ) :   1.4281 B( 67-C , 93-H ) :   0.9933
B( 68-C , 69-C ) :   1.2956 B( 68-C , 94-H ) :   0.9915 B( 69-C , 70-C ) :   1.2920
B( 69-C , 76-N ) :   1.1975 B( 70-C , 71-C ) :   1.2945 B( 70-C , 72-C ) :   1.1260
B( 71-C , 95-H ) :   0.9973 B( 72-C , 73-C ) :   1.6443 B( 72-C , 96-H ) :   0.9860
B( 73-C , 74-C ) :   0.9501 B( 73-C , 77-C ) :   1.1101 B( 74-C , 75-O ) :   2.2443
B( 74-C , 76-N ) :   1.0872 B( 76-N , 97-H ) :   0.9019 B( 77-C , 78-N ) :   3.0438

-----------------------------------------------------------------------------
         ABSORPTION SPECTRUM VIA TRANSITION ELECTRIC DIPOLE MOMENTS
-----------------------------------------------------------------------------
State   Energy  Wavelength   fosc         T2         TX        TY        TZ
        (cm-1)    (nm)                  (au**2)     (au)      (au)      (au)
-----------------------------------------------------------------------------
   0    9481.3   1054.7   0.295231515  10.25110   3.10219  -0.42605   0.66784
   1   12203.8    819.4   0.292063904   7.87880   2.56992  -1.00555   0.51302
   2   15581.6    641.8   0.038374012   0.81078   0.11304  -0.89038   0.07233
   3   17613.5    567.7   0.216336366   4.04353   1.96785  -0.06275   0.40883
   4   19066.0    524.5   0.949788885  16.39995  -3.90667  -0.81990  -0.68238
   5   20518.0    487.4   0.887861045  14.24579   2.98168  -2.23279   0.60828
   6   22291.8    448.6   0.012641683   0.18670   0.26150  -0.31450   0.13930
   7   23328.6    428.7   0.099043570   1.39770  -0.82981  -0.82097  -0.18741
   8   23953.6    417.5   0.002726019   0.03747   0.09968  -0.15745  -0.05233
   9   24552.7    407.3   0.054961568   0.73694  -0.06774  -0.81306  -0.26699
  10   24929.4    401.1   0.183879940   2.42828  -1.44429   0.36398  -0.45808
  11   25601.2    390.6   0.066656642   0.85715   0.79638  -0.34538  -0.32195
  12   26318.6    380.0   0.289509133   3.62139  -0.53719   1.81421  -0.20364
  13   26977.0    370.7   0.206143894   2.51566  -0.83045   1.30747   0.34138
  14   27506.3    363.6   0.161408795   1.93184  -0.18782   1.36641  -0.17172
  15   27694.2    361.1   0.098469958   1.17055  -0.46856   0.94534  -0.23946
  16   28027.3    356.8   0.022651626   0.26607   0.28137  -0.42293   0.08962
  17   28610.1    349.5   0.236927445   2.72629  -1.08315   1.24541   0.04506
  18   28932.6    345.6   0.019340783   0.22007  -0.26882   0.35830  -0.13938
  19   29545.4    338.5   0.180518231   2.01144  -0.47738   1.25519  -0.45612
  20   29994.3    333.4   0.100477391   1.10282  -0.43949   0.35801   0.88403
  21   30532.2    327.5   0.280800682   3.02772   0.25216   1.71467  -0.15510
  22   30808.5    324.6   0.087634275   0.93644   0.50807   0.66502   0.48585
  23   31326.1    319.2   0.074147020   0.77922  -0.86289   0.05527   0.17775
  24   31525.9    317.2   0.535225582   5.58914  -1.71914  -1.58745  -0.33719
  25   31635.5    316.1   0.050730432   0.52792  -0.36938  -0.62319   0.05579
  26   31740.1    315.1   0.452234163   4.69063  -0.22882   2.12007   0.37891
  27   31924.8    313.2   0.142374972   1.46818   0.38006  -1.02272  -0.52706
  28   32066.0    311.9   0.247885658   2.54497  -0.82426   1.30104  -0.41576
  29   32419.3    308.5   0.093377990   0.94824  -0.72853   0.64243  -0.06906
  30   32569.7    307.0   0.017226945   0.17413   0.14726  -0.31622   0.22901
  31   32683.4    306.0   0.353626211   3.56199   0.44041   1.81574   0.26671
  32   33079.3    302.3   0.174299663   1.73467  -0.66723   1.11939  -0.19090
  33   33186.7    301.3   0.067696899   0.67155  -0.57717   0.57994  -0.04584
  34   33425.9    299.2   0.026262244   0.25866  -0.22681  -0.44810  -0.08012
  35   33463.0    298.8   0.054575414   0.53692  -0.72997  -0.02157  -0.06001
  36   33935.0    294.7   0.061131372   0.59305   0.35045  -0.40528   0.55316
  37   33941.6    294.6   0.340728752   3.30485   0.23561   1.50910   0.98588
  38   34160.3    292.7   0.272726141   2.62834   0.53294   1.52859  -0.08784
  39   34290.0    291.6   0.059142850   0.56782   0.07760  -0.73241   0.15927
  40   34555.7    289.4   0.244794569   2.33216   1.50043  -0.00872   0.28424
  41   34795.4    287.4   0.132808669   1.25655  -0.75242   0.56953  -0.60502
  42   35476.3    281.9   0.185714320   1.72339  -1.26413  -0.00612  -0.35401
  43   35906.7    278.5   0.109766265   1.00640   0.11043  -0.99694   0.01784
  44   36250.2    275.9   0.190709989   1.73196  -1.19784   0.40826  -0.36120
  45   36740.2    272.2   0.132659185   1.18870   0.96660   0.00038   0.50436
  46   36895.9    271.0   0.045770641   0.40840   0.39374   0.40810   0.29466
  47   37096.8    269.6   0.020881089   0.18531   0.41596   0.10860   0.02207
  48   37213.0    268.7   0.018173494   0.16078   0.26932   0.25223   0.15692
  49   37273.3    268.3   0.024023214   0.21218   0.21654   0.36312   0.18286
  50   37321.5    267.9   0.003352571   0.02957   0.08663   0.06304  -0.13451
  51   37623.2    265.8   0.001111649   0.00973  -0.07593   0.00044   0.06294
  52   38338.6    260.8   0.117297093   1.00722   0.90697  -0.42904  -0.02350
  53   38566.7    259.3   0.002066315   0.01764  -0.10780  -0.07551   0.01775
  54   38815.0    257.6   0.008056340   0.06833  -0.07095   0.25138   0.01028
  55   39012.0    256.3   0.037763674   0.31868   0.49727   0.03886   0.26436
  56   39131.4    255.5   0.011591199   0.09752   0.24721  -0.01074   0.19049
  57   39203.6    255.1   0.069807341   0.58621   0.55281   0.43924   0.29610
  58   39406.6    253.8   0.196385918   1.64065  -0.93152  -0.69924  -0.53290
  59   39905.1    250.6   0.033658411   0.27768  -0.31950  -0.41903   0.00284
  60   40248.1    248.5   0.184177188   1.50649   0.27765   1.17720   0.20880

FINAL SINGLE POINT ENERGY     -8280.978392321227

DIPOLE MOMENT
-------------
                                X             Y             Z
Electronic contribution:    202.49134     -71.19694       6.52367
Nuclear contribution   :   -203.43298      73.51553      -7.71471
                        -----------------------------------------
Total Dipole Moment    :     -0.94164       2.31859      -1.19104
                        -----------------------------------------
Magnitude (a.u.)       :      2.77148
Magnitude (Debye)      :      7.04455

Rotational constants in cm-1:     0.000911     0.000153     0.000134
Rotational constants in MHz :    27.304798     4.588603     4.014758

                             ****ORCA TERMINATED NORMALLY****
TOTAL RUN TIME: 0 days 0 hours 11 minutes 1 seconds 682 msec
