                         Program Version 4.2.0 -  RELEASE  -
|  1> # ORCA input file
|  2> # SCF done       -145.159169978742          0.000873029788
|  3> ! CAM-B3LYP def2-SVP def2/J RIJCOSX Grid4 TightSCF
|  4> %maxcore 5000
|  5> %tddft
|  6>     Mode sTDDFT
|  7>     Ethresh 5.0
|  8>     maxcore 5000
|  9> end
| 10>
| 11> %pal
| 12>   nprocs 6
| 13>   end
| 14> * xyz 0 1
| 15>    C       -1.73588        -3.53291         1.50902
| 16>    C       -1.08561        -3.30352         0.33397
| 17>    C       -0.97614        -1.92502         0.07145
| 18>    C       -1.55756        -1.14158         1.07507
| 19>    S       -2.23089        -2.08822         2.32600
| 20>    C       -1.40252         0.23217         0.73362
| 21>    C       -0.72005         0.30496        -0.49501
| 22>    C       -0.42785        -1.04770        -0.94857
| 23>    C        0.22794        -1.41583        -2.08679
| 24>    C        0.72907        -0.47826        -3.01482
| 25>    N        1.14606         0.26713        -3.77950
| 26>    C        0.45529        -2.76858        -2.41608
| 27>    N        0.64203        -3.86671        -2.68953
| 28>    C       -0.51673         1.61703        -0.92083
| 29>    C       -1.04000         2.52315        -0.01722
| 30>    S       -1.79183         1.76431         1.36977
| 31>    C       -1.02693         3.94381        -0.07515
| 32>    N       -1.56895         4.60807         0.93216
| 33>    N       -1.59544         5.90699         1.00693
| 34>    C       -1.08873         6.70039         0.08269
| 35>    C       -0.48740         6.11690        -1.07819
| 36>    C       -0.45415         4.67900        -1.15564
| 37>    N        0.13876         4.35419        -2.28441
| 38>    O        0.45397         5.51109        -2.87142
| 39>    N        0.08962         6.57675        -2.16661
| 40>    C       -1.14646         8.12267         0.28606
| 41>    N       -0.68145         8.90236        -0.68197
| 42>    N       -0.64736        10.18660        -0.61315
| 43>    C       -1.07779        10.87487         0.45351
| 44>    C       -1.62392        10.14583         1.55513
| 45>    C       -1.66293         8.71508         1.47448
| 46>    N       -2.18435         8.16715         2.56330
| 47>    S       -2.59015         9.33828         3.58749
| 48>    N       -2.11889        10.60295         2.69781
| 49>    C       -0.98668        12.28232         0.51151
| 50>    C       -0.47926        13.09968        -0.46873
| 51>    C        0.02885        12.76106        -1.74716
| 52>    C        0.45387        13.83321        -2.47159
| 53>    C        0.31323        15.07293        -1.80597
| 54>    S       -0.39217        14.83252        -0.22366
| 55>    C        0.66398        16.33175        -2.25988
| 56>    C        1.21691        16.67947        -3.51522
| 57>    C        1.45623        18.01154        -3.66337
| 58>    C        1.11105        18.78699        -2.52948
| 59>    S        0.45871        17.75334        -1.26560
| 60>    C        1.24465        20.14217        -2.36161
| 61>    C        0.89788        20.76065        -1.18341
| 62>    C        0.58095        21.24867        -0.11122
| 63>    C        0.21864        21.73526         1.12478
| 64>    S       -0.35129        20.63438         2.35869
| 65>    C       -0.54160        21.95534         3.47755
| 66>    C       -0.18167        23.16053         2.90634
| 67>    C        0.24487        23.03873         1.58725
| 68>    C       -0.99783        21.72860         4.76828
| 69>    C       -1.39849        21.48782         5.88684
| 70>    C       -1.85765        21.21777         7.18293
| 71>    C       -2.01174        22.15083         8.12102
| 72>    H       -1.96219        -4.47898         1.95883
| 73>    H       -0.70948        -4.08352        -0.30231
| 74>    H       -0.02190         1.92396        -1.82492
| 75>    H       -1.34626        12.73134         1.42683
| 76>    H        0.05190        11.73258        -2.06018
| 77>    H        0.86856        13.76559        -3.46137
| 78>    H        1.41842        15.94094        -4.27003
| 79>    H        1.87241        18.46273        -4.54712
| 80>    H        1.64578        20.74191        -3.16718
| 81>    H       -0.23103        24.09038         3.44437
| 82>    H        0.56784        23.86141         0.97451
| 83>    H       -2.08577        20.17771         7.38427
| 84>    H       -1.78744        23.18663         7.92850
| 85>    H       -2.36759        21.90303         9.10579
| 86> *
| 87>
| 88>                          ****END OF INPUT****

CARTESIAN COORDINATES (ANGSTROEM)
---------------------------------
  C     -1.735880   -3.532910    1.509020
  C     -1.085610   -3.303520    0.333970
  C     -0.976140   -1.925020    0.071450
  C     -1.557560   -1.141580    1.075070
  S     -2.230890   -2.088220    2.326000
  C     -1.402520    0.232170    0.733620
  C     -0.720050    0.304960   -0.495010
  C     -0.427850   -1.047700   -0.948570
  C      0.227940   -1.415830   -2.086790
  C      0.729070   -0.478260   -3.014820
  N      1.146060    0.267130   -3.779500
  C      0.455290   -2.768580   -2.416080
  N      0.642030   -3.866710   -2.689530
  C     -0.516730    1.617030   -0.920830
  C     -1.040000    2.523150   -0.017220
  S     -1.791830    1.764310    1.369770
  C     -1.026930    3.943810   -0.075150
  N     -1.568950    4.608070    0.932160
  N     -1.595440    5.906990    1.006930
  C     -1.088730    6.700390    0.082690
  C     -0.487400    6.116900   -1.078190
  C     -0.454150    4.679000   -1.155640
  N      0.138760    4.354190   -2.284410
  O      0.453970    5.511090   -2.871420
  N      0.089620    6.576750   -2.166610
  C     -1.146460    8.122670    0.286060
  N     -0.681450    8.902360   -0.681970
  N     -0.647360   10.186600   -0.613150
  C     -1.077790   10.874870    0.453510
  C     -1.623920   10.145830    1.555130
  C     -1.662930    8.715080    1.474480
  N     -2.184350    8.167150    2.563300
  S     -2.590150    9.338280    3.587490
  N     -2.118890   10.602950    2.697810
  C     -0.986680   12.282320    0.511510
  C     -0.479260   13.099680   -0.468730
  C      0.028850   12.761060   -1.747160
  C      0.453870   13.833210   -2.471590
  C      0.313230   15.072930   -1.805970
  S     -0.392170   14.832520   -0.223660
  C      0.663980   16.331750   -2.259880
  C      1.216910   16.679470   -3.515220
  C      1.456230   18.011540   -3.663370
  C      1.111050   18.786990   -2.529480
  S      0.458710   17.753340   -1.265600
  C      1.244650   20.142170   -2.361610
  C      0.897880   20.760650   -1.183410
  C      0.580950   21.248670   -0.111220
  C      0.218640   21.735260    1.124780
  S     -0.351290   20.634380    2.358690
  C     -0.541600   21.955340    3.477550
  C     -0.181670   23.160530    2.906340
  C      0.244870   23.038730    1.587250
  C     -0.997830   21.728600    4.768280
  C     -1.398490   21.487820    5.886840
  C     -1.857650   21.217770    7.182930
  C     -2.011740   22.150830    8.121020
  H     -1.962190   -4.478980    1.958830
  H     -0.709480   -4.083520   -0.302310
  H     -0.021900    1.923960   -1.824920
  H     -1.346260   12.731340    1.426830
  H      0.051900   11.732580   -2.060180
  H      0.868560   13.765590   -3.461370
  H      1.418420   15.940940   -4.270030
  H      1.872410   18.462730   -4.547120
  H      1.645780   20.741910   -3.167180
  H     -0.231030   24.090380    3.444370
  H      0.567840   23.861410    0.974510
  H     -2.085770   20.177710    7.384270
  H     -1.787440   23.186630    7.928500
  H     -2.367590   21.903030    9.105790

 Total Charge           Charge          ....    0
 Multiplicity           Mult            ....    1
 Number of Electrons    NEL             ....  428
 Basis Dimension        Dim             ....  892

ORBITAL ENERGIES
----------------

  NO   OCC          E(Eh)            E(eV)
   0   2.0000     -89.026322     -2422.5294
   1   2.0000     -88.984936     -2421.4032
   2   2.0000     -88.983432     -2421.3623
   3   2.0000     -88.963760     -2420.8270
   4   2.0000     -88.955968     -2420.6150
   5   2.0000     -88.952674     -2420.5253
   6   2.0000     -19.362496      -526.8803
   7   2.0000     -14.490882      -394.3169
   8   2.0000     -14.486300      -394.1923
   9   2.0000     -14.444986      -393.0680
  10   2.0000     -14.443813      -393.0361
  11   2.0000     -14.439956      -392.9312
  12   2.0000     -14.439287      -392.9130
  13   2.0000     -14.438547      -392.8928
  14   2.0000     -14.427670      -392.5969
  15   2.0000     -14.424040      -392.4981
  16   2.0000     -14.421996      -392.4425
  17   2.0000     -10.357737      -281.8484
  18   2.0000     -10.346167      -281.5335
  19   2.0000     -10.345627      -281.5188
  20   2.0000     -10.335251      -281.2365
  21   2.0000     -10.335175      -281.2344
  22   2.0000     -10.331647      -281.1384
  23   2.0000     -10.329111      -281.0694
  24   2.0000     -10.327776      -281.0331
  25   2.0000     -10.327351      -281.0215
  26   2.0000     -10.326951      -281.0106
  27   2.0000     -10.326897      -281.0092
  28   2.0000     -10.325329      -280.9665
  29   2.0000     -10.324496      -280.9438
  30   2.0000     -10.322521      -280.8901
  31   2.0000     -10.321888      -280.8729
  32   2.0000     -10.320299      -280.8296
  33   2.0000     -10.319940      -280.8198
  34   2.0000     -10.319745      -280.8145
  35   2.0000     -10.318978      -280.7937
  36   2.0000     -10.318151      -280.7712
  37   2.0000     -10.315232      -280.6917
  38   2.0000     -10.310853      -280.5726
  39   2.0000     -10.306426      -280.4521
  40   2.0000     -10.300124      -280.2806
  41   2.0000     -10.299580      -280.2658
  42   2.0000     -10.299432      -280.2618
  43   2.0000     -10.298185      -280.2279
  44   2.0000     -10.296491      -280.1818
  45   2.0000     -10.295256      -280.1482
  46   2.0000     -10.295002      -280.1413
  47   2.0000     -10.293187      -280.0919
  48   2.0000     -10.287666      -279.9416
  49   2.0000     -10.285359      -279.8788
  50   2.0000     -10.283742      -279.8348
  51   2.0000     -10.283133      -279.8183
  52   2.0000     -10.278544      -279.6934
  53   2.0000     -10.277644      -279.6689
  54   2.0000     -10.277506      -279.6651
  55   2.0000     -10.276713      -279.6436
  56   2.0000     -10.275254      -279.6039
  57   2.0000      -8.118350      -220.9115
  58   2.0000      -8.080008      -219.8682
  59   2.0000      -8.077222      -219.7924
  60   2.0000      -8.059326      -219.3054
  61   2.0000      -8.052304      -219.1143
  62   2.0000      -8.049214      -219.0303
  63   2.0000      -6.089522      -165.7043
  64   2.0000      -6.081677      -165.4908
  65   2.0000      -6.080821      -165.4676
  66   2.0000      -6.049256      -164.6086
  67   2.0000      -6.046480      -164.5331
  68   2.0000      -6.044804      -164.4875
  69   2.0000      -6.042610      -164.4278
  70   2.0000      -6.042146      -164.4151
  71   2.0000      -6.039794      -164.3512
  72   2.0000      -6.028698      -164.0492
  73   2.0000      -6.024460      -163.9339
  74   2.0000      -6.022027      -163.8677
  75   2.0000      -6.021268      -163.8470
  76   2.0000      -6.018888      -163.7823
  77   2.0000      -6.018028      -163.7589
  78   2.0000      -6.014845      -163.6723
  79   2.0000      -6.013121      -163.6253
  80   2.0000      -6.010205      -163.5460
  81   2.0000      -1.315447       -35.7951
  82   2.0000      -1.133431       -30.8422
  83   2.0000      -1.124066       -30.5874
  84   2.0000      -1.109741       -30.1976
  85   2.0000      -1.038732       -28.2653
  86   2.0000      -1.020741       -27.7758
  87   2.0000      -1.014871       -27.6160
  88   2.0000      -1.005635       -27.3647
  89   2.0000      -1.000399       -27.2222
  90   2.0000      -0.993269       -27.0282
  91   2.0000      -0.990618       -26.9561
  92   2.0000      -0.987990       -26.8846
  93   2.0000      -0.980929       -26.6924
  94   2.0000      -0.978735       -26.6327
  95   2.0000      -0.958129       -26.0720
  96   2.0000      -0.944279       -25.6951
  97   2.0000      -0.927158       -25.2292
  98   2.0000      -0.910577       -24.7781
  99   2.0000      -0.907456       -24.6931
 100   2.0000      -0.898129       -24.4393
 101   2.0000      -0.892507       -24.2864
 102   2.0000      -0.879930       -23.9441
 103   2.0000      -0.867326       -23.6011
 104   2.0000      -0.862253       -23.4631
 105   2.0000      -0.853892       -23.2356
 106   2.0000      -0.848153       -23.0794
 107   2.0000      -0.843467       -22.9519
 108   2.0000      -0.836342       -22.7580
 109   2.0000      -0.831152       -22.6168
 110   2.0000      -0.823019       -22.3955
 111   2.0000      -0.809574       -22.0296
 112   2.0000      -0.792965       -21.5777
 113   2.0000      -0.787298       -21.4235
 114   2.0000      -0.775373       -21.0990
 115   2.0000      -0.769744       -20.9458
 116   2.0000      -0.767583       -20.8870
 117   2.0000      -0.748843       -20.3771
 118   2.0000      -0.736945       -20.0533
 119   2.0000      -0.724493       -19.7145
 120   2.0000      -0.715091       -19.4586
 121   2.0000      -0.702258       -19.1094
 122   2.0000      -0.696307       -18.9475
 123   2.0000      -0.692713       -18.8497
 124   2.0000      -0.683581       -18.6012
 125   2.0000      -0.677932       -18.4475
 126   2.0000      -0.673278       -18.3208
 127   2.0000      -0.664112       -18.0714
 128   2.0000      -0.658698       -17.9241
 129   2.0000      -0.646131       -17.5821
 130   2.0000      -0.645491       -17.5647
 131   2.0000      -0.636331       -17.3155
 132   2.0000      -0.629701       -17.1350
 133   2.0000      -0.622484       -16.9386
 134   2.0000      -0.620094       -16.8736
 135   2.0000      -0.615939       -16.7606
 136   2.0000      -0.615613       -16.7517
 137   2.0000      -0.613804       -16.7025
 138   2.0000      -0.610237       -16.6054
 139   2.0000      -0.608311       -16.5530
 140   2.0000      -0.591436       -16.0938
 141   2.0000      -0.582267       -15.8443
 142   2.0000      -0.576339       -15.6830
 143   2.0000      -0.569779       -15.5045
 144   2.0000      -0.563198       -15.3254
 145   2.0000      -0.560627       -15.2554
 146   2.0000      -0.548335       -14.9210
 147   2.0000      -0.544894       -14.8273
 148   2.0000      -0.542335       -14.7577
 149   2.0000      -0.539681       -14.6855
 150   2.0000      -0.532437       -14.4883
 151   2.0000      -0.529236       -14.4012
 152   2.0000      -0.526891       -14.3374
 153   2.0000      -0.522280       -14.2120
 154   2.0000      -0.519312       -14.1312
 155   2.0000      -0.508807       -13.8454
 156   2.0000      -0.508122       -13.8267
 157   2.0000      -0.507920       -13.8212
 158   2.0000      -0.501370       -13.6430
 159   2.0000      -0.498620       -13.5681
 160   2.0000      -0.496190       -13.5020
 161   2.0000      -0.492178       -13.3929
 162   2.0000      -0.490213       -13.3394
 163   2.0000      -0.489013       -13.3067
 164   2.0000      -0.487588       -13.2679
 165   2.0000      -0.486383       -13.2351
 166   2.0000      -0.479909       -13.0590
 167   2.0000      -0.478920       -13.0321
 168   2.0000      -0.471964       -12.8428
 169   2.0000      -0.468056       -12.7365
 170   2.0000      -0.467373       -12.7179
 171   2.0000      -0.455668       -12.3993
 172   2.0000      -0.454558       -12.3691
 173   2.0000      -0.450393       -12.2558
 174   2.0000      -0.447857       -12.1868
 175   2.0000      -0.447162       -12.1679
 176   2.0000      -0.445086       -12.1114
 177   2.0000      -0.439308       -11.9542
 178   2.0000      -0.437775       -11.9125
 179   2.0000      -0.437128       -11.8949
 180   2.0000      -0.432986       -11.7821
 181   2.0000      -0.432458       -11.7678
 182   2.0000      -0.432305       -11.7636
 183   2.0000      -0.423954       -11.5364
 184   2.0000      -0.421110       -11.4590
 185   2.0000      -0.419533       -11.4161
 186   2.0000      -0.418857       -11.3977
 187   2.0000      -0.414072       -11.2675
 188   2.0000      -0.412767       -11.2320
 189   2.0000      -0.408989       -11.1292
 190   2.0000      -0.403348       -10.9757
 191   2.0000      -0.400969       -10.9109
 192   2.0000      -0.397955       -10.8289
 193   2.0000      -0.386946       -10.5293
 194   2.0000      -0.375957       -10.2303
 195   2.0000      -0.374472       -10.1899
 196   2.0000      -0.367322        -9.9953
 197   2.0000      -0.364158        -9.9092
 198   2.0000      -0.360061        -9.7978
 199   2.0000      -0.354841        -9.6557
 200   2.0000      -0.347685        -9.4610
 201   2.0000      -0.342978        -9.3329
 202   2.0000      -0.342439        -9.3182
 203   2.0000      -0.341644        -9.2966
 204   2.0000      -0.331971        -9.0334
 205   2.0000      -0.330485        -8.9930
 206   2.0000      -0.326140        -8.8747
 207   2.0000      -0.314657        -8.5623
 208   2.0000      -0.301612        -8.2073
 209   2.0000      -0.300325        -8.1722
 210   2.0000      -0.290313        -7.8998
 211   2.0000      -0.272685        -7.4201
 212   2.0000      -0.260476        -7.0879
 213   2.0000      -0.220923        -6.0116
 214   0.0000      -0.111598        -3.0367
 215   0.0000      -0.096922        -2.6374
 216   0.0000      -0.077463        -2.1079
 217   0.0000      -0.055325        -1.5055
 218   0.0000      -0.032495        -0.8842

MULLIKEN ATOMIC CHARGES
-----------------------
   0 C :   -0.078837
   1 C :    0.037251
   2 C :   -0.027149
   3 C :   -0.125607
   4 S :    0.186245
   5 C :   -0.083728
   6 C :    0.003560
   7 C :    0.301033
   8 C :   -0.300311
   9 C :   -0.194318
  10 N :    0.184813
  11 C :   -0.190006
  12 N :    0.170340
  13 C :   -0.054615
  14 C :   -0.129351
  15 S :    0.245499
  16 C :    0.015166
  17 N :   -0.064632
  18 N :   -0.018771
  19 C :   -0.082472
  20 C :   -0.021000
  21 C :   -0.028913
  22 N :    0.070423
  23 O :   -0.083191
  24 N :    0.112923
  25 C :   -0.078022
  26 N :   -0.017109
  27 N :   -0.107529
  28 C :    0.002430
  29 C :    0.027663
  30 C :    0.027130
  31 N :   -0.212622
  32 S :    0.513878
  33 N :   -0.256842
  34 C :   -0.019917
  35 C :   -0.036974
  36 C :    0.033759
  37 C :    0.042786
  38 C :   -0.059050
  39 S :    0.108681
  40 C :   -0.043313
  41 C :    0.030048
  42 C :    0.047840
  43 C :   -0.034846
  44 S :    0.119612
  45 C :   -0.073859
  46 C :   -0.058968
  47 C :    0.091704
  48 C :   -0.159350
  49 S :    0.194554
  50 C :   -0.141174
  51 C :    0.050925
  52 C :    0.055596
  53 C :    0.086159
  54 C :   -0.071633
  55 C :   -0.091344
  56 C :    0.003985
  57 H :    0.036550
  58 H :    0.012805
  59 H :    0.022319
  60 H :   -0.009437
  61 H :    0.025917
  62 H :   -0.007147
  63 H :   -0.003979
  64 H :   -0.002787
  65 H :    0.021797
  66 H :   -0.006863
  67 H :   -0.006220
  68 H :    0.034342
  69 H :    0.032073
  70 H :    0.032083
Sum of atomic charges:   -0.0000000

LOEWDIN ATOMIC CHARGES
----------------------
   0 C :   -0.173250
   1 C :   -0.035121
   2 C :   -0.068761
   3 C :   -0.188875
   4 S :    0.480819
   5 C :   -0.166964
   6 C :   -0.077639
   7 C :    0.080450
   8 C :   -0.102426
   9 C :   -0.020940
  10 N :   -0.025644
  11 C :   -0.016068
  12 N :   -0.035733
  13 C :   -0.005781
  14 C :   -0.186562
  15 S :    0.521327
  16 C :   -0.018244
  17 N :   -0.070793
  18 N :   -0.028563
  19 C :   -0.014834
  20 C :   -0.060824
  21 C :   -0.065788
  22 N :   -0.010430
  23 O :    0.087188
  24 N :    0.020112
  25 C :   -0.050037
  26 N :   -0.021267
  27 N :   -0.072944
  28 C :    0.003976
  29 C :   -0.062551
  30 C :   -0.055559
  31 N :   -0.249841
  32 S :    0.650743
  33 N :   -0.275462
  34 C :   -0.078824
  35 C :   -0.102293
  36 C :   -0.028875
  37 C :   -0.012157
  38 C :   -0.183575
  39 S :    0.392292
  40 C :   -0.158838
  41 C :   -0.028913
  42 C :   -0.022009
  43 C :   -0.132799
  44 S :    0.396896
  45 C :   -0.061434
  46 C :   -0.041789
  47 C :   -0.042844
  48 C :   -0.186314
  49 S :    0.469603
  50 C :   -0.179212
  51 C :   -0.037619
  52 C :   -0.032220
  53 C :   -0.062392
  54 C :   -0.018745
  55 C :   -0.043649
  56 C :   -0.010739
  57 H :    0.028054
  58 H :    0.042830
  59 H :    0.044024
  60 H :    0.035863
  61 H :    0.039596
  62 H :    0.035011
  63 H :    0.035282
  64 H :    0.037366
  65 H :    0.048588
  66 H :    0.036377
  67 H :    0.036423
  68 H :    0.045446
  69 H :    0.029617
  70 H :    0.028251

  Mayer bond orders larger than 0.100000
B(  0-C ,  1-C ) :   1.5421 B(  0-C ,  4-S ) :   1.1577 B(  0-C , 57-H ) :   0.9645
B(  1-C ,  2-C ) :   1.2811 B(  1-C , 58-H ) :   0.9955 B(  2-C ,  3-C ) :   1.4605
B(  2-C ,  7-C ) :   1.0103 B(  3-C ,  4-S ) :   1.1324 B(  3-C ,  5-C ) :   1.1874
B(  5-C ,  6-C ) :   1.4379 B(  5-C , 15-S ) :   1.1373 B(  6-C ,  7-C ) :   0.9952
B(  6-C , 13-C ) :   1.2730 B(  7-C ,  8-C ) :   1.7111 B(  8-C ,  9-C ) :   1.1356
B(  8-C , 11-C ) :   1.1302 B(  9-C , 10-N ) :   2.9970 B( 11-C , 12-N ) :   3.0003
B( 13-C , 14-C ) :   1.4865 B( 13-C , 59-H ) :   0.9834 B( 14-C , 15-S ) :   1.0792
B( 14-C , 16-C ) :   1.1749 B( 16-C , 17-N ) :   1.7291 B( 16-C , 19-C ) :   0.1183
B( 16-C , 21-C ) :   1.0773 B( 17-N , 18-N ) :   1.1828 B( 18-N , 19-C ) :   1.7982
B( 18-N , 25-C ) :  -0.1056 B( 19-C , 20-C ) :   1.0215 B( 19-C , 25-C ) :   1.1106
B( 19-C , 26-N ) :  -0.1072 B( 20-C , 21-C ) :   1.1655 B( 20-C , 24-N ) :   1.6263
B( 21-C , 22-N ) :   1.6249 B( 22-N , 23-O ) :   1.0638 B( 22-N , 24-N ) :   0.1815
B( 23-O , 24-N ) :   1.0625 B( 25-C , 26-N ) :   1.7368 B( 25-C , 28-C ) :   0.1125
B( 25-C , 30-C ) :   1.0712 B( 26-N , 27-N ) :   1.2588 B( 27-N , 28-C ) :   1.5094
B( 28-C , 29-C ) :   1.0774 B( 28-C , 34-C ) :   1.2892 B( 29-C , 30-C ) :   1.1826
B( 29-C , 33-N ) :   1.5908 B( 30-C , 31-N ) :   1.5865 B( 31-N , 32-S ) :   1.2679
B( 31-N , 33-N ) :   0.1423 B( 32-S , 33-N ) :   1.2571 B( 34-C , 35-C ) :   1.4569
B( 34-C , 60-H ) :   0.9536 B( 35-C , 36-C ) :   1.1958 B( 35-C , 39-S ) :   1.0690
B( 36-C , 37-C ) :   1.5450 B( 36-C , 61-H ) :   0.9782 B( 37-C , 38-C ) :   1.1943
B( 37-C , 62-H ) :   0.9950 B( 38-C , 39-S ) :   1.0495 B( 38-C , 40-C ) :   1.4894
B( 40-C , 41-C ) :   1.1896 B( 40-C , 44-S ) :   1.0648 B( 41-C , 42-C ) :   1.5956
B( 41-C , 63-H ) :   0.9938 B( 42-C , 43-C ) :   1.1469 B( 42-C , 64-H ) :   0.9958
B( 43-C , 44-S ) :   1.0399 B( 43-C , 45-C ) :   1.6042 B( 45-C , 46-C ) :   1.0548
B( 45-C , 65-H ) :   0.9630 B( 46-C , 47-C ) :   2.2372 B( 47-C , 48-C ) :   1.0069
B( 48-C , 49-S ) :   1.1037 B( 48-C , 50-C ) :   0.1078 B( 48-C , 52-C ) :   1.4745
B( 49-S , 50-C ) :   1.1212 B( 50-C , 51-C ) :   1.4912 B( 50-C , 53-C ) :   0.9623
B( 51-C , 52-C ) :   1.2793 B( 51-C , 66-H ) :   1.0008 B( 52-C , 67-H ) :   1.0002
B( 53-C , 54-C ) :   2.3562 B( 54-C , 55-C ) :   1.0210 B( 55-C , 56-C ) :   1.9313
B( 55-C , 68-H ) :   0.9576 B( 56-C , 69-H ) :   0.9643 B( 56-C , 70-H ) :   0.9550

-----------------------------------------------------------------------------
         ABSORPTION SPECTRUM VIA TRANSITION ELECTRIC DIPOLE MOMENTS
-----------------------------------------------------------------------------
State   Energy  Wavelength   fosc         T2         TX        TY        TZ
        (cm-1)    (nm)                  (au**2)     (au)      (au)      (au)
-----------------------------------------------------------------------------
   0   10937.3    914.3   1.801189204  54.21572  -0.76461  -7.32270   0.09568
   1   15611.0    640.6   0.005294483   0.11165   0.04126  -0.17548   0.28135
   2   17022.4    587.5   0.000084478   0.00163   0.02251   0.03222  -0.00943
   3   18620.2    537.1   0.047805547   0.84522   0.06136   0.62091   0.67522
   4   18848.7    530.5   0.003331490   0.05819  -0.01124   0.24093  -0.00359
   5   19811.6    504.8   0.276510530   4.59482  -0.21467  -1.88383   0.99997
   6   20827.7    480.1   0.030155388   0.47665  -0.01242   0.65941   0.20415
   7   22613.9    442.2   0.329285512   4.79371   0.63556  -0.96225  -1.86114
   8   22963.5    435.5   0.198437272   2.84486   0.45476  -1.15875  -1.13814
   9   25193.7    396.9   0.002286666   0.02988  -0.15550  -0.05009  -0.05648
  10   27077.5    369.3   0.081027365   0.98514  -0.26631   0.31920   0.90130
  11   27148.0    368.4   0.047833205   0.58005   0.31795   0.31591  -0.61576
  12   27318.0    366.1   0.071031390   0.85601   0.13824   0.78418  -0.47113
  13   28337.7    352.9   0.389110084   4.52047   0.77113   0.32571  -1.95442
  14   29242.3    342.0   0.100490414   1.13133  -0.38540  -0.04178   0.99048
  15   29513.5    338.8   0.010698166   0.11933  -0.11176  -0.01749   0.32640
  16   30106.2    332.2   0.001389099   0.01519  -0.05819   0.03533  -0.10274
  17   30555.4    327.3   0.033072110   0.35633  -0.25670   0.48982   0.22474
  18   30831.9    324.3   0.385499432   4.11623   0.80550   0.12222  -1.85808
  19   30845.1    324.2   0.178647353   1.90671  -0.67322   0.46534   1.11218
  20   32127.8    311.3   0.106688725   1.09323   0.32280  -0.64773  -0.75463
  21   32279.3    309.8   0.001164554   0.01188  -0.03060   0.07555   0.07234
  22   32654.9    306.2   0.010418552   0.10504   0.05054  -0.30147  -0.10769
  23   33095.8    302.2   0.298102336   2.96530  -0.83806   0.09097   1.50156
  24   33650.5    297.2   0.087062937   0.85176   0.42023  -0.37768  -0.72974
  25   33701.3    296.7   0.125259253   1.22360  -0.11710  -1.04240   0.35112
  26   34055.8    293.6   0.036795217   0.35569  -0.01247  -0.59148   0.07540
  27   34503.2    289.8   0.015147672   0.14453  -0.13408  -0.26651   0.23564
  28   34724.1    288.0   0.001885883   0.01788   0.12286   0.02705  -0.04532
  29   34866.0    286.8   0.000258815   0.00244  -0.02450  -0.01221   0.04116
  30   35129.8    284.7   0.014165315   0.13275   0.08846  -0.05378  -0.34933
  31   35190.8    284.2   0.090492133   0.84656  -0.29952   0.09296   0.86499
  32   35771.3    279.6   0.188873941   1.73825   0.14705   1.28248  -0.26807
  33   35879.0    278.7   0.087895496   0.80649   0.04000   0.88196  -0.16444
  34   36490.1    274.0   0.000373002   0.00337   0.02601  -0.05171   0.00383
  35   36699.6    272.5   0.021190809   0.19009  -0.09494   0.33165   0.26662
  36   37527.4    266.5   0.000727441   0.00638  -0.00709   0.01629   0.07788
  37   37558.1    266.3   0.084569956   0.74129   0.29089  -0.21680  -0.78081
  38   37724.9    265.1   0.019517301   0.17032  -0.12441   0.14952   0.36398
  39   37834.3    264.3   0.000539753   0.00470  -0.04267   0.03020  -0.04432
  40   38031.2    262.9   0.000439417   0.00380  -0.01393  -0.05724  -0.01826
  41   38045.9    262.8   0.017065143   0.14767   0.29273  -0.03547   0.24640
  42   38448.5    260.1   0.011137824   0.09537   0.02150   0.29490  -0.08911
  43   38873.1    257.2   0.098926295   0.83780  -0.33495  -0.58248   0.62155
  44   39361.9    254.1   0.036644669   0.30649   0.24179  -0.17643  -0.46572
  45   39477.1    253.3   0.170065825   1.41823   0.08639   1.17533  -0.17138
  46   39560.9    252.8   0.000111990   0.00093   0.02960  -0.00745  -0.00072
  47   40066.1    249.6   0.004455976   0.03661  -0.08369  -0.13662   0.10462
  48   40120.6    249.2   0.001454745   0.01194  -0.00222   0.10725   0.02071
  49   40312.8    248.1   0.074191375   0.60588   0.15106  -0.69805  -0.30950

FINAL SINGLE POINT ENERGY     -4540.703955879535

DIPOLE MOMENT
-------------
                                X             Y             Z
Electronic contribution:     -4.91794     -57.36111      -5.71153
Nuclear contribution   :      4.26250      60.10544       7.42831
                        -----------------------------------------
Total Dipole Moment    :     -0.65544       2.74433       1.71677
                        -----------------------------------------
Magnitude (a.u.)       :      3.30276
Magnitude (Debye)      :      8.39496

Rotational constants in cm-1:     0.002887     0.000275     0.000252
Rotational constants in MHz :    86.555222     8.239155     7.552809

                             ****ORCA TERMINATED NORMALLY****
TOTAL RUN TIME: 0 days 0 hours 4 minutes 56 seconds 80 msec
