                         Program Version 4.2.0 -  RELEASE  -
|  1> # ORCA input file
|  2> # SCF done       -191.375513366257          0.000905058473
|  3> ! CAM-B3LYP def2-SVP def2/J RIJCOSX Grid4 TightSCF
|  4> %maxcore 5000
|  5> %tddft
|  6>     Mode sTDDFT
|  7>     Ethresh 5.0
|  8>     maxcore 5000
|  9> end
| 10>
| 11> %pal
| 12>   nprocs 6
| 13>   end
| 14> * xyz 0 1
| 15>    C       -3.27002        -3.75486         0.21361
| 16>    C       -3.84551        -3.09733         1.25634
| 17>    C       -3.42712        -1.75333         1.31183
| 18>    C       -2.53015        -1.43016         0.28259
| 19>    S       -2.20504        -2.76349        -0.73189
| 20>    C       -2.13334        -0.07295         0.43216
| 21>    C       -2.79573         0.45459         1.54842
| 22>    C       -3.63123        -0.58319         2.13836
| 23>    C       -4.41274        -0.46027         3.25293
| 24>    C       -4.55414         0.75873         3.94629
| 25>    N       -4.69077         1.74662         4.51513
| 26>    C       -5.13156        -1.54724         3.78985
| 27>    N       -5.70057        -2.43578         4.23978
| 28>    C       -2.43994         1.76996         1.82763
| 29>    C       -1.49748         2.25687         0.93624
| 30>    S       -1.06601         1.06044        -0.27496
| 31>    C       -0.86255         3.53390         0.98207
| 32>    C       -1.17840         4.46128         1.94229
| 33>    C       -0.50851         5.66655         2.13978
| 34>    C        0.68491         6.02033         1.36063
| 35>    C        1.12255         5.29536         0.30822
| 36>    S        0.38664         3.83468        -0.22056
| 37>    C        1.19989         7.18826         1.98831
| 38>    C        0.40410         7.52319         3.08932
| 39>    C        0.87907         8.67110         3.76093
| 40>    C        1.99825         9.16612         3.17123
| 41>    S        2.51898         8.27073         1.78276
| 42>    C       -0.68916         6.59799         3.17170
| 43>    C       -1.74285         6.56011         4.13171
| 44>    C       -3.00540         6.18656         3.81403
| 45>    C       -4.02185         5.90600         4.77483
| 46>    O       -3.65517         5.47924         5.99231
| 47>    C       -4.76517         5.15227         6.69579
| 48>    C       -5.89996         5.41590         5.92272
| 49>    C       -5.41555         5.89535         4.67714
| 50>    C       -6.19282         6.37001         3.50451
| 51>    F       -5.43550         6.97792         2.58014
| 52>    F       -6.83846         5.38135         2.84643
| 53>    F       -7.14340         7.26797         3.83510
| 54>    O       -7.13367         5.19653         6.40206
| 55>    C       -8.20659         4.95893         5.50691
| 56>    C       -4.62035         4.47194         7.93037
| 57>    C       -5.62456         4.21715         8.80192
| 58>    C       -5.50613         3.31914         9.90956
| 59>    C       -4.61821         2.27100         9.92851
| 60>    C       -4.52188         1.31315        10.93671
| 61>    C       -5.28344         1.46934        12.18411
| 62>    C       -6.22798         2.41603        12.38023
| 63>    S       -6.66171         3.58794        11.20403
| 64>    C       -4.83737         0.42039        13.03382
| 65>    C       -3.89893        -0.36052        12.35983
| 66>    C       -3.43728        -1.43747        13.14826
| 67>    C       -4.02150        -1.44365        14.37475
| 68>    S       -5.15503        -0.15739        14.62177
| 69>    C       -3.71507         0.16095        11.02884
| 70>    C       -2.90603        -0.47801        10.05872
| 71>    C       -2.94856        -0.28262         8.71292
| 72>    C       -2.13368        -0.94882         7.76724
| 73>    C       -1.16557        -1.92748         7.94643
| 74>    C       -0.59021        -2.32625         6.74331
| 75>    C       -1.10759        -1.64835         5.62996
| 76>    S       -2.31908        -0.52303         6.06929
| 77>    C       -0.44733        -2.12403         4.46916
| 78>    C        0.47809        -3.10898         4.84449
| 79>    C        0.42546        -3.27062         6.27981
| 80>    C        1.16657        -4.11897         7.05291
| 81>    C        2.12444        -4.99345         6.50122
| 82>    N        2.90656        -5.70642         6.05841
| 83>    C        1.02550        -4.17417         8.45378
| 84>    N        0.91516        -4.22427         9.59474
| 85>    C        1.17856        -3.63662         3.74048
| 86>    C        0.78714        -3.05517         2.57601
| 87>    S       -0.44368        -1.84563         2.78480
| 88>    H       -3.40106        -4.77920        -0.07216
| 89>    H       -4.52909        -3.55574         1.94751
| 90>    H       -2.83752         2.33511         2.64907
| 91>    H       -1.96391         4.21667         2.64090
| 92>    H        1.98099         5.57679        -0.28100
| 93>    H        0.42120         9.10667         4.63032
| 94>    H        2.57105        10.02412         3.46456
| 95>    H       -1.50866         6.84368         5.14943
| 96>    H       -3.28317         6.08834         2.77594
| 97>    H       -9.00560         4.54735         6.12167
| 98>    H       -7.93005         4.23316         4.73951
| 99>    H       -8.55745         5.88154         5.04087
|100>    H       -3.61699         4.12033         8.12707
|101>    H       -6.58118         4.69681         8.66025
|102>    H       -3.96234         2.18908         9.07644
|103>    H       -6.79686         2.48543        13.29395
|104>    H       -2.71363        -2.16776        12.83451
|105>    H       -3.86016        -2.13802        15.17603
|106>    H       -2.23320        -1.23149        10.44687
|107>    H       -3.67035         0.39890         8.28851
|108>    H       -0.90545        -2.32532         8.90960
|109>    H        1.92968        -4.40288         3.80090
|110>    H        1.14070        -3.25181         1.58396
|111> *
|112>
|113>                          ****END OF INPUT****

CARTESIAN COORDINATES (ANGSTROEM)
---------------------------------
  C     -3.270020   -3.754860    0.213610
  C     -3.845510   -3.097330    1.256340
  C     -3.427120   -1.753330    1.311830
  C     -2.530150   -1.430160    0.282590
  S     -2.205040   -2.763490   -0.731890
  C     -2.133340   -0.072950    0.432160
  C     -2.795730    0.454590    1.548420
  C     -3.631230   -0.583190    2.138360
  C     -4.412740   -0.460270    3.252930
  C     -4.554140    0.758730    3.946290
  N     -4.690770    1.746620    4.515130
  C     -5.131560   -1.547240    3.789850
  N     -5.700570   -2.435780    4.239780
  C     -2.439940    1.769960    1.827630
  C     -1.497480    2.256870    0.936240
  S     -1.066010    1.060440   -0.274960
  C     -0.862550    3.533900    0.982070
  C     -1.178400    4.461280    1.942290
  C     -0.508510    5.666550    2.139780
  C      0.684910    6.020330    1.360630
  C      1.122550    5.295360    0.308220
  S      0.386640    3.834680   -0.220560
  C      1.199890    7.188260    1.988310
  C      0.404100    7.523190    3.089320
  C      0.879070    8.671100    3.760930
  C      1.998250    9.166120    3.171230
  S      2.518980    8.270730    1.782760
  C     -0.689160    6.597990    3.171700
  C     -1.742850    6.560110    4.131710
  C     -3.005400    6.186560    3.814030
  C     -4.021850    5.906000    4.774830
  O     -3.655170    5.479240    5.992310
  C     -4.765170    5.152270    6.695790
  C     -5.899960    5.415900    5.922720
  C     -5.415550    5.895350    4.677140
  C     -6.192820    6.370010    3.504510
  F     -5.435500    6.977920    2.580140
  F     -6.838460    5.381350    2.846430
  F     -7.143400    7.267970    3.835100
  O     -7.133670    5.196530    6.402060
  C     -8.206590    4.958930    5.506910
  C     -4.620350    4.471940    7.930370
  C     -5.624560    4.217150    8.801920
  C     -5.506130    3.319140    9.909560
  C     -4.618210    2.271000    9.928510
  C     -4.521880    1.313150   10.936710
  C     -5.283440    1.469340   12.184110
  C     -6.227980    2.416030   12.380230
  S     -6.661710    3.587940   11.204030
  C     -4.837370    0.420390   13.033820
  C     -3.898930   -0.360520   12.359830
  C     -3.437280   -1.437470   13.148260
  C     -4.021500   -1.443650   14.374750
  S     -5.155030   -0.157390   14.621770
  C     -3.715070    0.160950   11.028840
  C     -2.906030   -0.478010   10.058720
  C     -2.948560   -0.282620    8.712920
  C     -2.133680   -0.948820    7.767240
  C     -1.165570   -1.927480    7.946430
  C     -0.590210   -2.326250    6.743310
  C     -1.107590   -1.648350    5.629960
  S     -2.319080   -0.523030    6.069290
  C     -0.447330   -2.124030    4.469160
  C      0.478090   -3.108980    4.844490
  C      0.425460   -3.270620    6.279810
  C      1.166570   -4.118970    7.052910
  C      2.124440   -4.993450    6.501220
  N      2.906560   -5.706420    6.058410
  C      1.025500   -4.174170    8.453780
  N      0.915160   -4.224270    9.594740
  C      1.178560   -3.636620    3.740480
  C      0.787140   -3.055170    2.576010
  S     -0.443680   -1.845630    2.784800
  H     -3.401060   -4.779200   -0.072160
  H     -4.529090   -3.555740    1.947510
  H     -2.837520    2.335110    2.649070
  H     -1.963910    4.216670    2.640900
  H      1.980990    5.576790   -0.281000
  H      0.421200    9.106670    4.630320
  H      2.571050   10.024120    3.464560
  H     -1.508660    6.843680    5.149430
  H     -3.283170    6.088340    2.775940
  H     -9.005600    4.547350    6.121670
  H     -7.930050    4.233160    4.739510
  H     -8.557450    5.881540    5.040870
  H     -3.616990    4.120330    8.127070
  H     -6.581180    4.696810    8.660250
  H     -3.962340    2.189080    9.076440
  H     -6.796860    2.485430   13.293950
  H     -2.713630   -2.167760   12.834510
  H     -3.860160   -2.138020   15.176030
  H     -2.233200   -1.231490   10.446870
  H     -3.670350    0.398900    8.288510
  H     -0.905450   -2.325320    8.909600
  H      1.929680   -4.402880    3.800900
  H      1.140700   -3.251810    1.583960

 Total Charge           Charge          ....    0
 Multiplicity           Mult            ....    1
 Number of Electrons    NEL             ....  558
 Basis Dimension        Dim             .... 1169

ORBITAL ENERGIES
----------------

  NO   OCC          E(Eh)            E(eV)
   0   2.0000     -88.991873     -2421.5920
   1   2.0000     -88.988907     -2421.5113
   2   2.0000     -88.978916     -2421.2394
   3   2.0000     -88.976381     -2421.1704
   4   2.0000     -88.971779     -2421.0452
   5   2.0000     -88.963662     -2420.8243
   6   2.0000     -88.957927     -2420.6683
   7   2.0000     -88.945243     -2420.3231
   8   2.0000     -24.801878      -674.8934
   9   2.0000     -24.797800      -674.7824
  10   2.0000     -24.795161      -674.7106
  11   2.0000     -19.296161      -525.0752
  12   2.0000     -19.257462      -524.0222
  13   2.0000     -14.433998      -392.7691
  14   2.0000     -14.429144      -392.6370
  15   2.0000     -14.417771      -392.3275
  16   2.0000     -14.417518      -392.3206
  17   2.0000     -10.522135      -286.3219
  18   2.0000     -10.364933      -282.0442
  19   2.0000     -10.352208      -281.6979
  20   2.0000     -10.349017      -281.6111
  21   2.0000     -10.348153      -281.5876
  22   2.0000     -10.343843      -281.4703
  23   2.0000     -10.337561      -281.2993
  24   2.0000     -10.334871      -281.2261
  25   2.0000     -10.331969      -281.1472
  26   2.0000     -10.330713      -281.1130
  27   2.0000     -10.329693      -281.0852
  28   2.0000     -10.329338      -281.0756
  29   2.0000     -10.329005      -281.0665
  30   2.0000     -10.328860      -281.0626
  31   2.0000     -10.324020      -280.9309
  32   2.0000     -10.321259      -280.8557
  33   2.0000     -10.318635      -280.7843
  34   2.0000     -10.318593      -280.7832
  35   2.0000     -10.317683      -280.7584
  36   2.0000     -10.316031      -280.7135
  37   2.0000     -10.311609      -280.5931
  38   2.0000     -10.309429      -280.5338
  39   2.0000     -10.308456      -280.5074
  40   2.0000     -10.305971      -280.4397
  41   2.0000     -10.302288      -280.3395
  42   2.0000     -10.300527      -280.2916
  43   2.0000     -10.300460      -280.2898
  44   2.0000     -10.298846      -280.2458
  45   2.0000     -10.298566      -280.2382
  46   2.0000     -10.297725      -280.2154
  47   2.0000     -10.297672      -280.2139
  48   2.0000     -10.296217      -280.1743
  49   2.0000     -10.293319      -280.0954
  50   2.0000     -10.288948      -279.9765
  51   2.0000     -10.287162      -279.9279
  52   2.0000     -10.286837      -279.9191
  53   2.0000     -10.286418      -279.9077
  54   2.0000     -10.285947      -279.8948
  55   2.0000     -10.285893      -279.8934
  56   2.0000     -10.285050      -279.8704
  57   2.0000     -10.283242      -279.8212
  58   2.0000     -10.280940      -279.7586
  59   2.0000     -10.280831      -279.7556
  60   2.0000     -10.279798      -279.7275
  61   2.0000     -10.279510      -279.7197
  62   2.0000     -10.276702      -279.6433
  63   2.0000     -10.275788      -279.6184
  64   2.0000     -10.275593      -279.6131
  65   2.0000     -10.275408      -279.6081
  66   2.0000     -10.274817      -279.5920
  67   2.0000     -10.273797      -279.5642
  68   2.0000     -10.272616      -279.5321
  69   2.0000     -10.269736      -279.4537
  70   2.0000     -10.263636      -279.2877
  71   2.0000     -10.261919      -279.2410
  72   2.0000     -10.261390      -279.2266
  73   2.0000      -8.086338      -220.0404
  74   2.0000      -8.083829      -219.9722
  75   2.0000      -8.074418      -219.7161
  76   2.0000      -8.070362      -219.6057
  77   2.0000      -8.065856      -219.4831
  78   2.0000      -8.059269      -219.3039
  79   2.0000      -8.053269      -219.1406
  80   2.0000      -8.040578      -218.7952
  81   2.0000      -6.055633      -164.7822
  82   2.0000      -6.053077      -164.7126
  83   2.0000      -6.051421      -164.6675
  84   2.0000      -6.048683      -164.5930
  85   2.0000      -6.048642      -164.5919
  86   2.0000      -6.046488      -164.5333
  87   2.0000      -6.044065      -164.4674
  88   2.0000      -6.039687      -164.3482
  89   2.0000      -6.039557      -164.3447
  90   2.0000      -6.036112      -164.2510
  91   2.0000      -6.035233      -164.2270
  92   2.0000      -6.035087      -164.2231
  93   2.0000      -6.033050      -164.1676
  94   2.0000      -6.030968      -164.1110
  95   2.0000      -6.028753      -164.0507
  96   2.0000      -6.028348      -164.0397
  97   2.0000      -6.024251      -163.9282
  98   2.0000      -6.022731      -163.8868
  99   2.0000      -6.021270      -163.8471
 100   2.0000      -6.018463      -163.7707
 101   2.0000      -6.015300      -163.6846
 102   2.0000      -6.010045      -163.5416
 103   2.0000      -6.005823      -163.4268
 104   2.0000      -6.002585      -163.3387
 105   2.0000      -1.388360       -37.7792
 106   2.0000      -1.291496       -35.1434
 107   2.0000      -1.286326       -35.0027
 108   2.0000      -1.217939       -33.1418
 109   2.0000      -1.158793       -31.5324
 110   2.0000      -1.043943       -28.4071
 111   2.0000      -1.027360       -27.9559
 112   2.0000      -1.023047       -27.8385
 113   2.0000      -1.009700       -27.4753
 114   2.0000      -1.008301       -27.4373
 115   2.0000      -1.008038       -27.4301
 116   2.0000      -0.997332       -27.1388
 117   2.0000      -0.995274       -27.0828
 118   2.0000      -0.993726       -27.0407
 119   2.0000      -0.977808       -26.6075
 120   2.0000      -0.972428       -26.4611
 121   2.0000      -0.961301       -26.1583
 122   2.0000      -0.955505       -26.0006
 123   2.0000      -0.942524       -25.6474
 124   2.0000      -0.933497       -25.4018
 125   2.0000      -0.921686       -25.0804
 126   2.0000      -0.919515       -25.0213
 127   2.0000      -0.914152       -24.8753
 128   2.0000      -0.909225       -24.7413
 129   2.0000      -0.899392       -24.4737
 130   2.0000      -0.892677       -24.2910
 131   2.0000      -0.886427       -24.1209
 132   2.0000      -0.871053       -23.7026
 133   2.0000      -0.864420       -23.5221
 134   2.0000      -0.859736       -23.3946
 135   2.0000      -0.853745       -23.2316
 136   2.0000      -0.846930       -23.0461
 137   2.0000      -0.843011       -22.9395
 138   2.0000      -0.836456       -22.7611
 139   2.0000      -0.830818       -22.6077
 140   2.0000      -0.828775       -22.5521
 141   2.0000      -0.820406       -22.3244
 142   2.0000      -0.808788       -22.0082
 143   2.0000      -0.797630       -21.7046
 144   2.0000      -0.791873       -21.5480
 145   2.0000      -0.787105       -21.4182
 146   2.0000      -0.785179       -21.3658
 147   2.0000      -0.777129       -21.1468
 148   2.0000      -0.766786       -20.8653
 149   2.0000      -0.762640       -20.7525
 150   2.0000      -0.752015       -20.4634
 151   2.0000      -0.737892       -20.0790
 152   2.0000      -0.730394       -19.8750
 153   2.0000      -0.723915       -19.6987
 154   2.0000      -0.715602       -19.4725
 155   2.0000      -0.710317       -19.3287
 156   2.0000      -0.703641       -19.1470
 157   2.0000      -0.694496       -18.8982
 158   2.0000      -0.689712       -18.7680
 159   2.0000      -0.682685       -18.5768
 160   2.0000      -0.679998       -18.5037
 161   2.0000      -0.677093       -18.4246
 162   2.0000      -0.670997       -18.2588
 163   2.0000      -0.662502       -18.0276
 164   2.0000      -0.661545       -18.0015
 165   2.0000      -0.656718       -17.8702
 166   2.0000      -0.654604       -17.8127
 167   2.0000      -0.649975       -17.6867
 168   2.0000      -0.648743       -17.6532
 169   2.0000      -0.642457       -17.4821
 170   2.0000      -0.633077       -17.2269
 171   2.0000      -0.629942       -17.1416
 172   2.0000      -0.623547       -16.9676
 173   2.0000      -0.618086       -16.8190
 174   2.0000      -0.615395       -16.7458
 175   2.0000      -0.614271       -16.7152
 176   2.0000      -0.612654       -16.6712
 177   2.0000      -0.601269       -16.3614
 178   2.0000      -0.596782       -16.2393
 179   2.0000      -0.590641       -16.0722
 180   2.0000      -0.589611       -16.0441
 181   2.0000      -0.583014       -15.8646
 182   2.0000      -0.580180       -15.7875
 183   2.0000      -0.574765       -15.6402
 184   2.0000      -0.570337       -15.5197
 185   2.0000      -0.566961       -15.4278
 186   2.0000      -0.565433       -15.3862
 187   2.0000      -0.559894       -15.2355
 188   2.0000      -0.551387       -15.0040
 189   2.0000      -0.550223       -14.9723
 190   2.0000      -0.548990       -14.9388
 191   2.0000      -0.548144       -14.9157
 192   2.0000      -0.542897       -14.7730
 193   2.0000      -0.540044       -14.6953
 194   2.0000      -0.538568       -14.6552
 195   2.0000      -0.535864       -14.5816
 196   2.0000      -0.533313       -14.5122
 197   2.0000      -0.530385       -14.4325
 198   2.0000      -0.530333       -14.4311
 199   2.0000      -0.523585       -14.2475
 200   2.0000      -0.520258       -14.1569
 201   2.0000      -0.516493       -14.0545
 202   2.0000      -0.513905       -13.9841
 203   2.0000      -0.510622       -13.8947
 204   2.0000      -0.507421       -13.8076
 205   2.0000      -0.504941       -13.7402
 206   2.0000      -0.504289       -13.7224
 207   2.0000      -0.502156       -13.6644
 208   2.0000      -0.499481       -13.5916
 209   2.0000      -0.496581       -13.5127
 210   2.0000      -0.494900       -13.4669
 211   2.0000      -0.494148       -13.4464
 212   2.0000      -0.491414       -13.3721
 213   2.0000      -0.490844       -13.3566
 214   2.0000      -0.487786       -13.2733
 215   2.0000      -0.485512       -13.2115
 216   2.0000      -0.483073       -13.1451
 217   2.0000      -0.481943       -13.1143
 218   2.0000      -0.476722       -12.9723
 219   2.0000      -0.474931       -12.9235
 220   2.0000      -0.469104       -12.7650
 221   2.0000      -0.468017       -12.7354
 222   2.0000      -0.466507       -12.6943
 223   2.0000      -0.464323       -12.6349
 224   2.0000      -0.461950       -12.5703
 225   2.0000      -0.460017       -12.5177
 226   2.0000      -0.459579       -12.5058
 227   2.0000      -0.457040       -12.4367
 228   2.0000      -0.456284       -12.4161
 229   2.0000      -0.455432       -12.3929
 230   2.0000      -0.453355       -12.3364
 231   2.0000      -0.450391       -12.2558
 232   2.0000      -0.449731       -12.2378
 233   2.0000      -0.446319       -12.1450
 234   2.0000      -0.445742       -12.1293
 235   2.0000      -0.445468       -12.1218
 236   2.0000      -0.444531       -12.0963
 237   2.0000      -0.441664       -12.0183
 238   2.0000      -0.440048       -11.9743
 239   2.0000      -0.436921       -11.8892
 240   2.0000      -0.433704       -11.8017
 241   2.0000      -0.431593       -11.7443
 242   2.0000      -0.430444       -11.7130
 243   2.0000      -0.428427       -11.6581
 244   2.0000      -0.427386       -11.6298
 245   2.0000      -0.425744       -11.5851
 246   2.0000      -0.424964       -11.5639
 247   2.0000      -0.423261       -11.5175
 248   2.0000      -0.422086       -11.4855
 249   2.0000      -0.417230       -11.3534
 250   2.0000      -0.415204       -11.2983
 251   2.0000      -0.414057       -11.2671
 252   2.0000      -0.410770       -11.1776
 253   2.0000      -0.410198       -11.1621
 254   2.0000      -0.407241       -11.0816
 255   2.0000      -0.404606       -11.0099
 256   2.0000      -0.398756       -10.8507
 257   2.0000      -0.397599       -10.8192
 258   2.0000      -0.397128       -10.8064
 259   2.0000      -0.393874       -10.7179
 260   2.0000      -0.378953       -10.3118
 261   2.0000      -0.372660       -10.1406
 262   2.0000      -0.358116        -9.7448
 263   2.0000      -0.349687        -9.5155
 264   2.0000      -0.346664        -9.4332
 265   2.0000      -0.340854        -9.2751
 266   2.0000      -0.336948        -9.1688
 267   2.0000      -0.332608        -9.0507
 268   2.0000      -0.327077        -8.9002
 269   2.0000      -0.321396        -8.7456
 270   2.0000      -0.317241        -8.6326
 271   2.0000      -0.307638        -8.3712
 272   2.0000      -0.293696        -7.9919
 273   2.0000      -0.283157        -7.7051
 274   2.0000      -0.274862        -7.4794
 275   2.0000      -0.269618        -7.3367
 276   2.0000      -0.251923        -6.8552
 277   2.0000      -0.229309        -6.2398
 278   2.0000      -0.207894        -5.6571
 279   0.0000      -0.106045        -2.8856
 280   0.0000      -0.089208        -2.4275
 281   0.0000      -0.064854        -1.7648
 282   0.0000      -0.050291        -1.3685
 283   0.0000      -0.032286        -0.8785

MULLIKEN ATOMIC CHARGES
-----------------------
   0 C :   -0.080384
   1 C :    0.040740
   2 C :   -0.030515
   3 C :   -0.131243
   4 S :    0.171596
   5 C :   -0.099478
   6 C :    0.010998
   7 C :    0.304205
   8 C :   -0.327786
   9 C :   -0.180178
  10 N :    0.165071
  11 C :   -0.190558
  12 N :    0.185518
  13 C :   -0.055385
  14 C :   -0.054509
  15 S :    0.183495
  16 C :   -0.037152
  17 C :   -0.076359
  18 C :    0.048049
  19 C :    0.064894
  20 C :   -0.128151
  21 S :    0.121770
  22 C :   -0.113258
  23 C :    0.068777
  24 C :    0.009258
  25 C :   -0.070506
  26 S :    0.129714
  27 C :    0.051449
  28 C :   -0.021946
  29 C :   -0.063377
  30 C :    0.112334
  31 O :   -0.184676
  32 C :    0.134873
  33 C :    0.130648
  34 C :   -0.154031
  35 C :    0.510267
  36 F :   -0.153146
  37 F :   -0.170104
  38 F :   -0.165823
  39 O :   -0.306078
  40 C :    0.177743
  41 C :   -0.026707
  42 C :    0.020263
  43 C :   -0.084147
  44 C :   -0.036948
  45 C :    0.040462
  46 C :    0.063550
  47 C :   -0.137703
  48 S :    0.135426
  49 C :   -0.114599
  50 C :    0.054372
  51 C :    0.003815
  52 C :   -0.069107
  53 S :    0.118939
  54 C :    0.070964
  55 C :   -0.017762
  56 C :    0.018542
  57 C :   -0.065279
  58 C :   -0.038197
  59 C :    0.002844
  60 C :   -0.097690
  61 S :    0.148882
  62 C :   -0.095198
  63 C :   -0.042614
  64 C :    0.299956
  65 C :   -0.302807
  66 C :   -0.190431
  67 N :    0.165341
  68 C :   -0.183004
  69 N :    0.160835
  70 C :    0.033780
  71 C :   -0.078035
  72 S :    0.140969
  73 H :    0.036940
  74 H :    0.013105
  75 H :    0.008805
  76 H :   -0.005897
  77 H :    0.037786
  78 H :   -0.016203
  79 H :    0.027931
  80 H :    0.006083
  81 H :    0.022847
  82 H :    0.035634
  83 H :    0.034786
  84 H :    0.038420
  85 H :    0.005058
  86 H :    0.011247
  87 H :   -0.024807
  88 H :    0.032242
  89 H :   -0.013257
  90 H :    0.024679
  91 H :   -0.020759
  92 H :   -0.015390
  93 H :    0.001564
  94 H :    0.008532
  95 H :    0.025184
Sum of atomic charges:    0.0000000

LOEWDIN ATOMIC CHARGES
----------------------
   0 C :   -0.178262
   1 C :   -0.030934
   2 C :   -0.086309
   3 C :   -0.189230
   4 S :    0.472110
   5 C :   -0.195446
   6 C :   -0.072340
   7 C :    0.078073
   8 C :   -0.111577
   9 C :   -0.020281
  10 N :   -0.044477
  11 C :   -0.020892
  12 N :   -0.029795
  13 C :   -0.031272
  14 C :   -0.179021
  15 S :    0.467417
  16 C :   -0.192612
  17 C :   -0.013723
  18 C :   -0.018904
  19 C :   -0.049646
  20 C :   -0.136849
  21 S :    0.429620
  22 C :   -0.203708
  23 C :   -0.039609
  24 C :   -0.061919
  25 C :   -0.164201
  26 S :    0.422171
  27 C :   -0.050739
  28 C :    0.005425
  29 C :   -0.059867
  30 C :    0.055319
  31 O :    0.031894
  32 C :   -0.005031
  33 C :    0.034872
  34 C :   -0.161884
  35 C :    0.174476
  36 F :   -0.048821
  37 F :   -0.070838
  38 F :   -0.063726
  39 O :   -0.087361
  40 C :    0.077045
  41 C :   -0.024484
  42 C :   -0.050195
  43 C :   -0.164207
  44 C :   -0.027352
  45 C :   -0.015263
  46 C :   -0.046204
  47 C :   -0.146829
  48 S :    0.449783
  49 C :   -0.209280
  50 C :   -0.037533
  51 C :   -0.064737
  52 C :   -0.166142
  53 S :    0.413641
  54 C :   -0.061996
  55 C :   -0.000358
  56 C :   -0.071261
  57 C :   -0.148976
  58 C :   -0.039654
  59 C :   -0.062508
  60 C :   -0.204426
  61 S :    0.471835
  62 C :   -0.173960
  63 C :   -0.089071
  64 C :    0.087367
  65 C :   -0.110783
  66 C :   -0.015991
  67 N :   -0.041311
  68 C :   -0.014906
  69 N :   -0.042456
  70 C :   -0.034169
  71 C :   -0.190092
  72 S :    0.486349
  73 H :    0.027962
  74 H :    0.043355
  75 H :    0.038142
  76 H :    0.039969
  77 H :    0.037124
  78 H :    0.031890
  79 H :    0.023815
  80 H :    0.032668
  81 H :    0.034125
  82 H :    0.029142
  83 H :    0.019883
  84 H :    0.015460
  85 H :    0.036785
  86 H :    0.028896
  87 H :    0.033140
  88 H :    0.034319
  89 H :    0.031225
  90 H :    0.022443
  91 H :    0.030430
  92 H :    0.025287
  93 H :    0.036579
  94 H :    0.040980
  95 H :    0.022398

  Mayer bond orders larger than 0.100000
B(  0-C ,  1-C ) :   1.5561 B(  0-C ,  4-S ) :   1.1404 B(  0-C , 73-H ) :   0.9639
B(  1-C ,  2-C ) :   1.2728 B(  1-C , 74-H ) :   0.9964 B(  2-C ,  3-C ) :   1.4462
B(  2-C ,  7-C ) :   1.0180 B(  3-C ,  4-S ) :   1.1376 B(  3-C ,  5-C ) :   1.1850
B(  5-C ,  6-C ) :   1.4493 B(  5-C , 15-S ) :   1.1161 B(  6-C ,  7-C ) :   1.0007
B(  6-C , 13-C ) :   1.2960 B(  7-C ,  8-C ) :   1.6998 B(  8-C ,  9-C ) :   1.1342
B(  8-C , 11-C ) :   1.1338 B(  9-C , 10-N ) :   2.9791 B( 11-C , 12-N ) :   3.0061
B( 13-C , 14-C ) :   1.4858 B( 13-C , 75-H ) :   0.9848 B( 14-C , 15-S ) :   1.1082
B( 14-C , 16-C ) :   1.1157 B( 16-C , 17-C ) :   1.5615 B( 16-C , 21-S ) :   1.0329
B( 17-C , 18-C ) :   1.2250 B( 17-C , 76-H ) :   0.9676 B( 18-C , 19-C ) :   1.0470
B( 18-C , 27-C ) :   1.4333 B( 19-C , 20-C ) :   1.6149 B( 19-C , 22-C ) :   1.1768
B( 20-C , 21-S ) :   1.1362 B( 20-C , 77-H ) :   0.9395 B( 22-C , 23-C ) :   1.4333
B( 22-C , 26-S ) :   1.0772 B( 23-C , 24-C ) :   1.2223 B( 23-C , 27-C ) :   1.1049
B( 24-C , 25-C ) :   1.5816 B( 24-C , 78-H ) :   1.0009 B( 25-C , 26-S ) :   1.1547
B( 25-C , 79-H ) :   0.9667 B( 27-C , 28-C ) :   1.0897 B( 28-C , 29-C ) :   1.6721
B( 28-C , 80-H ) :   0.9694 B( 29-C , 30-C ) :   1.1468 B( 29-C , 81-H ) :   0.9552
B( 30-C , 31-O ) :   1.2085 B( 30-C , 32-C ) :   0.1067 B( 30-C , 34-C ) :   1.4092
B( 31-O , 32-C ) :   1.0946 B( 32-C , 33-C ) :   1.4257 B( 32-C , 41-C ) :   1.1604
B( 33-C , 34-C ) :   1.2306 B( 33-C , 39-O ) :   1.1942 B( 34-C , 35-C ) :   0.9510
B( 35-C , 36-F ) :   1.1514 B( 35-C , 37-F ) :   1.1514 B( 35-C , 38-F ) :   1.1549
B( 39-O , 40-C ) :   0.9243 B( 40-C , 82-H ) :   0.9778 B( 40-C , 83-H ) :   0.9671
B( 40-C , 84-H ) :   0.9647 B( 41-C , 42-C ) :   1.6983 B( 41-C , 85-H ) :   0.9515
B( 42-C , 43-C ) :   1.0680 B( 42-C , 86-H ) :   0.9583 B( 43-C , 44-C ) :   1.5418
B( 43-C , 48-S ) :   1.0599 B( 44-C , 45-C ) :   1.2365 B( 44-C , 87-H ) :   0.9623
B( 45-C , 46-C ) :   1.0578 B( 45-C , 54-C ) :   1.3774 B( 46-C , 47-C ) :   1.6066
B( 46-C , 49-C ) :   1.1790 B( 47-C , 48-S ) :   1.1375 B( 47-C , 88-H ) :   0.9413
B( 49-C , 50-C ) :   1.4458 B( 49-C , 53-S ) :   1.0685 B( 50-C , 51-C ) :   1.2193
B( 50-C , 54-C ) :   1.0976 B( 51-C , 52-C ) :   1.5858 B( 51-C , 89-H ) :   0.9984
B( 52-C , 53-S ) :   1.1542 B( 52-C , 90-H ) :   0.9658 B( 54-C , 55-C ) :   1.1737
B( 55-C , 56-C ) :   1.6396 B( 55-C , 91-H ) :   0.9615 B( 56-C , 57-C ) :   1.1287
B( 56-C , 92-H ) :   0.9546 B( 57-C , 58-C ) :   1.4460 B( 57-C , 61-S ) :   1.1151
B( 58-C , 59-C ) :   1.3037 B( 58-C , 93-H ) :   0.9899 B( 59-C , 60-C ) :   1.4546
B( 59-C , 64-C ) :   0.9907 B( 60-C , 61-S ) :   1.0953 B( 60-C , 62-C ) :   1.1847
B( 62-C , 63-C ) :   1.4482 B( 62-C , 72-S ) :   1.1443 B( 63-C , 64-C ) :   1.0255
B( 63-C , 70-C ) :   1.2677 B( 64-C , 65-C ) :   1.6999 B( 65-C , 66-C ) :   1.1297
B( 65-C , 68-C ) :   1.1362 B( 66-C , 67-N ) :   3.0019 B( 68-C , 69-N ) :   2.9842
B( 70-C , 71-C ) :   1.5571 B( 70-C , 94-H ) :   0.9967 B( 71-C , 72-S ) :   1.1340
B( 71-C , 95-H ) :   0.9646

-----------------------------------------------------------------------------
         ABSORPTION SPECTRUM VIA TRANSITION ELECTRIC DIPOLE MOMENTS
-----------------------------------------------------------------------------
State   Energy  Wavelength   fosc         T2         TX        TY        TZ
        (cm-1)    (nm)                  (au**2)     (au)      (au)      (au)
-----------------------------------------------------------------------------
   0    8437.1   1185.2   0.007084541   0.27644  -0.34229  -0.22743  -0.32796
   1   10055.4    994.5   0.094150227   3.08245   0.96883  -1.10776  -0.95744
   2   10979.2    910.8   0.082472523   2.47295   0.29102   1.46228   0.49999
   3   16341.8    611.9   0.221168734   4.45553   0.02088  -1.38685   1.59115
   4   16999.0    588.3   0.069625602   1.34841   0.57704  -0.77863   0.63966
   5   17647.9    566.6   0.003766776   0.07027  -0.04436  -0.08642  -0.24664
   6   19393.8    515.6   0.414445032   7.03525  -1.08460   2.08132   1.23572
   7   20063.6    498.4   0.077897784   1.27818  -0.08165  -1.05980  -0.38514
   8   20552.4    486.6   0.162989989   2.61080  -0.25932   1.56661   0.29880
   9   20736.9    482.2   0.020125500   0.31951   0.08494  -0.13811  -0.54150
  10   22339.0    447.6   0.062262757   0.91757  -0.46040   0.83353  -0.10403
  11   22998.1    434.8   0.355109289   5.08331   0.90153  -1.65182  -1.24180
  12   23211.8    430.8   0.086385170   1.22520  -0.66672  -0.26564   0.84269
  13   24799.1    403.2   0.225990906   3.00006   1.11937   0.47063  -1.23514
  14   25593.0    390.7   0.342410129   4.40455   1.24794   1.17114  -1.21475
  15   26028.5    384.2   0.050423525   0.63776  -0.40719  -0.30708   0.61455
  16   26457.3    378.0   0.035066146   0.43633  -0.09590  -0.41461   0.50520
  17   26937.4    371.2   0.004525318   0.05531   0.01351   0.18414   0.14566
  18   27623.8    362.0   0.135252088   1.61190  -0.97948  -0.17735   0.78808
  19   27632.7    361.9   0.308315496   3.67322  -1.03515   0.35686   1.57300
  20   28110.4    355.7   0.166035307   1.94450   0.99285   0.22081  -0.95394
  21   28384.5    352.3   0.562107488   6.51949   1.54129   0.62087  -1.93867
  22   29313.1    341.1   0.228819260   2.56984  -0.14587   1.53951   0.42248
  23   29991.8    333.4   0.192964603   2.11812   0.69073   0.53476  -1.16406
  24   30211.9    331.0   0.222925243   2.42916   0.01590  -0.99673  -1.19810
  25   30494.4    327.9   0.182046246   1.96534   0.02636   0.70857  -1.20937
  26   30984.4    322.7   0.102347332   1.08745   0.61541   0.08472  -0.83758
  27   31377.2    318.7   0.046642775   0.48938  -0.06914   0.51842  -0.46459
  28   31610.0    316.4   0.396357255   4.12798   1.27493  -1.17206   1.06245
  29   32068.3    311.8   0.286080366   2.93689  -1.33887  -0.18667   1.05331
  30   32338.0    309.2   0.037581274   0.38259  -0.26201  -0.10221   0.55090
  31   32613.5    306.6   0.063839429   0.64442  -0.37159   0.31503   0.63804
  32   32954.9    303.4   0.193860113   1.93662   0.21677  -0.52883   1.26885
  33   33035.0    302.7   0.164830429   1.64263   0.41522  -0.46352  -1.12043
  34   33298.7    300.3   0.148014181   1.46336   0.00266  -0.92819  -0.77576
  35   33339.7    299.9   0.404065265   3.98993  -0.39426  -1.79579   0.78079
  36   33690.6    296.8   0.180253864   1.76137   1.00158  -0.74100  -0.45730
  37   33807.9    295.8   0.102470146   0.99783   0.54307   0.65364   0.52503
  38   34068.2    293.5   0.266815751   2.57832   0.85635  -0.24183   1.33661
  39   34393.0    290.8   0.163441599   1.56447   0.09425  -1.19979  -0.34073
  40   34539.2    289.5   0.197071681   1.87840   1.13250   0.72264   0.27134
  41   35420.3    282.3   0.052155097   0.48475   0.43154  -0.48371  -0.25406
  42   35509.5    281.6   0.041901630   0.38847  -0.49008   0.31019  -0.22820
  43   35641.3    280.6   0.142816865   1.31917   0.07568  -0.37140  -1.08421
  44   35930.5    278.3   0.075901964   0.69545   0.27708  -0.67572   0.40260
  45   36538.0    273.7   0.004244041   0.03824   0.10317  -0.02096  -0.16479
  46   36688.1    272.6   0.491389021   4.40936   0.73881   1.90226   0.49491
  47   36946.3    270.7   0.037604591   0.33508  -0.15901  -0.40284  -0.38407
  48   37183.3    268.9   0.006651585   0.05889   0.02254   0.23530   0.05492
  49   37498.6    266.7   0.047383758   0.41600   0.62713   0.14714   0.03254
  50   37605.7    265.9   0.013727479   0.12017  -0.03611  -0.00311   0.34476
  51   37835.6    264.3   0.030213485   0.26289   0.23872   0.32805   0.31350
  52   37992.4    263.2   0.052150454   0.45189  -0.01592  -0.17717  -0.64827
  53   38577.7    259.2   0.010111152   0.08629   0.00205   0.11702   0.26942
  54   38684.3    258.5   0.042700785   0.36339  -0.08072   0.15509   0.57691
  55   38881.7    257.2   0.006849550   0.05800   0.24006   0.01841   0.00517
  56   39283.3    254.6   0.012641176   0.10594   0.18606  -0.26247   0.04926
  57   39564.7    252.8   0.221531742   1.84333   0.09320  -0.86082   1.04577
  58   39709.6    251.8   0.027119364   0.22483   0.05778   0.00946  -0.47054
  59   39958.5    250.3   0.114629418   0.94441  -0.13607  -0.44035   0.85556
  60   40140.4    249.1   0.021001688   0.17225  -0.23015  -0.28099  -0.20080

FINAL SINGLE POINT ENERGY     -5997.629143352151

DIPOLE MOMENT
-------------
                                X             Y             Z
Electronic contribution:     -1.35277       5.08766     -27.00484
Nuclear contribution   :      1.04088      -3.40725      24.52531
                        -----------------------------------------
Total Dipole Moment    :     -0.31189       1.68042      -2.47952
                        -----------------------------------------
Magnitude (a.u.)       :      3.01150
Magnitude (Debye)      :      7.65461

Rotational constants in cm-1:     0.000758     0.000616     0.000442
Rotational constants in MHz :    22.726401    18.456975    13.243444

                             ****ORCA TERMINATED NORMALLY****
TOTAL RUN TIME: 0 days 0 hours 10 minutes 53 seconds 803 msec
