                         Program Version 4.2.0 -  RELEASE  -
|  1> # ORCA input file
|  2> # SCF done       -206.370550244886          0.000649095835
|  3> ! CAM-B3LYP def2-SVP def2/J RIJCOSX Grid4 TightSCF
|  4> %maxcore 5000
|  5> %tddft
|  6>     Mode sTDDFT
|  7>     Ethresh 5.0
|  8>     maxcore 5000
|  9> end
| 10>
| 11> %pal
| 12>   nprocs 6
| 13>   end
| 14> * xyz 0 1
| 15>    C        2.19508         4.30043        -5.74474
| 16>    C        2.81850         3.29218        -5.06801
| 17>    C        3.71970         2.55385        -5.90851
| 18>    C        3.77132         3.01712        -7.18221
| 19>    S        2.70977         4.36057        -7.38257
| 20>    C        4.33986         1.45944        -5.15331
| 21>    O        5.08723         0.60600        -5.56688
| 22>    C        3.73547         1.56727        -3.79003
| 23>    C        2.90308         2.76070        -3.72226
| 24>    C        2.45301         3.31453        -2.55642
| 25>    N        1.55604         4.42539        -2.46559
| 26>    O        1.61058         5.09553        -1.45921
| 27>    O        0.80845         4.62471        -3.40130
| 28>    N        2.93153         2.86141        -1.25370
| 29>    O        4.12928         2.76999        -1.11801
| 30>    O        2.09700         2.61603        -0.42033
| 31>    C        3.75067         0.55550        -2.87296
| 32>    C        4.64594        -0.54173        -2.84277
| 33>    C        4.37510        -1.76821        -2.26939
| 34>    C        5.50413        -2.62318        -2.44764
| 35>    C        6.53550        -1.80665        -3.10374
| 36>    C        6.02094        -0.56977        -3.33080
| 37>    C        7.86577        -2.17791        -3.34661
| 38>    N        8.97181        -2.43349        -3.51644
| 39>    C        5.61662        -3.94874        -2.08531
| 40>    C        6.68533        -4.83066        -2.38689
| 41>    C        6.45133        -6.05610        -1.78246
| 42>    C        5.17914        -5.96580        -1.07721
| 43>    C        4.65967        -4.72681        -1.27669
| 44>    C        3.42918        -4.28559        -0.77474
| 45>    N        2.41064        -3.95896        -0.35729
| 46>    C        7.32625        -7.16109        -1.89497
| 47>    N        7.36026        -8.28026        -1.10642
| 48>    C        6.55206        -8.57289         0.04715
| 49>    C        8.39154        -9.16350        -1.48799
| 50>    O        8.62961       -10.20081        -0.90961
| 51>    C        9.00628        -8.52342        -2.63316
| 52>    C        8.34754        -7.30286        -2.85122
| 53>    C        8.91668        -6.68660        -4.03896
| 54>    O        8.65996        -5.66761        -4.63468
| 55>    N        9.91949        -7.59194        -4.44214
| 56>    C       10.74283        -7.32697        -5.59110
| 57>    C        9.98995        -8.68982        -3.62607
| 58>    C       10.89647        -9.74760        -3.82078
| 59>    C       10.96973       -10.82760        -2.98393
| 60>    C       11.85400       -11.91185        -3.15691
| 61>    C       11.96218       -13.00073        -2.30945
| 62>    C       12.94291       -13.89536        -2.81728
| 63>    C       13.45323       -13.28009        -4.06081
| 64>    C       12.80144       -12.10779        -4.25214
| 65>    C       14.42754       -13.80922        -4.91622
| 66>    N       15.23624       -14.21701        -5.62238
| 67>    C       13.31174       -15.12302        -2.31885
| 68>    C       14.22531       -16.03913        -2.92394
| 69>    C       14.16462       -17.24450        -2.25914
| 70>    C       13.25374       -17.08417        -1.13309
| 71>    C       12.73491       -15.82859        -1.16429
| 72>    C       11.81167       -15.30833        -0.24847
| 73>    N       11.07008       -14.89874         0.52618
| 74>    C       14.85613       -18.44982        -2.54461
| 75>    C       15.39601       -18.88736        -3.71422
| 76>    C       15.32903       -18.40124        -5.08812
| 77>    C       14.27093       -17.73901        -5.65059
| 78>    N       14.22771       -17.23189        -6.99342
| 79>    O       13.13274       -17.12214        -7.49771
| 80>    O       15.27745       -16.97417        -7.53803
| 81>    N       13.03242       -17.53227        -4.93383
| 82>    O       12.53122       -16.43296        -5.00813
| 83>    O       12.59990       -18.45524        -4.28429
| 84>    C       16.48199       -18.96560        -5.76957
| 85>    C       17.12571       -18.86414        -6.97001
| 86>    S       18.41514       -19.99209        -7.08519
| 87>    C       18.11285       -20.62111        -5.50946
| 88>    C       17.06974       -19.97613        -4.93086
| 89>    C       16.37586       -20.01927        -3.64176
| 90>    O       16.56346       -20.74401        -2.69697
| 91>    H        1.44718         4.98570        -5.39883
| 92>    H        4.36192         2.66224        -8.00296
| 93>    H        2.98074         0.53191        -2.10873
| 94>    H        3.44368        -2.06373        -1.82559
| 95>    H        6.54641         0.26919        -3.74166
| 96>    H        7.53181        -4.58146        -2.99557
| 97>    H        4.70142        -6.75463        -0.52989
| 98>    H        6.51890        -7.71950         0.72471
| 99>    H        7.01836        -9.42019         0.55190
|100>    H        5.53939        -8.85954        -0.24337
|101>    H       10.42629        -6.36321        -5.99039
|102>    H       10.60679        -8.09353        -6.35621
|103>    H       11.79618        -7.26919        -5.31172
|104>    H       11.55442        -9.68021        -4.67496
|105>    H       10.31153       -10.87658        -2.12584
|106>    H       11.39329       -13.15234        -1.41268
|107>    H       12.94833       -11.43954        -5.07968
|108>    H       14.87263       -15.80067        -3.74464
|109>    H       13.01850       -17.85990        -0.42886
|110>    H       15.01297       -19.11856        -1.70263
|111>    H       16.94946       -18.18011        -7.77583
|112>    H       18.71337       -21.41583        -5.11444
|113> *
|114>
|115>                          ****END OF INPUT****

CARTESIAN COORDINATES (ANGSTROEM)
---------------------------------
  C      2.195080    4.300430   -5.744740
  C      2.818500    3.292180   -5.068010
  C      3.719700    2.553850   -5.908510
  C      3.771320    3.017120   -7.182210
  S      2.709770    4.360570   -7.382570
  C      4.339860    1.459440   -5.153310
  O      5.087230    0.606000   -5.566880
  C      3.735470    1.567270   -3.790030
  C      2.903080    2.760700   -3.722260
  C      2.453010    3.314530   -2.556420
  N      1.556040    4.425390   -2.465590
  O      1.610580    5.095530   -1.459210
  O      0.808450    4.624710   -3.401300
  N      2.931530    2.861410   -1.253700
  O      4.129280    2.769990   -1.118010
  O      2.097000    2.616030   -0.420330
  C      3.750670    0.555500   -2.872960
  C      4.645940   -0.541730   -2.842770
  C      4.375100   -1.768210   -2.269390
  C      5.504130   -2.623180   -2.447640
  C      6.535500   -1.806650   -3.103740
  C      6.020940   -0.569770   -3.330800
  C      7.865770   -2.177910   -3.346610
  N      8.971810   -2.433490   -3.516440
  C      5.616620   -3.948740   -2.085310
  C      6.685330   -4.830660   -2.386890
  C      6.451330   -6.056100   -1.782460
  C      5.179140   -5.965800   -1.077210
  C      4.659670   -4.726810   -1.276690
  C      3.429180   -4.285590   -0.774740
  N      2.410640   -3.958960   -0.357290
  C      7.326250   -7.161090   -1.894970
  N      7.360260   -8.280260   -1.106420
  C      6.552060   -8.572890    0.047150
  C      8.391540   -9.163500   -1.487990
  O      8.629610  -10.200810   -0.909610
  C      9.006280   -8.523420   -2.633160
  C      8.347540   -7.302860   -2.851220
  C      8.916680   -6.686600   -4.038960
  O      8.659960   -5.667610   -4.634680
  N      9.919490   -7.591940   -4.442140
  C     10.742830   -7.326970   -5.591100
  C      9.989950   -8.689820   -3.626070
  C     10.896470   -9.747600   -3.820780
  C     10.969730  -10.827600   -2.983930
  C     11.854000  -11.911850   -3.156910
  C     11.962180  -13.000730   -2.309450
  C     12.942910  -13.895360   -2.817280
  C     13.453230  -13.280090   -4.060810
  C     12.801440  -12.107790   -4.252140
  C     14.427540  -13.809220   -4.916220
  N     15.236240  -14.217010   -5.622380
  C     13.311740  -15.123020   -2.318850
  C     14.225310  -16.039130   -2.923940
  C     14.164620  -17.244500   -2.259140
  C     13.253740  -17.084170   -1.133090
  C     12.734910  -15.828590   -1.164290
  C     11.811670  -15.308330   -0.248470
  N     11.070080  -14.898740    0.526180
  C     14.856130  -18.449820   -2.544610
  C     15.396010  -18.887360   -3.714220
  C     15.329030  -18.401240   -5.088120
  C     14.270930  -17.739010   -5.650590
  N     14.227710  -17.231890   -6.993420
  O     13.132740  -17.122140   -7.497710
  O     15.277450  -16.974170   -7.538030
  N     13.032420  -17.532270   -4.933830
  O     12.531220  -16.432960   -5.008130
  O     12.599900  -18.455240   -4.284290
  C     16.481990  -18.965600   -5.769570
  C     17.125710  -18.864140   -6.970010
  S     18.415140  -19.992090   -7.085190
  C     18.112850  -20.621110   -5.509460
  C     17.069740  -19.976130   -4.930860
  C     16.375860  -20.019270   -3.641760
  O     16.563460  -20.744010   -2.696970
  H      1.447180    4.985700   -5.398830
  H      4.361920    2.662240   -8.002960
  H      2.980740    0.531910   -2.108730
  H      3.443680   -2.063730   -1.825590
  H      6.546410    0.269190   -3.741660
  H      7.531810   -4.581460   -2.995570
  H      4.701420   -6.754630   -0.529890
  H      6.518900   -7.719500    0.724710
  H      7.018360   -9.420190    0.551900
  H      5.539390   -8.859540   -0.243370
  H     10.426290   -6.363210   -5.990390
  H     10.606790   -8.093530   -6.356210
  H     11.796180   -7.269190   -5.311720
  H     11.554420   -9.680210   -4.674960
  H     10.311530  -10.876580   -2.125840
  H     11.393290  -13.152340   -1.412680
  H     12.948330  -11.439540   -5.079680
  H     14.872630  -15.800670   -3.744640
  H     13.018500  -17.859900   -0.428860
  H     15.012970  -19.118560   -1.702630
  H     16.949460  -18.180110   -7.775830
  H     18.713370  -21.415830   -5.114440

 Total Charge           Charge          ....    0
 Multiplicity           Mult            ....    1
 Number of Electrons    NEL             ....  532
 Basis Dimension        Dim             .... 1182

ORBITAL ENERGIES
----------------

  NO   OCC          E(Eh)            E(eV)
   0   2.0000     -88.992559     -2421.6107
   1   2.0000     -88.990623     -2421.5580
   2   2.0000     -19.268470      -524.3217
   3   2.0000     -19.266332      -524.2635
   4   2.0000     -19.264404      -524.2111
   5   2.0000     -19.262013      -524.1460
   6   2.0000     -19.258633      -524.0540
   7   2.0000     -19.258438      -524.0487
   8   2.0000     -19.256232      -523.9887
   9   2.0000     -19.253443      -523.9128
  10   2.0000     -19.230303      -523.2831
  11   2.0000     -19.223918      -523.1094
  12   2.0000     -19.209291      -522.7114
  13   2.0000     -19.209117      -522.7066
  14   2.0000     -14.671424      -399.2297
  15   2.0000     -14.670647      -399.2086
  16   2.0000     -14.670404      -399.2020
  17   2.0000     -14.667171      -399.1140
  18   2.0000     -14.474680      -393.8761
  19   2.0000     -14.472645      -393.8207
  20   2.0000     -14.420279      -392.3957
  21   2.0000     -14.418599      -392.3500
  22   2.0000     -14.413090      -392.2001
  23   2.0000     -14.402946      -391.9241
  24   2.0000     -10.391779      -282.7747
  25   2.0000     -10.391719      -282.7730
  26   2.0000     -10.385620      -282.6071
  27   2.0000     -10.380052      -282.4556
  28   2.0000     -10.379716      -282.4464
  29   2.0000     -10.378239      -282.4062
  30   2.0000     -10.364498      -282.0323
  31   2.0000     -10.361192      -281.9424
  32   2.0000     -10.359947      -281.9085
  33   2.0000     -10.358596      -281.8717
  34   2.0000     -10.337428      -281.2957
  35   2.0000     -10.335118      -281.2329
  36   2.0000     -10.334016      -281.2029
  37   2.0000     -10.333885      -281.1993
  38   2.0000     -10.332847      -281.1711
  39   2.0000     -10.331052      -281.1222
  40   2.0000     -10.329676      -281.0848
  41   2.0000     -10.329151      -281.0705
  42   2.0000     -10.328776      -281.0603
  43   2.0000     -10.327836      -281.0347
  44   2.0000     -10.327747      -281.0323
  45   2.0000     -10.326971      -281.0112
  46   2.0000     -10.323409      -280.9142
  47   2.0000     -10.323191      -280.9083
  48   2.0000     -10.323114      -280.9062
  49   2.0000     -10.322494      -280.8893
  50   2.0000     -10.320489      -280.8348
  51   2.0000     -10.320202      -280.8270
  52   2.0000     -10.319849      -280.8174
  53   2.0000     -10.318950      -280.7929
  54   2.0000     -10.318044      -280.7682
  55   2.0000     -10.317594      -280.7560
  56   2.0000     -10.316577      -280.7283
  57   2.0000     -10.316163      -280.7171
  58   2.0000     -10.315941      -280.7110
  59   2.0000     -10.315386      -280.6959
  60   2.0000     -10.315156      -280.6897
  61   2.0000     -10.314651      -280.6759
  62   2.0000     -10.314378      -280.6685
  63   2.0000     -10.314285      -280.6660
  64   2.0000     -10.314020      -280.6587
  65   2.0000     -10.312795      -280.6254
  66   2.0000     -10.312143      -280.6077
  67   2.0000     -10.308460      -280.5075
  68   2.0000     -10.307924      -280.4929
  69   2.0000     -10.304540      -280.4008
  70   2.0000     -10.302209      -280.3374
  71   2.0000     -10.300163      -280.2817
  72   2.0000     -10.299577      -280.2657
  73   2.0000     -10.294472      -280.1268
  74   2.0000     -10.285485      -279.8823
  75   2.0000     -10.283354      -279.8243
  76   2.0000      -8.088487      -220.0989
  77   2.0000      -8.086519      -220.0454
  78   2.0000      -6.057623      -164.8363
  79   2.0000      -6.055623      -164.7819
  80   2.0000      -6.052903      -164.7079
  81   2.0000      -6.051386      -164.6666
  82   2.0000      -6.050935      -164.6543
  83   2.0000      -6.049487      -164.6149
  84   2.0000      -1.353745       -36.8373
  85   2.0000      -1.352987       -36.8167
  86   2.0000      -1.335723       -36.3469
  87   2.0000      -1.334493       -36.3134
  88   2.0000      -1.168776       -31.8040
  89   2.0000      -1.167846       -31.7787
  90   2.0000      -1.159860       -31.5614
  91   2.0000      -1.157009       -31.4838
  92   2.0000      -1.153027       -31.3755
  93   2.0000      -1.148189       -31.2438
  94   2.0000      -1.146538       -31.1989
  95   2.0000      -1.141378       -31.0585
  96   2.0000      -1.083297       -29.4780
  97   2.0000      -1.074512       -29.2389
  98   2.0000      -1.031224       -28.0610
  99   2.0000      -1.030050       -28.0291
 100   2.0000      -1.027534       -27.9606
 101   2.0000      -1.024758       -27.8851
 102   2.0000      -1.010760       -27.5042
 103   2.0000      -1.007013       -27.4022
 104   2.0000      -0.996375       -27.1127
 105   2.0000      -0.993400       -27.0318
 106   2.0000      -0.992868       -27.0173
 107   2.0000      -0.991189       -26.9716
 108   2.0000      -0.988444       -26.8969
 109   2.0000      -0.982059       -26.7232
 110   2.0000      -0.947822       -25.7916
 111   2.0000      -0.946799       -25.7637
 112   2.0000      -0.940846       -25.6017
 113   2.0000      -0.929416       -25.2907
 114   2.0000      -0.908618       -24.7248
 115   2.0000      -0.904477       -24.6121
 116   2.0000      -0.889716       -24.2104
 117   2.0000      -0.875923       -23.8351
 118   2.0000      -0.867265       -23.5995
 119   2.0000      -0.864419       -23.5220
 120   2.0000      -0.858082       -23.3496
 121   2.0000      -0.857063       -23.3219
 122   2.0000      -0.856091       -23.2954
 123   2.0000      -0.850198       -23.1351
 124   2.0000      -0.848588       -23.0913
 125   2.0000      -0.827359       -22.5136
 126   2.0000      -0.823663       -22.4130
 127   2.0000      -0.816905       -22.2291
 128   2.0000      -0.813012       -22.1232
 129   2.0000      -0.803695       -21.8696
 130   2.0000      -0.799688       -21.7606
 131   2.0000      -0.786456       -21.4006
 132   2.0000      -0.784301       -21.3419
 133   2.0000      -0.778638       -21.1878
 134   2.0000      -0.768721       -20.9180
 135   2.0000      -0.764696       -20.8084
 136   2.0000      -0.738863       -20.1055
 137   2.0000      -0.728057       -19.8114
 138   2.0000      -0.723409       -19.6849
 139   2.0000      -0.713172       -19.4064
 140   2.0000      -0.707715       -19.2579
 141   2.0000      -0.700971       -19.0744
 142   2.0000      -0.694077       -18.8868
 143   2.0000      -0.692630       -18.8474
 144   2.0000      -0.689625       -18.7656
 145   2.0000      -0.686125       -18.6704
 146   2.0000      -0.682044       -18.5594
 147   2.0000      -0.677892       -18.4464
 148   2.0000      -0.676127       -18.3983
 149   2.0000      -0.673682       -18.3318
 150   2.0000      -0.660883       -17.9835
 151   2.0000      -0.659257       -17.9393
 152   2.0000      -0.655793       -17.8450
 153   2.0000      -0.651895       -17.7390
 154   2.0000      -0.651096       -17.7172
 155   2.0000      -0.646756       -17.5991
 156   2.0000      -0.641942       -17.4681
 157   2.0000      -0.641280       -17.4501
 158   2.0000      -0.636896       -17.3308
 159   2.0000      -0.635632       -17.2964
 160   2.0000      -0.635448       -17.2914
 161   2.0000      -0.630898       -17.1676
 162   2.0000      -0.629148       -17.1200
 163   2.0000      -0.621689       -16.9170
 164   2.0000      -0.611659       -16.6441
 165   2.0000      -0.605836       -16.4856
 166   2.0000      -0.603106       -16.4113
 167   2.0000      -0.602226       -16.3874
 168   2.0000      -0.601322       -16.3628
 169   2.0000      -0.594795       -16.1852
 170   2.0000      -0.591493       -16.0953
 171   2.0000      -0.590617       -16.0715
 172   2.0000      -0.586471       -15.9587
 173   2.0000      -0.583877       -15.8881
 174   2.0000      -0.577926       -15.7262
 175   2.0000      -0.572599       -15.5812
 176   2.0000      -0.570570       -15.5260
 177   2.0000      -0.565647       -15.3921
 178   2.0000      -0.561020       -15.2661
 179   2.0000      -0.557934       -15.1822
 180   2.0000      -0.555362       -15.1122
 181   2.0000      -0.544956       -14.8290
 182   2.0000      -0.544465       -14.8157
 183   2.0000      -0.542731       -14.7685
 184   2.0000      -0.541104       -14.7242
 185   2.0000      -0.538849       -14.6628
 186   2.0000      -0.537190       -14.6177
 187   2.0000      -0.535225       -14.5642
 188   2.0000      -0.532628       -14.4935
 189   2.0000      -0.530394       -14.4328
 190   2.0000      -0.528663       -14.3857
 191   2.0000      -0.527632       -14.3576
 192   2.0000      -0.525906       -14.3106
 193   2.0000      -0.521911       -14.2019
 194   2.0000      -0.516200       -14.0465
 195   2.0000      -0.512758       -13.9529
 196   2.0000      -0.510735       -13.8978
 197   2.0000      -0.510076       -13.8799
 198   2.0000      -0.506521       -13.7831
 199   2.0000      -0.505401       -13.7527
 200   2.0000      -0.501259       -13.6399
 201   2.0000      -0.498471       -13.5641
 202   2.0000      -0.498058       -13.5528
 203   2.0000      -0.497405       -13.5351
 204   2.0000      -0.495703       -13.4888
 205   2.0000      -0.493362       -13.4251
 206   2.0000      -0.488347       -13.2886
 207   2.0000      -0.488241       -13.2857
 208   2.0000      -0.486408       -13.2358
 209   2.0000      -0.484285       -13.1781
 210   2.0000      -0.483241       -13.1496
 211   2.0000      -0.481702       -13.1078
 212   2.0000      -0.477538       -12.9945
 213   2.0000      -0.476129       -12.9561
 214   2.0000      -0.473403       -12.8819
 215   2.0000      -0.470316       -12.7980
 216   2.0000      -0.464450       -12.6383
 217   2.0000      -0.461667       -12.5626
 218   2.0000      -0.457556       -12.4507
 219   2.0000      -0.454731       -12.3739
 220   2.0000      -0.453845       -12.3498
 221   2.0000      -0.453188       -12.3319
 222   2.0000      -0.450280       -12.2527
 223   2.0000      -0.449396       -12.2287
 224   2.0000      -0.447043       -12.1647
 225   2.0000      -0.442080       -12.0296
 226   2.0000      -0.440165       -11.9775
 227   2.0000      -0.436446       -11.8763
 228   2.0000      -0.432434       -11.7671
 229   2.0000      -0.432198       -11.7607
 230   2.0000      -0.425343       -11.5742
 231   2.0000      -0.422568       -11.4987
 232   2.0000      -0.421814       -11.4781
 233   2.0000      -0.420046       -11.4300
 234   2.0000      -0.419563       -11.4169
 235   2.0000      -0.412773       -11.2321
 236   2.0000      -0.407609       -11.0916
 237   2.0000      -0.406524       -11.0621
 238   2.0000      -0.402110       -10.9420
 239   2.0000      -0.400724       -10.9043
 240   2.0000      -0.399936       -10.8828
 241   2.0000      -0.394699       -10.7403
 242   2.0000      -0.392202       -10.6724
 243   2.0000      -0.390344       -10.6218
 244   2.0000      -0.388345       -10.5674
 245   2.0000      -0.385073       -10.4784
 246   2.0000      -0.384135       -10.4528
 247   2.0000      -0.377729       -10.2785
 248   2.0000      -0.372162       -10.1270
 249   2.0000      -0.366442        -9.9714
 250   2.0000      -0.364683        -9.9235
 251   2.0000      -0.357848        -9.7375
 252   2.0000      -0.350676        -9.5424
 253   2.0000      -0.347863        -9.4658
 254   2.0000      -0.346443        -9.4272
 255   2.0000      -0.343335        -9.3426
 256   2.0000      -0.336617        -9.1598
 257   2.0000      -0.336282        -9.1507
 258   2.0000      -0.333017        -9.0618
 259   2.0000      -0.328733        -8.9453
 260   2.0000      -0.325503        -8.8574
 261   2.0000      -0.323118        -8.7925
 262   2.0000      -0.315009        -8.5718
 263   2.0000      -0.304541        -8.2870
 264   2.0000      -0.302403        -8.2288
 265   2.0000      -0.248306        -6.7568
 266   0.0000      -0.152153        -4.1403
 267   0.0000      -0.135219        -3.6795
 268   0.0000      -0.096134        -2.6159
 269   0.0000      -0.092144        -2.5074
 270   0.0000      -0.071691        -1.9508

MULLIKEN ATOMIC CHARGES
-----------------------
   0 C :   -0.127309
   1 C :    0.059483
   2 C :    0.001764
   3 C :   -0.123654
   4 S :    0.164958
   5 C :    0.168646
   6 O :   -0.136577
   7 C :   -0.096786
   8 C :    0.212032
   9 C :    0.059140
  10 N :    0.259834
  11 O :   -0.218292
  12 O :   -0.246824
  13 N :    0.199287
  14 O :   -0.206090
  15 O :   -0.196414
  16 C :   -0.011055
  17 C :    0.073145
  18 C :   -0.071460
  19 C :    0.097236
  20 C :   -0.113789
  21 C :    0.083037
  22 C :   -0.183762
  23 N :    0.145033
  24 C :    0.130107
  25 C :   -0.112787
  26 C :    0.042508
  27 C :   -0.030306
  28 C :   -0.091388
  29 C :   -0.182228
  30 N :    0.148922
  31 C :    0.156314
  32 N :   -0.266420
  33 C :    0.111814
  34 C :    0.163915
  35 O :   -0.187474
  36 C :   -0.072639
  37 C :   -0.064509
  38 C :    0.159252
  39 O :   -0.164750
  40 N :   -0.268959
  41 C :    0.112900
  42 C :    0.163814
  43 C :   -0.032925
  44 C :    0.018217
  45 C :    0.103684
  46 C :   -0.091753
  47 C :    0.144066
  48 C :   -0.090366
  49 C :    0.002648
  50 C :   -0.165715
  51 N :    0.132575
  52 C :    0.098340
  53 C :   -0.098996
  54 C :    0.056541
  55 C :    0.021251
  56 C :   -0.077539
  57 C :   -0.184396
  58 N :    0.141601
  59 C :    0.054261
  60 C :   -0.122544
  61 C :    0.215677
  62 C :    0.062801
  63 N :    0.263773
  64 O :   -0.225372
  65 O :   -0.232913
  66 N :    0.211034
  67 O :   -0.198039
  68 O :   -0.199996
  69 C :    0.034069
  70 C :   -0.123600
  71 S :    0.163302
  72 C :   -0.126638
  73 C :    0.021327
  74 C :    0.151128
  75 O :   -0.135917
  76 H :    0.061188
  77 H :    0.043923
  78 H :    0.033395
  79 H :    0.013860
  80 H :    0.008278
  81 H :    0.031841
  82 H :   -0.009558
  83 H :    0.042913
  84 H :    0.068012
  85 H :    0.045378
  86 H :    0.071058
  87 H :    0.039518
  88 H :    0.040533
  89 H :   -0.028567
  90 H :    0.022656
  91 H :    0.021627
  92 H :    0.003491
  93 H :    0.020334
  94 H :    0.005651
  95 H :    0.025594
  96 H :    0.065741
  97 H :    0.043879
Sum of atomic charges:   -0.0000000

LOEWDIN ATOMIC CHARGES
----------------------
   0 C :   -0.144780
   1 C :   -0.063990
   2 C :   -0.090501
   3 C :   -0.137975
   4 S :    0.497830
   5 C :    0.083759
   6 O :   -0.124696
   7 C :   -0.079549
   8 C :    0.053860
   9 C :   -0.057185
  10 N :    0.279125
  11 O :   -0.184325
  12 O :   -0.199209
  13 N :    0.267467
  14 O :   -0.182458
  15 O :   -0.169067
  16 C :    0.072872
  17 C :   -0.024905
  18 C :    0.023227
  19 C :    0.042254
  20 C :   -0.091911
  21 C :    0.082528
  22 C :   -0.032406
  23 N :   -0.053417
  24 C :    0.037220
  25 C :    0.014091
  26 C :   -0.032171
  27 C :    0.047061
  28 C :   -0.076431
  29 C :   -0.033226
  30 N :   -0.055827
  31 C :    0.070843
  32 N :   -0.003634
  33 C :    0.029789
  34 C :    0.080680
  35 O :   -0.182423
  36 C :   -0.111770
  37 C :   -0.096021
  38 C :    0.083732
  39 O :   -0.161487
  40 N :   -0.004142
  41 C :    0.029686
  42 C :    0.081240
  43 C :   -0.037650
  44 C :    0.043493
  45 C :   -0.015242
  46 C :    0.000356
  47 C :    0.051140
  48 C :   -0.069504
  49 C :    0.057369
  50 C :   -0.026496
  51 N :   -0.061624
  52 C :    0.036569
  53 C :    0.006766
  54 C :   -0.046976
  55 C :    0.063876
  56 C :   -0.080281
  57 C :   -0.031777
  58 N :   -0.054426
  59 C :    0.071683
  60 C :   -0.072085
  61 C :    0.055647
  62 C :   -0.059150
  63 N :    0.280643
  64 O :   -0.190047
  65 O :   -0.183609
  66 N :    0.276250
  67 O :   -0.166314
  68 O :   -0.170425
  69 C :   -0.062353
  70 C :   -0.144592
  71 S :    0.497230
  72 C :   -0.139683
  73 C :   -0.091650
  74 C :    0.082325
  75 O :   -0.133127
  76 H :    0.032168
  77 H :    0.037900
  78 H :    0.045473
  79 H :    0.039500
  80 H :    0.039749
  81 H :    0.040005
  82 H :    0.036374
  83 H :    0.030565
  84 H :    0.045541
  85 H :    0.027288
  86 H :    0.047081
  87 H :    0.028265
  88 H :    0.029305
  89 H :    0.030373
  90 H :    0.044930
  91 H :    0.042903
  92 H :    0.036719
  93 H :    0.034019
  94 H :    0.041254
  95 H :    0.050034
  96 H :    0.032960
  97 H :    0.037504

  Mayer bond orders larger than 0.100000
B(  0-C ,  1-C ) :   1.5416 B(  0-C ,  4-S ) :   1.1912 B(  0-C , 76-H ) :   0.9492
B(  1-C ,  2-C ) :   1.2189 B(  1-C ,  8-C ) :   1.0191 B(  2-C ,  3-C ) :   1.5479
B(  2-C ,  5-C ) :   0.9641 B(  3-C ,  4-S ) :   1.1878 B(  3-C , 77-H ) :   0.9720
B(  5-C ,  6-O ) :   2.2104 B(  5-C ,  7-C ) :   0.9453 B(  7-C ,  8-C ) :   1.0631
B(  7-C , 16-C ) :   1.5968 B(  8-C ,  9-C ) :   1.6230 B(  9-C , 10-N ) :   0.9425
B(  9-C , 13-N ) :   0.8746 B( 10-N , 11-O ) :   1.5375 B( 10-N , 12-O ) :   1.4952
B( 11-O , 12-O ) :   0.2656 B( 13-N , 14-O ) :   1.5346 B( 13-N , 15-O ) :   1.5339
B( 14-O , 15-O ) :   0.2873 B( 16-C , 17-C ) :   1.1383 B( 16-C , 78-H ) :   0.9599
B( 17-C , 18-C ) :   1.5018 B( 17-C , 21-C ) :   1.0536 B( 18-C , 19-C ) :   1.1057
B( 18-C , 79-H ) :   1.0077 B( 19-C , 20-C ) :   1.1217 B( 19-C , 24-C ) :   1.3913
B( 20-C , 21-C ) :   1.6686 B( 20-C , 22-C ) :   1.0916 B( 21-C , 80-H ) :   1.0054
B( 22-C , 23-N ) :   2.9896 B( 24-C , 25-C ) :   1.1306 B( 24-C , 28-C ) :   1.0952
B( 25-C , 26-C ) :   1.5249 B( 25-C , 81-H ) :   0.9897 B( 26-C , 27-C ) :   1.0244
B( 26-C , 31-C ) :   1.0660 B( 27-C , 28-C ) :   1.6714 B( 27-C , 82-H ) :   1.0266
B( 28-C , 29-C ) :   1.0825 B( 29-C , 30-N ) :   2.9750 B( 31-C , 32-N ) :   1.2075
B( 31-C , 37-C ) :   1.3456 B( 32-N , 33-C ) :   0.9586 B( 32-N , 34-C ) :   1.0437
B( 33-C , 83-H ) :   0.9706 B( 33-C , 84-H ) :   0.9464 B( 33-C , 85-H ) :   0.9703
B( 34-C , 35-O ) :   2.0527 B( 34-C , 36-C ) :   0.9906 B( 35-O , 90-H ) :   0.1053
B( 36-C , 37-C ) :   1.2858 B( 36-C , 42-C ) :   1.2859 B( 37-C , 38-C ) :   0.9697
B( 38-C , 39-O ) :   2.1108 B( 38-C , 40-N ) :   1.0362 B( 40-N , 41-C ) :   0.9608
B( 40-N , 42-C ) :   1.1818 B( 41-C , 86-H ) :   0.9505 B( 41-C , 87-H ) :   0.9722
B( 41-C , 88-H ) :   0.9721 B( 42-C , 43-C ) :   1.1846 B( 43-C , 44-C ) :   1.5254
B( 43-C , 89-H ) :   0.9639 B( 44-C , 45-C ) :   1.1432 B( 44-C , 90-H ) :   0.9595
B( 45-C , 46-C ) :   1.4961 B( 45-C , 49-C ) :   1.0240 B( 46-C , 47-C ) :   1.1141
B( 46-C , 91-H ) :   1.0122 B( 47-C , 48-C ) :   1.0983 B( 47-C , 52-C ) :   1.4256
B( 48-C , 49-C ) :   1.7020 B( 48-C , 50-C ) :   1.0933 B( 49-C , 92-H ) :   1.0137
B( 50-C , 51-N ) :   2.9498 B( 52-C , 53-C ) :   1.1001 B( 52-C , 56-C ) :   1.1241
B( 53-C , 54-C ) :   1.5360 B( 53-C , 93-H ) :   0.9960 B( 54-C , 55-C ) :   1.0454
B( 54-C , 59-C ) :   1.0547 B( 55-C , 56-C ) :   1.6607 B( 55-C , 94-H ) :   1.0240
B( 56-C , 57-C ) :   1.0846 B( 57-C , 58-N ) :   2.9752 B( 59-C , 60-C ) :   1.7152
B( 59-C , 95-H ) :   0.9390 B( 60-C , 61-C ) :   1.0312 B( 60-C , 74-C ) :   0.9368
B( 61-C , 62-C ) :   1.6130 B( 61-C , 69-C ) :   1.0253 B( 62-C , 63-N ) :   0.9284
B( 62-C , 66-N ) :   0.9005 B( 63-N , 64-O ) :   1.5330 B( 63-N , 65-O ) :   1.5089
B( 64-O , 65-O ) :   0.2680 B( 66-N , 67-O ) :   1.5150 B( 66-N , 68-O ) :   1.5376
B( 67-O , 68-O ) :   0.2710 B( 69-C , 70-C ) :   1.5466 B( 69-C , 73-C ) :   1.2150
B( 70-C , 71-S ) :   1.1904 B( 70-C , 96-H ) :   0.9461 B( 71-S , 72-C ) :   1.1853
B( 72-C , 73-C ) :   1.5527 B( 72-C , 97-H ) :   0.9722 B( 73-C , 74-C ) :   0.9374
B( 74-C , 75-O ) :   2.2579

-----------------------------------------------------------------------------
         ABSORPTION SPECTRUM VIA TRANSITION ELECTRIC DIPOLE MOMENTS
-----------------------------------------------------------------------------
State   Energy  Wavelength   fosc         T2         TX        TY        TZ
        (cm-1)    (nm)                  (au**2)     (au)      (au)      (au)
-----------------------------------------------------------------------------
   0    7074.0   1413.6   0.725594550  33.76812  -3.01343   4.96511   0.18714
   1   11105.0    900.5   0.064620393   1.91569  -0.85165   1.06726   0.22658
   2   15802.2    632.8   0.026520135   0.55250  -0.06874   0.65188  -0.35046
   3   16340.3    612.0   0.045647769   0.91968   0.14246  -0.94495  -0.08030
   4   18458.3    541.8   0.023662259   0.42203  -0.29445  -0.25556   0.51963
   5   19166.0    521.8   0.054371489   0.93393   0.74080  -0.53059  -0.32191
   6   21358.3    468.2   0.072298458   1.11439  -0.83510   0.63582   0.11286
   7   21974.5    455.1   0.625582282   9.37220   0.99195  -2.87853   0.31984
   8   22486.3    444.7   0.128820679   1.88601   0.57653  -0.63202  -1.07433
   9   23046.6    433.9   0.086717887   1.23873  -0.75391   0.77140   0.27438
  10   23183.4    431.3   0.002426537   0.03446   0.11429   0.14192   0.03543
  11   23277.4    429.6   0.094321714   1.33399   1.01571  -0.39014  -0.38745
  12   24480.4    408.5   0.134355071   1.80681   0.52925  -1.21746   0.21091
  13   24782.1    403.5   0.232490961   3.08847  -0.60261   1.51807  -0.64868
  14   24943.8    400.9   0.080889603   1.06759   0.17869  -0.88053  -0.51022
  15   25341.1    394.6   0.081815685   1.06289   0.07762   0.40869  -0.94331
  16   26235.5    381.2   0.089227308   1.11965   0.41064  -0.92034   0.32248
  17   26398.2    378.8   0.090041944   1.12291   0.21582  -0.92812   0.46360
  18   26857.2    372.3   0.254056324   3.11419   0.37233  -1.64007   0.53454
  19   26936.5    371.2   0.168067316   2.05408   0.25154  -1.26983   0.61510
  20   27677.6    361.3   0.006468564   0.07694   0.10417   0.18971  -0.17349
  21   28027.8    356.8   0.053628542   0.62992   0.55262  -0.48808  -0.29378
  22   28117.5    355.7   0.015693544   0.18375   0.11066  -0.28991   0.29572
  23   28381.9    352.3   0.067110367   0.77844   0.08907  -0.64110   0.59958
  24   28395.0    352.2   0.020375116   0.23623   0.17097   0.06901  -0.44971
  25   28591.0    349.8   0.003078792   0.03545   0.14698  -0.05546  -0.10378
  26   28771.8    347.6   0.032928770   0.37678  -0.32006   0.51156  -0.11244
  27   29397.2    340.2   0.056148180   0.62879   0.21185  -0.62861   0.43446
  28   29713.7    336.5   0.032702729   0.36233  -0.27502   0.46986  -0.25675
  29   30147.8    331.7   0.031497255   0.34395   0.56479  -0.04985  -0.14990
  30   31009.2    322.5   0.056818957   0.60322  -0.32534   0.50460  -0.49270
  31   31107.9    321.5   0.153945157   1.62919  -0.83330   0.59936   0.75867
  32   31673.2    315.7   0.030660749   0.31869  -0.29287   0.20185   0.43838
  33   31835.3    314.1   0.016227151   0.16781  -0.34156  -0.20419  -0.09720
  34   31940.4    313.1   0.043082803   0.44406   0.56193  -0.29490   0.20330
  35   31964.8    312.8   0.002829381   0.02914  -0.09462   0.13992   0.02468
  36   32319.6    309.4   0.013841282   0.14099   0.13797  -0.18155   0.29832
  37   32412.4    308.5   0.047746067   0.48496   0.04673   0.38313   0.57964
  38   32589.1    306.9   0.008436178   0.08522  -0.02900  -0.01791   0.28993
  39   32885.9    304.1   0.006979167   0.06987  -0.10591   0.19386   0.14515
  40   32914.9    303.8   0.195134962   1.95172  -0.49855   1.15427  -0.60895
  41   32950.4    303.5   0.130870130   1.30754  -0.87903   0.67979   0.26970
  42   33252.5    300.7   0.058111464   0.57533  -0.16291   0.72135   0.16863
  43   33372.4    299.6   0.002414678   0.02382  -0.05503  -0.07327   0.12419
  44   33561.1    298.0   0.112686008   1.10537   0.37677   0.41704  -0.88854
  45   33662.6    297.1   0.086654021   0.84745  -0.25847   0.77850  -0.41784
  46   33831.0    295.6   0.021275272   0.20703   0.28789   0.22450  -0.27157
  47   34161.0    292.7   0.125709378   1.21147   0.49912  -0.98020   0.03949
  48   34235.0    292.1   0.114027588   1.09652   0.19829  -0.00070  -1.02820
  49   34310.7    291.5   0.003619539   0.03473   0.06778   0.00269   0.17357
  50   34532.0    289.6   0.064526112   0.61516  -0.41098   0.65567  -0.12787
  51   34663.6    288.5   0.017136243   0.16275  -0.34331   0.10576   0.18357
  52   34713.3    288.1   0.005521107   0.05236   0.00854   0.17900  -0.14229
  53   34799.0    287.4   0.172105498   1.62818   0.18389  -0.97932   0.79706
  54   34867.4    286.8   0.020347550   0.19212   0.07682   0.07073  -0.42569
  55   35142.5    284.6   0.083065378   0.77815  -0.38469   0.65287  -0.45158
  56   35308.0    283.2   0.086185051   0.80359   0.59713  -0.59430   0.30633
  57   35563.6    281.2   0.012971251   0.12007   0.05422  -0.34157  -0.02155
  58   35812.2    279.2   0.023322125   0.21439   0.06629  -0.15493   0.43127
  59   35845.1    279.0   0.012315212   0.11311   0.23277  -0.18438  -0.15788
  60   35948.1    278.2   0.021594861   0.19777  -0.28234   0.33110  -0.09176
  61   36102.4    277.0   0.010525227   0.09598   0.03612   0.00022  -0.30769
  62   36386.2    274.8   0.086573826   0.78329  -0.35717   0.77812  -0.22417
  63   36512.9    273.9   0.035359796   0.31882  -0.37858   0.32004   0.27031
  64   36758.1    272.0   0.046543318   0.41685   0.40591  -0.33006  -0.37835
  65   37165.9    269.1   0.010528268   0.09326   0.28363  -0.11266  -0.01090
  66   37351.1    267.7   0.060330652   0.53175   0.53479  -0.48721   0.09154
  67   37640.0    265.7   0.104265436   0.91194  -0.44462   0.83135  -0.15204
  68   37683.5    265.4   0.034566216   0.30198   0.33703  -0.43038  -0.05628
  69   37959.4    263.4   0.074015815   0.64192  -0.39487   0.09465   0.69068
  70   37991.4    263.2   0.016641240   0.14420   0.20153  -0.31563  -0.06298
  71   38136.8    262.2   0.017350124   0.14977   0.19044  -0.14461   0.30429
  72   38307.2    261.0   0.002190926   0.01883  -0.11311   0.00682  -0.07738
  73   38444.0    260.1   0.009557335   0.08184  -0.17533   0.14594  -0.17264
  74   38503.3    259.7   0.075620488   0.64657  -0.60069   0.41168   0.34098
  75   38610.1    259.0   0.004947675   0.04219   0.08132   0.17554   0.06898
  76   38658.0    258.7   0.034974432   0.29784  -0.33064   0.37416  -0.22028
  77   38846.9    257.4   0.008137166   0.06896  -0.16014  -0.14958   0.14470
  78   38936.6    256.8   0.070902251   0.59948   0.40047  -0.65879   0.07147
  79   38994.5    256.4   0.023826128   0.20115   0.32402  -0.20246  -0.23490
  80   39107.9    255.7   0.006697103   0.05638   0.04369   0.06977   0.22271
  81   39188.8    255.2   0.011551539   0.09704  -0.10989  -0.03937   0.28881
  82   39273.5    254.6   0.027601312   0.23137  -0.36359   0.17953   0.25873
  83   39362.5    254.0   0.023321015   0.19505   0.33845  -0.13743  -0.24822
  84   39602.6    252.5   0.085394409   0.70987  -0.42425   0.64267  -0.34185
  85   39644.0    252.2   0.048223448   0.40046   0.17389  -0.10418  -0.59947
  86   39768.0    251.5   0.014667698   0.12142   0.25276  -0.23882  -0.02239
  87   40054.3    249.7   0.013543849   0.11132   0.10553  -0.30958   0.06587
  88   40229.0    248.6   0.058357691   0.47757  -0.25826   0.00424   0.64098

FINAL SINGLE POINT ENERGY     -4236.248854928413

DIPOLE MOMENT
-------------
                                X             Y             Z
Electronic contribution:     -2.74652       7.00793      -7.93553
Nuclear contribution   :      4.58695      -8.01737       5.68800
                        -----------------------------------------
Total Dipole Moment    :      1.84044      -1.00944      -2.24753
                        -----------------------------------------
Magnitude (a.u.)       :      3.07531
Magnitude (Debye)      :      7.81682

Rotational constants in cm-1:     0.002770     0.000169     0.000162
Rotational constants in MHz :    83.032354     5.064864     4.857799

                             ****ORCA TERMINATED NORMALLY****
TOTAL RUN TIME: 0 days 0 hours 11 minutes 18 seconds 594 msec
