                         Program Version 4.2.0 -  RELEASE  -
|  1> # ORCA input file
|  2> # SCF done       -158.887930960174          0.000453422156
|  3> ! CAM-B3LYP def2-SVP def2/J RIJCOSX Grid4 TightSCF
|  4> %maxcore 5000
|  5> %tddft
|  6>     Mode sTDDFT
|  7>     Ethresh 5.0
|  8>     maxcore 5000
|  9> end
| 10>
| 11> %pal
| 12>   nprocs 6
| 13>   end
| 14> * xyz 0 1
| 15>    C        2.00903         2.21911         6.78953
| 16>    O        2.95952         2.41393         5.87078
| 17>    C        2.36374         2.50030         4.66001
| 18>    C        0.98939         2.35594         4.80949
| 19>    C        0.76632         2.17186         6.21248
| 20>    C       -0.47010         1.98451         6.85335
| 21>    N       -1.48042         1.83314         7.37027
| 22>    C        0.03150         2.38721         3.78897
| 23>    N       -0.73988         2.41491         2.94127
| 24>    C        3.11461         2.71361         3.46841
| 25>    C        4.45948         2.84724         3.45585
| 26>    C        5.24696         3.07232         2.29249
| 27>    S        6.97261         3.24576         2.44065
| 28>    C        7.16553         3.48719         0.73375
| 29>    C        5.91874         3.42645         0.09470
| 30>    C        4.85265         3.19387         0.97533
| 31>    C        5.70982         3.58323        -1.28581
| 32>    N        5.49615         3.70809        -2.40673
| 33>    C        8.46143         3.71416         0.21793
| 34>    C        8.75818         3.92902        -1.09408
| 35>    C       10.07520         4.17243        -1.54265
| 36>    N       10.39810         4.41620        -2.85426
| 37>    C        9.48274         4.50714        -3.96783
| 38>    C        8.75592         5.84865        -4.00085
| 39>    C       11.77635         4.63654        -3.02610
| 40>    O       12.28997         4.86961        -4.10013
| 41>    C       12.32980         4.50107        -1.69369
| 42>    C       11.26777         4.21534        -0.80988
| 43>    C       11.81931         4.06948         0.52040
| 44>    O       11.29985         3.83225         1.59420
| 45>    N       13.19414         4.28055         0.35135
| 46>    C       14.10709         4.17310         1.46416
| 47>    C       14.82775         2.82728         1.48063
| 48>    C       13.52362         4.53983        -0.96192
| 49>    C       14.83416         4.80427        -1.40344
| 50>    C       15.13587         5.09993        -2.70361
| 51>    C       16.43460         5.38031        -3.17633
| 52>    C       16.75844         5.73953        -4.47361
| 53>    C       18.16091         5.92880        -4.57555
| 54>    C       18.70702         5.66434        -3.22898
| 55>    C       17.67440         5.34940        -2.40751
| 56>    C       20.04215         5.76464        -2.81720
| 57>    N       21.11541         5.84905        -2.41854
| 58>    C       18.88837         6.28702        -5.69120
| 59>    C       20.30585         6.37517        -5.81462
| 60>    C       20.61133         6.77466        -7.09604
| 61>    C       19.37194         6.96602        -7.82737
| 62>    C       18.33468         6.66402        -7.00187
| 63>    C       16.98491         6.74466        -7.36219
| 64>    N       15.89149         6.82970        -7.70349
| 65>    C       21.89386         6.97941        -7.67300
| 66>    O       21.98835         7.47946        -8.92393
| 67>    C       23.28920         7.58414        -9.25803
| 68>    C       24.07581         7.13641        -8.20305
| 69>    C       23.17193         6.74317        -7.17253
| 70>    C       23.53002         6.19690        -5.93262
| 71>    N       23.85283         5.73570        -4.93420
| 72>    C       25.47412         7.06769        -8.13198
| 73>    N       26.61609         7.00208        -8.05475
| 74>    C       23.61632         8.10500       -10.55551
| 75>    C       24.85269         8.26920       -11.02256
| 76>    H        2.30920         2.12731         7.81501
| 77>    H        2.52954         2.76613         2.56246
| 78>    H        4.99901         2.78712         4.39157
| 79>    H        3.83171         3.12070         0.64614
| 80>    H        9.26344         3.72056         0.94575
| 81>    H        7.97200         3.92197        -1.83280
| 82>    H        8.76770         3.68154        -3.92288
| 83>    H       10.09327         4.39907        -4.86853
| 84>    H        8.16094         5.99427        -3.10209
| 85>    H        8.09503         5.88220        -4.86187
| 86>    H        9.47459         6.66070        -4.08037
| 87>    H       13.49657         4.27208         2.36606
| 88>    H       14.82191         5.00011         1.43255
| 89>    H       14.10387         2.02029         1.56289
| 90>    H       15.49880         2.77985         2.33372
| 91>    H       15.40581         2.68003         0.57097
| 92>    H       15.62143         4.78242        -0.66425
| 93>    H       14.33997         5.13223        -3.43629
| 94>    H       16.05894         5.84600        -5.27950
| 95>    H       17.75914         5.11399        -1.36306
| 96>    H       21.00800         6.15391        -5.03501
| 97>    H       19.31025         7.28787        -8.85001
| 98>    H       22.75376         8.36716       -11.15363
| 99>    H       25.72316         8.01445       -10.44304
|100>    H       25.02290         8.66637       -12.00727
|101> *
|102>
|103>                          ****END OF INPUT****

CARTESIAN COORDINATES (ANGSTROEM)
---------------------------------
  C      2.009030    2.219110    6.789530
  O      2.959520    2.413930    5.870780
  C      2.363740    2.500300    4.660010
  C      0.989390    2.355940    4.809490
  C      0.766320    2.171860    6.212480
  C     -0.470100    1.984510    6.853350
  N     -1.480420    1.833140    7.370270
  C      0.031500    2.387210    3.788970
  N     -0.739880    2.414910    2.941270
  C      3.114610    2.713610    3.468410
  C      4.459480    2.847240    3.455850
  C      5.246960    3.072320    2.292490
  S      6.972610    3.245760    2.440650
  C      7.165530    3.487190    0.733750
  C      5.918740    3.426450    0.094700
  C      4.852650    3.193870    0.975330
  C      5.709820    3.583230   -1.285810
  N      5.496150    3.708090   -2.406730
  C      8.461430    3.714160    0.217930
  C      8.758180    3.929020   -1.094080
  C     10.075200    4.172430   -1.542650
  N     10.398100    4.416200   -2.854260
  C      9.482740    4.507140   -3.967830
  C      8.755920    5.848650   -4.000850
  C     11.776350    4.636540   -3.026100
  O     12.289970    4.869610   -4.100130
  C     12.329800    4.501070   -1.693690
  C     11.267770    4.215340   -0.809880
  C     11.819310    4.069480    0.520400
  O     11.299850    3.832250    1.594200
  N     13.194140    4.280550    0.351350
  C     14.107090    4.173100    1.464160
  C     14.827750    2.827280    1.480630
  C     13.523620    4.539830   -0.961920
  C     14.834160    4.804270   -1.403440
  C     15.135870    5.099930   -2.703610
  C     16.434600    5.380310   -3.176330
  C     16.758440    5.739530   -4.473610
  C     18.160910    5.928800   -4.575550
  C     18.707020    5.664340   -3.228980
  C     17.674400    5.349400   -2.407510
  C     20.042150    5.764640   -2.817200
  N     21.115410    5.849050   -2.418540
  C     18.888370    6.287020   -5.691200
  C     20.305850    6.375170   -5.814620
  C     20.611330    6.774660   -7.096040
  C     19.371940    6.966020   -7.827370
  C     18.334680    6.664020   -7.001870
  C     16.984910    6.744660   -7.362190
  N     15.891490    6.829700   -7.703490
  C     21.893860    6.979410   -7.673000
  O     21.988350    7.479460   -8.923930
  C     23.289200    7.584140   -9.258030
  C     24.075810    7.136410   -8.203050
  C     23.171930    6.743170   -7.172530
  C     23.530020    6.196900   -5.932620
  N     23.852830    5.735700   -4.934200
  C     25.474120    7.067690   -8.131980
  N     26.616090    7.002080   -8.054750
  C     23.616320    8.105000  -10.555510
  C     24.852690    8.269200  -11.022560
  H      2.309200    2.127310    7.815010
  H      2.529540    2.766130    2.562460
  H      4.999010    2.787120    4.391570
  H      3.831710    3.120700    0.646140
  H      9.263440    3.720560    0.945750
  H      7.972000    3.921970   -1.832800
  H      8.767700    3.681540   -3.922880
  H     10.093270    4.399070   -4.868530
  H      8.160940    5.994270   -3.102090
  H      8.095030    5.882200   -4.861870
  H      9.474590    6.660700   -4.080370
  H     13.496570    4.272080    2.366060
  H     14.821910    5.000110    1.432550
  H     14.103870    2.020290    1.562890
  H     15.498800    2.779850    2.333720
  H     15.405810    2.680030    0.570970
  H     15.621430    4.782420   -0.664250
  H     14.339970    5.132230   -3.436290
  H     16.058940    5.846000   -5.279500
  H     17.759140    5.113990   -1.363060
  H     21.008000    6.153910   -5.035010
  H     19.310250    7.287870   -8.850010
  H     22.753760    8.367160  -11.153630
  H     25.723160    8.014450  -10.443040
  H     25.022900    8.666370  -12.007270

 Total Charge           Charge          ....    0
 Multiplicity           Mult            ....    1
 Number of Electrons    NEL             ....  418
 Basis Dimension        Dim             ....  983

ORBITAL ENERGIES
----------------

  NO   OCC          E(Eh)            E(eV)
   0   2.0000     -88.993553     -2421.6377
   1   2.0000     -19.343562      -526.3651
   2   2.0000     -19.337711      -526.2059
   3   2.0000     -19.204808      -522.5894
   4   2.0000     -19.203361      -522.5500
   5   2.0000     -14.465612      -393.6293
   6   2.0000     -14.464945      -393.6112
   7   2.0000     -14.427176      -392.5834
   8   2.0000     -14.424470      -392.5098
   9   2.0000     -14.423554      -392.4849
  10   2.0000     -14.422319      -392.4512
  11   2.0000     -14.419764      -392.3817
  12   2.0000     -14.412035      -392.1714
  13   2.0000     -14.411969      -392.1696
  14   2.0000     -10.386496      -282.6309
  15   2.0000     -10.386248      -282.6242
  16   2.0000     -10.384926      -282.5882
  17   2.0000     -10.381306      -282.4897
  18   2.0000     -10.380738      -282.4743
  19   2.0000     -10.379923      -282.4521
  20   2.0000     -10.353011      -281.7197
  21   2.0000     -10.350383      -281.6482
  22   2.0000     -10.346794      -281.5506
  23   2.0000     -10.344246      -281.4812
  24   2.0000     -10.341463      -281.4055
  25   2.0000     -10.339501      -281.3521
  26   2.0000     -10.338623      -281.3282
  27   2.0000     -10.337525      -281.2984
  28   2.0000     -10.336507      -281.2707
  29   2.0000     -10.332282      -281.1557
  30   2.0000     -10.328586      -281.0551
  31   2.0000     -10.327872      -281.0357
  32   2.0000     -10.325260      -280.9646
  33   2.0000     -10.324816      -280.9525
  34   2.0000     -10.324660      -280.9483
  35   2.0000     -10.324579      -280.9461
  36   2.0000     -10.323192      -280.9083
  37   2.0000     -10.321544      -280.8635
  38   2.0000     -10.320044      -280.8227
  39   2.0000     -10.319897      -280.8187
  40   2.0000     -10.318888      -280.7912
  41   2.0000     -10.318418      -280.7784
  42   2.0000     -10.316981      -280.7393
  43   2.0000     -10.316975      -280.7392
  44   2.0000     -10.315613      -280.7021
  45   2.0000     -10.313671      -280.6493
  46   2.0000     -10.313412      -280.6422
  47   2.0000     -10.312661      -280.6218
  48   2.0000     -10.312498      -280.6173
  49   2.0000     -10.310422      -280.5608
  50   2.0000     -10.309338      -280.5313
  51   2.0000     -10.308777      -280.5161
  52   2.0000     -10.307146      -280.4717
  53   2.0000     -10.303827      -280.3814
  54   2.0000     -10.298664      -280.2409
  55   2.0000     -10.297875      -280.2194
  56   2.0000     -10.290813      -280.0273
  57   2.0000     -10.277775      -279.6725
  58   2.0000     -10.275464      -279.6096
  59   2.0000     -10.274768      -279.5907
  60   2.0000     -10.265151      -279.3289
  61   2.0000      -8.089154      -220.1171
  62   2.0000      -6.058219      -164.8525
  63   2.0000      -6.054145      -164.7417
  64   2.0000      -6.051571      -164.6716
  65   2.0000      -1.263334       -34.3771
  66   2.0000      -1.257464       -34.2173
  67   2.0000      -1.146574       -31.1999
  68   2.0000      -1.139946       -31.0195
  69   2.0000      -1.076573       -29.2950
  70   2.0000      -1.068050       -29.0631
  71   2.0000      -1.030887       -28.0518
  72   2.0000      -1.023527       -27.8516
  73   2.0000      -1.014093       -27.5949
  74   2.0000      -1.011663       -27.5288
  75   2.0000      -1.006600       -27.3910
  76   2.0000      -1.006036       -27.3756
  77   2.0000      -1.005307       -27.3558
  78   2.0000      -1.001739       -27.2587
  79   2.0000      -0.989988       -26.9389
  80   2.0000      -0.987527       -26.8720
  81   2.0000      -0.957492       -26.0547
  82   2.0000      -0.952496       -25.9187
  83   2.0000      -0.951066       -25.8798
  84   2.0000      -0.940778       -25.5999
  85   2.0000      -0.938365       -25.5342
  86   2.0000      -0.928158       -25.2565
  87   2.0000      -0.921750       -25.0821
  88   2.0000      -0.896910       -24.4062
  89   2.0000      -0.888332       -24.1727
  90   2.0000      -0.883877       -24.0515
  91   2.0000      -0.878484       -23.9048
  92   2.0000      -0.867458       -23.6047
  93   2.0000      -0.858005       -23.3475
  94   2.0000      -0.848788       -23.0967
  95   2.0000      -0.842210       -22.9177
  96   2.0000      -0.829530       -22.5727
  97   2.0000      -0.814191       -22.1553
  98   2.0000      -0.801221       -21.8023
  99   2.0000      -0.794233       -21.6122
 100   2.0000      -0.786908       -21.4128
 101   2.0000      -0.772170       -21.0118
 102   2.0000      -0.769441       -20.9375
 103   2.0000      -0.767826       -20.8936
 104   2.0000      -0.752972       -20.4894
 105   2.0000      -0.749310       -20.3898
 106   2.0000      -0.741670       -20.1819
 107   2.0000      -0.736953       -20.0535
 108   2.0000      -0.727118       -19.7859
 109   2.0000      -0.719337       -19.5742
 110   2.0000      -0.714387       -19.4395
 111   2.0000      -0.704265       -19.1640
 112   2.0000      -0.687113       -18.6973
 113   2.0000      -0.680941       -18.5293
 114   2.0000      -0.676135       -18.3986
 115   2.0000      -0.673987       -18.3401
 116   2.0000      -0.660591       -17.9756
 117   2.0000      -0.658406       -17.9161
 118   2.0000      -0.650082       -17.6896
 119   2.0000      -0.639260       -17.3952
 120   2.0000      -0.636852       -17.3296
 121   2.0000      -0.623795       -16.9743
 122   2.0000      -0.620948       -16.8968
 123   2.0000      -0.615435       -16.7468
 124   2.0000      -0.612620       -16.6702
 125   2.0000      -0.605485       -16.4761
 126   2.0000      -0.605071       -16.4648
 127   2.0000      -0.603866       -16.4320
 128   2.0000      -0.599210       -16.3053
 129   2.0000      -0.583574       -15.8799
 130   2.0000      -0.581042       -15.8110
 131   2.0000      -0.577602       -15.7174
 132   2.0000      -0.572235       -15.5713
 133   2.0000      -0.567229       -15.4351
 134   2.0000      -0.565187       -15.3795
 135   2.0000      -0.561672       -15.2839
 136   2.0000      -0.553453       -15.0602
 137   2.0000      -0.546470       -14.8702
 138   2.0000      -0.545288       -14.8380
 139   2.0000      -0.541605       -14.7378
 140   2.0000      -0.539450       -14.6792
 141   2.0000      -0.538284       -14.6474
 142   2.0000      -0.530636       -14.4393
 143   2.0000      -0.530390       -14.4326
 144   2.0000      -0.529321       -14.4035
 145   2.0000      -0.527953       -14.3663
 146   2.0000      -0.526922       -14.3383
 147   2.0000      -0.522703       -14.2235
 148   2.0000      -0.521701       -14.1962
 149   2.0000      -0.519592       -14.1388
 150   2.0000      -0.514619       -14.0035
 151   2.0000      -0.508770       -13.8443
 152   2.0000      -0.506648       -13.7866
 153   2.0000      -0.498162       -13.5557
 154   2.0000      -0.495808       -13.4916
 155   2.0000      -0.493425       -13.4268
 156   2.0000      -0.491905       -13.3854
 157   2.0000      -0.486443       -13.2368
 158   2.0000      -0.485110       -13.2005
 159   2.0000      -0.483500       -13.1567
 160   2.0000      -0.480321       -13.0702
 161   2.0000      -0.479093       -13.0368
 162   2.0000      -0.476862       -12.9761
 163   2.0000      -0.475668       -12.9436
 164   2.0000      -0.471201       -12.8220
 165   2.0000      -0.469152       -12.7663
 166   2.0000      -0.467466       -12.7204
 167   2.0000      -0.461610       -12.5610
 168   2.0000      -0.461326       -12.5533
 169   2.0000      -0.458564       -12.4782
 170   2.0000      -0.458301       -12.4710
 171   2.0000      -0.453435       -12.3386
 172   2.0000      -0.452746       -12.3199
 173   2.0000      -0.452230       -12.3058
 174   2.0000      -0.451824       -12.2948
 175   2.0000      -0.450624       -12.2621
 176   2.0000      -0.450000       -12.2451
 177   2.0000      -0.449775       -12.2390
 178   2.0000      -0.445544       -12.1239
 179   2.0000      -0.441246       -12.0069
 180   2.0000      -0.440818       -11.9953
 181   2.0000      -0.438345       -11.9280
 182   2.0000      -0.437235       -11.8978
 183   2.0000      -0.435531       -11.8514
 184   2.0000      -0.433390       -11.7931
 185   2.0000      -0.429953       -11.6996
 186   2.0000      -0.427083       -11.6215
 187   2.0000      -0.424889       -11.5618
 188   2.0000      -0.421263       -11.4632
 189   2.0000      -0.420502       -11.4424
 190   2.0000      -0.419626       -11.4186
 191   2.0000      -0.413123       -11.2416
 192   2.0000      -0.411150       -11.1880
 193   2.0000      -0.401639       -10.9292
 194   2.0000      -0.393278       -10.7016
 195   2.0000      -0.384562       -10.4645
 196   2.0000      -0.373105       -10.1527
 197   2.0000      -0.368849       -10.0369
 198   2.0000      -0.360744        -9.8163
 199   2.0000      -0.353552        -9.6206
 200   2.0000      -0.346087        -9.4175
 201   2.0000      -0.344898        -9.3852
 202   2.0000      -0.340094        -9.2544
 203   2.0000      -0.328993        -8.9524
 204   2.0000      -0.328170        -8.9300
 205   2.0000      -0.310602        -8.4519
 206   2.0000      -0.292163        -7.9502
 207   2.0000      -0.284009        -7.7283
 208   2.0000      -0.242535        -6.5997
 209   0.0000      -0.139372        -3.7925
 210   0.0000      -0.100768        -2.7420
 211   0.0000      -0.065442        -1.7808
 212   0.0000      -0.046263        -1.2589
 213   0.0000      -0.038203        -1.0396

MULLIKEN ATOMIC CHARGES
-----------------------
   0 C :    0.106986
   1 O :   -0.169661
   2 C :    0.124919
   3 C :   -0.028064
   4 C :   -0.045271
   5 C :   -0.212652
   6 N :    0.212585
   7 C :   -0.290921
   8 N :    0.226735
   9 C :   -0.051573
  10 C :    0.079552
  11 C :   -0.081278
  12 S :    0.191941
  13 C :   -0.066132
  14 C :   -0.073775
  15 C :    0.023298
  16 C :   -0.163857
  17 N :    0.120429
  18 C :    0.063500
  19 C :   -0.037731
  20 C :    0.145391
  21 N :   -0.253637
  22 C :    0.089488
  23 C :    0.007419
  24 C :    0.166344
  25 O :   -0.192162
  26 C :   -0.061342
  27 C :   -0.072794
  28 C :    0.167078
  29 O :   -0.214433
  30 N :   -0.256058
  31 C :    0.095464
  32 C :    0.002982
  33 C :    0.147565
  34 C :   -0.025842
  35 C :    0.007823
  36 C :    0.111940
  37 C :   -0.105807
  38 C :    0.126464
  39 C :   -0.090090
  40 C :   -0.010953
  41 C :   -0.183780
  42 N :    0.158249
  43 C :    0.105736
  44 C :   -0.130683
  45 C :    0.019176
  46 C :   -0.006687
  47 C :   -0.089428
  48 C :   -0.180960
  49 N :    0.146680
  50 C :    0.171040
  51 O :   -0.177755
  52 C :    0.129964
  53 C :   -0.042586
  54 C :   -0.005859
  55 C :   -0.317485
  56 N :    0.259041
  57 C :   -0.278431
  58 N :    0.217190
  59 C :   -0.024520
  60 C :   -0.001882
  61 H :    0.033188
  62 H :    0.025890
  63 H :    0.006540
  64 H :    0.005417
  65 H :    0.004935
  66 H :   -0.012319
  67 H :    0.038693
  68 H :    0.046645
  69 H :    0.016916
  70 H :    0.033069
  71 H :    0.027446
  72 H :    0.044753
  73 H :    0.026066
  74 H :    0.031322
  75 H :    0.028344
  76 H :    0.015236
  77 H :   -0.028430
  78 H :    0.018629
  79 H :    0.018017
  80 H :    0.000947
  81 H :    0.026044
  82 H :    0.003636
  83 H :    0.010054
  84 H :    0.053487
  85 H :    0.044583
Sum of atomic charges:    0.0000000

LOEWDIN ATOMIC CHARGES
----------------------
   0 C :    0.089819
   1 O :    0.041683
   2 C :    0.067320
   3 C :   -0.091086
   4 C :   -0.088868
   5 C :   -0.033396
   6 N :   -0.025494
   7 C :   -0.037127
   8 N :   -0.030606
   9 C :   -0.033478
  10 C :   -0.011775
  11 C :   -0.171073
  12 S :    0.492923
  13 C :   -0.141681
  14 C :   -0.098110
  15 C :   -0.012404
  16 C :   -0.025694
  17 N :   -0.053328
  18 C :    0.000766
  19 C :   -0.030902
  20 C :    0.079555
  21 N :    0.005281
  22 C :    0.036853
  23 C :   -0.058496
  24 C :    0.081928
  25 O :   -0.183144
  26 C :   -0.105864
  27 C :   -0.117957
  28 C :    0.078757
  29 O :   -0.204807
  30 N :    0.001206
  31 C :    0.036210
  32 C :   -0.060755
  33 C :    0.068578
  34 C :   -0.033689
  35 C :    0.031321
  36 C :   -0.012619
  37 C :   -0.016197
  38 C :    0.045492
  39 C :   -0.071542
  40 C :    0.051712
  41 C :   -0.039323
  42 N :   -0.041568
  43 C :    0.028778
  44 C :   -0.007844
  45 C :   -0.041015
  46 C :    0.049989
  47 C :   -0.078177
  48 C :   -0.032764
  49 N :   -0.055731
  50 C :    0.066322
  51 O :    0.039796
  52 C :    0.074093
  53 C :   -0.087408
  54 C :   -0.074108
  55 C :   -0.036740
  56 N :   -0.013548
  57 C :   -0.030277
  58 N :   -0.031451
  59 C :   -0.046380
  60 C :    0.009884
  61 H :    0.039908
  62 H :    0.046291
  63 H :    0.036435
  64 H :    0.042246
  65 H :    0.037214
  66 H :    0.036587
  67 H :    0.028615
  68 H :    0.039370
  69 H :    0.022848
  70 H :    0.035522
  71 H :    0.030960
  72 H :    0.038492
  73 H :    0.023458
  74 H :    0.033107
  75 H :    0.032463
  76 H :    0.021705
  77 H :    0.028262
  78 H :    0.043394
  79 H :    0.040947
  80 H :    0.035223
  81 H :    0.040542
  82 H :    0.038626
  83 H :    0.042627
  84 H :    0.036431
  85 H :    0.036890

  Mayer bond orders larger than 0.100000
B(  0-C ,  1-O ) :   1.1566 B(  0-C ,  4-C ) :   1.5082 B(  0-C , 61-H ) :   1.0177
B(  1-O ,  2-C ) :   1.1708 B(  2-C ,  3-C ) :   1.4242 B(  2-C ,  9-C ) :   1.1855
B(  3-C ,  4-C ) :   1.3093 B(  3-C ,  7-C ) :   1.1566 B(  4-C ,  5-C ) :   1.1117
B(  5-C ,  6-N ) :   3.0479 B(  7-C ,  8-N ) :   3.0209 B(  9-C , 10-C ) :   1.6775
B(  9-C , 62-H ) :   0.9523 B( 10-C , 11-C ) :   1.0921 B( 10-C , 63-H ) :   0.9711
B( 11-C , 12-S ) :   1.1237 B( 11-C , 15-C ) :   1.4681 B( 12-S , 13-C ) :   1.1557
B( 13-C , 14-C ) :   1.4088 B( 13-C , 18-C ) :   1.1675 B( 14-C , 15-C ) :   1.3206
B( 14-C , 16-C ) :   1.1198 B( 15-C , 64-H ) :   0.9991 B( 16-C , 17-N ) :   2.9655
B( 18-C , 19-C ) :   1.5955 B( 18-C , 65-H ) :   0.9199 B( 19-C , 20-C ) :   1.1839
B( 19-C , 66-H ) :   0.9473 B( 20-C , 21-N ) :   1.1747 B( 20-C , 27-C ) :   1.3035
B( 21-N , 22-C ) :   0.9357 B( 21-N , 24-C ) :   1.0575 B( 22-C , 23-C ) :   1.1233
B( 22-C , 67-H ) :   0.9481 B( 22-C , 68-H ) :   0.9277 B( 23-C , 69-H ) :   0.9677
B( 23-C , 70-H ) :   0.9675 B( 23-C , 71-H ) :   0.9634 B( 24-C , 25-O ) :   2.0444
B( 24-C , 26-C ) :   0.9756 B( 25-O , 78-H ) :   0.1075 B( 26-C , 27-C ) :   1.2818
B( 26-C , 33-C ) :   1.3243 B( 27-C , 28-C ) :   0.9871 B( 28-C , 29-O ) :   2.0154
B( 28-C , 30-N ) :   1.0722 B( 29-O , 65-H ) :   0.1205 B( 30-N , 31-C ) :   0.9444
B( 30-N , 33-C ) :   1.1495 B( 31-C , 32-C ) :   1.1200 B( 31-C , 72-H ) :   0.9278
B( 31-C , 73-H ) :   0.9497 B( 32-C , 74-H ) :   0.9635 B( 32-C , 75-H ) :   0.9682
B( 32-C , 76-H ) :   0.9686 B( 33-C , 34-C ) :   1.1764 B( 34-C , 35-C ) :   1.5265
B( 34-C , 77-H ) :   0.9628 B( 35-C , 36-C ) :   1.1448 B( 35-C , 78-H ) :   0.9605
B( 36-C , 37-C ) :   1.4865 B( 36-C , 40-C ) :   1.0253 B( 37-C , 38-C ) :   1.1266
B( 37-C , 79-H ) :   1.0130 B( 38-C , 39-C ) :   1.0957 B( 38-C , 43-C ) :   1.3775
B( 39-C , 40-C ) :   1.7059 B( 39-C , 41-C ) :   1.0843 B( 40-C , 80-H ) :   1.0138
B( 41-C , 42-N ) :   2.9809 B( 43-C , 44-C ) :   1.1204 B( 43-C , 47-C ) :   1.1202
B( 44-C , 45-C ) :   1.5708 B( 44-C , 81-H ) :   0.9936 B( 45-C , 46-C ) :   1.0451
B( 45-C , 50-C ) :   1.0431 B( 46-C , 47-C ) :   1.6456 B( 46-C , 82-H ) :   1.0300
B( 47-C , 48-C ) :   1.0789 B( 48-C , 49-N ) :   2.9759 B( 50-C , 51-O ) :   1.1863
B( 50-C , 54-C ) :   1.4297 B( 51-O , 52-C ) :   1.1435 B( 52-C , 53-C ) :   1.4125
B( 52-C , 59-C ) :   1.1478 B( 53-C , 54-C ) :   1.3256 B( 53-C , 57-C ) :   1.1529
B( 54-C , 55-C ) :   1.1712 B( 55-C , 56-N ) :   2.9752 B( 57-C , 58-N ) :   2.9795
B( 59-C , 60-C ) :   1.9132 B( 59-C , 83-H ) :   0.9428 B( 60-C , 84-H ) :   0.9506
B( 60-C , 85-H ) :   0.9448

-----------------------------------------------------------------------------
         ABSORPTION SPECTRUM VIA TRANSITION ELECTRIC DIPOLE MOMENTS
-----------------------------------------------------------------------------
State   Energy  Wavelength   fosc         T2         TX        TY        TZ
        (cm-1)    (nm)                  (au**2)     (au)      (au)      (au)
-----------------------------------------------------------------------------
   0    9067.9   1102.8   0.952929991  34.59628  -5.07748  -1.19644   2.71735
   1   15706.9    636.7   0.073752544   1.54583   0.47766   0.27693  -1.11400
   2   16393.4    610.0   0.387947507   7.79078  -2.74783  -0.33868   0.35425
   3   18732.5    533.8   0.005161026   0.09070  -0.08544   0.03521  -0.28664
   4   22638.1    441.7   0.468093656   6.80721   2.13142   0.42997  -1.44201
   5   23989.9    416.8   0.392698887   5.38899  -1.74487  -0.51266   1.44277
   6   24303.3    411.5   0.128488764   1.74050  -0.72838  -0.23660   1.07424
   7   25296.0    395.3   0.320635305   4.17288  -0.99027  -0.31456   1.75878
   8   26282.8    380.5   0.001376273   0.01724  -0.04996  -0.08477   0.08693
   9   28143.5    355.3   0.311672845   3.64583   1.44219   0.28492  -1.21850
  10   28947.6    345.5   0.280572006   3.19085   1.09215   0.46142  -1.33609
  11   29070.8    344.0   0.051943211   0.58823   0.61210   0.17862  -0.42621
  12   29955.0    333.8   0.010029404   0.11023  -0.06372   0.10782  -0.30747
  13   30056.7    332.7   0.006053747   0.06631   0.21641  -0.02830   0.13665
  14   31652.8    315.9   0.000678781   0.00706   0.01786   0.00485   0.08196
  15   32283.1    309.8   0.158294060   1.61423   0.96437   0.28245  -0.77745
  16   32775.9    305.1   0.154811029   1.55497   0.86103   0.28931  -0.85434
  17   33466.0    298.8   0.038808178   0.38176   0.60546   0.11658  -0.03996
  18   33986.2    294.2   0.058003958   0.56186   0.49114   0.18482  -0.53524
  19   34691.2    288.3   0.037548904   0.35633  -0.47388  -0.11393   0.34465
  20   34747.3    287.8   0.133712573   1.26686  -0.89868  -0.12960   0.66516
  21   35605.8    280.9   0.138294906   1.27868  -0.35116  -0.14697   1.06478
  22   35853.8    278.9   0.002576559   0.02366  -0.14704  -0.00397   0.04496
  23   36047.4    277.4   0.076730923   0.70076  -0.83564   0.03077  -0.03906
  24   36870.3    271.2   0.427136393   3.81387   1.27608   0.50811  -1.38828
  25   37403.2    267.4   0.076306675   0.67163   0.12913  -0.26878   0.76336
  26   37757.2    264.9   0.000687135   0.00599  -0.01902  -0.03328   0.06724
  27   38004.4    263.1   0.028008897   0.24263   0.24037   0.05427  -0.42650
  28   38115.9    262.4   0.054816181   0.47345   0.32082  -0.22050   0.56737
  29   38207.3    261.7   0.008797935   0.07581  -0.19480  -0.09486   0.16989
  30   38666.7    258.6   0.035515192   0.30238  -0.17318  -0.12754   0.50609
  31   39134.9    255.5   0.120152623   1.01075  -0.81637   0.13405  -0.57124

FINAL SINGLE POINT ENERGY     -2994.318565422419

DIPOLE MOMENT
-------------
                                X             Y             Z
Electronic contribution:     -6.55710      -1.91233       8.21559
Nuclear contribution   :      6.72968       2.20498      -7.65581
                        -----------------------------------------
Total Dipole Moment    :      0.17259       0.29266       0.55978
                        -----------------------------------------
Magnitude (a.u.)       :      0.65482
Magnitude (Debye)      :      1.66442

Rotational constants in cm-1:     0.005145     0.000251     0.000240
Rotational constants in MHz :   154.249643     7.528457     7.197586

                             ****ORCA TERMINATED NORMALLY****
TOTAL RUN TIME: 0 days 0 hours 6 minutes 50 seconds 232 msec
