                         Program Version 4.2.0 -  RELEASE  -
|  1> # ORCA input file
|  2> # SCF done       -198.051844585208          0.000279264393
|  3> ! CAM-B3LYP def2-SVP def2/J RIJCOSX Grid4 TightSCF
|  4> %maxcore 5000
|  5> %tddft
|  6>     Mode sTDDFT
|  7>     Ethresh 5.0
|  8>     maxcore 5000
|  9> end
| 10>
| 11> %pal
| 12>   nprocs 6
| 13>   end
| 14> * xyz 0 1
| 15>    C       -4.10572        -2.52349        -2.39991
| 16>    C       -2.74872        -2.69546        -2.32466
| 17>    C       -2.08279        -3.88524        -2.68670
| 18>    N       -1.48802        -4.82477        -2.97166
| 19>    C       -1.83434        -1.73534        -1.84054
| 20>    N       -1.03017        -1.01941        -1.44118
| 21>    C       -5.07038        -3.53942        -2.79498
| 22>    C       -6.37448        -3.03477        -2.57383
| 23>    C       -7.50652        -3.76318        -2.84841
| 24>    C       -7.34340        -5.05198        -3.36646
| 25>    C       -6.03550        -5.54643        -3.58858
| 26>    C       -4.89118        -4.81017        -3.31075
| 27>    S       -6.06310        -7.15669        -4.24109
| 28>    C       -7.80628        -7.14533        -4.20442
| 29>    C       -8.34253        -5.99603        -3.72958
| 30>   Br       -8.75339        -8.65091        -4.79897
| 31>    C       -6.29483        -1.66084        -2.03473
| 32>    O       -7.23623        -0.95507        -1.74941
| 33>    C       -4.84444        -1.33263        -2.00641
| 34>    C       -4.29601        -0.09522        -1.87095
| 35>    C       -4.90030         1.12048        -1.40393
| 36>    C       -4.39691         2.33620        -1.90543
| 37>    C       -4.92446         3.52080        -1.46429
| 38>    C       -5.93346         3.53041        -0.48071
| 39>    C       -6.41329         2.33754         0.04502
| 40>    C       -5.90173         1.14472        -0.42183
| 41>    C       -6.26600         4.90323        -0.17990
| 42>    C       -5.47353         5.74362        -0.98540
| 43>    C       -4.56187         4.92874        -1.87177
| 44>    C       -3.07973         5.23505        -1.58563
| 45>    C       -2.69919         5.01162        -0.12692
| 46>    C       -4.86216         5.17370        -3.36295
| 47>    C       -6.31659         4.90050        -3.72717
| 48>    C       -5.57900         7.10759        -0.89596
| 49>    C       -6.48076         7.67568         0.02163
| 50>    C       -7.25535         6.82129         0.82658
| 51>    C       -7.16391         5.44975         0.72945
| 52>    C       -6.63002         9.09543         0.18480
| 53>    C       -6.09907        10.04009        -0.62931
| 54>    C       -6.22308        11.44658        -0.46280
| 55>    C       -5.67595        12.31078        -1.44711
| 56>    C       -5.75483        13.74307        -1.35408
| 57>    N       -5.24612        14.50554        -2.32555
| 58>    C       -4.66545        13.93611        -3.36050
| 59>    C       -4.56378        12.51353        -3.44254
| 60>    N       -5.06388        11.74785        -2.50337
| 61>    C       -3.91567        11.90562        -4.54722
| 62>    N       -3.38868        11.43700        -5.44998
| 63>    C       -4.14203        14.75263        -4.39068
| 64>    N       -3.70956        15.38812        -5.24097
| 65>    C       -6.36865        14.40143        -0.23956
| 66>    C       -6.91030        13.53154         0.74156
| 67>    C       -6.84788        12.09155         0.63083
| 68>    N       -7.43044        11.49824         1.67294
| 69>    S       -7.99626        12.61189         2.68389
| 70>    N       -7.53144        13.91054         1.85067
| 71>    C       -6.38003        15.79980        -0.22104
| 72>    C       -6.85529        16.71447         0.69826
| 73>    C       -6.74521        18.11288         0.49839
| 74>    C       -7.25073        18.87589         1.51006
| 75>    C       -7.78351        18.10736         2.56175
| 76>    S       -7.63429        16.39735         2.22758
| 77>    C       -8.36699        18.54846         3.74074
| 78>    C       -8.59333        19.86739         4.18101
| 79>    C       -9.19546        19.94105         5.40203
| 80>    C       -9.47736        18.68388         5.99752
| 81>    S       -8.94401        17.40647         4.92774
| 82>    C      -10.05745        18.53595         7.23439
| 83>    C      -10.39476        17.39647         7.98515
| 84>    S      -11.01030        17.75115         9.61796
| 85>    C      -11.20552        16.08374         9.99776
| 86>    C      -10.83614        15.30380         8.95671
| 87>    C      -10.37756        16.02226         7.80472
| 88>    C      -10.05735        15.04197         6.79636
| 89>    C      -10.28402        13.79782         7.27413
| 90>    C      -10.78456        13.84940         8.66206
| 91>    O      -11.08402        12.92862         9.38774
| 92>    H       -8.48713        -3.35116        -2.66853
| 93>    H       -3.91682        -5.22708        -3.50335
| 94>    H       -9.39869        -5.81904        -3.63944
| 95>    H       -3.26537         0.02002        -2.18909
| 96>    H       -3.61343         2.31837        -2.64948
| 97>    H       -7.17249         2.34028         0.81212
| 98>    H       -6.25006         0.21697        -0.00028
| 99>    H       -2.87943         6.27317        -1.85791
|100>    H       -2.46192         4.59888        -2.22235
|101>    H       -3.28886         5.64994         0.52768
|102>    H       -1.64753         5.24332         0.02310
|103>    H       -2.86636         3.97609         0.16129
|104>    H       -4.21172         4.53112        -3.95982
|105>    H       -4.61739         6.21031        -3.60268
|106>    H       -6.58108         3.86669        -3.51511
|107>    H       -6.47594         5.08559        -4.78680
|108>    H       -6.98343         5.54779        -3.16170
|109>    H       -4.96098         7.74204        -1.51157
|110>    H       -7.94325         7.26298         1.53306
|111>    H       -7.77294         4.81240         1.35270
|112>    H       -7.22832         9.41980         1.02483
|113>    H       -5.53761         9.75555        -1.50762
|114>    H       -5.91795        16.24104        -1.09735
|115>    H       -6.29170        18.51214        -0.39180
|116>    H       -7.24662        19.95105         1.51931
|117>    H       -8.31012        20.72138         3.59269
|118>    H       -9.44701        20.86098         5.89938
|119>    H      -10.27960        19.47155         7.73534
|120>    H      -11.57999        15.79299        10.95962
|121>    H       -9.69956        15.26541         5.80966
|122>    H      -10.13465        12.87396         6.74621
|123> *
|124>
|125>                          ****END OF INPUT****

CARTESIAN COORDINATES (ANGSTROEM)
---------------------------------
  C     -4.105720   -2.523490   -2.399910
  C     -2.748720   -2.695460   -2.324660
  C     -2.082790   -3.885240   -2.686700
  N     -1.488020   -4.824770   -2.971660
  C     -1.834340   -1.735340   -1.840540
  N     -1.030170   -1.019410   -1.441180
  C     -5.070380   -3.539420   -2.794980
  C     -6.374480   -3.034770   -2.573830
  C     -7.506520   -3.763180   -2.848410
  C     -7.343400   -5.051980   -3.366460
  C     -6.035500   -5.546430   -3.588580
  C     -4.891180   -4.810170   -3.310750
  S     -6.063100   -7.156690   -4.241090
  C     -7.806280   -7.145330   -4.204420
  C     -8.342530   -5.996030   -3.729580
  Br    -8.753390   -8.650910   -4.798970
  C     -6.294830   -1.660840   -2.034730
  O     -7.236230   -0.955070   -1.749410
  C     -4.844440   -1.332630   -2.006410
  C     -4.296010   -0.095220   -1.870950
  C     -4.900300    1.120480   -1.403930
  C     -4.396910    2.336200   -1.905430
  C     -4.924460    3.520800   -1.464290
  C     -5.933460    3.530410   -0.480710
  C     -6.413290    2.337540    0.045020
  C     -5.901730    1.144720   -0.421830
  C     -6.266000    4.903230   -0.179900
  C     -5.473530    5.743620   -0.985400
  C     -4.561870    4.928740   -1.871770
  C     -3.079730    5.235050   -1.585630
  C     -2.699190    5.011620   -0.126920
  C     -4.862160    5.173700   -3.362950
  C     -6.316590    4.900500   -3.727170
  C     -5.579000    7.107590   -0.895960
  C     -6.480760    7.675680    0.021630
  C     -7.255350    6.821290    0.826580
  C     -7.163910    5.449750    0.729450
  C     -6.630020    9.095430    0.184800
  C     -6.099070   10.040090   -0.629310
  C     -6.223080   11.446580   -0.462800
  C     -5.675950   12.310780   -1.447110
  C     -5.754830   13.743070   -1.354080
  N     -5.246120   14.505540   -2.325550
  C     -4.665450   13.936110   -3.360500
  C     -4.563780   12.513530   -3.442540
  N     -5.063880   11.747850   -2.503370
  C     -3.915670   11.905620   -4.547220
  N     -3.388680   11.437000   -5.449980
  C     -4.142030   14.752630   -4.390680
  N     -3.709560   15.388120   -5.240970
  C     -6.368650   14.401430   -0.239560
  C     -6.910300   13.531540    0.741560
  C     -6.847880   12.091550    0.630830
  N     -7.430440   11.498240    1.672940
  S     -7.996260   12.611890    2.683890
  N     -7.531440   13.910540    1.850670
  C     -6.380030   15.799800   -0.221040
  C     -6.855290   16.714470    0.698260
  C     -6.745210   18.112880    0.498390
  C     -7.250730   18.875890    1.510060
  C     -7.783510   18.107360    2.561750
  S     -7.634290   16.397350    2.227580
  C     -8.366990   18.548460    3.740740
  C     -8.593330   19.867390    4.181010
  C     -9.195460   19.941050    5.402030
  C     -9.477360   18.683880    5.997520
  S     -8.944010   17.406470    4.927740
  C    -10.057450   18.535950    7.234390
  C    -10.394760   17.396470    7.985150
  S    -11.010300   17.751150    9.617960
  C    -11.205520   16.083740    9.997760
  C    -10.836140   15.303800    8.956710
  C    -10.377560   16.022260    7.804720
  C    -10.057350   15.041970    6.796360
  C    -10.284020   13.797820    7.274130
  C    -10.784560   13.849400    8.662060
  O    -11.084020   12.928620    9.387740
  H     -8.487130   -3.351160   -2.668530
  H     -3.916820   -5.227080   -3.503350
  H     -9.398690   -5.819040   -3.639440
  H     -3.265370    0.020020   -2.189090
  H     -3.613430    2.318370   -2.649480
  H     -7.172490    2.340280    0.812120
  H     -6.250060    0.216970   -0.000280
  H     -2.879430    6.273170   -1.857910
  H     -2.461920    4.598880   -2.222350
  H     -3.288860    5.649940    0.527680
  H     -1.647530    5.243320    0.023100
  H     -2.866360    3.976090    0.161290
  H     -4.211720    4.531120   -3.959820
  H     -4.617390    6.210310   -3.602680
  H     -6.581080    3.866690   -3.515110
  H     -6.475940    5.085590   -4.786800
  H     -6.983430    5.547790   -3.161700
  H     -4.960980    7.742040   -1.511570
  H     -7.943250    7.262980    1.533060
  H     -7.772940    4.812400    1.352700
  H     -7.228320    9.419800    1.024830
  H     -5.537610    9.755550   -1.507620
  H     -5.917950   16.241040   -1.097350
  H     -6.291700   18.512140   -0.391800
  H     -7.246620   19.951050    1.519310
  H     -8.310120   20.721380    3.592690
  H     -9.447010   20.860980    5.899380
  H    -10.279600   19.471550    7.735340
  H    -11.579990   15.792990   10.959620
  H     -9.699560   15.265410    5.809660
  H    -10.134650   12.873960    6.746210

 Total Charge           Charge          ....    0
 Multiplicity           Mult            ....    1
 Number of Electrons    NEL             ....  584
 Basis Dimension        Dim             .... 1271

ORBITAL ENERGIES
----------------

  NO   OCC          E(Eh)            E(eV)
   0   2.0000    -482.884612    -13139.9583
   1   2.0000     -89.041391     -2422.9394
   2   2.0000     -88.974199     -2421.1110
   3   2.0000     -88.970880     -2421.0207
   4   2.0000     -88.970344     -2421.0061
   5   2.0000     -88.963235     -2420.8127
   6   2.0000     -62.562349     -1702.4081
   7   2.0000     -56.396298     -1534.6213
   8   2.0000     -56.393581     -1534.5474
   9   2.0000     -56.393549     -1534.5465
  10   2.0000     -19.213609      -522.8289
  11   2.0000     -19.212055      -522.7866
  12   2.0000     -14.457036      -393.3959
  13   2.0000     -14.457018      -393.3955
  14   2.0000     -14.453530      -393.3006
  15   2.0000     -14.449217      -393.1832
  16   2.0000     -14.424485      -392.5102
  17   2.0000     -14.422189      -392.4477
  18   2.0000     -14.412634      -392.1877
  19   2.0000     -14.411759      -392.1639
  20   2.0000     -10.374795      -282.3125
  21   2.0000     -10.370934      -282.2075
  22   2.0000     -10.366124      -282.0766
  23   2.0000     -10.361722      -281.9568
  24   2.0000     -10.357860      -281.8517
  25   2.0000     -10.344837      -281.4973
  26   2.0000     -10.342738      -281.4402
  27   2.0000     -10.340921      -281.3908
  28   2.0000     -10.339448      -281.3507
  29   2.0000     -10.339361      -281.3483
  30   2.0000     -10.338008      -281.3115
  31   2.0000     -10.335275      -281.2371
  32   2.0000     -10.332285      -281.1558
  33   2.0000     -10.330002      -281.0936
  34   2.0000     -10.329968      -281.0927
  35   2.0000     -10.324302      -280.9385
  36   2.0000     -10.321813      -280.8708
  37   2.0000     -10.319996      -280.8214
  38   2.0000     -10.318165      -280.7715
  39   2.0000     -10.316645      -280.7302
  40   2.0000     -10.316217      -280.7185
  41   2.0000     -10.315492      -280.6988
  42   2.0000     -10.314781      -280.6795
  43   2.0000     -10.313637      -280.6483
  44   2.0000     -10.312987      -280.6306
  45   2.0000     -10.308439      -280.5069
  46   2.0000     -10.307121      -280.4710
  47   2.0000     -10.306472      -280.4534
  48   2.0000     -10.306142      -280.4444
  49   2.0000     -10.305556      -280.4284
  50   2.0000     -10.304064      -280.3878
  51   2.0000     -10.303163      -280.3633
  52   2.0000     -10.300978      -280.3039
  53   2.0000     -10.299794      -280.2717
  54   2.0000     -10.299413      -280.2613
  55   2.0000     -10.298797      -280.2445
  56   2.0000     -10.296317      -280.1770
  57   2.0000     -10.295587      -280.1572
  58   2.0000     -10.294563      -280.1293
  59   2.0000     -10.290512      -280.0191
  60   2.0000     -10.285478      -279.8821
  61   2.0000     -10.282812      -279.8095
  62   2.0000     -10.281804      -279.7821
  63   2.0000     -10.280643      -279.7505
  64   2.0000     -10.279538      -279.7204
  65   2.0000     -10.279524      -279.7201
  66   2.0000     -10.277934      -279.6768
  67   2.0000     -10.276822      -279.6466
  68   2.0000     -10.274461      -279.5823
  69   2.0000     -10.273650      -279.5602
  70   2.0000     -10.273466      -279.5552
  71   2.0000     -10.272468      -279.5281
  72   2.0000     -10.271528      -279.5025
  73   2.0000     -10.271494      -279.5016
  74   2.0000     -10.271443      -279.5002
  75   2.0000     -10.270715      -279.4804
  76   2.0000     -10.269843      -279.4566
  77   2.0000     -10.261470      -279.2288
  78   2.0000     -10.261200      -279.2214
  79   2.0000     -10.244289      -278.7613
  80   2.0000     -10.243686      -278.7449
  81   2.0000      -8.791793      -239.2369
  82   2.0000      -8.132836      -221.3057
  83   2.0000      -8.070243      -219.6025
  84   2.0000      -8.066941      -219.5126
  85   2.0000      -8.066263      -219.4942
  86   2.0000      -8.057612      -219.2588
  87   2.0000      -6.628104      -180.3599
  88   2.0000      -6.613530      -179.9633
  89   2.0000      -6.613315      -179.9575
  90   2.0000      -6.104132      -166.1019
  91   2.0000      -6.096340      -165.8898
  92   2.0000      -6.095147      -165.8574
  93   2.0000      -6.039935      -164.3550
  94   2.0000      -6.036624      -164.2649
  95   2.0000      -6.035820      -164.2430
  96   2.0000      -6.035656      -164.2386
  97   2.0000      -6.032463      -164.1517
  98   2.0000      -6.031457      -164.1243
  99   2.0000      -6.031386      -164.1224
 100   2.0000      -6.028055      -164.0317
 101   2.0000      -6.028038      -164.0313
 102   2.0000      -6.027383      -164.0134
 103   2.0000      -6.022967      -163.8933
 104   2.0000      -6.018849      -163.7812
 105   2.0000      -2.743957       -74.6669
 106   2.0000      -2.739890       -74.5562
 107   2.0000      -2.739743       -74.5522
 108   2.0000      -2.728151       -74.2368
 109   2.0000      -2.728134       -74.2363
 110   2.0000      -1.140617       -31.0378
 111   2.0000      -1.129409       -30.7328
 112   2.0000      -1.123743       -30.5786
 113   2.0000      -1.113679       -30.3048
 114   2.0000      -1.040107       -28.3028
 115   2.0000      -1.021049       -27.7842
 116   2.0000      -1.017272       -27.6814
 117   2.0000      -1.010957       -27.5095
 118   2.0000      -1.008222       -27.4351
 119   2.0000      -1.007487       -27.4151
 120   2.0000      -0.999939       -27.2097
 121   2.0000      -0.996465       -27.1152
 122   2.0000      -0.991497       -26.9800
 123   2.0000      -0.990728       -26.9591
 124   2.0000      -0.989154       -26.9163
 125   2.0000      -0.987030       -26.8584
 126   2.0000      -0.971893       -26.4466
 127   2.0000      -0.951970       -25.9044
 128   2.0000      -0.940384       -25.5891
 129   2.0000      -0.939893       -25.5758
 130   2.0000      -0.923507       -25.1299
 131   2.0000      -0.915569       -24.9139
 132   2.0000      -0.906532       -24.6680
 133   2.0000      -0.904130       -24.6026
 134   2.0000      -0.902999       -24.5718
 135   2.0000      -0.895843       -24.3771
 136   2.0000      -0.885063       -24.0838
 137   2.0000      -0.884095       -24.0575
 138   2.0000      -0.875306       -23.8183
 139   2.0000      -0.866016       -23.5655
 140   2.0000      -0.857747       -23.3405
 141   2.0000      -0.845634       -23.0109
 142   2.0000      -0.842056       -22.9135
 143   2.0000      -0.836384       -22.7592
 144   2.0000      -0.835151       -22.7256
 145   2.0000      -0.834065       -22.6961
 146   2.0000      -0.828933       -22.5564
 147   2.0000      -0.827933       -22.5292
 148   2.0000      -0.825393       -22.4601
 149   2.0000      -0.813297       -22.1309
 150   2.0000      -0.803940       -21.8763
 151   2.0000      -0.801186       -21.8014
 152   2.0000      -0.782159       -21.2836
 153   2.0000      -0.769555       -20.9407
 154   2.0000      -0.761096       -20.7105
 155   2.0000      -0.757728       -20.6188
 156   2.0000      -0.753580       -20.5059
 157   2.0000      -0.741326       -20.1725
 158   2.0000      -0.731344       -19.9009
 159   2.0000      -0.730693       -19.8832
 160   2.0000      -0.718565       -19.5532
 161   2.0000      -0.711109       -19.3503
 162   2.0000      -0.704838       -19.1796
 163   2.0000      -0.695149       -18.9160
 164   2.0000      -0.691068       -18.8049
 165   2.0000      -0.688941       -18.7471
 166   2.0000      -0.682847       -18.5812
 167   2.0000      -0.681463       -18.5435
 168   2.0000      -0.674160       -18.3448
 169   2.0000      -0.672199       -18.2915
 170   2.0000      -0.671593       -18.2750
 171   2.0000      -0.669093       -18.2069
 172   2.0000      -0.660800       -17.9813
 173   2.0000      -0.655871       -17.8472
 174   2.0000      -0.653518       -17.7831
 175   2.0000      -0.643460       -17.5094
 176   2.0000      -0.639516       -17.4021
 177   2.0000      -0.632582       -17.2134
 178   2.0000      -0.630258       -17.1502
 179   2.0000      -0.627637       -17.0789
 180   2.0000      -0.622781       -16.9467
 181   2.0000      -0.620575       -16.8867
 182   2.0000      -0.618941       -16.8422
 183   2.0000      -0.607021       -16.5179
 184   2.0000      -0.599036       -16.3006
 185   2.0000      -0.595701       -16.2099
 186   2.0000      -0.594051       -16.1649
 187   2.0000      -0.586250       -15.9527
 188   2.0000      -0.582240       -15.8436
 189   2.0000      -0.577500       -15.7146
 190   2.0000      -0.574311       -15.6278
 191   2.0000      -0.565619       -15.3913
 192   2.0000      -0.559213       -15.2170
 193   2.0000      -0.554645       -15.0927
 194   2.0000      -0.554151       -15.0792
 195   2.0000      -0.546408       -14.8685
 196   2.0000      -0.543904       -14.8004
 197   2.0000      -0.542599       -14.7649
 198   2.0000      -0.542395       -14.7593
 199   2.0000      -0.539936       -14.6924
 200   2.0000      -0.539446       -14.6791
 201   2.0000      -0.535860       -14.5815
 202   2.0000      -0.534057       -14.5324
 203   2.0000      -0.527242       -14.3470
 204   2.0000      -0.524886       -14.2829
 205   2.0000      -0.524465       -14.2714
 206   2.0000      -0.521097       -14.1798
 207   2.0000      -0.519174       -14.1274
 208   2.0000      -0.516647       -14.0587
 209   2.0000      -0.515679       -14.0323
 210   2.0000      -0.514876       -14.0105
 211   2.0000      -0.512873       -13.9560
 212   2.0000      -0.511504       -13.9187
 213   2.0000      -0.507391       -13.8068
 214   2.0000      -0.506575       -13.7846
 215   2.0000      -0.503190       -13.6925
 216   2.0000      -0.502246       -13.6668
 217   2.0000      -0.497146       -13.5280
 218   2.0000      -0.494722       -13.4621
 219   2.0000      -0.492559       -13.4032
 220   2.0000      -0.490369       -13.3436
 221   2.0000      -0.490311       -13.3420
 222   2.0000      -0.486961       -13.2509
 223   2.0000      -0.483174       -13.1478
 224   2.0000      -0.481800       -13.1104
 225   2.0000      -0.481649       -13.1063
 226   2.0000      -0.478204       -13.0126
 227   2.0000      -0.476675       -12.9710
 228   2.0000      -0.474660       -12.9162
 229   2.0000      -0.471464       -12.8292
 230   2.0000      -0.470411       -12.8005
 231   2.0000      -0.467721       -12.7273
 232   2.0000      -0.466307       -12.6889
 233   2.0000      -0.464884       -12.6501
 234   2.0000      -0.462293       -12.5796
 235   2.0000      -0.456857       -12.4317
 236   2.0000      -0.456182       -12.4133
 237   2.0000      -0.452815       -12.3217
 238   2.0000      -0.450653       -12.2629
 239   2.0000      -0.448051       -12.1921
 240   2.0000      -0.447856       -12.1868
 241   2.0000      -0.447337       -12.1727
 242   2.0000      -0.445711       -12.1284
 243   2.0000      -0.444676       -12.1003
 244   2.0000      -0.442492       -12.0408
 245   2.0000      -0.441468       -12.0129
 246   2.0000      -0.439804       -11.9677
 247   2.0000      -0.437761       -11.9121
 248   2.0000      -0.437268       -11.8987
 249   2.0000      -0.431072       -11.7301
 250   2.0000      -0.430355       -11.7106
 251   2.0000      -0.429234       -11.6801
 252   2.0000      -0.427194       -11.6245
 253   2.0000      -0.424249       -11.5444
 254   2.0000      -0.422729       -11.5030
 255   2.0000      -0.422191       -11.4884
 256   2.0000      -0.421039       -11.4571
 257   2.0000      -0.418237       -11.3808
 258   2.0000      -0.413688       -11.2570
 259   2.0000      -0.411954       -11.2098
 260   2.0000      -0.406510       -11.0617
 261   2.0000      -0.405342       -11.0299
 262   2.0000      -0.404726       -11.0132
 263   2.0000      -0.403046       -10.9675
 264   2.0000      -0.397344       -10.8123
 265   2.0000      -0.396653       -10.7935
 266   2.0000      -0.395758       -10.7691
 267   2.0000      -0.388601       -10.5744
 268   2.0000      -0.386575       -10.5192
 269   2.0000      -0.384428       -10.4608
 270   2.0000      -0.381627       -10.3846
 271   2.0000      -0.374082       -10.1793
 272   2.0000      -0.373737       -10.1699
 273   2.0000      -0.367467        -9.9993
 274   2.0000      -0.360167        -9.8006
 275   2.0000      -0.355985        -9.6868
 276   2.0000      -0.353696        -9.6246
 277   2.0000      -0.350135        -9.5277
 278   2.0000      -0.346695        -9.4341
 279   2.0000      -0.340453        -9.2642
 280   2.0000      -0.339170        -9.2293
 281   2.0000      -0.330518        -8.9939
 282   2.0000      -0.330287        -8.9876
 283   2.0000      -0.321781        -8.7561
 284   2.0000      -0.316445        -8.6109
 285   2.0000      -0.314101        -8.5471
 286   2.0000      -0.313316        -8.5258
 287   2.0000      -0.306483        -8.3398
 288   2.0000      -0.292528        -7.9601
 289   2.0000      -0.283456        -7.7132
 290   2.0000      -0.261183        -7.1072
 291   2.0000      -0.217029        -5.9057
 292   0.0000      -0.130222        -3.5435
 293   0.0000      -0.085774        -2.3340
 294   0.0000      -0.082417        -2.2427
 295   0.0000      -0.057637        -1.5684
 296   0.0000      -0.049063        -1.3351

MULLIKEN ATOMIC CHARGES
-----------------------
   0 C :    0.292285
   1 C :   -0.341773
   2 C :   -0.183110
   3 N :    0.147856
   4 C :   -0.204680
   5 N :    0.161066
   6 C :    0.021518
   7 C :   -0.019176
   8 C :   -0.077113
   9 C :    0.124161
  10 C :   -0.087367
  11 C :   -0.025667
  12 S :    0.186060
  13 C :   -0.122091
  14 C :    0.034415
  15 Br:    0.023804
  16 C :    0.144093
  17 O :   -0.143200
  18 C :   -0.073397
  19 C :   -0.036437
  20 C :    0.076799
  21 C :   -0.092649
  22 C :    0.016293
  23 C :    0.121015
  24 C :   -0.064672
  25 C :    0.067037
  26 C :    0.102842
  27 C :    0.011400
  28 C :   -0.141475
  29 C :    0.065467
  30 C :    0.025753
  31 C :    0.069099
  32 C :    0.022301
  33 C :   -0.082694
  34 C :    0.123529
  35 C :   -0.017261
  36 C :   -0.036489
  37 C :   -0.002292
  38 C :   -0.071083
  39 C :    0.086172
  40 C :   -0.047917
  41 C :   -0.051357
  42 N :    0.050128
  43 C :   -0.145233
  44 C :   -0.135325
  45 N :    0.044842
  46 C :   -0.215262
  47 N :    0.237938
  48 C :   -0.215988
  49 N :    0.230228
  50 C :    0.104786
  51 C :    0.057783
  52 C :    0.022627
  53 N :   -0.293966
  54 S :    0.532434
  55 N :   -0.331072
  56 C :   -0.133606
  57 C :    0.022949
  58 C :    0.021795
  59 C :    0.039237
  60 C :   -0.029131
  61 S :    0.125743
  62 C :   -0.031490
  63 C :    0.031451
  64 C :    0.035686
  65 C :   -0.014285
  66 S :    0.069794
  67 C :    0.023222
  68 C :   -0.149913
  69 S :    0.109878
  70 C :   -0.099380
  71 C :   -0.025629
  72 C :    0.082365
  73 C :    0.056231
  74 C :   -0.066059
  75 C :    0.165380
  76 O :   -0.137897
  77 H :   -0.010828
  78 H :   -0.005857
  79 H :   -0.002749
  80 H :    0.030052
  81 H :   -0.027773
  82 H :   -0.028437
  83 H :   -0.014996
  84 H :    0.001864
  85 H :    0.001611
  86 H :    0.020521
  87 H :    0.012920
  88 H :    0.021142
  89 H :   -0.000574
  90 H :    0.003722
  91 H :    0.021322
  92 H :    0.012363
  93 H :    0.021551
  94 H :   -0.034805
  95 H :   -0.025630
  96 H :   -0.033104
  97 H :   -0.005052
  98 H :   -0.007940
  99 H :    0.005250
 100 H :    0.000404
 101 H :   -0.008754
 102 H :   -0.005264
 103 H :   -0.002810
 104 H :   -0.008662
 105 H :    0.039402
 106 H :   -0.000217
 107 H :   -0.009995
Sum of atomic charges:    0.0000000

LOEWDIN ATOMIC CHARGES
----------------------
   0 C :    0.076371
   1 C :   -0.140645
   2 C :   -0.018035
   3 N :   -0.054203
   4 C :   -0.025717
   5 N :   -0.050528
   6 C :   -0.021556
   7 C :   -0.050219
   8 C :    0.021518
   9 C :   -0.032197
  10 C :   -0.143509
  11 C :   -0.009917
  12 S :    0.432190
  13 C :   -0.271486
  14 C :   -0.070555
  15 Br:    0.136704
  16 C :    0.082242
  17 O :   -0.135646
  18 C :   -0.097700
  19 C :    0.084592
  20 C :   -0.043271
  21 C :    0.000257
  22 C :   -0.000970
  23 C :    0.006221
  24 C :   -0.021860
  25 C :    0.026273
  26 C :   -0.019176
  27 C :    0.009340
  28 C :   -0.036276
  29 C :   -0.011313
  30 C :   -0.057549
  31 C :   -0.010835
  32 C :   -0.058014
  33 C :   -0.012393
  34 C :   -0.019237
  35 C :   -0.013605
  36 C :   -0.014094
  37 C :    0.001415
  38 C :   -0.024445
  39 C :   -0.041655
  40 C :   -0.004209
  41 C :   -0.009256
  42 N :    0.000026
  43 C :   -0.043011
  44 C :   -0.028265
  45 N :   -0.003958
  46 C :   -0.035157
  47 N :   -0.010553
  48 C :   -0.038468
  49 N :   -0.016516
  50 C :   -0.033145
  51 C :   -0.036310
  52 C :   -0.034069
  53 N :   -0.282002
  54 S :    0.649109
  55 N :   -0.290318
  56 C :   -0.037855
  57 C :   -0.131019
  58 C :   -0.027475
  59 C :   -0.025313
  60 C :   -0.192233
  61 S :    0.441435
  62 C :   -0.161096
  63 C :   -0.034497
  64 C :   -0.018428
  65 C :   -0.149326
  66 S :    0.410547
  67 C :   -0.062504
  68 C :   -0.155273
  69 S :    0.426438
  70 C :   -0.124148
  71 C :   -0.097350
  72 C :   -0.056154
  73 C :    0.017749
  74 C :   -0.050738
  75 C :    0.071719
  76 O :   -0.127919
  77 H :    0.040706
  78 H :    0.041036
  79 H :    0.038928
  80 H :    0.045772
  81 H :    0.028866
  82 H :    0.029660
  83 H :    0.031217
  84 H :    0.021604
  85 H :    0.021308
  86 H :    0.024888
  87 H :    0.025904
  88 H :    0.025231
  89 H :    0.020591
  90 H :    0.022358
  91 H :    0.025060
  92 H :    0.025556
  93 H :    0.025316
  94 H :    0.026641
  95 H :    0.027788
  96 H :    0.028102
  97 H :    0.025696
  98 H :    0.027526
  99 H :    0.041875
 100 H :    0.037815
 101 H :    0.032875
 102 H :    0.035965
 103 H :    0.037034
 104 H :    0.036913
 105 H :    0.036248
 106 H :    0.011272
 107 H :    0.029270

  Mayer bond orders larger than 0.100000
B(  0-C ,  1-C ) :   1.6460 B(  0-C ,  6-C ) :   1.0084 B(  0-C , 18-C ) :   1.0524
B(  1-C ,  2-C ) :   1.1365 B(  1-C ,  4-C ) :   1.1404 B(  2-C ,  3-N ) :   2.9736
B(  4-C ,  5-N ) :   2.9961 B(  6-C ,  7-C ) :   1.2724 B(  6-C , 11-C ) :   1.4029
B(  7-C ,  8-C ) :   1.4216 B(  7-C , 16-C ) :   0.9405 B(  8-C ,  9-C ) :   1.2453
B(  8-C , 77-H ) :   1.0180 B(  9-C , 10-C ) :   1.3041 B(  9-C , 14-C ) :   1.1609
B( 10-C , 11-C ) :   1.3321 B( 10-C , 12-S ) :   1.0854 B( 11-C , 78-H ) :   0.9818
B( 12-S , 13-C ) :   1.0856 B( 13-C , 14-C ) :   1.6190 B( 13-C , 15-Br) :   1.0194
B( 14-C , 79-H ) :   1.0016 B( 16-C , 17-O ) :   2.2289 B( 16-C , 18-C ) :   0.9355
B( 18-C , 19-C ) :   1.6118 B( 19-C , 20-C ) :   1.0972 B( 19-C , 80-H ) :   0.9531
B( 20-C , 21-C ) :   1.2481 B( 20-C , 25-C ) :   1.3470 B( 21-C , 22-C ) :   1.4016
B( 21-C , 81-H ) :   1.0137 B( 22-C , 23-C ) :   1.3514 B( 22-C , 28-C ) :   0.9118
B( 23-C , 24-C ) :   1.3259 B( 23-C , 26-C ) :   1.0053 B( 24-C , 25-C ) :   1.4037
B( 24-C , 82-H ) :   0.9947 B( 25-C , 83-H ) :   0.9768 B( 26-C , 27-C ) :   1.3490
B( 26-C , 36-C ) :   1.3345 B( 27-C , 28-C ) :   0.9161 B( 27-C , 33-C ) :   1.4133
B( 28-C , 29-C ) :   1.0411 B( 28-C , 31-C ) :   1.0371 B( 29-C , 30-C ) :   1.1016
B( 29-C , 84-H ) :   0.9395 B( 29-C , 85-H ) :   0.9382 B( 30-C , 86-H ) :   0.9642
B( 30-C , 87-H ) :   0.9640 B( 30-C , 88-H ) :   0.9640 B( 31-C , 32-C ) :   1.1006
B( 31-C , 89-H ) :   0.9395 B( 31-C , 90-H ) :   0.9400 B( 32-C , 91-H ) :   0.9647
B( 32-C , 92-H ) :   0.9639 B( 32-C , 93-H ) :   0.9640 B( 33-C , 34-C ) :   1.2914
B( 33-C , 94-H ) :   1.0019 B( 34-C , 35-C ) :   1.3221 B( 34-C , 37-C ) :   1.0646
B( 35-C , 36-C ) :   1.3847 B( 35-C , 95-H ) :   0.9938 B( 36-C , 96-H ) :   0.9908
B( 37-C , 38-C ) :   1.5845 B( 37-C , 97-H ) :   0.9705 B( 38-C , 39-C ) :   1.2091
B( 38-C , 98-H ) :   0.9501 B( 39-C , 40-C ) :   1.2316 B( 39-C , 50-C ) :   0.1156
B( 39-C , 52-C ) :   1.1611 B( 40-C , 41-C ) :   1.1220 B( 40-C , 45-N ) :   1.4345
B( 41-C , 42-N ) :   1.4901 B( 41-C , 50-C ) :   1.1807 B( 42-N , 43-C ) :   1.6958
B( 43-C , 44-C ) :   1.2239 B( 43-C , 48-C ) :   1.1617 B( 44-C , 45-N ) :   1.7372
B( 44-C , 46-C ) :   1.1544 B( 46-C , 47-N ) :   3.0538 B( 48-C , 49-N ) :   3.0435
B( 50-C , 51-C ) :   1.1324 B( 50-C , 56-C ) :   1.3126 B( 51-C , 52-C ) :   1.1168
B( 51-C , 55-N ) :   1.4922 B( 52-C , 53-N ) :   1.5171 B( 53-N , 54-S ) :   1.2550
B( 53-N , 55-N ) :   0.1393 B( 54-S , 55-N ) :   1.2461 B( 56-C , 57-C ) :   1.4176
B( 56-C , 99-H ) :   0.9433 B( 57-C , 58-C ) :   1.1797 B( 57-C , 61-S ) :   1.0779
B( 58-C , 59-C ) :   1.5420 B( 58-C ,100-H ) :   1.0029 B( 59-C , 60-C ) :   1.2110
B( 59-C ,101-H ) :   0.9952 B( 60-C , 61-S ) :   1.0199 B( 60-C , 62-C ) :   1.4508
B( 62-C , 63-C ) :   1.2098 B( 62-C , 66-S ) :   1.0628 B( 63-C , 64-C ) :   1.5663
B( 63-C ,102-H ) :   0.9935 B( 64-C , 65-C ) :   1.1538 B( 64-C ,103-H ) :   0.9994
B( 65-C , 66-S ) :   1.0345 B( 65-C , 67-C ) :   1.5951 B( 67-C , 68-C ) :   1.1787
B( 67-C ,104-H ) :   0.9394 B( 68-C , 69-S ) :   1.0967 B( 68-C , 72-C ) :   1.4322
B( 69-S , 70-C ) :   1.1518 B( 70-C , 71-C ) :   1.6039 B( 70-C ,105-H ) :   0.9690
B( 71-C , 72-C ) :   1.2130 B( 71-C , 75-C ) :   0.8937 B( 72-C , 73-C ) :   1.0577
B( 73-C , 74-C ) :   1.6701 B( 73-C ,106-H ) :   0.9892 B( 74-C , 75-C ) :   1.0169
B( 74-C ,107-H ) :   1.0041 B( 75-C , 76-O ) :   2.2289

-----------------------------------------------------------------------------
         ABSORPTION SPECTRUM VIA TRANSITION ELECTRIC DIPOLE MOMENTS
-----------------------------------------------------------------------------
State   Energy  Wavelength   fosc         T2         TX        TY        TZ
        (cm-1)    (nm)                  (au**2)     (au)      (au)      (au)
-----------------------------------------------------------------------------
   0    5423.9   1843.7   0.422873007  25.66676   1.55118  -3.73568  -3.05046
   1   14781.4    676.5   0.141287366   3.14676  -0.53899   1.36272   0.99962
   2   15717.9    636.2   0.631931272  13.23580  -1.50463  -1.16534   3.10063
   3   19393.8    515.6   1.003496818  17.03446  -0.32629   4.11016   0.18604
   4   20808.0    480.6   0.040337361   0.63819   0.33813  -0.18812  -0.69891
   5   22448.7    445.5   0.067164686   0.98497   0.43580  -0.37441  -0.80924
   6   22590.9    442.7   0.079144500   1.15336   0.39657   0.70538  -0.70606
   7   23502.9    425.5   0.123745669   1.73334   0.35393   1.18723  -0.44560
   8   25001.4    400.0   0.504976380   6.64939  -0.55096   2.36855   0.85778
   9   25331.3    394.8   0.086032696   1.11810   0.51152  -0.85149  -0.36250
  10   25867.3    386.6   0.063687699   0.81055  -0.31501  -0.72827   0.42538
  11   26296.4    380.3   0.182803074   2.28856   0.23154   1.45159  -0.35752
  12   26453.6    378.0   0.005141025   0.06398   0.04032   0.24259  -0.05920
  13   26960.0    370.9   0.100295367   1.22472   0.19223   1.08041  -0.14315
  14   27316.6    366.1   0.237065393   2.85704  -0.31730  -1.49673   0.71844
  15   27514.8    363.4   0.003608267   0.04317  -0.13626   0.10065  -0.12031
  16   27969.3    357.5   0.029686352   0.34942  -0.40455  -0.43098  -0.00428
  17   28284.2    353.6   0.242304911   2.82029  -0.91854  -1.25879  -0.62612
  18   28427.8    351.8   0.082411792   0.95438   0.17748   0.83419  -0.47646
  19   28832.5    346.8   0.032140176   0.36698  -0.22904   0.38734  -0.40558
  20   29080.6    343.9   0.031841525   0.36047  -0.53041   0.27789   0.04363
  21   29883.6    334.6   0.047821448   0.52682  -0.57165  -0.17682  -0.41082
  22   30439.8    328.5   0.111720794   1.20828  -0.00508   0.96838   0.52010
  23   30567.1    327.1   0.134201705   1.44537   0.08779   0.69573  -0.97654
  24   30973.2    322.9   0.256857677   2.73012   1.04345   1.23873  -0.32694
  25   31306.7    319.4   0.065504617   0.68883  -0.46183  -0.60224   0.33593
  26   31586.1    316.6   0.139156156   1.45038   0.56852  -0.27588  -1.02521
  27   31775.6    314.7   0.167052339   1.73075   0.63728  -0.35086  -1.09614
  28   32091.5    311.6   0.018125682   0.18594  -0.14289   0.25122   0.32002
  29   32205.8    310.5   0.047245519   0.48295   0.34645   0.32251  -0.50883
  30   32824.0    304.7   0.045191534   0.45325  -0.03852  -0.67166   0.02539
  31   32902.9    303.9   0.018944241   0.18955   0.37556   0.18149  -0.12475
  32   32980.1    303.2   0.001171350   0.01169   0.03785   0.10127  -0.00217
  33   33402.1    299.4   0.140825422   1.38798   0.31388   0.78305   0.82236
  34   33606.9    297.6   0.291526218   2.85578  -0.90156  -1.38539  -0.35167
  35   33779.7    296.0   0.164794587   1.60607   1.22992   0.11136   0.28453
  36   33879.8    295.2   0.026062540   0.25325  -0.24823  -0.09456   0.42743
  37   34037.3    293.8   0.103463103   1.00071  -0.70956   0.32312   0.62675
  38   34801.9    287.3   0.231065405   2.18579  -1.39117  -0.50040  -0.00586
  39   34843.9    287.0   0.249874596   2.36086   0.41089   0.44508  -1.41207
  40   35618.7    280.8   0.015127341   0.13982   0.08849  -0.36245   0.02486
  41   35808.1    279.3   0.001290857   0.01187   0.05598   0.03409  -0.08701
  42   36034.3    277.5   0.008299791   0.07583   0.01617   0.25145   0.11107
  43   36701.0    272.5   0.044040036   0.39504  -0.45304   0.41971   0.11680
  44   37025.1    270.1   0.038302376   0.34057  -0.08352   0.57271   0.07479
  45   37821.5    264.4   0.007067893   0.06152  -0.05292   0.00580   0.24226
  46   38077.2    262.6   0.020182998   0.17450   0.16161  -0.38499   0.01292
  47   38414.9    260.3   0.005616252   0.04813  -0.02525  -0.21756   0.01263
  48   38509.1    259.7   0.000297140   0.00254  -0.01772  -0.02306   0.04117
  49   38661.9    258.7   0.069900649   0.59522   0.27846   0.61630   0.37129
  50   38835.4    257.5   0.008377327   0.07102   0.07484   0.03729  -0.25303
  51   38891.9    257.1   0.146949485   1.24390  -0.76745   0.23335   0.77490
  52   39041.9    256.1   0.000882183   0.00744   0.08089   0.00708  -0.02907
  53   39167.2    255.3   0.116935119   0.98287  -0.32924   0.64733   0.67487
  54   39386.5    253.9   0.058737457   0.49096   0.03373   0.47455   0.51442
  55   39542.1    252.9   0.018665329   0.15540  -0.00598   0.36574   0.14697
  56   39798.0    251.3   0.221278638   1.83044   0.36758  -1.29801  -0.10239
  57   39910.0    250.6   0.016964637   0.13994   0.22393   0.28864  -0.08050
  58   40197.8    248.8   0.200559754   1.64254   0.91034  -0.12399  -0.89356
  59   40295.9    248.2   0.048745162   0.39824   0.05150  -0.62853  -0.02330

FINAL SINGLE POINT ENERGY     -7492.067349918088

DIPOLE MOMENT
-------------
                                X             Y             Z
Electronic contribution:    -34.33613    -160.50773     -44.09931
Nuclear contribution   :     30.84477     164.23321      46.64099
                        -----------------------------------------
Total Dipole Moment    :     -3.49136       3.72548       2.54168
                        -----------------------------------------
Magnitude (a.u.)       :      5.70342
Magnitude (Debye)      :     14.49693

Rotational constants in cm-1:     0.001137     0.000154     0.000141
Rotational constants in MHz :    34.086207     4.610209     4.226569

                             ****ORCA TERMINATED NORMALLY****
TOTAL RUN TIME: 0 days 0 hours 12 minutes 39 seconds 702 msec
