                         Program Version 4.2.0 -  RELEASE  -
|  1> # ORCA input file
|  2> # SCF done       -205.748871992074          0.000877675909
|  3> ! CAM-B3LYP def2-SVP def2/J RIJCOSX Grid4 TightSCF
|  4> %maxcore 5000
|  5> %tddft
|  6>     Mode sTDDFT
|  7>     Ethresh 5.0
|  8>     maxcore 5000
|  9> end
| 10>
| 11> %pal
| 12>   nprocs 6
| 13>   end
| 14> * xyz 0 1
| 15>    C       -0.50148         1.98682         1.63915
| 16>    C       -0.30028         1.23549         2.76647
| 17>    C        0.93638         0.66092         3.12645
| 18>    N        1.91767         0.17235         3.46540
| 19>    C       -1.31276         0.94595         3.70426
| 20>    N       -2.11440         0.69265         4.48558
| 21>    C        0.50541         2.31614         0.63340
| 22>    C       -0.09876         3.10082        -0.38524
| 23>    C        0.59205         3.57260        -1.47652
| 24>    C        1.95072         3.25706        -1.56572
| 25>    C        2.54934         2.47558        -0.54686
| 26>    C        1.84712         1.99684         0.55447
| 27>    S        4.23608         2.21083        -0.85738
| 28>    C        4.11762         3.14011        -2.32967
| 29>    C        2.87724         3.62440        -2.57834
| 30>   Br        5.64164         3.38167        -3.39306
| 31>    C       -1.50558         3.29891        -0.05291
| 32>    O       -2.34467         3.92835        -0.69726
| 33>    C       -1.74198         2.60370         1.21744
| 34>    C       -2.97688         2.62106         1.81907
| 35>    N       -3.97407         3.29177         1.22530
| 36>    C       -5.24964         3.47380         1.63079
| 37>    S       -5.88642         2.75983         3.07444
| 38>    C       -7.40948         3.52752         2.75123
| 39>    N       -8.45521         3.30440         3.66358
| 40>    O       -9.52035         3.84271         3.43969
| 41>    O       -8.20280         2.58666         4.61276
| 42>    C       -7.42213         4.28392         1.61282
| 43>    C       -6.18281         4.27019         0.94035
| 44>    C       -5.85863         4.96257        -0.27010
| 45>    C       -6.64490         5.84781        -0.92359
| 46>    C       -6.24657         6.53385        -2.10246
| 47>    S       -7.31077         7.71136        -2.81930
| 48>    C       -6.17801         8.10495        -4.08800
| 49>    C       -5.03242         7.32923        -3.94289
| 50>    C       -5.06758         6.46106        -2.83577
| 51>    S       -3.63819         5.50283        -2.56206
| 52>    C       -2.72385         6.13567        -3.90890
| 53>    S       -1.20008         5.66179        -4.23033
| 54>    S       -3.57142         7.32575        -4.88462
| 55>    C       -6.49078         9.12144        -5.01424
| 56>    C       -5.74186         9.42102        -6.11047
| 57>    C       -5.94217        10.50090        -7.00755
| 58>    C       -6.82836        11.59462        -6.81586
| 59>    C       -6.96315        12.63854        -7.80431
| 60>    N       -7.71461        13.71451        -7.52713
| 61>    C       -8.42090        13.75316        -6.42539
| 62>    C       -8.36863        12.66972        -5.49400
| 63>    N       -7.54823        11.66514        -5.69081
| 64>    C       -9.15371        12.69321        -4.31487
| 65>    N       -9.79303        12.73283        -3.36536
| 66>    C       -9.21972        14.90073        -6.19120
| 67>    N       -9.89076        15.81470        -6.03056
| 68>    C       -6.29145        12.60140        -9.04873
| 69>    C       -5.36566        11.55316        -9.20863
| 70>    C       -5.19417        10.53048        -8.20721
| 71>    N       -4.28776         9.62423        -8.58142
| 72>    S       -3.72220        10.01607       -10.02730
| 73>    N       -4.58292        11.34478       -10.26893
| 74>    C       -6.46104        13.58772       -10.06293
| 75>    C       -7.52203        14.40598       -10.27869
| 76>    C       -8.88163        14.39907        -9.77504
| 77>    C       -9.63685        13.29460        -9.47657
| 78>    C      -10.99066        13.34932        -9.08782
| 79>    N      -12.08547        13.33350        -8.74424
| 80>    C       -9.13406        11.98051        -9.50924
| 81>    N       -8.75387        10.89666        -9.49351
| 82>    C       -9.37868        15.76350        -9.87203
| 83>    C       -8.47090        16.52550       -10.65302
| 84>    C       -7.32935        15.67549       -11.04331
| 85>    O       -6.40376        15.95094       -11.76759
| 86>    C       -8.67535        17.85657       -10.92531
| 87>    C       -9.81560        18.46444       -10.38866
| 88>    C      -10.70478        17.69719        -9.59529
| 89>    C      -10.50773        16.34775        -9.33157
| 90>    S      -12.03050        18.65221        -9.01334
| 91>    C      -11.38984        20.04915        -9.83633
| 92>    C      -10.23849        19.81542       -10.51154
| 93>   Br      -12.29617        21.68515        -9.72702
| 94>    H        0.10365         4.16465        -2.23529
| 95>    H        2.34935         1.40634         1.30249
| 96>    H        2.62015         4.21667        -3.43752
| 97>    H       -3.18686         2.12498         2.75775
| 98>    H       -3.67241         3.73464         0.33227
| 99>    H       -8.29790         4.81359         1.28647
|100>    H       -4.88195         4.76290        -0.68383
|101>    H       -7.62907         6.09500        -0.55404
|102>    H       -7.38678         9.68925        -4.81128
|103>    H       -4.90841         8.78504        -6.38012
|104>    H       -5.60016        13.74390       -10.70503
|105>    H       -7.97500        18.41494       -11.52647
|106>    H      -11.20003        15.80596        -8.70850
|107>    H       -9.70796        20.56401       -11.07113
|108> *
|109>
|110>                          ****END OF INPUT****

CARTESIAN COORDINATES (ANGSTROEM)
---------------------------------
  C     -0.501480    1.986820    1.639150
  C     -0.300280    1.235490    2.766470
  C      0.936380    0.660920    3.126450
  N      1.917670    0.172350    3.465400
  C     -1.312760    0.945950    3.704260
  N     -2.114400    0.692650    4.485580
  C      0.505410    2.316140    0.633400
  C     -0.098760    3.100820   -0.385240
  C      0.592050    3.572600   -1.476520
  C      1.950720    3.257060   -1.565720
  C      2.549340    2.475580   -0.546860
  C      1.847120    1.996840    0.554470
  S      4.236080    2.210830   -0.857380
  C      4.117620    3.140110   -2.329670
  C      2.877240    3.624400   -2.578340
  Br     5.641640    3.381670   -3.393060
  C     -1.505580    3.298910   -0.052910
  O     -2.344670    3.928350   -0.697260
  C     -1.741980    2.603700    1.217440
  C     -2.976880    2.621060    1.819070
  N     -3.974070    3.291770    1.225300
  C     -5.249640    3.473800    1.630790
  S     -5.886420    2.759830    3.074440
  C     -7.409480    3.527520    2.751230
  N     -8.455210    3.304400    3.663580
  O     -9.520350    3.842710    3.439690
  O     -8.202800    2.586660    4.612760
  C     -7.422130    4.283920    1.612820
  C     -6.182810    4.270190    0.940350
  C     -5.858630    4.962570   -0.270100
  C     -6.644900    5.847810   -0.923590
  C     -6.246570    6.533850   -2.102460
  S     -7.310770    7.711360   -2.819300
  C     -6.178010    8.104950   -4.088000
  C     -5.032420    7.329230   -3.942890
  C     -5.067580    6.461060   -2.835770
  S     -3.638190    5.502830   -2.562060
  C     -2.723850    6.135670   -3.908900
  S     -1.200080    5.661790   -4.230330
  S     -3.571420    7.325750   -4.884620
  C     -6.490780    9.121440   -5.014240
  C     -5.741860    9.421020   -6.110470
  C     -5.942170   10.500900   -7.007550
  C     -6.828360   11.594620   -6.815860
  C     -6.963150   12.638540   -7.804310
  N     -7.714610   13.714510   -7.527130
  C     -8.420900   13.753160   -6.425390
  C     -8.368630   12.669720   -5.494000
  N     -7.548230   11.665140   -5.690810
  C     -9.153710   12.693210   -4.314870
  N     -9.793030   12.732830   -3.365360
  C     -9.219720   14.900730   -6.191200
  N     -9.890760   15.814700   -6.030560
  C     -6.291450   12.601400   -9.048730
  C     -5.365660   11.553160   -9.208630
  C     -5.194170   10.530480   -8.207210
  N     -4.287760    9.624230   -8.581420
  S     -3.722200   10.016070  -10.027300
  N     -4.582920   11.344780  -10.268930
  C     -6.461040   13.587720  -10.062930
  C     -7.522030   14.405980  -10.278690
  C     -8.881630   14.399070   -9.775040
  C     -9.636850   13.294600   -9.476570
  C    -10.990660   13.349320   -9.087820
  N    -12.085470   13.333500   -8.744240
  C     -9.134060   11.980510   -9.509240
  N     -8.753870   10.896660   -9.493510
  C     -9.378680   15.763500   -9.872030
  C     -8.470900   16.525500  -10.653020
  C     -7.329350   15.675490  -11.043310
  O     -6.403760   15.950940  -11.767590
  C     -8.675350   17.856570  -10.925310
  C     -9.815600   18.464440  -10.388660
  C    -10.704780   17.697190   -9.595290
  C    -10.507730   16.347750   -9.331570
  S    -12.030500   18.652210   -9.013340
  C    -11.389840   20.049150   -9.836330
  C    -10.238490   19.815420  -10.511540
  Br   -12.296170   21.685150   -9.727020
  H      0.103650    4.164650   -2.235290
  H      2.349350    1.406340    1.302490
  H      2.620150    4.216670   -3.437520
  H     -3.186860    2.124980    2.757750
  H     -3.672410    3.734640    0.332270
  H     -8.297900    4.813590    1.286470
  H     -4.881950    4.762900   -0.683830
  H     -7.629070    6.095000   -0.554040
  H     -7.386780    9.689250   -4.811280
  H     -4.908410    8.785040   -6.380120
  H     -5.600160   13.743900  -10.705030
  H     -7.975000   18.414940  -11.526470
  H    -11.200030   15.805960   -8.708500
  H     -9.707960   20.564010  -11.071130

 Total Charge           Charge          ....    0
 Multiplicity           Mult            ....    1
 Number of Electrons    NEL             ....  646
 Basis Dimension        Dim             .... 1244

ORBITAL ENERGIES
----------------

  NO   OCC          E(Eh)            E(eV)
   0   2.0000    -482.891885    -13140.1562
   1   2.0000    -482.885139    -13139.9727
   2   2.0000     -89.055966     -2423.3360
   3   2.0000     -89.003406     -2421.9058
   4   2.0000     -88.995633     -2421.6943
   5   2.0000     -88.990769     -2421.5619
   6   2.0000     -88.990506     -2421.5548
   7   2.0000     -88.984213     -2421.3835
   8   2.0000     -88.975118     -2421.1360
   9   2.0000     -88.917728     -2419.5744
  10   2.0000     -62.569610     -1702.6056
  11   2.0000     -62.562874     -1702.4224
  12   2.0000     -56.403561     -1534.8189
  13   2.0000     -56.400830     -1534.7446
  14   2.0000     -56.400811     -1534.7441
  15   2.0000     -56.396824     -1534.6356
  16   2.0000     -56.394107     -1534.5617
  17   2.0000     -56.394075     -1534.5608
  18   2.0000     -19.250305      -523.8274
  19   2.0000     -19.249692      -523.8107
  20   2.0000     -19.246674      -523.7286
  21   2.0000     -19.219217      -522.9815
  22   2.0000     -14.661919      -398.9711
  23   2.0000     -14.505872      -394.7249
  24   2.0000     -14.474012      -393.8579
  25   2.0000     -14.471772      -393.7969
  26   2.0000     -14.465587      -393.6286
  27   2.0000     -14.460301      -393.4848
  28   2.0000     -14.443304      -393.0223
  29   2.0000     -14.437959      -392.8768
  30   2.0000     -14.429289      -392.6409
  31   2.0000     -14.424579      -392.5128
  32   2.0000     -14.424205      -392.5026
  33   2.0000     -14.418501      -392.3474
  34   2.0000     -10.395289      -282.8702
  35   2.0000     -10.394735      -282.8551
  36   2.0000     -10.391954      -282.7795
  37   2.0000     -10.390853      -282.7495
  38   2.0000     -10.387672      -282.6629
  39   2.0000     -10.382041      -282.5097
  40   2.0000     -10.370439      -282.1940
  41   2.0000     -10.366398      -282.0840
  42   2.0000     -10.361597      -281.9534
  43   2.0000     -10.360598      -281.9262
  44   2.0000     -10.360172      -281.9146
  45   2.0000     -10.358848      -281.8786
  46   2.0000     -10.356646      -281.8187
  47   2.0000     -10.353079      -281.7216
  48   2.0000     -10.352615      -281.7090
  49   2.0000     -10.352226      -281.6984
  50   2.0000     -10.347413      -281.5674
  51   2.0000     -10.345905      -281.5264
  52   2.0000     -10.345121      -281.5050
  53   2.0000     -10.344525      -281.4888
  54   2.0000     -10.339189      -281.3436
  55   2.0000     -10.339055      -281.3400
  56   2.0000     -10.337819      -281.3063
  57   2.0000     -10.336540      -281.2715
  58   2.0000     -10.335461      -281.2422
  59   2.0000     -10.331471      -281.1336
  60   2.0000     -10.331415      -281.1321
  61   2.0000     -10.326939      -281.0103
  62   2.0000     -10.326556      -280.9999
  63   2.0000     -10.326062      -280.9864
  64   2.0000     -10.326007      -280.9849
  65   2.0000     -10.322654      -280.8937
  66   2.0000     -10.321138      -280.8524
  67   2.0000     -10.320862      -280.8449
  68   2.0000     -10.320305      -280.8298
  69   2.0000     -10.319651      -280.8120
  70   2.0000     -10.318378      -280.7773
  71   2.0000     -10.318171      -280.7717
  72   2.0000     -10.317862      -280.7633
  73   2.0000     -10.316293      -280.7206
  74   2.0000     -10.315844      -280.7084
  75   2.0000     -10.312208      -280.6094
  76   2.0000     -10.309965      -280.5484
  77   2.0000     -10.309756      -280.5427
  78   2.0000     -10.308689      -280.5137
  79   2.0000     -10.306621      -280.4574
  80   2.0000     -10.305984      -280.4401
  81   2.0000     -10.305431      -280.4250
  82   2.0000     -10.305370      -280.4234
  83   2.0000     -10.304004      -280.3862
  84   2.0000     -10.302795      -280.3533
  85   2.0000     -10.296511      -280.1823
  86   2.0000     -10.295517      -280.1553
  87   2.0000      -8.799070      -239.4349
  88   2.0000      -8.792324      -239.2513
  89   2.0000      -8.147172      -221.6958
  90   2.0000      -8.098686      -220.3765
  91   2.0000      -8.090792      -220.1616
  92   2.0000      -8.085903      -220.0286
  93   2.0000      -8.085407      -220.0151
  94   2.0000      -8.080215      -219.8738
  95   2.0000      -8.071178      -219.6279
  96   2.0000      -8.014264      -218.0792
  97   2.0000      -6.635416      -180.5588
  98   2.0000      -6.628643      -180.3745
  99   2.0000      -6.620781      -180.1606
 100   2.0000      -6.620576      -180.1550
 101   2.0000      -6.614058      -179.9777
 102   2.0000      -6.613842      -179.9718
 103   2.0000      -6.118125      -166.4826
 104   2.0000      -6.110344      -166.2709
 105   2.0000      -6.110209      -166.2672
 106   2.0000      -6.068301      -165.1269
 107   2.0000      -6.063942      -165.0082
 108   2.0000      -6.060699      -164.9200
 109   2.0000      -6.060178      -164.9058
 110   2.0000      -6.056219      -164.7981
 111   2.0000      -6.055303      -164.7732
 112   2.0000      -6.055201      -164.7704
 113   2.0000      -6.051755      -164.6766
 114   2.0000      -6.051180      -164.6610
 115   2.0000      -6.050902      -164.6534
 116   2.0000      -6.049883      -164.6257
 117   2.0000      -6.047816      -164.5694
 118   2.0000      -6.046217      -164.5259
 119   2.0000      -6.045597      -164.5091
 120   2.0000      -6.041470      -164.3968
 121   2.0000      -6.040856      -164.3800
 122   2.0000      -6.036549      -164.2628
 123   2.0000      -6.032405      -164.1501
 124   2.0000      -5.983808      -162.8277
 125   2.0000      -5.980954      -162.7500
 126   2.0000      -5.974501      -162.5744
 127   2.0000      -2.751268       -74.8658
 128   2.0000      -2.747213       -74.7555
 129   2.0000      -2.746992       -74.7494
 130   2.0000      -2.744481       -74.6811
 131   2.0000      -2.740463       -74.5718
 132   2.0000      -2.740252       -74.5660
 133   2.0000      -2.735388       -74.4337
 134   2.0000      -2.735376       -74.4334
 135   2.0000      -2.728680       -74.2512
 136   2.0000      -2.728662       -74.2507
 137   2.0000      -1.332631       -36.2627
 138   2.0000      -1.163095       -31.6494
 139   2.0000      -1.152882       -31.3715
 140   2.0000      -1.152276       -31.3550
 141   2.0000      -1.135059       -30.8865
 142   2.0000      -1.133298       -30.8386
 143   2.0000      -1.115414       -30.3520
 144   2.0000      -1.060377       -28.8543
 145   2.0000      -1.044564       -28.4240
 146   2.0000      -1.034365       -28.1465
 147   2.0000      -1.026857       -27.9422
 148   2.0000      -1.024847       -27.8875
 149   2.0000      -1.024274       -27.8719
 150   2.0000      -1.022668       -27.8282
 151   2.0000      -1.016734       -27.6667
 152   2.0000      -1.014831       -27.6149
 153   2.0000      -1.006653       -27.3924
 154   2.0000      -1.006012       -27.3750
 155   2.0000      -1.001320       -27.2473
 156   2.0000      -1.000591       -27.2275
 157   2.0000      -0.994197       -27.0535
 158   2.0000      -0.989951       -26.9379
 159   2.0000      -0.987937       -26.8831
 160   2.0000      -0.953730       -25.9523
 161   2.0000      -0.951119       -25.8813
 162   2.0000      -0.944733       -25.7075
 163   2.0000      -0.933092       -25.3907
 164   2.0000      -0.921931       -25.0870
 165   2.0000      -0.919558       -25.0224
 166   2.0000      -0.919277       -25.0148
 167   2.0000      -0.911057       -24.7911
 168   2.0000      -0.909419       -24.7465
 169   2.0000      -0.896715       -24.4009
 170   2.0000      -0.895659       -24.3721
 171   2.0000      -0.891289       -24.2532
 172   2.0000      -0.889250       -24.1977
 173   2.0000      -0.887322       -24.1453
 174   2.0000      -0.878754       -23.9121
 175   2.0000      -0.870328       -23.6828
 176   2.0000      -0.862331       -23.4652
 177   2.0000      -0.850517       -23.1438
 178   2.0000      -0.839477       -22.8433
 179   2.0000      -0.838328       -22.8121
 180   2.0000      -0.830357       -22.5952
 181   2.0000      -0.824898       -22.4466
 182   2.0000      -0.812243       -22.1022
 183   2.0000      -0.808269       -21.9941
 184   2.0000      -0.803214       -21.8566
 185   2.0000      -0.783475       -21.3194
 186   2.0000      -0.775002       -21.0889
 187   2.0000      -0.768169       -20.9029
 188   2.0000      -0.761976       -20.7344
 189   2.0000      -0.749743       -20.4015
 190   2.0000      -0.747437       -20.3388
 191   2.0000      -0.737689       -20.0735
 192   2.0000      -0.726704       -19.7746
 193   2.0000      -0.714092       -19.4314
 194   2.0000      -0.712146       -19.3785
 195   2.0000      -0.709222       -19.2989
 196   2.0000      -0.708546       -19.2805
 197   2.0000      -0.702536       -19.1170
 198   2.0000      -0.693144       -18.8614
 199   2.0000      -0.689159       -18.7530
 200   2.0000      -0.687363       -18.7041
 201   2.0000      -0.677445       -18.4342
 202   2.0000      -0.669609       -18.2210
 203   2.0000      -0.667200       -18.1554
 204   2.0000      -0.664229       -18.0746
 205   2.0000      -0.656937       -17.8762
 206   2.0000      -0.654177       -17.8011
 207   2.0000      -0.653308       -17.7774
 208   2.0000      -0.645312       -17.5598
 209   2.0000      -0.644048       -17.5254
 210   2.0000      -0.643423       -17.5084
 211   2.0000      -0.637382       -17.3440
 212   2.0000      -0.631051       -17.1718
 213   2.0000      -0.627926       -17.0867
 214   2.0000      -0.625764       -17.0279
 215   2.0000      -0.618224       -16.8227
 216   2.0000      -0.614094       -16.7104
 217   2.0000      -0.606224       -16.4962
 218   2.0000      -0.602462       -16.3938
 219   2.0000      -0.597737       -16.2653
 220   2.0000      -0.593253       -16.1432
 221   2.0000      -0.591270       -16.0893
 222   2.0000      -0.589063       -16.0292
 223   2.0000      -0.584905       -15.9161
 224   2.0000      -0.579576       -15.7711
 225   2.0000      -0.571940       -15.5633
 226   2.0000      -0.571424       -15.5492
 227   2.0000      -0.570422       -15.5220
 228   2.0000      -0.567312       -15.4373
 229   2.0000      -0.565045       -15.3757
 230   2.0000      -0.558828       -15.2065
 231   2.0000      -0.558638       -15.2013
 232   2.0000      -0.550788       -14.9877
 233   2.0000      -0.549784       -14.9604
 234   2.0000      -0.547346       -14.8940
 235   2.0000      -0.543954       -14.8017
 236   2.0000      -0.542803       -14.7704
 237   2.0000      -0.539237       -14.6734
 238   2.0000      -0.538379       -14.6500
 239   2.0000      -0.535763       -14.5789
 240   2.0000      -0.532607       -14.4930
 241   2.0000      -0.526502       -14.3269
 242   2.0000      -0.520519       -14.1640
 243   2.0000      -0.518483       -14.1086
 244   2.0000      -0.517639       -14.0857
 245   2.0000      -0.512634       -13.9495
 246   2.0000      -0.510958       -13.9039
 247   2.0000      -0.508903       -13.8480
 248   2.0000      -0.507244       -13.8028
 249   2.0000      -0.505919       -13.7668
 250   2.0000      -0.502870       -13.6838
 251   2.0000      -0.500606       -13.6222
 252   2.0000      -0.495992       -13.4966
 253   2.0000      -0.493785       -13.4366
 254   2.0000      -0.492819       -13.4103
 255   2.0000      -0.491091       -13.3633
 256   2.0000      -0.486850       -13.2479
 257   2.0000      -0.484572       -13.1859
 258   2.0000      -0.483915       -13.1680
 259   2.0000      -0.480787       -13.0829
 260   2.0000      -0.476811       -12.9747
 261   2.0000      -0.473749       -12.8914
 262   2.0000      -0.471159       -12.8209
 263   2.0000      -0.468206       -12.7405
 264   2.0000      -0.467074       -12.7097
 265   2.0000      -0.465150       -12.6574
 266   2.0000      -0.463416       -12.6102
 267   2.0000      -0.461903       -12.5690
 268   2.0000      -0.460354       -12.5269
 269   2.0000      -0.460269       -12.5245
 270   2.0000      -0.459551       -12.5050
 271   2.0000      -0.457721       -12.4552
 272   2.0000      -0.454771       -12.3749
 273   2.0000      -0.453923       -12.3519
 274   2.0000      -0.450199       -12.2505
 275   2.0000      -0.449474       -12.2308
 276   2.0000      -0.448450       -12.2029
 277   2.0000      -0.446316       -12.1449
 278   2.0000      -0.444450       -12.0941
 279   2.0000      -0.442565       -12.0428
 280   2.0000      -0.441473       -12.0131
 281   2.0000      -0.438601       -11.9349
 282   2.0000      -0.438216       -11.9245
 283   2.0000      -0.435089       -11.8394
 284   2.0000      -0.432388       -11.7659
 285   2.0000      -0.431382       -11.7385
 286   2.0000      -0.429600       -11.6900
 287   2.0000      -0.429117       -11.6769
 288   2.0000      -0.423832       -11.5331
 289   2.0000      -0.423644       -11.5280
 290   2.0000      -0.423250       -11.5172
 291   2.0000      -0.421344       -11.4654
 292   2.0000      -0.415639       -11.3101
 293   2.0000      -0.406411       -11.0590
 294   2.0000      -0.403512       -10.9801
 295   2.0000      -0.397361       -10.8127
 296   2.0000      -0.396705       -10.7949
 297   2.0000      -0.393647       -10.7117
 298   2.0000      -0.389520       -10.5994
 299   2.0000      -0.388453       -10.5703
 300   2.0000      -0.386563       -10.5189
 301   2.0000      -0.382381       -10.4051
 302   2.0000      -0.381338       -10.3767
 303   2.0000      -0.379754       -10.3336
 304   2.0000      -0.379152       -10.3173
 305   2.0000      -0.375832       -10.2269
 306   2.0000      -0.374505       -10.1908
 307   2.0000      -0.369664       -10.0591
 308   2.0000      -0.366044        -9.9606
 309   2.0000      -0.357572        -9.7300
 310   2.0000      -0.355990        -9.6870
 311   2.0000      -0.349601        -9.5131
 312   2.0000      -0.346532        -9.4296
 313   2.0000      -0.332969        -9.0606
 314   2.0000      -0.327591        -8.9142
 315   2.0000      -0.316324        -8.6076
 316   2.0000      -0.314582        -8.5602
 317   2.0000      -0.313422        -8.5286
 318   2.0000      -0.303280        -8.2527
 319   2.0000      -0.299656        -8.1541
 320   2.0000      -0.294193        -8.0054
 321   2.0000      -0.288603        -7.8533
 322   2.0000      -0.259690        -7.0665
 323   0.0000      -0.141136        -3.8405
 324   0.0000      -0.099750        -2.7143
 325   0.0000      -0.083481        -2.2716
 326   0.0000      -0.082309        -2.2397
 327   0.0000      -0.076465        -2.0807

MULLIKEN ATOMIC CHARGES
-----------------------
   0 C :    0.323310
   1 C :   -0.339189
   2 C :   -0.183770
   3 N :    0.157829
   4 C :   -0.194905
   5 N :    0.145281
   6 C :    0.008226
   7 C :   -0.007320
   8 C :   -0.044434
   9 C :    0.114618
  10 C :   -0.091697
  11 C :   -0.021161
  12 S :    0.193729
  13 C :   -0.124077
  14 C :    0.041566
  15 Br:    0.030176
  16 C :    0.180258
  17 O :   -0.236412
  18 C :   -0.124906
  19 C :    0.033933
  20 N :   -0.016475
  21 C :   -0.112516
  22 S :    0.192817
  23 C :    0.003392
  24 N :    0.275097
  25 O :   -0.241127
  26 O :   -0.251926
  27 C :    0.004390
  28 C :    0.129667
  29 C :   -0.030743
  30 C :    0.060084
  31 C :   -0.149654
  32 S :    0.186458
  33 C :   -0.153901
  34 C :   -0.011307
  35 C :   -0.003452
  36 S :    0.177984
  37 C :   -0.129896
  38 S :   -0.096530
  39 S :    0.194692
  40 C :    0.106848
  41 C :   -0.118617
  42 C :    0.115923
  43 C :   -0.012794
  44 C :   -0.083945
  45 N :    0.026188
  46 C :   -0.117033
  47 C :   -0.099863
  48 N :    0.034632
  49 C :   -0.236840
  50 N :    0.245232
  51 C :   -0.199092
  52 N :    0.239457
  53 C :    0.079925
  54 C :    0.027553
  55 C :    0.003990
  56 N :   -0.278879
  57 S :    0.560636
  58 N :   -0.266940
  59 C :   -0.024799
  60 C :   -0.097012
  61 C :    0.307048
  62 C :   -0.358202
  63 C :   -0.197570
  64 N :    0.170417
  65 C :   -0.182227
  66 N :    0.152749
  67 C :   -0.003547
  68 C :    0.015010
  69 C :    0.129151
  70 O :   -0.135959
  71 C :   -0.081228
  72 C :    0.113870
  73 C :   -0.088244
  74 C :   -0.006680
  75 S :    0.199164
  76 C :   -0.126025
  77 C :    0.041219
  78 Br:    0.025603
  79 H :   -0.037127
  80 H :   -0.003721
  81 H :    0.002177
  82 H :    0.043657
  83 H :    0.188366
  84 H :    0.016201
  85 H :   -0.010989
  86 H :   -0.015965
  87 H :    0.015282
  88 H :    0.012281
  89 H :    0.031365
  90 H :   -0.008078
  91 H :    0.002646
  92 H :   -0.003327
Sum of atomic charges:   -0.0000000

LOEWDIN ATOMIC CHARGES
----------------------
   0 C :    0.078661
   1 C :   -0.143627
   2 C :   -0.020145
   3 N :   -0.048245
   4 C :   -0.019298
   5 N :   -0.051001
   6 C :   -0.018475
   7 C :   -0.055528
   8 C :    0.031175
   9 C :   -0.033147
  10 C :   -0.142573
  11 C :   -0.007840
  12 S :    0.439030
  13 C :   -0.270909
  14 C :   -0.066745
  15 Br:    0.141639
  16 C :    0.104214
  17 O :   -0.183217
  18 C :   -0.140407
  19 C :    0.112621
  20 N :    0.075162
  21 C :   -0.108264
  22 S :    0.479175
  23 C :   -0.196513
  24 N :    0.272538
  25 O :   -0.207035
  26 O :   -0.218193
  27 C :    0.004494
  28 C :   -0.089627
  29 C :   -0.019277
  30 C :   -0.039224
  31 C :   -0.174104
  32 S :    0.474923
  33 C :   -0.193971
  34 C :   -0.196684
  35 C :   -0.218420
  36 S :    0.458851
  37 C :   -0.440380
  38 S :   -0.003749
  39 S :    0.436575
  40 C :    0.010540
  41 C :   -0.036727
  42 C :    0.015900
  43 C :   -0.004538
  44 C :    0.008866
  45 N :    0.007907
  46 C :   -0.019944
  47 C :   -0.031339
  48 N :    0.008636
  49 C :   -0.039954
  50 N :   -0.004272
  51 C :   -0.031565
  52 N :   -0.002670
  53 C :   -0.046568
  54 C :   -0.027747
  55 C :   -0.042624
  56 N :   -0.277120
  57 S :    0.695910
  58 N :   -0.283373
  59 C :    0.065165
  60 C :   -0.063720
  61 C :    0.081240
  62 C :   -0.153383
  63 C :   -0.027039
  64 N :   -0.048077
  65 C :   -0.015238
  66 N :   -0.060519
  67 C :   -0.019144
  68 C :   -0.051293
  69 C :    0.085544
  70 O :   -0.135302
  71 C :    0.021979
  72 C :   -0.030514
  73 C :   -0.140407
  74 C :   -0.001266
  75 S :    0.443416
  76 C :   -0.270623
  77 C :   -0.070977
  78 Br:    0.139229
  79 H :    0.026025
  80 H :    0.042220
  81 H :    0.041375
  82 H :    0.037926
  83 H :    0.077896
  84 H :    0.046775
  85 H :    0.013451
  86 H :    0.032477
  87 H :    0.034561
  88 H :    0.021981
  89 H :    0.052144
  90 H :    0.041626
  91 H :    0.041891
  92 H :    0.038808

  Mayer bond orders larger than 0.100000
B(  0-C ,  1-C ) :   1.6413 B(  0-C ,  6-C ) :   1.0063 B(  0-C , 18-C ) :   1.0801
B(  1-C ,  2-C ) :   1.1396 B(  1-C ,  4-C ) :   1.1458 B(  2-C ,  3-N ) :   2.9729
B(  4-C ,  5-N ) :   2.9557 B(  6-C ,  7-C ) :   1.2633 B(  6-C , 11-C ) :   1.4241
B(  7-C ,  8-C ) :   1.4182 B(  7-C , 16-C ) :   1.0013 B(  8-C ,  9-C ) :   1.2424
B(  8-C , 79-H ) :   1.0074 B(  9-C , 10-C ) :   1.3022 B(  9-C , 14-C ) :   1.1671
B( 10-C , 11-C ) :   1.3166 B( 10-C , 12-S ) :   1.0945 B( 11-C , 80-H ) :   0.9816
B( 12-S , 13-C ) :   1.0866 B( 13-C , 14-C ) :   1.6139 B( 13-C , 15-Br) :   1.0227
B( 14-C , 81-H ) :   1.0002 B( 16-C , 17-O ) :   1.9528 B( 16-C , 18-C ) :   1.0180
B( 17-O , 83-H ) :   0.1626 B( 18-C , 19-C ) :   1.4659 B( 19-C , 20-N ) :   1.3234
B( 19-C , 82-H ) :   0.9340 B( 20-N , 21-C ) :   1.2126 B( 20-N , 83-H ) :   0.8115
B( 21-C , 22-S ) :   1.1415 B( 21-C , 28-C ) :   1.3526 B( 22-S , 23-C ) :   1.0818
B( 23-C , 24-N ) :   0.9571 B( 23-C , 27-C ) :   1.5170 B( 24-N , 25-O ) :   1.5403
B( 24-N , 26-O ) :   1.5196 B( 25-O , 26-O ) :   0.2651 B( 27-C , 28-C ) :   1.2119
B( 27-C , 84-H ) :   0.9997 B( 28-C , 29-C ) :   1.1145 B( 29-C , 30-C ) :   1.6954
B( 29-C , 85-H ) :   0.9561 B( 30-C , 31-C ) :   1.1362 B( 30-C , 86-H ) :   0.9631
B( 31-C , 32-S ) :   1.1362 B( 31-C , 35-C ) :   1.5131 B( 32-S , 33-C ) :   1.1120
B( 33-C , 34-C ) :   1.4929 B( 33-C , 40-C ) :   1.1718 B( 34-C , 35-C ) :   1.2975
B( 34-C , 39-S ) :   1.0245 B( 35-C , 36-S ) :   0.9874 B( 36-S , 37-C ) :   1.1001
B( 36-S , 38-S ) :   0.1293 B( 37-C , 38-S ) :   1.7031 B( 37-C , 39-S ) :   1.0629
B( 38-S , 39-S ) :   0.1229 B( 40-C , 41-C ) :   1.5388 B( 40-C , 87-H ) :   0.9440
B( 41-C , 42-C ) :   1.2752 B( 41-C , 88-H ) :   0.9462 B( 42-C , 43-C ) :   1.1903
B( 42-C , 53-C ) :   0.1255 B( 42-C , 55-C ) :   1.1819 B( 43-C , 44-C ) :   1.1158
B( 43-C , 48-N ) :   1.4474 B( 44-C , 45-N ) :   1.4430 B( 44-C , 53-C ) :   1.2517
B( 45-N , 46-C ) :   1.6870 B( 46-C , 47-C ) :   1.2160 B( 46-C , 51-C ) :   1.1744
B( 47-C , 48-N ) :   1.7007 B( 47-C , 49-C ) :   1.1599 B( 49-C , 50-N ) :   3.0445
B( 51-C , 52-N ) :   2.9980 B( 53-C , 54-C ) :   1.2147 B( 53-C , 59-C ) :   1.1145
B( 54-C , 55-C ) :   1.1109 B( 54-C , 58-N ) :   1.5438 B( 55-C , 56-N ) :   1.5160
B( 56-N , 57-S ) :   1.3021 B( 56-N , 58-N ) :   0.1528 B( 57-S , 58-N ) :   1.2820
B( 59-C , 60-C ) :   1.6683 B( 59-C , 89-H ) :   0.9449 B( 60-C , 61-C ) :   1.0190
B( 60-C , 69-C ) :   0.9345 B( 61-C , 62-C ) :   1.6310 B( 61-C , 67-C ) :   1.0322
B( 62-C , 63-C ) :   1.1343 B( 62-C , 65-C ) :   1.1730 B( 63-C , 64-N ) :   2.9979
B( 65-C , 66-N ) :   2.9842 B( 67-C , 68-C ) :   1.2684 B( 67-C , 74-C ) :   1.4095
B( 68-C , 69-C ) :   0.9188 B( 68-C , 71-C ) :   1.4195 B( 69-C , 70-O ) :   2.2758
B( 71-C , 72-C ) :   1.2507 B( 71-C , 90-H ) :   1.0170 B( 72-C , 73-C ) :   1.2996
B( 72-C , 77-C ) :   1.1690 B( 73-C , 74-C ) :   1.3349 B( 73-C , 75-S ) :   1.0890
B( 74-C , 91-H ) :   0.9807 B( 75-S , 76-C ) :   1.0918 B( 76-C , 77-C ) :   1.6125
B( 76-C , 78-Br) :   1.0203 B( 77-C , 92-H ) :   1.0003

-----------------------------------------------------------------------------
         ABSORPTION SPECTRUM VIA TRANSITION ELECTRIC DIPOLE MOMENTS
-----------------------------------------------------------------------------
State   Energy  Wavelength   fosc         T2         TX        TY        TZ
        (cm-1)    (nm)                  (au**2)     (au)      (au)      (au)
-----------------------------------------------------------------------------
   0   10795.7    926.3   0.835691774  25.48420   1.39903  -3.59275   3.25869
   1   18008.5    555.3   0.134710519   2.46264  -0.47387   1.23190  -0.84883
   2   19050.4    524.9   0.047666477   0.82373  -0.30699   0.39483  -0.75736
   3   20540.9    486.8   0.103641592   1.66108  -1.04012   0.65974  -0.37944
   4   21162.8    472.5   0.514316479   8.00081   2.43616  -1.31308   0.58462
   5   22253.3    449.4   0.139589047   2.06506   0.59829  -0.86125   0.98252
   6   23424.1    426.9   0.007974803   0.11208   0.10045   0.21185  -0.23897
   7   23708.4    421.8   0.012628251   0.17535   0.36031   0.11896  -0.17715
   8   24041.0    416.0   0.133194125   1.82393  -0.11645  -0.92848   0.97380
   9   24110.1    414.8   0.051910609   0.70882  -0.59082  -0.35129   0.48615
  10   24544.6    407.4   0.153336755   2.05667   0.50561   0.78729  -1.08683
  11   25038.6    399.4   0.043577635   0.57297   0.46423   0.25016  -0.54302
  12   25662.7    389.7   0.025302609   0.32459   0.00362  -0.55485   0.12930
  13   26506.5    377.3   0.105120509   1.30560   0.33894   0.69413  -0.84196
  14   26855.3    372.4   0.065486909   0.80279  -0.55069  -0.34683   0.61582
  15   27489.6    363.8   0.150228913   1.79912   1.29295  -0.02774  -0.35586
  16   28283.8    353.6   0.017267178   0.20098  -0.25465   0.27343  -0.24774
  17   28441.3    351.6   0.122137909   1.41376   0.95741  -0.64290   0.28950
  18   28611.8    349.5   0.036128374   0.41570  -0.50277  -0.35440   0.19319
  19   28894.9    346.1   0.343640727   3.91525  -1.37817  -0.67801   1.24747
  20   29090.9    343.8   0.294820608   3.33639   1.37332  -0.92160  -0.77526
  21   29459.2    339.5   0.195180498   2.18118  -0.53347   0.96970   0.97789
  22   29564.3    338.2   0.036127772   0.40230   0.15549  -0.58676  -0.18395
  23   29975.7    333.6   0.297467175   3.26697  -0.09275  -1.54794   0.92858
  24   30095.9    332.3   0.013257007   0.14502   0.30270   0.04913   0.22577
  25   30687.1    325.9   0.166390298   1.78504  -0.71187   1.11740   0.17233
  26   31025.6    322.3   0.405597450   4.30378  -1.49734   0.23956   1.41576
  27   31211.1    320.4   0.003695888   0.03898   0.17378  -0.08911   0.02907
  28   31300.0    319.5   0.245805330   2.58537  -1.32879   0.77713   0.46451
  29   31706.4    315.4   0.014632303   0.15193  -0.10285   0.37078  -0.06221
  30   31903.8    313.4   0.173798240   1.79340   0.71747   0.46616  -1.03021
  31   32039.7    312.1   0.078870438   0.81040  -0.84741   0.01701   0.30333
  32   32523.2    307.5   0.001378309   0.01395  -0.09096  -0.04484   0.06056
  33   32580.4    306.9   0.016742869   0.16918   0.18820  -0.36047  -0.06182
  34   32927.0    303.7   0.016506921   0.16504   0.10232  -0.38542   0.07762
  35   33094.6    302.2   0.209002478   2.07907   1.32803   0.05915  -0.55850
  36   33464.1    298.8   0.114772838   1.12911  -0.43351   0.34614   0.90629
  37   33630.6    297.3   0.020688490   0.20252  -0.16271  -0.13231   0.39817
  38   33667.8    297.0   0.027532219   0.26922  -0.14598  -0.44884   0.21552
  39   33717.2    296.6   0.161106275   1.57303  -0.75850  -0.37228   0.92688
  40   33888.6    295.1   0.559950662   5.43966   0.42554   1.08375  -2.02090
  41   34195.1    292.4   0.186957626   1.79993  -0.15775   1.32560  -0.13348
  42   34617.8    288.9   0.267722761   2.54602  -0.30056   1.56695   0.01859
  43   34885.5    286.7   0.056644574   0.53455  -0.35358   0.51983   0.37325
  44   34977.9    285.9   0.090564020   0.85239  -0.65631  -0.06974   0.64559
  45   35002.0    285.7   0.131271656   1.23468   0.84429   0.03126  -0.72171
  46   35843.4    279.0   0.038481639   0.35344  -0.47117  -0.11985   0.34217
  47   36237.6    276.0   0.000653588   0.00594  -0.04964   0.05162  -0.02845
  48   36489.1    274.1   0.039145619   0.35318   0.37015  -0.00383  -0.46492
  49   36506.1    273.9   0.029981549   0.27037  -0.24161   0.12113   0.44422
  50   36660.7    272.8   0.042700973   0.38345   0.55385   0.06796  -0.26849
  51   36875.7    271.2   0.031142065   0.27802  -0.10527  -0.50660  -0.10151
  52   37008.0    270.2   0.033822778   0.30088  -0.26831   0.44565  -0.17403
  53   37364.4    267.6   0.021870225   0.19270  -0.09264   0.07398  -0.42266
  54   37460.6    266.9   0.001716595   0.01509  -0.11247   0.00232   0.04931
  55   37498.3    266.7   0.051930667   0.45592  -0.63723   0.13906  -0.17469
  56   37799.5    264.6   0.115651321   1.00726  -0.96340   0.26610   0.09115
  57   37858.2    264.1   0.008944054   0.07778  -0.03996  -0.23473   0.14519
  58   38026.0    263.0   0.024440733   0.21160   0.34107   0.28057   0.12866
  59   38124.1    262.3   0.028020343   0.24196   0.41550  -0.11018  -0.23914
  60   38312.4    261.0   0.009059419   0.07785   0.06519  -0.02177  -0.27041
  61   38335.7    260.9   0.015217892   0.13069  -0.23663  -0.00398   0.27327
  62   38629.4    258.9   0.038708702   0.32989  -0.57027   0.06812  -0.00658
  63   38866.1    257.3   0.106506935   0.90216   0.23724  -0.64116   0.65939
  64   39088.9    255.8   0.024800980   0.20888  -0.35216   0.23003  -0.17873
  65   39208.1    255.0   0.004106366   0.03448   0.01609  -0.09801  -0.15689
  66   39553.7    252.8   0.016733887   0.13928   0.08893  -0.36156   0.02534
  67   39732.4    251.7   0.000881042   0.00730  -0.05043   0.02809  -0.06299
  68   39744.3    251.6   0.118655160   0.98285   0.92821  -0.33096   0.10839
  69   39879.2    250.8   0.010414660   0.08598   0.21250  -0.18493  -0.08136
  70   39947.9    250.3   0.141641128   1.16727  -0.91840   0.18314   0.53876
  71   40250.6    248.4   0.182001698   1.48860  -1.13301   0.27288   0.36115
  72   40319.3    248.0   0.118440309   0.96708   0.85818  -0.45792  -0.14463

FINAL SINGLE POINT ENERGY    -11314.507376019765

DIPOLE MOMENT
-------------
                                X             Y             Z
Electronic contribution:     33.76904      73.48750     -49.51641
Nuclear contribution   :    -31.03428     -72.55082      47.11974
                        -----------------------------------------
Total Dipole Moment    :      2.73476       0.93668      -2.39667
                        -----------------------------------------
Magnitude (a.u.)       :      3.75504
Magnitude (Debye)      :      9.54454

Rotational constants in cm-1:     0.000930     0.000175     0.000153
Rotational constants in MHz :    27.869693     5.254183     4.578339

                             ****ORCA TERMINATED NORMALLY****
TOTAL RUN TIME: 0 days 0 hours 11 minutes 4 seconds 733 msec
