                         Program Version 4.2.0 -  RELEASE  -
|  1> # ORCA input file
|  2> # SCF done       -212.422606935060          0.000763785982
|  3> ! CAM-B3LYP def2-SVP def2/J RIJCOSX Grid4 TightSCF
|  4> %maxcore 5000
|  5> %tddft
|  6>     Mode sTDDFT
|  7>     Ethresh 5.0
|  8>     maxcore 5000
|  9> end
| 10>
| 11> %pal
| 12>   nprocs 6
| 13>   end
| 14> * xyz 0 1
| 15>    C      -11.17977         4.63484         4.30350
| 16>    C      -11.07259         5.88771         3.76605
| 17>    F      -11.55666         6.94715         4.42689
| 18>    C      -10.46319         6.07792         2.51045
| 19>    F      -10.39553         7.31586         1.99669
| 20>    C       -9.96511         5.01597         1.80832
| 21>    C      -10.07569         3.71328         2.32988
| 22>    C      -10.69134         3.51683         3.59965
| 23>    C      -10.82130         2.21440         4.13608
| 24>    C      -10.37714         1.14125         3.41240
| 25>    C       -9.79129         1.34372         2.12843
| 26>    C       -9.62154         2.59152         1.59992
| 27>    C       -9.48239         0.03478         1.54066
| 28>    O       -9.02377        -0.19225         0.42398
| 29>    C       -9.86916        -0.96562         2.53618
| 30>    C      -10.39931        -0.29308         3.69903
| 31>    C      -10.84652        -0.87060         4.85826
| 32>    C      -10.84552        -2.25998         5.09815
| 33>    N      -10.86419        -3.38407         5.32978
| 34>    C      -11.35843        -0.14958         5.95649
| 35>    N      -11.78422         0.38549         6.87838
| 36>    C       -9.72967        -2.31217         2.29216
| 37>    N       -9.28807        -2.73946         1.10577
| 38>    C       -9.06594        -4.02442         0.72890
| 39>    S       -9.06798        -5.32853         1.87380
| 40>    C       -8.66445        -6.42151         0.59007
| 41>    N       -8.51239        -7.78044         0.91074
| 42>    O       -8.22759        -8.54229         0.00769
| 43>    O       -8.67850        -8.08870         2.07602
| 44>    C       -8.54236        -5.82137        -0.63263
| 45>    C       -8.77783        -4.43161        -0.58246
| 46>    C       -8.78621        -3.53227        -1.69656
| 47>    C       -8.37434        -3.83036        -2.95002
| 48>    C       -8.44104        -2.87879        -3.99960
| 49>    S       -7.70680        -3.15457        -5.55515
| 50>    C       -8.13360        -1.58392        -6.16943
| 51>    C       -7.79872        -1.16828        -7.55700
| 52>    C       -8.90070        -1.58185        -8.53653
| 53>    C       -8.83086        -0.90277        -5.21787
| 54>    C       -9.01842        -1.61632        -3.98745
| 55>    N       -9.71508        -0.94856        -3.04839
| 56>    C      -10.05462         0.23272        -3.44860
| 57>    S       -9.55626         0.67368        -5.10275
| 58>    C      -10.78750         1.11796        -2.61376
| 59>    C      -11.03935         2.47251        -2.76674
| 60>    C      -10.54592         3.24185        -3.83323
| 61>    N      -10.12180         3.88630        -4.68132
| 62>    C      -11.76768         3.00124        -1.66839
| 63>    C      -12.03280         2.02443        -0.71369
| 64>    S      -11.44179         0.46680        -1.13557
| 65>    S      -12.82831         2.60443         0.72019
| 66>    C      -12.77713         4.20068         0.04296
| 67>    C      -12.23136         4.27610        -1.23652
| 68>    C      -12.25251         5.60203        -1.73352
| 69>    C      -12.02095         5.96381        -3.06872
| 70>    N      -11.90667         6.29969        -4.15945
| 71>    C      -12.72783         6.51575        -0.79588
| 72>    S      -13.27118         5.71990         0.66983
| 73>    C      -12.88672         7.91973        -0.88865
| 74>    C      -12.32525         8.84131        -1.71446
| 75>    C      -13.00915        10.17713        -1.79092
| 76>    O      -13.85613        10.58493        -1.03483
| 77>    C      -12.47183        10.82012        -3.00070
| 78>    C      -12.86919        11.97691        -3.60875
| 79>    C      -12.23983        12.36952        -4.81092
| 80>    C      -11.21776        11.54562        -5.36765
| 81>    C      -10.60908        11.93231        -6.57865
| 82>    C      -10.99256        13.08500        -7.20479
| 83>    C      -12.00016        13.90140        -6.65109
| 84>    C      -12.61157        13.55240        -5.47955
| 85>    F      -12.35566        15.02483        -7.28661
| 86>    F      -10.41351        13.45200        -8.35406
| 87>    C      -10.82148        10.35891        -4.71035
| 88>    C      -11.43100        10.00963        -3.53518
| 89>    C      -11.22363         8.86251        -2.65503
| 90>    C      -10.07686         8.11548        -2.62941
| 91>    C       -9.81029         7.07952        -1.72011
| 92>    N       -9.55090         6.21105        -1.01503
| 93>    C       -8.97704         8.33612        -3.48931
| 94>    N       -8.04346         8.48755        -4.13745
| 95>    H      -11.64781         4.50560         5.26674
| 96>    H       -9.50835         5.18668         0.84558
| 97>    H      -11.28015         2.10015         5.10461
| 98>    H       -9.16115         2.72706         0.63250
| 99>    H       -9.97879        -3.06405         3.03007
|100>    H       -9.07848        -1.97802         0.43447
|101>    H       -8.30863        -6.37652        -1.52206
|102>    H       -9.16392        -2.53436        -1.52573
|103>    H       -7.95062        -4.79313        -3.19500
|104>    H       -6.85487        -1.62602        -7.85837
|105>    H       -7.68419        -0.08189        -7.57719
|106>    H       -9.02518        -2.66232        -8.53321
|107>    H       -8.64108        -1.26391        -9.54232
|108>    H       -9.84569        -1.12061        -8.25944
|109>    H      -13.62316         8.33822        -0.20606
|110>    H      -13.65638        12.57996        -3.18258
|111>    H       -9.83471        11.32013        -7.01370
|112>    H      -13.38177        14.18730        -5.07042
|113>    H      -10.06042         9.74369        -5.16215
|114> *
|115>
|116>                          ****END OF INPUT****

CARTESIAN COORDINATES (ANGSTROEM)
---------------------------------
  C    -11.179770    4.634840    4.303500
  C    -11.072590    5.887710    3.766050
  F    -11.556660    6.947150    4.426890
  C    -10.463190    6.077920    2.510450
  F    -10.395530    7.315860    1.996690
  C     -9.965110    5.015970    1.808320
  C    -10.075690    3.713280    2.329880
  C    -10.691340    3.516830    3.599650
  C    -10.821300    2.214400    4.136080
  C    -10.377140    1.141250    3.412400
  C     -9.791290    1.343720    2.128430
  C     -9.621540    2.591520    1.599920
  C     -9.482390    0.034780    1.540660
  O     -9.023770   -0.192250    0.423980
  C     -9.869160   -0.965620    2.536180
  C    -10.399310   -0.293080    3.699030
  C    -10.846520   -0.870600    4.858260
  C    -10.845520   -2.259980    5.098150
  N    -10.864190   -3.384070    5.329780
  C    -11.358430   -0.149580    5.956490
  N    -11.784220    0.385490    6.878380
  C     -9.729670   -2.312170    2.292160
  N     -9.288070   -2.739460    1.105770
  C     -9.065940   -4.024420    0.728900
  S     -9.067980   -5.328530    1.873800
  C     -8.664450   -6.421510    0.590070
  N     -8.512390   -7.780440    0.910740
  O     -8.227590   -8.542290    0.007690
  O     -8.678500   -8.088700    2.076020
  C     -8.542360   -5.821370   -0.632630
  C     -8.777830   -4.431610   -0.582460
  C     -8.786210   -3.532270   -1.696560
  C     -8.374340   -3.830360   -2.950020
  C     -8.441040   -2.878790   -3.999600
  S     -7.706800   -3.154570   -5.555150
  C     -8.133600   -1.583920   -6.169430
  C     -7.798720   -1.168280   -7.557000
  C     -8.900700   -1.581850   -8.536530
  C     -8.830860   -0.902770   -5.217870
  C     -9.018420   -1.616320   -3.987450
  N     -9.715080   -0.948560   -3.048390
  C    -10.054620    0.232720   -3.448600
  S     -9.556260    0.673680   -5.102750
  C    -10.787500    1.117960   -2.613760
  C    -11.039350    2.472510   -2.766740
  C    -10.545920    3.241850   -3.833230
  N    -10.121800    3.886300   -4.681320
  C    -11.767680    3.001240   -1.668390
  C    -12.032800    2.024430   -0.713690
  S    -11.441790    0.466800   -1.135570
  S    -12.828310    2.604430    0.720190
  C    -12.777130    4.200680    0.042960
  C    -12.231360    4.276100   -1.236520
  C    -12.252510    5.602030   -1.733520
  C    -12.020950    5.963810   -3.068720
  N    -11.906670    6.299690   -4.159450
  C    -12.727830    6.515750   -0.795880
  S    -13.271180    5.719900    0.669830
  C    -12.886720    7.919730   -0.888650
  C    -12.325250    8.841310   -1.714460
  C    -13.009150   10.177130   -1.790920
  O    -13.856130   10.584930   -1.034830
  C    -12.471830   10.820120   -3.000700
  C    -12.869190   11.976910   -3.608750
  C    -12.239830   12.369520   -4.810920
  C    -11.217760   11.545620   -5.367650
  C    -10.609080   11.932310   -6.578650
  C    -10.992560   13.085000   -7.204790
  C    -12.000160   13.901400   -6.651090
  C    -12.611570   13.552400   -5.479550
  F    -12.355660   15.024830   -7.286610
  F    -10.413510   13.452000   -8.354060
  C    -10.821480   10.358910   -4.710350
  C    -11.431000   10.009630   -3.535180
  C    -11.223630    8.862510   -2.655030
  C    -10.076860    8.115480   -2.629410
  C     -9.810290    7.079520   -1.720110
  N     -9.550900    6.211050   -1.015030
  C     -8.977040    8.336120   -3.489310
  N     -8.043460    8.487550   -4.137450
  H    -11.647810    4.505600    5.266740
  H     -9.508350    5.186680    0.845580
  H    -11.280150    2.100150    5.104610
  H     -9.161150    2.727060    0.632500
  H     -9.978790   -3.064050    3.030070
  H     -9.078480   -1.978020    0.434470
  H     -8.308630   -6.376520   -1.522060
  H     -9.163920   -2.534360   -1.525730
  H     -7.950620   -4.793130   -3.195000
  H     -6.854870   -1.626020   -7.858370
  H     -7.684190   -0.081890   -7.577190
  H     -9.025180   -2.662320   -8.533210
  H     -8.641080   -1.263910   -9.542320
  H     -9.845690   -1.120610   -8.259440
  H    -13.623160    8.338220   -0.206060
  H    -13.656380   12.579960   -3.182580
  H     -9.834710   11.320130   -7.013700
  H    -13.381770   14.187300   -5.070420
  H    -10.060420    9.743690   -5.162150

 Total Charge           Charge          ....    0
 Multiplicity           Mult            ....    1
 Number of Electrons    NEL             ....  588
 Basis Dimension        Dim             .... 1239

ORBITAL ENERGIES
----------------

  NO   OCC          E(Eh)            E(eV)
   0   2.0000     -89.008270     -2422.0382
   1   2.0000     -89.008040     -2422.0319
   2   2.0000     -89.003680     -2421.9133
   3   2.0000     -88.993962     -2421.6488
   4   2.0000     -88.974135     -2421.1093
   5   2.0000     -88.973219     -2421.0844
   6   2.0000     -24.803039      -674.9250
   7   2.0000     -24.802859      -674.9201
   8   2.0000     -24.802139      -674.9005
   9   2.0000     -24.801017      -674.8700
  10   2.0000     -19.243819      -523.6509
  11   2.0000     -19.242937      -523.6269
  12   2.0000     -19.237543      -523.4802
  13   2.0000     -19.231277      -523.3097
  14   2.0000     -14.655137      -398.7866
  15   2.0000     -14.503130      -394.6502
  16   2.0000     -14.438992      -392.9049
  17   2.0000     -14.435259      -392.8034
  18   2.0000     -14.431769      -392.7084
  19   2.0000     -14.424846      -392.5200
  20   2.0000     -14.424117      -392.5002
  21   2.0000     -14.423927      -392.4950
  22   2.0000     -14.420386      -392.3986
  23   2.0000     -10.386737      -282.6375
  24   2.0000     -10.386150      -282.6215
  25   2.0000     -10.385566      -282.6056
  26   2.0000     -10.383993      -282.5628
  27   2.0000     -10.382059      -282.5102
  28   2.0000     -10.381541      -282.4961
  29   2.0000     -10.376394      -282.3560
  30   2.0000     -10.374043      -282.2921
  31   2.0000     -10.370112      -282.1851
  32   2.0000     -10.362775      -281.9854
  33   2.0000     -10.358274      -281.8630
  34   2.0000     -10.357455      -281.8407
  35   2.0000     -10.356710      -281.8204
  36   2.0000     -10.355240      -281.7804
  37   2.0000     -10.352586      -281.7082
  38   2.0000     -10.352481      -281.7053
  39   2.0000     -10.352182      -281.6972
  40   2.0000     -10.352118      -281.6955
  41   2.0000     -10.347659      -281.5741
  42   2.0000     -10.345359      -281.5115
  43   2.0000     -10.341582      -281.4088
  44   2.0000     -10.339574      -281.3541
  45   2.0000     -10.331617      -281.1376
  46   2.0000     -10.329047      -281.0677
  47   2.0000     -10.328594      -281.0553
  48   2.0000     -10.327158      -281.0163
  49   2.0000     -10.326211      -280.9905
  50   2.0000     -10.323686      -280.9218
  51   2.0000     -10.322418      -280.8873
  52   2.0000     -10.322374      -280.8861
  53   2.0000     -10.318948      -280.7929
  54   2.0000     -10.316888      -280.7368
  55   2.0000     -10.316624      -280.7296
  56   2.0000     -10.316490      -280.7260
  57   2.0000     -10.315708      -280.7047
  58   2.0000     -10.315493      -280.6988
  59   2.0000     -10.315459      -280.6979
  60   2.0000     -10.315368      -280.6954
  61   2.0000     -10.314796      -280.6799
  62   2.0000     -10.313581      -280.6468
  63   2.0000     -10.311130      -280.5801
  64   2.0000     -10.310956      -280.5754
  65   2.0000     -10.310622      -280.5663
  66   2.0000     -10.309979      -280.5488
  67   2.0000     -10.309370      -280.5322
  68   2.0000     -10.308736      -280.5150
  69   2.0000     -10.306473      -280.4534
  70   2.0000     -10.305623      -280.4303
  71   2.0000     -10.305152      -280.4175
  72   2.0000     -10.304888      -280.4103
  73   2.0000     -10.302602      -280.3480
  74   2.0000     -10.302429      -280.3433
  75   2.0000     -10.299546      -280.2649
  76   2.0000     -10.295557      -280.1563
  77   2.0000     -10.291301      -280.0405
  78   2.0000     -10.290989      -280.0320
  79   2.0000     -10.269118      -279.4369
  80   2.0000      -8.102770      -220.4876
  81   2.0000      -8.102117      -220.4698
  82   2.0000      -8.097615      -220.3473
  83   2.0000      -8.089169      -220.1175
  84   2.0000      -8.069160      -219.5730
  85   2.0000      -8.068370      -219.5515
  86   2.0000      -6.072372      -165.2376
  87   2.0000      -6.072229      -165.2338
  88   2.0000      -6.068156      -165.1229
  89   2.0000      -6.067878      -165.1153
  90   2.0000      -6.067319      -165.1002
  91   2.0000      -6.064422      -165.0213
  92   2.0000      -6.062901      -164.9799
  93   2.0000      -6.062804      -164.9773
  94   2.0000      -6.059350      -164.8833
  95   2.0000      -6.058774      -164.8676
  96   2.0000      -6.054462      -164.7503
  97   2.0000      -6.050675      -164.6472
  98   2.0000      -6.038837      -164.3251
  99   2.0000      -6.037605      -164.2916
 100   2.0000      -6.034827      -164.2160
 101   2.0000      -6.033527      -164.1806
 102   2.0000      -6.030645      -164.1022
 103   2.0000      -6.030203      -164.0902
 104   2.0000      -1.325930       -36.0804
 105   2.0000      -1.325608       -36.0716
 106   2.0000      -1.324449       -36.0401
 107   2.0000      -1.311016       -35.6746
 108   2.0000      -1.309171       -35.6244
 109   2.0000      -1.152800       -31.3693
 110   2.0000      -1.147723       -31.2311
 111   2.0000      -1.144933       -31.1552
 112   2.0000      -1.109286       -30.1852
 113   2.0000      -1.090282       -29.6681
 114   2.0000      -1.062542       -28.9132
 115   2.0000      -1.038169       -28.2500
 116   2.0000      -1.027691       -27.9649
 117   2.0000      -1.027339       -27.9553
 118   2.0000      -1.017269       -27.6813
 119   2.0000      -1.014879       -27.6163
 120   2.0000      -1.014684       -27.6110
 121   2.0000      -1.011208       -27.5164
 122   2.0000      -1.006530       -27.3891
 123   2.0000      -1.002799       -27.2875
 124   2.0000      -1.001420       -27.2500
 125   2.0000      -0.992291       -27.0016
 126   2.0000      -0.989997       -26.9392
 127   2.0000      -0.987042       -26.8588
 128   2.0000      -0.968348       -26.3501
 129   2.0000      -0.940719       -25.5983
 130   2.0000      -0.938403       -25.5352
 131   2.0000      -0.933089       -25.3906
 132   2.0000      -0.921393       -25.0724
 133   2.0000      -0.917862       -24.9763
 134   2.0000      -0.915661       -24.9164
 135   2.0000      -0.906842       -24.6764
 136   2.0000      -0.900074       -24.4923
 137   2.0000      -0.897811       -24.4307
 138   2.0000      -0.895866       -24.3777
 139   2.0000      -0.891637       -24.2627
 140   2.0000      -0.886110       -24.1123
 141   2.0000      -0.881005       -23.9734
 142   2.0000      -0.868522       -23.6337
 143   2.0000      -0.866595       -23.5812
 144   2.0000      -0.854582       -23.2543
 145   2.0000      -0.847994       -23.0751
 146   2.0000      -0.846038       -23.0219
 147   2.0000      -0.841241       -22.8913
 148   2.0000      -0.822760       -22.3884
 149   2.0000      -0.820407       -22.3244
 150   2.0000      -0.799174       -21.7466
 151   2.0000      -0.798174       -21.7194
 152   2.0000      -0.778235       -21.1768
 153   2.0000      -0.776218       -21.1220
 154   2.0000      -0.771171       -20.9846
 155   2.0000      -0.763834       -20.7850
 156   2.0000      -0.745846       -20.2955
 157   2.0000      -0.744182       -20.2502
 158   2.0000      -0.741581       -20.1795
 159   2.0000      -0.732350       -19.9282
 160   2.0000      -0.726864       -19.7790
 161   2.0000      -0.725928       -19.7535
 162   2.0000      -0.720349       -19.6017
 163   2.0000      -0.714868       -19.4525
 164   2.0000      -0.710570       -19.3356
 165   2.0000      -0.707812       -19.2606
 166   2.0000      -0.696163       -18.9436
 167   2.0000      -0.694886       -18.9088
 168   2.0000      -0.690872       -18.7996
 169   2.0000      -0.680820       -18.5261
 170   2.0000      -0.668239       -18.1837
 171   2.0000      -0.666347       -18.1322
 172   2.0000      -0.662222       -18.0200
 173   2.0000      -0.661127       -17.9902
 174   2.0000      -0.658518       -17.9192
 175   2.0000      -0.652844       -17.7648
 176   2.0000      -0.650344       -17.6968
 177   2.0000      -0.647754       -17.6263
 178   2.0000      -0.643081       -17.4991
 179   2.0000      -0.636542       -17.3212
 180   2.0000      -0.634401       -17.2629
 181   2.0000      -0.630798       -17.1649
 182   2.0000      -0.628093       -17.0913
 183   2.0000      -0.625379       -17.0174
 184   2.0000      -0.618955       -16.8426
 185   2.0000      -0.610887       -16.6231
 186   2.0000      -0.605942       -16.4885
 187   2.0000      -0.603126       -16.4119
 188   2.0000      -0.598992       -16.2994
 189   2.0000      -0.591107       -16.0849
 190   2.0000      -0.590708       -16.0740
 191   2.0000      -0.590232       -16.0610
 192   2.0000      -0.587871       -15.9968
 193   2.0000      -0.582882       -15.8610
 194   2.0000      -0.576579       -15.6895
 195   2.0000      -0.572218       -15.5709
 196   2.0000      -0.569527       -15.4976
 197   2.0000      -0.567752       -15.4493
 198   2.0000      -0.564734       -15.3672
 199   2.0000      -0.563666       -15.3381
 200   2.0000      -0.560382       -15.2488
 201   2.0000      -0.557265       -15.1640
 202   2.0000      -0.556009       -15.1298
 203   2.0000      -0.553803       -15.0697
 204   2.0000      -0.551699       -15.0125
 205   2.0000      -0.551412       -15.0047
 206   2.0000      -0.550203       -14.9718
 207   2.0000      -0.547563       -14.9000
 208   2.0000      -0.545609       -14.8468
 209   2.0000      -0.543777       -14.7969
 210   2.0000      -0.543051       -14.7772
 211   2.0000      -0.542042       -14.7497
 212   2.0000      -0.539768       -14.6878
 213   2.0000      -0.537735       -14.6325
 214   2.0000      -0.537151       -14.6166
 215   2.0000      -0.533949       -14.5295
 216   2.0000      -0.528275       -14.3751
 217   2.0000      -0.527664       -14.3585
 218   2.0000      -0.525122       -14.2893
 219   2.0000      -0.523853       -14.2548
 220   2.0000      -0.522135       -14.2080
 221   2.0000      -0.516286       -14.0489
 222   2.0000      -0.511870       -13.9287
 223   2.0000      -0.510833       -13.9005
 224   2.0000      -0.508788       -13.8448
 225   2.0000      -0.507217       -13.8021
 226   2.0000      -0.503145       -13.6913
 227   2.0000      -0.501436       -13.6448
 228   2.0000      -0.499247       -13.5852
 229   2.0000      -0.493330       -13.4242
 230   2.0000      -0.491971       -13.3872
 231   2.0000      -0.485734       -13.2175
 232   2.0000      -0.483039       -13.1442
 233   2.0000      -0.479131       -13.0378
 234   2.0000      -0.478115       -13.0102
 235   2.0000      -0.476590       -12.9687
 236   2.0000      -0.475748       -12.9458
 237   2.0000      -0.474657       -12.9161
 238   2.0000      -0.473706       -12.8902
 239   2.0000      -0.470607       -12.8059
 240   2.0000      -0.469983       -12.7889
 241   2.0000      -0.468661       -12.7529
 242   2.0000      -0.466433       -12.6923
 243   2.0000      -0.460445       -12.5293
 244   2.0000      -0.459809       -12.5120
 245   2.0000      -0.458011       -12.4631
 246   2.0000      -0.456480       -12.4214
 247   2.0000      -0.455117       -12.3844
 248   2.0000      -0.454170       -12.3586
 249   2.0000      -0.451847       -12.2954
 250   2.0000      -0.451690       -12.2911
 251   2.0000      -0.450523       -12.2594
 252   2.0000      -0.447668       -12.1817
 253   2.0000      -0.446408       -12.1474
 254   2.0000      -0.444453       -12.0942
 255   2.0000      -0.441061       -12.0019
 256   2.0000      -0.440210       -11.9787
 257   2.0000      -0.439391       -11.9564
 258   2.0000      -0.438469       -11.9313
 259   2.0000      -0.436574       -11.8798
 260   2.0000      -0.434341       -11.8190
 261   2.0000      -0.432227       -11.7615
 262   2.0000      -0.429573       -11.6893
 263   2.0000      -0.427918       -11.6443
 264   2.0000      -0.422751       -11.5036
 265   2.0000      -0.421307       -11.4643
 266   2.0000      -0.416693       -11.3388
 267   2.0000      -0.412900       -11.2356
 268   2.0000      -0.407186       -11.0801
 269   2.0000      -0.404344       -11.0028
 270   2.0000      -0.397625       -10.8199
 271   2.0000      -0.392196       -10.6722
 272   2.0000      -0.390491       -10.6258
 273   2.0000      -0.390154       -10.6166
 274   2.0000      -0.386210       -10.5093
 275   2.0000      -0.385862       -10.4998
 276   2.0000      -0.380750       -10.3607
 277   2.0000      -0.373076       -10.1519
 278   2.0000      -0.371100       -10.0981
 279   2.0000      -0.368434       -10.0256
 280   2.0000      -0.361624        -9.8403
 281   2.0000      -0.352890        -9.6026
 282   2.0000      -0.351101        -9.5539
 283   2.0000      -0.344779        -9.3819
 284   2.0000      -0.340057        -9.2534
 285   2.0000      -0.335046        -9.1171
 286   2.0000      -0.325944        -8.8694
 287   2.0000      -0.323719        -8.8088
 288   2.0000      -0.310955        -8.4615
 289   2.0000      -0.307196        -8.3592
 290   2.0000      -0.299136        -8.1399
 291   2.0000      -0.297332        -8.0908
 292   2.0000      -0.292870        -7.9694
 293   2.0000      -0.253077        -6.8866
 294   0.0000      -0.110597        -3.0095
 295   0.0000      -0.097233        -2.6458
 296   0.0000      -0.079608        -2.1663
 297   0.0000      -0.075023        -2.0415
 298   0.0000      -0.070798        -1.9265

MULLIKEN ATOMIC CHARGES
-----------------------
   0 C :   -0.120607
   1 C :    0.238293
   2 F :   -0.170215
   3 C :    0.237071
   4 F :   -0.177092
   5 C :   -0.096414
   6 C :    0.108872
   7 C :    0.113853
   8 C :   -0.090027
   9 C :    0.048120
  10 C :   -0.005674
  11 C :   -0.081130
  12 C :    0.160662
  13 O :   -0.215852
  14 C :   -0.134500
  15 C :    0.337124
  16 C :   -0.349157
  17 C :   -0.196117
  18 N :    0.144057
  19 C :   -0.184362
  20 N :    0.152686
  21 C :    0.028780
  22 N :   -0.003676
  23 C :   -0.126874
  24 S :    0.182018
  25 C :    0.006925
  26 N :    0.275266
  27 O :   -0.245145
  28 O :   -0.253353
  29 C :    0.001959
  30 C :    0.150401
  31 C :   -0.054775
  32 C :    0.046302
  33 C :   -0.175568
  34 S :    0.153160
  35 C :   -0.344139
  36 C :    0.080535
  37 C :    0.024484
  38 C :    0.067945
  39 C :    0.095500
  40 N :   -0.045965
  41 C :   -0.129672
  42 S :    0.133338
  43 C :   -0.067873
  44 C :    0.012735
  45 C :   -0.327485
  46 N :    0.228740
  47 C :    0.137372
  48 C :   -0.251574
  49 S :    0.254391
  50 S :    0.201561
  51 C :   -0.215342
  52 C :    0.137582
  53 C :   -0.015100
  54 C :   -0.300609
  55 N :    0.223504
  56 C :   -0.123361
  57 S :    0.193667
  58 C :    0.057124
  59 C :   -0.116268
  60 C :    0.131283
  61 O :   -0.133689
  62 C :    0.022999
  63 C :   -0.078302
  64 C :    0.111038
  65 C :    0.108157
  66 C :   -0.102875
  67 C :    0.242147
  68 C :    0.240064
  69 C :   -0.103292
  70 F :   -0.168989
  71 F :   -0.168111
  72 C :   -0.069964
  73 C :    0.027889
  74 C :    0.304207
  75 C :   -0.328960
  76 C :   -0.152340
  77 N :    0.164927
  78 C :   -0.180861
  79 N :    0.174112
  80 H :    0.004492
  81 H :   -0.006669
  82 H :   -0.007990
  83 H :   -0.002452
  84 H :    0.045809
  85 H :    0.186821
  86 H :    0.013077
  87 H :   -0.001021
  88 H :   -0.029289
  89 H :    0.015024
  90 H :    0.025732
  91 H :    0.014082
  92 H :    0.024324
  93 H :    0.019770
  94 H :    0.030131
  95 H :   -0.006571
  96 H :    0.009590
  97 H :    0.001775
  98 H :    0.007822
Sum of atomic charges:    0.0000000

LOEWDIN ATOMIC CHARGES
----------------------
   0 C :   -0.037046
   1 C :    0.063866
   2 F :   -0.049072
   3 C :    0.056059
   4 F :   -0.053239
   5 C :   -0.029938
   6 C :   -0.018968
   7 C :   -0.011345
   8 C :    0.017260
   9 C :   -0.023375
  10 C :   -0.064134
  11 C :    0.030512
  12 C :    0.082544
  13 O :   -0.177381
  14 C :   -0.148549
  15 C :    0.076880
  16 C :   -0.149526
  17 C :   -0.021107
  18 N :   -0.052586
  19 C :   -0.019686
  20 N :   -0.054261
  21 C :    0.112239
  22 N :    0.085824
  23 C :   -0.119553
  24 S :    0.472973
  25 C :   -0.197406
  26 N :    0.272936
  27 O :   -0.210919
  28 O :   -0.219667
  29 C :    0.002588
  30 C :   -0.078824
  31 C :   -0.030051
  32 C :   -0.028220
  33 C :   -0.189360
  34 S :    0.456627
  35 C :   -0.189460
  36 C :   -0.043282
  37 C :   -0.047836
  38 C :   -0.210805
  39 C :   -0.059431
  40 N :   -0.093039
  41 C :   -0.121748
  42 S :    0.405862
  43 C :   -0.158889
  44 C :   -0.089319
  45 C :   -0.054981
  46 N :   -0.019841
  47 C :   -0.064672
  48 C :   -0.326252
  49 S :    0.522307
  50 S :    0.449153
  51 C :   -0.318684
  52 C :   -0.057951
  53 C :   -0.071827
  54 C :   -0.032139
  55 N :   -0.020907
  56 C :   -0.144168
  57 S :    0.484174
  58 C :    0.031644
  59 C :   -0.066041
  60 C :    0.088045
  61 O :   -0.131021
  62 C :   -0.056532
  63 C :    0.034575
  64 C :   -0.008508
  65 C :   -0.003354
  66 C :   -0.027591
  67 C :    0.068745
  68 C :    0.068505
  69 C :   -0.032328
  70 F :   -0.047141
  71 F :   -0.046139
  72 C :    0.023852
  73 C :   -0.017077
  74 C :    0.071894
  75 C :   -0.121069
  76 C :    0.015332
  77 N :   -0.044228
  78 C :   -0.015169
  79 N :   -0.037169
  80 H :    0.046717
  81 H :    0.036443
  82 H :    0.040187
  83 H :    0.042755
  84 H :    0.036761
  85 H :    0.088934
  86 H :    0.045276
  87 H :    0.027277
  88 H :    0.027501
  89 H :    0.032670
  90 H :    0.037530
  91 H :    0.023993
  92 H :    0.027219
  93 H :    0.026383
  94 H :    0.049272
  95 H :    0.041679
  96 H :    0.048903
  97 H :    0.045473
  98 H :    0.043443

  Mayer bond orders larger than 0.100000
B(  0-C ,  1-C ) :   1.4315 B(  0-C ,  5-C ) :   0.1105 B(  0-C ,  7-C ) :   1.1933
B(  0-C , 80-H ) :   1.0078 B(  1-C ,  2-F ) :   1.1377 B(  1-C ,  3-C ) :   1.1998
B(  3-C ,  4-F ) :   1.1213 B(  3-C ,  5-C ) :   1.4365 B(  5-C ,  6-C ) :   1.1929
B(  5-C , 81-H ) :   0.9829 B(  6-C ,  7-C ) :   1.2533 B(  6-C , 11-C ) :   1.1837
B(  7-C ,  8-C ) :   1.2024 B(  8-C ,  9-C ) :   1.4610 B(  8-C , 82-H ) :   0.9891
B(  9-C , 10-C ) :   1.2157 B(  9-C , 15-C ) :   0.9826 B( 10-C , 11-C ) :   1.4462
B( 10-C , 12-C ) :   0.9798 B( 11-C , 83-H ) :   1.0236 B( 12-C , 13-O ) :   2.0186
B( 12-C , 14-C ) :   1.0052 B( 13-O , 85-H ) :   0.1446 B( 14-C , 15-C ) :   1.1027
B( 14-C , 21-C ) :   1.4291 B( 15-C , 16-C ) :   1.6234 B( 16-C , 17-C ) :   1.1456
B( 16-C , 19-C ) :   1.1490 B( 17-C , 18-N ) :   2.9550 B( 19-C , 20-N ) :   2.9630
B( 21-C , 22-N ) :   1.3598 B( 21-C , 84-H ) :   0.9298 B( 22-N , 23-C ) :   1.1795
B( 22-N , 85-H ) :   0.8211 B( 23-C , 24-S ) :   1.1323 B( 23-C , 30-C ) :   1.3747
B( 24-S , 25-C ) :   1.0874 B( 25-C , 26-N ) :   0.9585 B( 25-C , 29-C ) :   1.5075
B( 26-N , 27-O ) :   1.5381 B( 26-N , 28-O ) :   1.5196 B( 27-O , 28-O ) :   0.2640
B( 29-C , 30-C ) :   1.2105 B( 29-C , 86-H ) :   1.0011 B( 30-C , 31-C ) :   1.0765
B( 31-C , 32-C ) :   1.7017 B( 31-C , 87-H ) :   0.9457 B( 32-C , 33-C ) :   1.1335
B( 32-C , 88-H ) :   0.9610 B( 33-C , 34-S ) :   1.1194 B( 33-C , 35-C ) :   0.1022
B( 33-C , 39-C ) :   1.4201 B( 34-S , 35-C ) :   1.1471 B( 35-C , 36-C ) :   1.0595
B( 35-C , 38-C ) :   1.5851 B( 36-C , 37-C ) :   1.0995 B( 36-C , 89-H ) :   0.9213
B( 36-C , 90-H ) :   0.9332 B( 37-C , 91-H ) :   0.9687 B( 37-C , 92-H ) :   0.9693
B( 37-C , 93-H ) :   0.9730 B( 38-C , 39-C ) :   1.2017 B( 38-C , 42-S ) :   1.0107
B( 39-C , 40-N ) :   1.3058 B( 40-N , 41-C ) :   1.7545 B( 40-N , 42-S ) :   0.1136
B( 41-C , 42-S ) :   1.0741 B( 41-C , 43-C ) :   1.1198 B( 43-C , 44-C ) :   1.4987
B( 43-C , 49-S ) :   1.1688 B( 44-C , 45-C ) :   1.1386 B( 44-C , 47-C ) :   1.2790
B( 45-C , 46-N ) :   2.9734 B( 47-C , 48-C ) :   1.4035 B( 47-C , 52-C ) :   1.0793
B( 48-C , 49-S ) :   1.1209 B( 48-C , 50-S ) :   1.0870 B( 50-S , 51-C ) :   1.0917
B( 51-C , 52-C ) :   1.3961 B( 51-C , 57-S ) :   1.1057 B( 52-C , 53-C ) :   1.2827
B( 53-C , 54-C ) :   1.1740 B( 53-C , 56-C ) :   1.4468 B( 54-C , 55-N ) :   2.9456
B( 56-C , 57-S ) :   1.1338 B( 56-C , 58-C ) :   1.1317 B( 58-C , 59-C ) :   1.7042
B( 58-C , 94-H ) :   0.9117 B( 59-C , 60-C ) :   0.9282 B( 59-C , 74-C ) :   1.0257
B( 60-C , 61-O ) :   2.2662 B( 60-C , 62-C ) :   0.9242 B( 62-C , 63-C ) :   1.4673
B( 62-C , 73-C ) :   1.2197 B( 63-C , 64-C ) :   1.1990 B( 63-C , 95-H ) :   1.0163
B( 64-C , 65-C ) :   1.2543 B( 64-C , 69-C ) :   1.1915 B( 65-C , 66-C ) :   1.1912
B( 65-C , 72-C ) :   1.2192 B( 66-C , 67-C ) :   1.4415 B( 66-C , 69-C ) :   0.1079
B( 66-C , 96-H ) :   1.0068 B( 67-C , 68-C ) :   1.1889 B( 67-C , 71-F ) :   1.1378
B( 68-C , 69-C ) :   1.4450 B( 68-C , 70-F ) :   1.1365 B( 69-C , 97-H ) :   1.0067
B( 72-C , 73-C ) :   1.4599 B( 72-C , 98-H ) :   0.9924 B( 73-C , 74-C ) :   0.9978
B( 74-C , 75-C ) :   1.6390 B( 75-C , 76-C ) :   1.1769 B( 75-C , 78-C ) :   1.1390
B( 76-C , 77-N ) :   2.9139 B( 77-N , 81-H ) :   0.1173 B( 78-C , 79-N ) :   2.9980

-----------------------------------------------------------------------------
         ABSORPTION SPECTRUM VIA TRANSITION ELECTRIC DIPOLE MOMENTS
-----------------------------------------------------------------------------
State   Energy  Wavelength   fosc         T2         TX        TY        TZ
        (cm-1)    (nm)                  (au**2)     (au)      (au)      (au)
-----------------------------------------------------------------------------
   0   17933.2    557.6   0.307436801   5.64383  -0.18248   0.43695   2.32801
   1   20669.8    483.8   0.209528183   3.33720  -0.48314   1.73488   0.30652
   2   21084.6    474.3   0.292895805   4.57323  -0.49668   2.02901  -0.45788
   3   23221.4    430.6   0.058978093   0.83614  -0.27033  -0.68781   0.53850
   4   23579.8    424.1   0.550841887   7.69062   0.53056   2.66742  -0.54224
   5   25433.9    393.2   0.046347939   0.59992   0.55743  -0.53467   0.05768
   6   26269.1    380.7   0.084465322   1.05855   0.27539   0.20783  -0.96928
   7   26465.8    377.8   0.476619290   5.92874   0.70493  -2.21287  -0.73144
   8   27448.9    364.3   0.203682040   2.44289   0.27909  -1.53782  -0.01071
   9   27748.3    360.4   0.012297472   0.14590   0.28362   0.03191   0.25386
  10   27785.0    359.9   0.050057145   0.59310  -0.26691   0.68342  -0.23410
  11   28882.8    346.2   0.125941796   1.43551  -0.35576   0.75718   0.85768
  12   28930.1    345.7   0.178728477   2.03386   0.74949   0.45677  -1.12404
  13   29068.7    344.0   0.003979097   0.04506  -0.09601   0.02716  -0.18737
  14   29195.2    342.5   0.146855549   1.65598  -0.66124   0.50207   0.98319
  15   30307.1    330.0   0.100255182   1.08903   0.22569  -0.96616   0.32345
  16   30470.8    328.2   0.097330319   1.05157   0.54366  -0.82852  -0.26372
  17   30691.9    325.8   0.085347742   0.91547   0.48575  -0.67677  -0.47063
  18   30865.3    324.0   0.368907370   3.93480   0.66321  -1.85507  -0.23164
  19   31064.0    321.9   0.057370520   0.60800   0.23170  -0.72787  -0.15663
  20   31133.8    321.2   0.697812441   7.37873  -0.33958   2.58922  -0.74790
  21   31950.9    313.0   0.025521350   0.26296   0.39387  -0.26626   0.19220
  22   32166.8    310.9   0.013582203   0.13901  -0.10118   0.35457  -0.05520
  23   32556.4    307.2   0.028470280   0.28789  -0.24154   0.05742   0.47566
  24   32653.8    306.2   0.048825255   0.49225   0.06472   0.56213  -0.41481
  25   32878.7    304.1   0.253500829   2.53828   0.65400  -1.43822  -0.20514
  26   32969.2    303.3   0.290843830   2.90421   0.25984  -1.56376   0.62558
  27   33144.1    301.7   1.013477675  10.06662  -0.13323  -1.41930   2.83451
  28   33447.1    299.0   0.042499192   0.41831   0.34997   0.27653   0.46836
  29   33551.1    298.1   0.084482104   0.82896   0.44934  -0.68862   0.39097
  30   34672.9    288.4   0.632687670   6.00723  -0.37004  -2.13082   1.15323
  31   35300.6    283.3   0.014110982   0.13160   0.27862  -0.06059  -0.22427
  32   35443.1    282.1   0.034067845   0.31644   0.02994   0.52944  -0.18772
  33   35528.0    281.5   0.000753811   0.00699   0.04967   0.04220  -0.05231
  34   35658.4    280.4   0.066565145   0.61455   0.07872  -0.58948   0.51076
  35   36033.3    277.5   0.004978733   0.04549   0.12685   0.00218  -0.17144
  36   36188.6    276.3   0.035680535   0.32459  -0.05477   0.55325  -0.12451
  37   36564.8    273.5   0.014375961   0.12943   0.14221   0.17257  -0.28183
  38   36665.5    272.7   0.007244220   0.06504  -0.11015   0.03254   0.22771
  39   36845.4    271.4   0.048375505   0.43223  -0.29964   0.20337   0.54872
  40   37334.8    267.8   0.074719864   0.65887   0.63778   0.11550  -0.48864
  41   37422.8    267.2   0.014060147   0.12369  -0.04832   0.19928  -0.28573
  42   37612.3    265.9   0.043252677   0.37858  -0.06874   0.36193  -0.49281
  43   37818.6    264.4   0.012696589   0.11052   0.02422   0.21662  -0.25103
  44   37863.1    264.1   0.101123250   0.87924  -0.57852   0.51479   0.52872
  45   38070.3    262.7   0.002696741   0.02332  -0.01055   0.14375  -0.05044
  46   38188.1    261.9   0.038304235   0.33021  -0.18439  -0.30896   0.44806
  47   38559.0    259.3   0.088016888   0.75148   0.24103  -0.14161  -0.82057
  48   38805.4    257.7   0.040039788   0.33968   0.21716  -0.05623  -0.53793
  49   39225.8    254.9   0.023620317   0.19824   0.16795  -0.37122  -0.17951
  50   39665.9    252.1   0.244745044   2.03129  -1.10835   0.00154   0.89602
  51   39708.4    251.8   0.008095213   0.06712  -0.18411  -0.10036   0.15214
  52   40017.2    249.9   0.003160243   0.02600  -0.00851   0.03295   0.15761
  53   40125.5    249.2   0.051551215   0.42295   0.41953   0.26437  -0.42079
  54   40262.0    248.4   0.011677081   0.09548   0.24996   0.03274   0.17868

FINAL SINGLE POINT ENERGY     -5760.615882474200

DIPOLE MOMENT
-------------
                                X             Y             Z
Electronic contribution:    -14.02648      40.62588      22.41894
Nuclear contribution   :     13.11675     -38.94263     -24.50370
                        -----------------------------------------
Total Dipole Moment    :     -0.90973       1.68325      -2.08476
                        -----------------------------------------
Magnitude (a.u.)       :      2.82969
Magnitude (Debye)      :      7.19251

Rotational constants in cm-1:     0.001154     0.000376     0.000295
Rotational constants in MHz :    34.583037    11.260254     8.843217

                             ****ORCA TERMINATED NORMALLY****
TOTAL RUN TIME: 0 days 0 hours 11 minutes 6 seconds 584 msec
