                         Program Version 4.2.0 -  RELEASE  -
|  1> # ORCA input file
|  2> # SCF done       -193.760140815797          0.000602691212
|  3> ! CAM-B3LYP def2-SVP def2/J RIJCOSX Grid4 TightSCF
|  4> %maxcore 5000
|  5> %tddft
|  6>     Mode sTDDFT
|  7>     Ethresh 5.0
|  8>     maxcore 5000
|  9> end
| 10>
| 11> %pal
| 12>   nprocs 6
| 13>   end
| 14> * xyz 0 1
| 15>    C        6.42174        -4.77191        -3.44808
| 16>    C        5.80404        -3.94741        -4.37826
| 17>    F        6.50933        -2.95161        -4.92800
| 18>    C        4.47245        -4.12791        -4.74825
| 19>    F        3.91412        -3.30934        -5.64997
| 20>    C        3.71695        -5.14425        -4.18573
| 21>    C        4.33091        -5.95912        -3.25614
| 22>    C        5.67224        -5.79050        -2.88231
| 23>    C        6.00855        -6.82015        -1.89801
| 24>    C        7.27127        -7.03267        -1.40243
| 25>    C        8.38837        -6.23333        -1.72406
| 26>    N        9.33774        -5.62122        -1.93003
| 27>    C        7.67323        -8.07600        -0.54176
| 28>    N        8.10736        -8.89830         0.13388
| 29>    C        4.80649        -7.58342        -1.62047
| 30>    C        3.74293        -7.08892        -2.50464
| 31>    O        2.58961        -7.46754        -2.62387
| 32>    C        4.74944        -8.51427        -0.59892
| 33>    C        3.76469        -9.41039        -0.15623
| 34>    C        2.55072        -9.69824        -0.76479
| 35>    C        1.61595       -10.60138        -0.29884
| 36>    C        1.88703       -11.42887         0.88781
| 37>    C        3.00107       -11.33198         1.64832
| 38>    S        4.26800       -10.22666         1.34035
| 39>    C        0.77383       -12.29846         1.01344
| 40>    C       -0.14385       -12.03784        -0.00805
| 41>    C       -1.27945       -12.87743         0.07419
| 42>    C       -1.19403       -13.73174         1.12489
| 43>    S        0.25659       -13.55656         2.06040
| 44>    C        0.34481       -10.96875        -0.83045
| 45>    C       -0.40167       -10.46388        -1.91491
| 46>    C       -0.16077        -9.33736        -2.64784
| 47>    C       -0.92516        -8.88954        -3.74361
| 48>    N       -2.04797        -9.51886        -4.24782
| 49>    C       -2.49739        -8.80574        -5.31423
| 50>    C       -3.47184        -8.75697        -6.29471
| 51>    C       -3.18214        -7.61166        -7.06549
| 52>    N       -2.06317        -6.98678        -6.56187
| 53>    C       -1.62522        -7.68782        -5.49234
| 54>    C       -0.64991        -7.74286        -4.50848
| 55>    C       -3.83262        -7.07948        -8.19684
| 56>    C       -4.97770        -7.55440        -8.76097
| 57>    C       -5.61484        -6.99808        -9.90078
| 58>    C       -5.06199        -6.03591       -10.72844
| 59>    C       -5.70028        -5.45541       -11.81145
| 60>    C       -7.07607        -5.79601       -12.16433
| 61>    C       -7.80545        -6.74279       -11.53024
| 62>    S       -7.21930        -7.64437       -10.19623
| 63>    C       -7.40950        -4.94262       -13.25250
| 64>    C       -6.33179        -4.11290       -13.56649
| 65>    C       -6.63291        -3.26416       -14.65496
| 66>    C       -7.89574        -3.46379       -15.11724
| 67>    S       -8.77266        -4.68391       -14.26423
| 68>    C       -5.23210        -4.43091       -12.68390
| 69>    C       -3.94493        -3.89601       -12.63559
| 70>    C       -3.48250        -2.79771       -13.33000
| 71>    C       -2.17510        -2.31858       -13.33391
| 72>    C       -1.05196        -2.66154       -12.59213
| 73>    C        0.27048        -2.38866       -13.19655
| 74>    O        0.50500        -1.73989       -14.19220
| 75>    C        1.25139        -3.11246       -12.34805
| 76>    C        0.57433        -3.68475       -11.25933
| 77>    C        1.26919        -4.43956       -10.33134
| 78>    C        2.63440        -4.60885       -10.51949
| 79>    C        3.29979        -4.03115       -11.59724
| 80>    C        2.60914        -3.26839       -12.52869
| 81>    F        4.61870        -4.21855       -11.74139
| 82>    F        3.31762        -5.35562        -9.64017
| 83>    C       -0.84192        -3.30727       -11.33865
| 84>    C       -1.71894        -3.38750       -10.27041
| 85>    C       -2.97045        -2.74485       -10.24031
| 86>    N       -3.99243        -2.22726       -10.15620
| 87>    C       -1.46499        -4.08848        -9.09023
| 88>    N       -1.36774        -4.71332        -8.12624
| 89>    H        7.45317        -4.58753        -3.19787
| 90>    H        2.68642        -5.28528        -4.46897
| 91>    H        5.64486        -8.55511         0.01160
| 92>    H        2.36087        -9.16801        -1.68285
| 93>    H        3.16110       -11.95279         2.51613
| 94>    H       -2.11507       -12.85746        -0.60192
| 95>    H       -1.90490       -14.47609         1.42631
| 96>    H       -1.28262       -11.05112        -2.14893
| 97>    H        0.66334        -8.68929        -2.40472
| 98>    H       -2.45190       -10.36129        -3.87940
| 99>    H       -4.28353        -9.43569        -6.46082
|100>    H       -1.67415        -6.13395        -6.95530
|101>    H        0.17124        -7.07902        -4.33150
|102>    H       -3.36121        -6.19981        -8.61194
|103>    H       -5.47975        -8.39342        -8.30006
|104>    H       -4.05671        -5.71763       -10.49694
|105>    H       -8.81389        -6.99258       -11.81893
|106>    H       -5.96840        -2.54221       -15.09164
|107>    H       -8.38275        -2.95836       -15.92816
|108>    H       -3.23788        -4.43835       -12.02325
|109>    H       -4.17526        -2.28373       -13.97817
|110>    H       -1.94024        -1.61362       -14.12694
|111>    H        0.80186        -4.90799        -9.48101
|112>    H        3.12346        -2.81766       -13.36222
|113> *
|114>
|115>                          ****END OF INPUT****

CARTESIAN COORDINATES (ANGSTROEM)
---------------------------------
  C      6.421740   -4.771910   -3.448080
  C      5.804040   -3.947410   -4.378260
  F      6.509330   -2.951610   -4.928000
  C      4.472450   -4.127910   -4.748250
  F      3.914120   -3.309340   -5.649970
  C      3.716950   -5.144250   -4.185730
  C      4.330910   -5.959120   -3.256140
  C      5.672240   -5.790500   -2.882310
  C      6.008550   -6.820150   -1.898010
  C      7.271270   -7.032670   -1.402430
  C      8.388370   -6.233330   -1.724060
  N      9.337740   -5.621220   -1.930030
  C      7.673230   -8.076000   -0.541760
  N      8.107360   -8.898300    0.133880
  C      4.806490   -7.583420   -1.620470
  C      3.742930   -7.088920   -2.504640
  O      2.589610   -7.467540   -2.623870
  C      4.749440   -8.514270   -0.598920
  C      3.764690   -9.410390   -0.156230
  C      2.550720   -9.698240   -0.764790
  C      1.615950  -10.601380   -0.298840
  C      1.887030  -11.428870    0.887810
  C      3.001070  -11.331980    1.648320
  S      4.268000  -10.226660    1.340350
  C      0.773830  -12.298460    1.013440
  C     -0.143850  -12.037840   -0.008050
  C     -1.279450  -12.877430    0.074190
  C     -1.194030  -13.731740    1.124890
  S      0.256590  -13.556560    2.060400
  C      0.344810  -10.968750   -0.830450
  C     -0.401670  -10.463880   -1.914910
  C     -0.160770   -9.337360   -2.647840
  C     -0.925160   -8.889540   -3.743610
  N     -2.047970   -9.518860   -4.247820
  C     -2.497390   -8.805740   -5.314230
  C     -3.471840   -8.756970   -6.294710
  C     -3.182140   -7.611660   -7.065490
  N     -2.063170   -6.986780   -6.561870
  C     -1.625220   -7.687820   -5.492340
  C     -0.649910   -7.742860   -4.508480
  C     -3.832620   -7.079480   -8.196840
  C     -4.977700   -7.554400   -8.760970
  C     -5.614840   -6.998080   -9.900780
  C     -5.061990   -6.035910  -10.728440
  C     -5.700280   -5.455410  -11.811450
  C     -7.076070   -5.796010  -12.164330
  C     -7.805450   -6.742790  -11.530240
  S     -7.219300   -7.644370  -10.196230
  C     -7.409500   -4.942620  -13.252500
  C     -6.331790   -4.112900  -13.566490
  C     -6.632910   -3.264160  -14.654960
  C     -7.895740   -3.463790  -15.117240
  S     -8.772660   -4.683910  -14.264230
  C     -5.232100   -4.430910  -12.683900
  C     -3.944930   -3.896010  -12.635590
  C     -3.482500   -2.797710  -13.330000
  C     -2.175100   -2.318580  -13.333910
  C     -1.051960   -2.661540  -12.592130
  C      0.270480   -2.388660  -13.196550
  O      0.505000   -1.739890  -14.192200
  C      1.251390   -3.112460  -12.348050
  C      0.574330   -3.684750  -11.259330
  C      1.269190   -4.439560  -10.331340
  C      2.634400   -4.608850  -10.519490
  C      3.299790   -4.031150  -11.597240
  C      2.609140   -3.268390  -12.528690
  F      4.618700   -4.218550  -11.741390
  F      3.317620   -5.355620   -9.640170
  C     -0.841920   -3.307270  -11.338650
  C     -1.718940   -3.387500  -10.270410
  C     -2.970450   -2.744850  -10.240310
  N     -3.992430   -2.227260  -10.156200
  C     -1.464990   -4.088480   -9.090230
  N     -1.367740   -4.713320   -8.126240
  H      7.453170   -4.587530   -3.197870
  H      2.686420   -5.285280   -4.468970
  H      5.644860   -8.555110    0.011600
  H      2.360870   -9.168010   -1.682850
  H      3.161100  -11.952790    2.516130
  H     -2.115070  -12.857460   -0.601920
  H     -1.904900  -14.476090    1.426310
  H     -1.282620  -11.051120   -2.148930
  H      0.663340   -8.689290   -2.404720
  H     -2.451900  -10.361290   -3.879400
  H     -4.283530   -9.435690   -6.460820
  H     -1.674150   -6.133950   -6.955300
  H      0.171240   -7.079020   -4.331500
  H     -3.361210   -6.199810   -8.611940
  H     -5.479750   -8.393420   -8.300060
  H     -4.056710   -5.717630  -10.496940
  H     -8.813890   -6.992580  -11.818930
  H     -5.968400   -2.542210  -15.091640
  H     -8.382750   -2.958360  -15.928160
  H     -3.237880   -4.438350  -12.023250
  H     -4.175260   -2.283730  -13.978170
  H     -1.940240   -1.613620  -14.126940
  H      0.801860   -4.907990   -9.481010
  H      3.123460   -2.817660  -13.362220

 Total Charge           Charge          ....    0
 Multiplicity           Mult            ....    1
 Number of Electrons    NEL             ....  530
 Basis Dimension        Dim             .... 1172

ORBITAL ENERGIES
----------------

  NO   OCC          E(Eh)            E(eV)
   0   2.0000     -88.991989     -2421.5951
   1   2.0000     -88.971162     -2421.0284
   2   2.0000     -88.967259     -2420.9222
   3   2.0000     -88.964404     -2420.8445
   4   2.0000     -24.797242      -674.7672
   5   2.0000     -24.795326      -674.7151
   6   2.0000     -24.793634      -674.6691
   7   2.0000     -24.792526      -674.6389
   8   2.0000     -19.223291      -523.0923
   9   2.0000     -19.204045      -522.5686
  10   2.0000     -14.461228      -393.5100
  11   2.0000     -14.447713      -393.1423
  12   2.0000     -14.428298      -392.6139
  13   2.0000     -14.412387      -392.1810
  14   2.0000     -14.409857      -392.1121
  15   2.0000     -14.406256      -392.0142
  16   2.0000     -10.381772      -282.5024
  17   2.0000     -10.381199      -282.4868
  18   2.0000     -10.377339      -282.3818
  19   2.0000     -10.376252      -282.3522
  20   2.0000     -10.373400      -282.2746
  21   2.0000     -10.354797      -281.7683
  22   2.0000     -10.343420      -281.4588
  23   2.0000     -10.339535      -281.3530
  24   2.0000     -10.339097      -281.3411
  25   2.0000     -10.338461      -281.3238
  26   2.0000     -10.337933      -281.3095
  27   2.0000     -10.335379      -281.2400
  28   2.0000     -10.331315      -281.1294
  29   2.0000     -10.328407      -281.0502
  30   2.0000     -10.321191      -280.8539
  31   2.0000     -10.319601      -280.8106
  32   2.0000     -10.315443      -280.6975
  33   2.0000     -10.313228      -280.6372
  34   2.0000     -10.312492      -280.6172
  35   2.0000     -10.311995      -280.6036
  36   2.0000     -10.311471      -280.5894
  37   2.0000     -10.310854      -280.5726
  38   2.0000     -10.310819      -280.5717
  39   2.0000     -10.309144      -280.5261
  40   2.0000     -10.307319      -280.4764
  41   2.0000     -10.306643      -280.4580
  42   2.0000     -10.305478      -280.4263
  43   2.0000     -10.303645      -280.3764
  44   2.0000     -10.303489      -280.3722
  45   2.0000     -10.303142      -280.3628
  46   2.0000     -10.302554      -280.3467
  47   2.0000     -10.302541      -280.3464
  48   2.0000     -10.302236      -280.3381
  49   2.0000     -10.301810      -280.3265
  50   2.0000     -10.301593      -280.3206
  51   2.0000     -10.300722      -280.2969
  52   2.0000     -10.300547      -280.2921
  53   2.0000     -10.300505      -280.2910
  54   2.0000     -10.299601      -280.2664
  55   2.0000     -10.298287      -280.2306
  56   2.0000     -10.298158      -280.2271
  57   2.0000     -10.297032      -280.1965
  58   2.0000     -10.295668      -280.1594
  59   2.0000     -10.295662      -280.1592
  60   2.0000     -10.291715      -280.0518
  61   2.0000     -10.291225      -280.0385
  62   2.0000     -10.289478      -279.9909
  63   2.0000     -10.286963      -279.9225
  64   2.0000     -10.285816      -279.8913
  65   2.0000     -10.284749      -279.8622
  66   2.0000     -10.283464      -279.8273
  67   2.0000     -10.283254      -279.8216
  68   2.0000     -10.282883      -279.8115
  69   2.0000     -10.281263      -279.7674
  70   2.0000     -10.275334      -279.6060
  71   2.0000     -10.273055      -279.5441
  72   2.0000     -10.272300      -279.5235
  73   2.0000     -10.268981      -279.4332
  74   2.0000      -8.087372      -220.0686
  75   2.0000      -8.066744      -219.5073
  76   2.0000      -8.062808      -219.4002
  77   2.0000      -8.059926      -219.3217
  78   2.0000      -6.056720      -164.8117
  79   2.0000      -6.052185      -164.6883
  80   2.0000      -6.049683      -164.6203
  81   2.0000      -6.036246      -164.2546
  82   2.0000      -6.032259      -164.1461
  83   2.0000      -6.031868      -164.1355
  84   2.0000      -6.029334      -164.0665
  85   2.0000      -6.028481      -164.0433
  86   2.0000      -6.027991      -164.0300
  87   2.0000      -6.025088      -163.9510
  88   2.0000      -6.024770      -163.9423
  89   2.0000      -6.021990      -163.8667
  90   2.0000      -1.319587       -35.9078
  91   2.0000      -1.315984       -35.8098
  92   2.0000      -1.304441       -35.4956
  93   2.0000      -1.300957       -35.4008
  94   2.0000      -1.136223       -30.9182
  95   2.0000      -1.118772       -30.4433
  96   2.0000      -1.092442       -29.7268
  97   2.0000      -1.054977       -28.7074
  98   2.0000      -1.022823       -27.8324
  99   2.0000      -1.017950       -27.6998
 100   2.0000      -1.017666       -27.6921
 101   2.0000      -1.014137       -27.5961
 102   2.0000      -1.000509       -27.2252
 103   2.0000      -0.999218       -27.1901
 104   2.0000      -0.990525       -26.9536
 105   2.0000      -0.989605       -26.9285
 106   2.0000      -0.985102       -26.8060
 107   2.0000      -0.977567       -26.6010
 108   2.0000      -0.953614       -25.9491
 109   2.0000      -0.948493       -25.8098
 110   2.0000      -0.941538       -25.6205
 111   2.0000      -0.935903       -25.4672
 112   2.0000      -0.922289       -25.0968
 113   2.0000      -0.910257       -24.7694
 114   2.0000      -0.904540       -24.6138
 115   2.0000      -0.898387       -24.4463
 116   2.0000      -0.893674       -24.3181
 117   2.0000      -0.892108       -24.2755
 118   2.0000      -0.884698       -24.0738
 119   2.0000      -0.870693       -23.6928
 120   2.0000      -0.866549       -23.5800
 121   2.0000      -0.864883       -23.5347
 122   2.0000      -0.864325       -23.5195
 123   2.0000      -0.859149       -23.3786
 124   2.0000      -0.858554       -23.3624
 125   2.0000      -0.848949       -23.1011
 126   2.0000      -0.836145       -22.7527
 127   2.0000      -0.823832       -22.4176
 128   2.0000      -0.820671       -22.3316
 129   2.0000      -0.807584       -21.9755
 130   2.0000      -0.801278       -21.8039
 131   2.0000      -0.786068       -21.3900
 132   2.0000      -0.776111       -21.1191
 133   2.0000      -0.770671       -20.9710
 134   2.0000      -0.764900       -20.8140
 135   2.0000      -0.758794       -20.6478
 136   2.0000      -0.749425       -20.3929
 137   2.0000      -0.738193       -20.0873
 138   2.0000      -0.737274       -20.0623
 139   2.0000      -0.723177       -19.6787
 140   2.0000      -0.711750       -19.3677
 141   2.0000      -0.704503       -19.1705
 142   2.0000      -0.702082       -19.1046
 143   2.0000      -0.699942       -19.0464
 144   2.0000      -0.693038       -18.8585
 145   2.0000      -0.689289       -18.7565
 146   2.0000      -0.683928       -18.6106
 147   2.0000      -0.678993       -18.4763
 148   2.0000      -0.672130       -18.2896
 149   2.0000      -0.669029       -18.2052
 150   2.0000      -0.666822       -18.1452
 151   2.0000      -0.662552       -18.0290
 152   2.0000      -0.657361       -17.8877
 153   2.0000      -0.651422       -17.7261
 154   2.0000      -0.646784       -17.5999
 155   2.0000      -0.641552       -17.4575
 156   2.0000      -0.639117       -17.3913
 157   2.0000      -0.634921       -17.2771
 158   2.0000      -0.632352       -17.2072
 159   2.0000      -0.629765       -17.1368
 160   2.0000      -0.623949       -16.9785
 161   2.0000      -0.613850       -16.7037
 162   2.0000      -0.607800       -16.5391
 163   2.0000      -0.606238       -16.4966
 164   2.0000      -0.599147       -16.3036
 165   2.0000      -0.596810       -16.2400
 166   2.0000      -0.590954       -16.0807
 167   2.0000      -0.590188       -16.0598
 168   2.0000      -0.584918       -15.9164
 169   2.0000      -0.583904       -15.8888
 170   2.0000      -0.581217       -15.8157
 171   2.0000      -0.579703       -15.7745
 172   2.0000      -0.575785       -15.6679
 173   2.0000      -0.573789       -15.6136
 174   2.0000      -0.568695       -15.4750
 175   2.0000      -0.564167       -15.3518
 176   2.0000      -0.559582       -15.2270
 177   2.0000      -0.552518       -15.0348
 178   2.0000      -0.548308       -14.9202
 179   2.0000      -0.546241       -14.8640
 180   2.0000      -0.545383       -14.8406
 181   2.0000      -0.544831       -14.8256
 182   2.0000      -0.542982       -14.7753
 183   2.0000      -0.541704       -14.7405
 184   2.0000      -0.538289       -14.6476
 185   2.0000      -0.535560       -14.5733
 186   2.0000      -0.533454       -14.5160
 187   2.0000      -0.529590       -14.4109
 188   2.0000      -0.528515       -14.3816
 189   2.0000      -0.526402       -14.3241
 190   2.0000      -0.524303       -14.2670
 191   2.0000      -0.523688       -14.2503
 192   2.0000      -0.523274       -14.2390
 193   2.0000      -0.522460       -14.2169
 194   2.0000      -0.517516       -14.0823
 195   2.0000      -0.515435       -14.0257
 196   2.0000      -0.514789       -14.0081
 197   2.0000      -0.511095       -13.9076
 198   2.0000      -0.509811       -13.8727
 199   2.0000      -0.502937       -13.6856
 200   2.0000      -0.496424       -13.5084
 201   2.0000      -0.494168       -13.4470
 202   2.0000      -0.492760       -13.4087
 203   2.0000      -0.489814       -13.3285
 204   2.0000      -0.488773       -13.3002
 205   2.0000      -0.486476       -13.2377
 206   2.0000      -0.483727       -13.1629
 207   2.0000      -0.482889       -13.1401
 208   2.0000      -0.482088       -13.1183
 209   2.0000      -0.477963       -13.0060
 210   2.0000      -0.473353       -12.8806
 211   2.0000      -0.472873       -12.8675
 212   2.0000      -0.471353       -12.8262
 213   2.0000      -0.469154       -12.7663
 214   2.0000      -0.461832       -12.5671
 215   2.0000      -0.457832       -12.4582
 216   2.0000      -0.455573       -12.3968
 217   2.0000      -0.454648       -12.3716
 218   2.0000      -0.453341       -12.3360
 219   2.0000      -0.452021       -12.3001
 220   2.0000      -0.451274       -12.2798
 221   2.0000      -0.447262       -12.1706
 222   2.0000      -0.444573       -12.0974
 223   2.0000      -0.444103       -12.0847
 224   2.0000      -0.443644       -12.0722
 225   2.0000      -0.442184       -12.0325
 226   2.0000      -0.440488       -11.9863
 227   2.0000      -0.439321       -11.9545
 228   2.0000      -0.437200       -11.8968
 229   2.0000      -0.435866       -11.8605
 230   2.0000      -0.432953       -11.7812
 231   2.0000      -0.431061       -11.7298
 232   2.0000      -0.428744       -11.6667
 233   2.0000      -0.426867       -11.6156
 234   2.0000      -0.426061       -11.5937
 235   2.0000      -0.424840       -11.5605
 236   2.0000      -0.422340       -11.4925
 237   2.0000      -0.421336       -11.4651
 238   2.0000      -0.420433       -11.4406
 239   2.0000      -0.417791       -11.3687
 240   2.0000      -0.410345       -11.1661
 241   2.0000      -0.409593       -11.1456
 242   2.0000      -0.402221       -10.9450
 243   2.0000      -0.402145       -10.9429
 244   2.0000      -0.393073       -10.6961
 245   2.0000      -0.380414       -10.3516
 246   2.0000      -0.375249       -10.2110
 247   2.0000      -0.370699       -10.0872
 248   2.0000      -0.350616        -9.5408
 249   2.0000      -0.348993        -9.4966
 250   2.0000      -0.346072        -9.4171
 251   2.0000      -0.344899        -9.3852
 252   2.0000      -0.340918        -9.2769
 253   2.0000      -0.329821        -8.9749
 254   2.0000      -0.328621        -8.9422
 255   2.0000      -0.326865        -8.8944
 256   2.0000      -0.313284        -8.5249
 257   2.0000      -0.309598        -8.4246
 258   2.0000      -0.304794        -8.2939
 259   2.0000      -0.295365        -8.0373
 260   2.0000      -0.290342        -7.9006
 261   2.0000      -0.284231        -7.7343
 262   2.0000      -0.263006        -7.1567
 263   2.0000      -0.240752        -6.5512
 264   2.0000      -0.213217        -5.8019
 265   0.0000      -0.105723        -2.8769
 266   0.0000      -0.090860        -2.4724
 267   0.0000      -0.066755        -1.8165
 268   0.0000      -0.061487        -1.6731
 269   0.0000      -0.048351        -1.3157

MULLIKEN ATOMIC CHARGES
-----------------------
   0 C :   -0.084670
   1 C :    0.232398
   2 F :   -0.166123
   3 C :    0.233352
   4 F :   -0.170245
   5 C :   -0.109530
   6 C :    0.010177
   7 C :    0.038363
   8 C :    0.300560
   9 C :   -0.354754
  10 C :   -0.189677
  11 N :    0.150417
  12 C :   -0.201849
  13 N :    0.155753
  14 C :   -0.089303
  15 C :    0.162341
  16 O :   -0.178423
  17 C :    0.041899
  18 C :   -0.124422
  19 C :   -0.006828
  20 C :    0.027905
  21 C :    0.053071
  22 C :   -0.119845
  23 S :    0.139725
  24 C :   -0.089218
  25 C :    0.035561
  26 C :    0.017492
  27 C :   -0.069589
  28 S :    0.138119
  29 C :    0.113603
  30 C :   -0.047029
  31 C :    0.045942
  32 C :    0.065073
  33 N :   -0.037970
  34 C :    0.120565
  35 C :   -0.176014
  36 C :    0.092666
  37 N :   -0.014932
  38 C :    0.146706
  39 C :   -0.158431
  40 C :    0.046191
  41 C :    0.010371
  42 C :   -0.055506
  43 C :   -0.034708
  44 C :    0.091664
  45 C :    0.061381
  46 C :   -0.129838
  47 S :    0.164008
  48 C :   -0.121250
  49 C :    0.068795
  50 C :   -0.007246
  51 C :   -0.062733
  52 S :    0.135016
  53 C :    0.070765
  54 C :    0.037279
  55 C :   -0.009725
  56 C :    0.053461
  57 C :   -0.164108
  58 C :    0.133064
  59 O :   -0.150606
  60 C :    0.015457
  61 C :    0.030118
  62 C :   -0.101941
  63 C :    0.232772
  64 C :    0.229510
  65 C :   -0.107584
  66 F :   -0.173519
  67 F :   -0.173527
  68 C :    0.297815
  69 C :   -0.407864
  70 C :   -0.240634
  71 N :    0.178956
  72 C :   -0.085514
  73 N :    0.072558
  74 H :    0.015465
  75 H :    0.001908
  76 H :    0.014184
  77 H :   -0.002299
  78 H :    0.038174
  79 H :   -0.016919
  80 H :    0.030701
  81 H :   -0.063331
  82 H :   -0.004482
  83 H :    0.123867
  84 H :   -0.035244
  85 H :    0.114811
  86 H :   -0.030557
  87 H :   -0.021595
  88 H :   -0.017131
  89 H :   -0.026183
  90 H :    0.039389
  91 H :   -0.006927
  92 H :    0.029536
  93 H :   -0.014693
  94 H :   -0.032921
  95 H :    0.020268
  96 H :   -0.000124
  97 H :    0.008390
Sum of atomic charges:   -0.0000000

LOEWDIN ATOMIC CHARGES
----------------------
   0 C :   -0.018354
   1 C :    0.073096
   2 F :   -0.044887
   3 C :    0.069682
   4 F :   -0.047661
   5 C :   -0.009280
   6 C :   -0.043945
   7 C :   -0.013826
   8 C :    0.075745
   9 C :   -0.145228
  10 C :   -0.019680
  11 N :   -0.054466
  12 C :   -0.027360
  13 N :   -0.051764
  14 C :   -0.116050
  15 C :    0.091341
  16 O :   -0.163266
  17 C :    0.039721
  18 C :   -0.191296
  19 C :    0.038112
  20 C :   -0.042767
  21 C :   -0.060960
  22 C :   -0.134622
  23 S :    0.453427
  24 C :   -0.178587
  25 C :   -0.048763
  26 C :   -0.060730
  27 C :   -0.160909
  28 S :    0.429174
  29 C :   -0.000415
  30 C :   -0.053208
  31 C :   -0.001830
  32 C :    0.007861
  33 N :    0.061267
  34 C :   -0.006700
  35 C :   -0.086827
  36 C :   -0.002827
  37 N :    0.084055
  38 C :   -0.009263
  39 C :   -0.069369
  40 C :    0.013407
  41 C :   -0.080551
  42 C :   -0.127949
  43 C :   -0.032668
  44 C :    0.034697
  45 C :   -0.045203
  46 C :   -0.147573
  47 S :    0.484265
  48 C :   -0.205563
  49 C :   -0.028447
  50 C :   -0.062026
  51 C :   -0.160932
  52 S :    0.429328
  53 C :   -0.067188
  54 C :    0.065630
  55 C :   -0.075538
  56 C :    0.069594
  57 C :   -0.135181
  58 C :    0.081690
  59 O :   -0.149837
  60 C :   -0.043252
  61 C :   -0.013805
  62 C :   -0.031451
  63 C :    0.069221
  64 C :    0.065558
  65 C :   -0.007167
  66 F :   -0.050018
  67 F :   -0.051538
  68 C :    0.072188
  69 C :   -0.195171
  70 C :   -0.027311
  71 N :   -0.053190
  72 C :    0.030630
  73 N :   -0.099008
  74 H :    0.051312
  75 H :    0.048563
  76 H :    0.040005
  77 H :    0.037340
  78 H :    0.037653
  79 H :    0.029390
  80 H :    0.025250
  81 H :    0.017226
  82 H :    0.040001
  83 H :    0.086353
  84 H :    0.023020
  85 H :    0.060877
  86 H :    0.029344
  87 H :    0.033557
  88 H :    0.024422
  89 H :    0.036087
  90 H :    0.037914
  91 H :    0.031459
  92 H :    0.025451
  93 H :    0.031685
  94 H :    0.028833
  95 H :    0.045016
  96 H :    0.044137
  97 H :    0.050827

  Mayer bond orders larger than 0.100000
B(  0-C ,  1-C ) :   1.3290 B(  0-C ,  5-C ) :   0.1046 B(  0-C ,  7-C ) :   1.3215
B(  0-C , 74-H ) :   0.9910 B(  1-C ,  2-F ) :   1.1449 B(  1-C ,  3-C ) :   1.2956
B(  3-C ,  4-F ) :   1.1322 B(  3-C ,  5-C ) :   1.3159 B(  5-C ,  6-C ) :   1.3204
B(  5-C , 75-H ) :   1.0237 B(  6-C ,  7-C ) :   1.3434 B(  6-C , 15-C ) :   0.9669
B(  7-C ,  8-C ) :   0.9915 B(  8-C ,  9-C ) :   1.6066 B(  8-C , 14-C ) :   1.1153
B(  9-C , 10-C ) :   1.1465 B(  9-C , 12-C ) :   1.1400 B( 10-C , 11-N ) :   2.9735
B( 12-C , 13-N ) :   2.9816 B( 14-C , 15-C ) :   0.9849 B( 14-C , 17-C ) :   1.4882
B( 15-C , 16-O ) :   2.0840 B( 17-C , 18-C ) :   1.3013 B( 17-C , 76-H ) :   0.9095
B( 18-C , 19-C ) :   1.4029 B( 18-C , 23-S ) :   1.0272 B( 19-C , 20-C ) :   1.3437
B( 19-C , 77-H ) :   0.9450 B( 20-C , 21-C ) :   1.0313 B( 20-C , 29-C ) :   1.2719
B( 21-C , 22-C ) :   1.5927 B( 21-C , 24-C ) :   1.2024 B( 22-C , 23-S ) :   1.1581
B( 22-C , 78-H ) :   0.9435 B( 24-C , 25-C ) :   1.4070 B( 24-C , 28-S ) :   1.0892
B( 25-C , 26-C ) :   1.2035 B( 25-C , 29-C ) :   1.1380 B( 26-C , 27-C ) :   1.6066
B( 26-C , 79-H ) :   0.9959 B( 27-C , 28-S ) :   1.1387 B( 27-C , 80-H ) :   0.9662
B( 29-C , 30-C ) :   1.2343 B( 30-C , 31-C ) :   1.5063 B( 30-C , 81-H ) :   0.9549
B( 31-C , 32-C ) :   1.2084 B( 31-C , 82-H ) :   0.9491 B( 32-C , 33-N ) :   1.1794
B( 32-C , 39-C ) :   1.3356 B( 33-N , 34-C ) :   1.1600 B( 33-N , 83-H ) :   0.9331
B( 34-C , 35-C ) :   1.3191 B( 34-C , 38-C ) :   1.2591 B( 35-C , 36-C ) :   1.3275
B( 35-C , 84-H ) :   1.0302 B( 36-C , 37-N ) :   1.2043 B( 36-C , 40-C ) :   1.1779
B( 37-N , 38-C ) :   1.2072 B( 37-N , 85-H ) :   0.8762 B( 38-C , 39-C ) :   1.2319
B( 39-C , 86-H ) :   1.0495 B( 40-C , 41-C ) :   1.6072 B( 40-C , 87-H ) :   0.9488
B( 41-C , 42-C ) :   1.1483 B( 41-C , 88-H ) :   0.9632 B( 42-C , 43-C ) :   1.4405
B( 42-C , 47-S ) :   1.1027 B( 43-C , 44-C ) :   1.3408 B( 43-C , 89-H ) :   0.9606
B( 44-C , 45-C ) :   1.0798 B( 44-C , 53-C ) :   1.2361 B( 45-C , 46-C ) :   1.5882
B( 45-C , 48-C ) :   1.1666 B( 46-C , 47-S ) :   1.1471 B( 46-C , 90-H ) :   0.9407
B( 48-C , 49-C ) :   1.4648 B( 48-C , 52-S ) :   1.0804 B( 49-C , 50-C ) :   1.2244
B( 49-C , 53-C ) :   1.0544 B( 50-C , 51-C ) :   1.5811 B( 50-C , 91-H ) :   1.0011
B( 51-C , 52-S ) :   1.1609 B( 51-C , 92-H ) :   0.9648 B( 53-C , 54-C ) :   1.3764
B( 54-C , 55-C ) :   1.3677 B( 54-C , 93-H ) :   0.9348 B( 55-C , 56-C ) :   1.3808
B( 55-C , 94-H ) :   0.9721 B( 56-C , 57-C ) :   1.3918 B( 56-C , 95-H ) :   0.9329
B( 57-C , 58-C ) :   0.9821 B( 57-C , 68-C ) :   1.1847 B( 58-C , 59-O ) :   2.2495
B( 58-C , 60-C ) :   0.9183 B( 60-C , 61-C ) :   1.3482 B( 60-C , 65-C ) :   1.3390
B( 61-C , 62-C ) :   1.3277 B( 61-C , 68-C ) :   1.0051 B( 62-C , 63-C ) :   1.3225
B( 62-C , 65-C ) :   0.1040 B( 62-C , 96-H ) :   0.9939 B( 63-C , 64-C ) :   1.3139
B( 63-C , 67-F ) :   1.1355 B( 64-C , 65-C ) :   1.3018 B( 64-C , 66-F ) :   1.1253
B( 65-C , 97-H ) :   1.0206 B( 68-C , 69-C ) :   1.4846 B( 69-C , 70-C ) :   1.1832
B( 69-C , 72-C ) :   1.1784 B( 70-C , 71-N ) :   3.0004 B( 72-C , 73-N ) :   2.8262
B( 73-N , 85-H ) :   0.1475

-----------------------------------------------------------------------------
         ABSORPTION SPECTRUM VIA TRANSITION ELECTRIC DIPOLE MOMENTS
-----------------------------------------------------------------------------
State   Energy  Wavelength   fosc         T2         TX        TY        TZ
        (cm-1)    (nm)                  (au**2)     (au)      (au)      (au)
-----------------------------------------------------------------------------
   0    9114.3   1097.2   0.657943409  23.76513   2.79457  -1.37736   3.74945
   1   12681.4    788.6   0.570024345  14.79793   3.22517   2.07516  -0.29989
   2   16933.9    590.5   0.348274218   6.77078   2.28747   0.51277   1.12931
   3   17537.2    570.2   0.025441899   0.47760  -0.31419  -0.36308   0.49705
   4   19166.0    521.8   0.848031168  14.56653  -1.15080   1.69686  -3.21914
   5   19786.5    505.4   0.217266722   3.61493   0.12323  -1.18536   1.48144
   6   20769.2    481.5   0.061892843   0.98106   0.92498   0.28250   0.21370
   7   21849.9    457.7   0.003572241   0.05382  -0.17260  -0.08726   0.12813
   8   22646.3    441.6   0.191342227   2.78157  -0.39251  -1.12195   1.16992
   9   23767.5    420.7   0.291689000   4.04029   1.66188   1.11373  -0.19508
  10   24231.2    412.7   0.425954205   5.78713  -1.82410   0.47772  -1.49384
  11   24949.3    400.8   0.137649042   1.81631  -0.95577   0.14263  -0.93940
  12   25429.5    393.2   0.237660940   3.07677  -0.38742   1.00251  -1.38623
  13   25844.3    386.9   0.098787539   1.25838   0.44859  -0.42410   0.93664
  14   26365.7    379.3   0.036044113   0.45006  -0.50500  -0.37401   0.23485
  15   26946.6    371.1   0.021209844   0.25912   0.19694   0.42561  -0.19798
  16   27535.6    363.2   0.060359807   0.72165   0.34268   0.48788  -0.60515
  17   28508.8    350.8   0.199961225   2.30910   1.28282   0.34741  -0.73673
  18   28757.1    347.7   0.016259995   0.18614  -0.17876  -0.30027   0.25304
  19   28892.3    346.1   0.042462906   0.48384  -0.29985   0.31291  -0.54408
  20   29017.4    344.6   0.103518687   1.17445  -0.02508   0.90358  -0.59781
  21   29495.4    339.0   0.032568091   0.36351   0.47650   0.36707   0.04145
  22   29902.3    334.4   0.025237543   0.27785   0.00711   0.38487  -0.36011
  23   30216.0    331.0   0.055180026   0.60120   0.76684   0.10509   0.04591
  24   30351.2    329.5   0.024675167   0.26765  -0.26231   0.25622  -0.36495
  25   30783.5    324.8   0.010922096   0.11681  -0.08305  -0.19699   0.26665
  26   31008.0    322.5   0.051617734   0.54802   0.53381  -0.41705   0.29856
  27   31683.3    315.6   0.189509005   1.96913   1.39169   0.17939   0.01189
  28   31735.8    315.1   0.016441532   0.17056  -0.26022   0.08233   0.30994
  29   32061.7    311.9   0.029245758   0.30030   0.42336   0.34389  -0.05299
  30   32363.3    309.0   0.037165431   0.37806   0.06698   0.32032  -0.52055
  31   33305.8    300.2   0.079468780   0.78551   0.82451   0.32460  -0.01816
  32   33730.8    296.5   0.047777919   0.46631   0.60809   0.30707   0.04739
  33   33834.0    295.6   0.004129050   0.04018   0.07675   0.16537  -0.08329
  34   33996.4    294.1   0.012005484   0.11626   0.19790  -0.15742   0.22872
  35   34340.3    291.2   0.038781098   0.37178   0.01423  -0.44436   0.41728
  36   34505.0    289.8   0.019985490   0.19068   0.37659  -0.20342  -0.08648
  37   34933.5    286.3   0.158288796   1.49171   0.91881   0.22072  -0.77381
  38   35277.8    283.5   0.330657320   3.08569  -0.85246   0.91371  -1.23456
  39   35463.0    282.0   0.086970373   0.80737   0.09468  -0.80214   0.39366
  40   35594.3    280.9   0.170809991   1.57982  -1.13158  -0.50955   0.19925
  41   35811.5    279.2   0.272289282   2.50313   1.26417  -0.58287   0.75184
  42   35913.2    278.4   0.059764610   0.54785   0.57414   0.24274  -0.39912
  43   36027.4    277.6   0.062149551   0.56791   0.68361   0.28981  -0.12887
  44   36213.9    276.1   0.072339320   0.65762  -0.72163   0.04347   0.36739
  45   36335.7    275.2   0.260710293   2.36211   1.00424   0.80110  -0.84372
  46   36510.5    273.9   0.056920093   0.51324   0.49596   0.50962   0.08690
  47   36766.5    272.0   0.158027804   1.41500   1.15958  -0.24722  -0.09619
  48   37014.1    270.2   0.080014874   0.71167   0.47893   0.55858  -0.41265
  49   37093.7    269.6   0.046073164   0.40891  -0.63139  -0.01281   0.10046
  50   37237.0    268.6   0.014641108   0.12944  -0.21503  -0.28831   0.00906
  51   37494.0    266.7   0.064762840   0.56864  -0.26211  -0.59640   0.37980
  52   37876.9    264.0   0.003842728   0.03340   0.17367  -0.02999   0.04836
  53   38020.1    263.0   0.046539761   0.40298   0.01565  -0.47888   0.41642
  54   38310.1    261.0   0.139646530   1.20003   0.74500  -0.42850   0.67926
  55   38709.3    258.3   0.037238969   0.31671  -0.09078   0.51671  -0.20367
  56   39036.5    256.2   0.051816694   0.43699  -0.33115  -0.43444   0.37229
  57   39154.6    255.4   0.034293672   0.28834  -0.08810  -0.51507   0.12362
  58   39337.6    254.2   0.020952330   0.17535   0.36997   0.11898   0.15592
  59   39440.0    253.5   0.025788385   0.21526   0.36728   0.07253   0.27405
  60   39864.9    250.8   0.203527655   1.68077  -0.86676   0.20188  -0.94273
  61   40258.0    248.4   0.068610977   0.56107   0.66856   0.32343   0.09743

FINAL SINGLE POINT ENERGY     -4691.212695008302

DIPOLE MOMENT
-------------
                                X             Y             Z
Electronic contribution:     42.63906      15.39830       3.26518
Nuclear contribution   :    -47.87331     -18.60641      -3.42534
                        -----------------------------------------
Total Dipole Moment    :     -5.23425      -3.20811      -0.16016
                        -----------------------------------------
Magnitude (a.u.)       :      6.14125
Magnitude (Debye)      :     15.60982

Rotational constants in cm-1:     0.001060     0.000362     0.000277
Rotational constants in MHz :    31.764328    10.862286     8.305235

                             ****ORCA TERMINATED NORMALLY****
TOTAL RUN TIME: 0 days 0 hours 16 minutes 2 seconds 187 msec
