                         Program Version 4.2.0 -  RELEASE  -
|  1> # ORCA input file
|  2> # SCF done       -224.332705500966          0.000553591563
|  3> ! CAM-B3LYP def2-SVP def2/J RIJCOSX Grid4 TightSCF
|  4> %maxcore 5000
|  5> %tddft
|  6>     Mode sTDDFT
|  7>     Ethresh 5.0
|  8>     maxcore 5000
|  9> end
| 10>
| 11> %pal
| 12>   nprocs 6
| 13>   end
| 14> * xyz 0 1
| 15>    C       -3.24925        -4.75928        -8.49201
| 16>    C       -2.87387        -4.18094        -9.69512
| 17>    F       -3.62304        -3.19497       -10.20060
| 18>    C       -1.73593        -4.59822       -10.38726
| 19>    F       -1.41350        -4.01128       -11.54579
| 20>    C       -0.93687        -5.61139        -9.88378
| 21>    C       -1.31121        -6.18591        -8.68502
| 22>    C       -2.45532        -5.77625        -7.98335
| 23>    C       -2.56972        -6.57917        -6.76688
| 24>    C       -3.63085        -6.54553        -5.90059
| 25>    C       -4.73369        -5.67475        -6.03807
| 26>    N       -5.65565        -4.99356        -6.09153
| 27>    C       -3.81032        -7.38124        -4.77645
| 28>    N       -4.05508        -8.02468        -3.85736
| 29>    C       -1.41353        -7.45638        -6.70025
| 30>    C       -0.61679        -7.25942        -7.93647
| 31>    O        0.41346        -7.79505        -8.27495
| 32>    C       -1.07804        -8.19957        -5.59790
| 33>    C       -0.06527        -9.16029        -5.39699
| 34>    C        0.29033        -9.60010        -4.13094
| 35>    C        1.33187       -10.56368        -4.24600
| 36>    C        1.55278       -10.71164        -5.68309
| 37>    C        0.74336        -9.89284        -6.37417
| 38>    F        2.44574       -11.56394        -6.19938
| 39>    C        2.02305       -11.19800        -3.23307
| 40>    C        3.08289       -12.12811        -3.34618
| 41>    C        3.53249       -12.46081        -2.07447
| 42>    C        2.71906       -11.72534        -1.09855
| 43>    C        1.83305       -10.99466        -1.78746
| 44>    F        0.90725       -10.17986        -1.27732
| 45>    C        4.58826       -13.30631        -1.70352
| 46>    C        5.32736       -14.05882        -2.58292
| 47>    C        6.43316       -14.83073        -2.20746
| 48>    S        7.11214       -14.59269        -0.62532
| 49>    C        8.51558       -15.55053        -0.95937
| 50>    C        8.38390       -16.17994        -2.22032
| 51>    C        7.21359       -15.76950        -2.93522
| 52>    C        6.94634       -16.35989        -4.19383
| 53>    C        5.70599       -16.07959        -4.99392
| 54>    F        4.57704       -16.21945        -4.27445
| 55>    F        5.67885       -14.83799        -5.51822
| 56>    F        5.57270       -16.90974        -6.03637
| 57>    C        7.82479       -17.29071        -4.70449
| 58>    C        8.93804       -17.72139        -3.99120
| 59>    C        9.21471       -17.21261        -2.73739
| 60>    O       10.20151       -17.66259        -1.94417
| 61>    C       10.99395       -18.75084        -2.36972
| 62>    C        9.53832       -15.47534         0.00334
| 63>    C       10.88379       -15.63385        -0.18712
| 64>    C       11.85007       -15.45409         0.81987
| 65>    C       11.68120       -15.15714         2.16414
| 66>    C       12.95217       -15.04388         2.77833
| 67>    C       13.92558       -15.30679         1.71003
| 68>    C       13.28951       -15.55095         0.55617
| 69>    F       15.24842       -15.30467         1.90244
| 70>    C       13.24461       -14.73071         4.09080
| 71>    C       14.52096       -14.55479         4.68988
| 72>    C       14.35527       -14.21805         6.02121
| 73>    C       12.91961       -14.18745         6.30922
| 74>    C       12.28197       -14.48366         5.16624
| 75>    F       10.95662       -14.56325         4.99546
| 76>    C       15.40180       -13.90911         6.91344
| 77>    C       15.25329       -13.63313         8.24192
| 78>    C       16.31240       -13.34161         9.12884
| 79>    C       17.56649       -12.85602         8.87874
| 80>    C       18.62240       -13.05132         9.90857
| 81>    O       18.46615       -13.42308        11.04748
| 82>    C       19.89669       -12.74370         9.22083
| 83>    C       19.62406       -12.26993         7.92570
| 84>    C       20.66545       -11.94552         7.07146
| 85>    C       21.96186       -12.09892         7.54031
| 86>    C       22.22437       -12.55673         8.83240
| 87>    C       21.18750       -12.88670         9.69053
| 88>    F       23.49093       -12.68308         9.24397
| 89>    F       22.98274       -11.80410         6.72905
| 90>    C       18.17225       -12.19717         7.74329
| 91>    C       17.54385       -11.42624         6.80018
| 92>    C       16.15651       -11.17692         6.77875
| 93>    N       15.04062       -10.91446         6.72828
| 94>    C       18.21911       -10.72360         5.78037
| 95>    N       18.71631       -10.14545         4.92286
| 96>    H       -4.13433        -4.39661        -7.99604
| 97>    H       -0.05446        -5.93626       -10.41174
| 98>    H       -1.66579        -8.01656        -4.70497
| 99>    H       -0.13175        -9.25197        -3.20791
|100>    H        0.68911        -9.78023        -7.43692
|101>    H        3.47445       -12.49217        -4.27502
|102>    H        2.83394       -11.78611        -0.03404
|103>    H        4.82040       -13.36378        -0.64670
|104>    H        5.04629       -14.01766        -3.61933
|105>    H        7.63124       -17.73379        -5.66840
|106>    H        9.55956       -18.48521        -4.42644
|107>    H       11.67486       -18.94968        -1.54392
|108>    H       11.57105       -18.50107        -3.26467
|109>    H       10.38504       -19.63836        -2.56063
|110>    H        9.20911       -15.13109         0.97578
|111>    H       11.25693       -15.86631        -1.17194
|112>    H       10.74870       -15.02126         2.67409
|113>    H       13.72572       -15.77432        -0.39786
|114>    H       15.46024       -14.65247         4.18136
|115>    H       12.47298       -13.95118         7.25384
|116>    H       16.39977       -13.93775         6.49258
|117>    H       14.27286       -13.72751         8.68625
|118>    H       16.14392       -13.59564        10.17197
|119>    H       20.51294       -11.59199         6.06478
|120>    H       21.38831       -13.24256        10.68841
|121> *
|122>
|123>                          ****END OF INPUT****

CARTESIAN COORDINATES (ANGSTROEM)
---------------------------------
  C     -3.249250   -4.759280   -8.492010
  C     -2.873870   -4.180940   -9.695120
  F     -3.623040   -3.194970  -10.200600
  C     -1.735930   -4.598220  -10.387260
  F     -1.413500   -4.011280  -11.545790
  C     -0.936870   -5.611390   -9.883780
  C     -1.311210   -6.185910   -8.685020
  C     -2.455320   -5.776250   -7.983350
  C     -2.569720   -6.579170   -6.766880
  C     -3.630850   -6.545530   -5.900590
  C     -4.733690   -5.674750   -6.038070
  N     -5.655650   -4.993560   -6.091530
  C     -3.810320   -7.381240   -4.776450
  N     -4.055080   -8.024680   -3.857360
  C     -1.413530   -7.456380   -6.700250
  C     -0.616790   -7.259420   -7.936470
  O      0.413460   -7.795050   -8.274950
  C     -1.078040   -8.199570   -5.597900
  C     -0.065270   -9.160290   -5.396990
  C      0.290330   -9.600100   -4.130940
  C      1.331870  -10.563680   -4.246000
  C      1.552780  -10.711640   -5.683090
  C      0.743360   -9.892840   -6.374170
  F      2.445740  -11.563940   -6.199380
  C      2.023050  -11.198000   -3.233070
  C      3.082890  -12.128110   -3.346180
  C      3.532490  -12.460810   -2.074470
  C      2.719060  -11.725340   -1.098550
  C      1.833050  -10.994660   -1.787460
  F      0.907250  -10.179860   -1.277320
  C      4.588260  -13.306310   -1.703520
  C      5.327360  -14.058820   -2.582920
  C      6.433160  -14.830730   -2.207460
  S      7.112140  -14.592690   -0.625320
  C      8.515580  -15.550530   -0.959370
  C      8.383900  -16.179940   -2.220320
  C      7.213590  -15.769500   -2.935220
  C      6.946340  -16.359890   -4.193830
  C      5.705990  -16.079590   -4.993920
  F      4.577040  -16.219450   -4.274450
  F      5.678850  -14.837990   -5.518220
  F      5.572700  -16.909740   -6.036370
  C      7.824790  -17.290710   -4.704490
  C      8.938040  -17.721390   -3.991200
  C      9.214710  -17.212610   -2.737390
  O     10.201510  -17.662590   -1.944170
  C     10.993950  -18.750840   -2.369720
  C      9.538320  -15.475340    0.003340
  C     10.883790  -15.633850   -0.187120
  C     11.850070  -15.454090    0.819870
  C     11.681200  -15.157140    2.164140
  C     12.952170  -15.043880    2.778330
  C     13.925580  -15.306790    1.710030
  C     13.289510  -15.550950    0.556170
  F     15.248420  -15.304670    1.902440
  C     13.244610  -14.730710    4.090800
  C     14.520960  -14.554790    4.689880
  C     14.355270  -14.218050    6.021210
  C     12.919610  -14.187450    6.309220
  C     12.281970  -14.483660    5.166240
  F     10.956620  -14.563250    4.995460
  C     15.401800  -13.909110    6.913440
  C     15.253290  -13.633130    8.241920
  C     16.312400  -13.341610    9.128840
  C     17.566490  -12.856020    8.878740
  C     18.622400  -13.051320    9.908570
  O     18.466150  -13.423080   11.047480
  C     19.896690  -12.743700    9.220830
  C     19.624060  -12.269930    7.925700
  C     20.665450  -11.945520    7.071460
  C     21.961860  -12.098920    7.540310
  C     22.224370  -12.556730    8.832400
  C     21.187500  -12.886700    9.690530
  F     23.490930  -12.683080    9.243970
  F     22.982740  -11.804100    6.729050
  C     18.172250  -12.197170    7.743290
  C     17.543850  -11.426240    6.800180
  C     16.156510  -11.176920    6.778750
  N     15.040620  -10.914460    6.728280
  C     18.219110  -10.723600    5.780370
  N     18.716310  -10.145450    4.922860
  H     -4.134330   -4.396610   -7.996040
  H     -0.054460   -5.936260  -10.411740
  H     -1.665790   -8.016560   -4.704970
  H     -0.131750   -9.251970   -3.207910
  H      0.689110   -9.780230   -7.436920
  H      3.474450  -12.492170   -4.275020
  H      2.833940  -11.786110   -0.034040
  H      4.820400  -13.363780   -0.646700
  H      5.046290  -14.017660   -3.619330
  H      7.631240  -17.733790   -5.668400
  H      9.559560  -18.485210   -4.426440
  H     11.674860  -18.949680   -1.543920
  H     11.571050  -18.501070   -3.264670
  H     10.385040  -19.638360   -2.560630
  H      9.209110  -15.131090    0.975780
  H     11.256930  -15.866310   -1.171940
  H     10.748700  -15.021260    2.674090
  H     13.725720  -15.774320   -0.397860
  H     15.460240  -14.652470    4.181360
  H     12.472980  -13.951180    7.253840
  H     16.399770  -13.937750    6.492580
  H     14.272860  -13.727510    8.686250
  H     16.143920  -13.595640   10.171970
  H     20.512940  -11.591990    6.064780
  H     21.388310  -13.242560   10.688410

 Total Charge           Charge          ....    0
 Multiplicity           Mult            ....    1
 Number of Electrons    NEL             ....  564
 Basis Dimension        Dim             .... 1263

ORBITAL ENERGIES
----------------

  NO   OCC          E(Eh)            E(eV)
   0   2.0000     -88.991147     -2421.5722
   1   2.0000     -24.810135      -675.1181
   2   2.0000     -24.809769      -675.1081
   3   2.0000     -24.807606      -675.0493
   4   2.0000     -24.805569      -674.9939
   5   2.0000     -24.805320      -674.9871
   6   2.0000     -24.803910      -674.9487
   7   2.0000     -24.798982      -674.8146
   8   2.0000     -24.798747      -674.8082
   9   2.0000     -24.798604      -674.8043
  10   2.0000     -24.797495      -674.7742
  11   2.0000     -24.782171      -674.3572
  12   2.0000     -19.285885      -524.7956
  13   2.0000     -19.223803      -523.1063
  14   2.0000     -19.217255      -522.9281
  15   2.0000     -14.422506      -392.4563
  16   2.0000     -14.421932      -392.4407
  17   2.0000     -14.413806      -392.2196
  18   2.0000     -14.413231      -392.2039
  19   2.0000     -10.528763      -286.5022
  20   2.0000     -10.391574      -282.7691
  21   2.0000     -10.390798      -282.7480
  22   2.0000     -10.383706      -282.5550
  23   2.0000     -10.383219      -282.5418
  24   2.0000     -10.377046      -282.3738
  25   2.0000     -10.375091      -282.3206
  26   2.0000     -10.370307      -282.1904
  27   2.0000     -10.370157      -282.1863
  28   2.0000     -10.365994      -282.0730
  29   2.0000     -10.364635      -282.0361
  30   2.0000     -10.353965      -281.7457
  31   2.0000     -10.351800      -281.6868
  32   2.0000     -10.351131      -281.6686
  33   2.0000     -10.345895      -281.5261
  34   2.0000     -10.343337      -281.4565
  35   2.0000     -10.341951      -281.4188
  36   2.0000     -10.340747      -281.3860
  37   2.0000     -10.334412      -281.2136
  38   2.0000     -10.326906      -281.0094
  39   2.0000     -10.324920      -280.9554
  40   2.0000     -10.322629      -280.8930
  41   2.0000     -10.322588      -280.8919
  42   2.0000     -10.321315      -280.8573
  43   2.0000     -10.320765      -280.8423
  44   2.0000     -10.318767      -280.7879
  45   2.0000     -10.316496      -280.7261
  46   2.0000     -10.316176      -280.7174
  47   2.0000     -10.316037      -280.7136
  48   2.0000     -10.315966      -280.7117
  49   2.0000     -10.314722      -280.6779
  50   2.0000     -10.314052      -280.6596
  51   2.0000     -10.313734      -280.6510
  52   2.0000     -10.313400      -280.6419
  53   2.0000     -10.312956      -280.6298
  54   2.0000     -10.312753      -280.6243
  55   2.0000     -10.312209      -280.6095
  56   2.0000     -10.311761      -280.5973
  57   2.0000     -10.308769      -280.5159
  58   2.0000     -10.307734      -280.4877
  59   2.0000     -10.306237      -280.4470
  60   2.0000     -10.305716      -280.4328
  61   2.0000     -10.305199      -280.4187
  62   2.0000     -10.304460      -280.3986
  63   2.0000     -10.304058      -280.3877
  64   2.0000     -10.303408      -280.3700
  65   2.0000     -10.301174      -280.3092
  66   2.0000     -10.301095      -280.3070
  67   2.0000     -10.299012      -280.2504
  68   2.0000     -10.298761      -280.2435
  69   2.0000     -10.298394      -280.2336
  70   2.0000     -10.296989      -280.1953
  71   2.0000     -10.296163      -280.1728
  72   2.0000     -10.291283      -280.0401
  73   2.0000     -10.287144      -279.9274
  74   2.0000     -10.285728      -279.8889
  75   2.0000     -10.285124      -279.8725
  76   2.0000     -10.283303      -279.8229
  77   2.0000     -10.281388      -279.7708
  78   2.0000     -10.276787      -279.6456
  79   2.0000     -10.266659      -279.3700
  80   2.0000     -10.263564      -279.2858
  81   2.0000      -8.086754      -220.0518
  82   2.0000      -6.055631      -164.7821
  83   2.0000      -6.051617      -164.6729
  84   2.0000      -6.049478      -164.6147
  85   2.0000      -1.399939       -38.0943
  86   2.0000      -1.329453       -36.1763
  87   2.0000      -1.322059       -35.9751
  88   2.0000      -1.316778       -35.8314
  89   2.0000      -1.314192       -35.7610
  90   2.0000      -1.312189       -35.7065
  91   2.0000      -1.311084       -35.6764
  92   2.0000      -1.306804       -35.5599
  93   2.0000      -1.301723       -35.4217
  94   2.0000      -1.300055       -35.3763
  95   2.0000      -1.295004       -35.2389
  96   2.0000      -1.193223       -32.4692
  97   2.0000      -1.139555       -31.0089
  98   2.0000      -1.133950       -30.8564
  99   2.0000      -1.027661       -27.9641
 100   2.0000      -1.026906       -27.9435
 101   2.0000      -1.018879       -27.7251
 102   2.0000      -1.008397       -27.4399
 103   2.0000      -1.002493       -27.2792
 104   2.0000      -1.000434       -27.2232
 105   2.0000      -1.000336       -27.2205
 106   2.0000      -0.994035       -27.0491
 107   2.0000      -0.992028       -26.9944
 108   2.0000      -0.984023       -26.7766
 109   2.0000      -0.974970       -26.5303
 110   2.0000      -0.967864       -26.3369
 111   2.0000      -0.964245       -26.2384
 112   2.0000      -0.953773       -25.9535
 113   2.0000      -0.936415       -25.4812
 114   2.0000      -0.926969       -25.2241
 115   2.0000      -0.908255       -24.7149
 116   2.0000      -0.904439       -24.6110
 117   2.0000      -0.901754       -24.5380
 118   2.0000      -0.898055       -24.4373
 119   2.0000      -0.884821       -24.0772
 120   2.0000      -0.880100       -23.9487
 121   2.0000      -0.876896       -23.8616
 122   2.0000      -0.871667       -23.7193
 123   2.0000      -0.867408       -23.6034
 124   2.0000      -0.858101       -23.3501
 125   2.0000      -0.850642       -23.1471
 126   2.0000      -0.838387       -22.8137
 127   2.0000      -0.832509       -22.6537
 128   2.0000      -0.821493       -22.3540
 129   2.0000      -0.816238       -22.2110
 130   2.0000      -0.809655       -22.0318
 131   2.0000      -0.802193       -21.8288
 132   2.0000      -0.794951       -21.6317
 133   2.0000      -0.783860       -21.3299
 134   2.0000      -0.781600       -21.2684
 135   2.0000      -0.775618       -21.1056
 136   2.0000      -0.771657       -20.9978
 137   2.0000      -0.769493       -20.9390
 138   2.0000      -0.759677       -20.6719
 139   2.0000      -0.743906       -20.2427
 140   2.0000      -0.733948       -19.9717
 141   2.0000      -0.732914       -19.9436
 142   2.0000      -0.724807       -19.7230
 143   2.0000      -0.717030       -19.5114
 144   2.0000      -0.716143       -19.4872
 145   2.0000      -0.704141       -19.1607
 146   2.0000      -0.700789       -19.0694
 147   2.0000      -0.697861       -18.9898
 148   2.0000      -0.691138       -18.8068
 149   2.0000      -0.686967       -18.6933
 150   2.0000      -0.686102       -18.6698
 151   2.0000      -0.682528       -18.5725
 152   2.0000      -0.682306       -18.5665
 153   2.0000      -0.677788       -18.4436
 154   2.0000      -0.674021       -18.3410
 155   2.0000      -0.666806       -18.1447
 156   2.0000      -0.662293       -18.0219
 157   2.0000      -0.661942       -18.0123
 158   2.0000      -0.658120       -17.9084
 159   2.0000      -0.652111       -17.7448
 160   2.0000      -0.648566       -17.6484
 161   2.0000      -0.645438       -17.5633
 162   2.0000      -0.644712       -17.5435
 163   2.0000      -0.640740       -17.4354
 164   2.0000      -0.639593       -17.4042
 165   2.0000      -0.635913       -17.3041
 166   2.0000      -0.630701       -17.1622
 167   2.0000      -0.628916       -17.1137
 168   2.0000      -0.623101       -16.9554
 169   2.0000      -0.618666       -16.8348
 170   2.0000      -0.612782       -16.6747
 171   2.0000      -0.609406       -16.5828
 172   2.0000      -0.606965       -16.5164
 173   2.0000      -0.603613       -16.4251
 174   2.0000      -0.595033       -16.1917
 175   2.0000      -0.594245       -16.1702
 176   2.0000      -0.592416       -16.1205
 177   2.0000      -0.587593       -15.9892
 178   2.0000      -0.586920       -15.9709
 179   2.0000      -0.585940       -15.9442
 180   2.0000      -0.578529       -15.7426
 181   2.0000      -0.576781       -15.6950
 182   2.0000      -0.573182       -15.5971
 183   2.0000      -0.570809       -15.5325
 184   2.0000      -0.566858       -15.4250
 185   2.0000      -0.564612       -15.3639
 186   2.0000      -0.564376       -15.3575
 187   2.0000      -0.561917       -15.2905
 188   2.0000      -0.560538       -15.2530
 189   2.0000      -0.557816       -15.1789
 190   2.0000      -0.557408       -15.1679
 191   2.0000      -0.554344       -15.0845
 192   2.0000      -0.554238       -15.0816
 193   2.0000      -0.551356       -15.0032
 194   2.0000      -0.550125       -14.9697
 195   2.0000      -0.549820       -14.9614
 196   2.0000      -0.549460       -14.9516
 197   2.0000      -0.546952       -14.8833
 198   2.0000      -0.542453       -14.7609
 199   2.0000      -0.542313       -14.7571
 200   2.0000      -0.541048       -14.7227
 201   2.0000      -0.539369       -14.6770
 202   2.0000      -0.537515       -14.6265
 203   2.0000      -0.536643       -14.6028
 204   2.0000      -0.534118       -14.5341
 205   2.0000      -0.533553       -14.5187
 206   2.0000      -0.531389       -14.4598
 207   2.0000      -0.530397       -14.4328
 208   2.0000      -0.525585       -14.3019
 209   2.0000      -0.524134       -14.2624
 210   2.0000      -0.517770       -14.0892
 211   2.0000      -0.515985       -14.0407
 212   2.0000      -0.512364       -13.9421
 213   2.0000      -0.510735       -13.8978
 214   2.0000      -0.509120       -13.8539
 215   2.0000      -0.507211       -13.8019
 216   2.0000      -0.506247       -13.7757
 217   2.0000      -0.501301       -13.6411
 218   2.0000      -0.498925       -13.5764
 219   2.0000      -0.496639       -13.5142
 220   2.0000      -0.495052       -13.4711
 221   2.0000      -0.493863       -13.4387
 222   2.0000      -0.492916       -13.4129
 223   2.0000      -0.490320       -13.3423
 224   2.0000      -0.488621       -13.2961
 225   2.0000      -0.487961       -13.2781
 226   2.0000      -0.486514       -13.2387
 227   2.0000      -0.481508       -13.1025
 228   2.0000      -0.480657       -13.0793
 229   2.0000      -0.477891       -13.0041
 230   2.0000      -0.476878       -12.9765
 231   2.0000      -0.474056       -12.8997
 232   2.0000      -0.472157       -12.8480
 233   2.0000      -0.468012       -12.7352
 234   2.0000      -0.467287       -12.7155
 235   2.0000      -0.464551       -12.6411
 236   2.0000      -0.463610       -12.6155
 237   2.0000      -0.459484       -12.5032
 238   2.0000      -0.458926       -12.4880
 239   2.0000      -0.456579       -12.4241
 240   2.0000      -0.455440       -12.3931
 241   2.0000      -0.454654       -12.3718
 242   2.0000      -0.453492       -12.3401
 243   2.0000      -0.453490       -12.3401
 244   2.0000      -0.451073       -12.2743
 245   2.0000      -0.449558       -12.2331
 246   2.0000      -0.446849       -12.1594
 247   2.0000      -0.445390       -12.1197
 248   2.0000      -0.444632       -12.0990
 249   2.0000      -0.441034       -12.0011
 250   2.0000      -0.438127       -11.9220
 251   2.0000      -0.435907       -11.8616
 252   2.0000      -0.433285       -11.7903
 253   2.0000      -0.432108       -11.7583
 254   2.0000      -0.428378       -11.6568
 255   2.0000      -0.427269       -11.6266
 256   2.0000      -0.425289       -11.5727
 257   2.0000      -0.422633       -11.5004
 258   2.0000      -0.418970       -11.4007
 259   2.0000      -0.417173       -11.3518
 260   2.0000      -0.414660       -11.2835
 261   2.0000      -0.408925       -11.1274
 262   2.0000      -0.404341       -11.0027
 263   2.0000      -0.390914       -10.6373
 264   2.0000      -0.379572       -10.3287
 265   2.0000      -0.363633        -9.8950
 266   2.0000      -0.355589        -9.6761
 267   2.0000      -0.352568        -9.5939
 268   2.0000      -0.348676        -9.4880
 269   2.0000      -0.346757        -9.4357
 270   2.0000      -0.342470        -9.3191
 271   2.0000      -0.339352        -9.2342
 272   2.0000      -0.336706        -9.1622
 273   2.0000      -0.322361        -8.7719
 274   2.0000      -0.317347        -8.6355
 275   2.0000      -0.316050        -8.6002
 276   2.0000      -0.308444        -8.3932
 277   2.0000      -0.305561        -8.3147
 278   2.0000      -0.289672        -7.8824
 279   2.0000      -0.278959        -7.5909
 280   2.0000      -0.270798        -7.3688
 281   2.0000      -0.236649        -6.4396
 282   0.0000      -0.138841        -3.7781
 283   0.0000      -0.116217        -3.1624
 284   0.0000      -0.087767        -2.3882
 285   0.0000      -0.074978        -2.0402
 286   0.0000      -0.066629        -1.8131

MULLIKEN ATOMIC CHARGES
-----------------------
   0 C :   -0.087614
   1 C :    0.235725
   2 F :   -0.165853
   3 C :    0.234418
   4 F :   -0.168605
   5 C :   -0.101786
   6 C :   -0.014807
   7 C :    0.046230
   8 C :    0.297944
   9 C :   -0.343501
  10 C :   -0.191594
  11 N :    0.156058
  12 C :   -0.200803
  13 N :    0.161715
  14 C :   -0.078652
  15 C :    0.146528
  16 O :   -0.140633
  17 C :   -0.031462
  18 C :    0.070562
  19 C :   -0.057469
  20 C :    0.003066
  21 C :    0.240764
  22 C :   -0.045020
  23 F :   -0.177014
  24 C :    0.027330
  25 C :   -0.102539
  26 C :    0.120903
  27 C :   -0.081761
  28 C :    0.266371
  29 F :   -0.167261
  30 C :   -0.034078
  31 C :    0.022133
  32 C :   -0.130836
  33 S :    0.166809
  34 C :   -0.127052
  35 C :    0.084774
  36 C :    0.160835
  37 C :   -0.157648
  38 C :    0.520782
  39 F :   -0.164704
  40 F :   -0.164927
  41 F :   -0.150809
  42 C :    0.016405
  43 C :   -0.119267
  44 C :    0.202984
  45 O :   -0.299718
  46 C :    0.169389
  47 C :    0.053818
  48 C :    0.027771
  49 C :    0.091519
  50 C :   -0.086625
  51 C :    0.015879
  52 C :    0.262829
  53 C :   -0.080081
  54 F :   -0.173113
  55 C :    0.006924
  56 C :   -0.067474
  57 C :    0.090684
  58 C :   -0.056587
  59 C :    0.255596
  60 F :   -0.176482
  61 C :    0.031325
  62 C :    0.008200
  63 C :    0.051222
  64 C :   -0.125362
  65 C :    0.132104
  66 O :   -0.136022
  67 C :    0.011362
  68 C :    0.021167
  69 C :   -0.084984
  70 C :    0.234416
  71 C :    0.232365
  72 C :   -0.099442
  73 F :   -0.168480
  74 F :   -0.163635
  75 C :    0.260758
  76 C :   -0.333067
  77 C :   -0.200083
  78 N :    0.177638
  79 C :   -0.181654
  80 N :    0.161148
  81 H :    0.015258
  82 H :    0.010766
  83 H :    0.016960
  84 H :    0.006097
  85 H :    0.000082
  86 H :   -0.004721
  87 H :   -0.012443
  88 H :   -0.009804
  89 H :    0.022338
  90 H :    0.007501
  91 H :   -0.018173
  92 H :    0.049844
  93 H :    0.035696
  94 H :    0.039016
  95 H :   -0.000860
  96 H :   -0.016972
  97 H :   -0.012424
  98 H :   -0.018021
  99 H :   -0.007684
 100 H :   -0.012799
 101 H :    0.005248
 102 H :    0.004344
 103 H :    0.030528
 104 H :    0.016476
 105 H :    0.013800
Sum of atomic charges:   -0.0000000

LOEWDIN ATOMIC CHARGES
----------------------
   0 C :   -0.018755
   1 C :    0.073127
   2 F :   -0.044089
   3 C :    0.069904
   4 F :   -0.045729
   5 C :   -0.006058
   6 C :   -0.044495
   7 C :   -0.015081
   8 C :    0.074557
   9 C :   -0.137348
  10 C :   -0.019509
  11 N :   -0.050114
  12 C :   -0.025204
  13 N :   -0.047092
  14 C :   -0.100386
  15 C :    0.084386
  16 O :   -0.131855
  17 C :    0.076083
  18 C :   -0.029135
  19 C :    0.010182
  20 C :   -0.022883
  21 C :    0.064343
  22 C :   -0.043539
  23 F :   -0.054756
  24 C :    0.025422
  25 C :   -0.070676
  26 C :    0.019813
  27 C :   -0.056323
  28 C :    0.086793
  29 F :   -0.043538
  30 C :   -0.038754
  31 C :    0.001657
  32 C :   -0.173393
  33 S :    0.506191
  34 C :   -0.140193
  35 C :   -0.061512
  36 C :   -0.014466
  37 C :   -0.103057
  38 C :    0.172277
  39 F :   -0.058243
  40 F :   -0.062449
  41 F :   -0.049770
  42 C :    0.022266
  43 C :   -0.089068
  44 C :    0.080820
  45 O :   -0.071513
  46 C :    0.082527
  47 C :   -0.022500
  48 C :   -0.004326
  49 C :    0.003967
  50 C :   -0.061111
  51 C :    0.012221
  52 C :    0.083036
  53 C :   -0.057518
  54 F :   -0.048391
  55 C :   -0.007143
  56 C :   -0.023062
  57 C :   -0.009938
  58 C :   -0.048813
  59 C :    0.080309
  60 F :   -0.052692
  61 C :    0.042393
  62 C :   -0.035018
  63 C :    0.067738
  64 C :   -0.094318
  65 C :    0.082857
  66 O :   -0.136322
  67 C :   -0.047283
  68 C :   -0.012660
  69 C :   -0.020657
  70 C :    0.074537
  71 C :    0.069779
  72 C :   -0.004055
  73 F :   -0.044801
  74 F :   -0.042340
  75 C :    0.062463
  76 C :   -0.136554
  77 C :   -0.017325
  78 N :   -0.035967
  79 C :   -0.022552
  80 N :   -0.046588
  81 H :    0.051086
  82 H :    0.051565
  83 H :    0.049119
  84 H :    0.030143
  85 H :    0.031835
  86 H :    0.023913
  87 H :    0.032102
  88 H :    0.020645
  89 H :    0.032690
  90 H :    0.039344
  91 H :    0.033445
  92 H :    0.034305
  93 H :    0.020549
  94 H :    0.023352
  95 H :    0.033865
  96 H :    0.027713
  97 H :    0.021271
  98 H :    0.030092
  99 H :    0.026449
 100 H :    0.032118
 101 H :    0.036858
 102 H :    0.035976
 103 H :    0.048885
 104 H :    0.051111
 105 H :    0.052841

  Mayer bond orders larger than 0.100000
B(  0-C ,  1-C ) :   1.3379 B(  0-C ,  5-C ) :   0.1055 B(  0-C ,  7-C ) :   1.3111
B(  0-C , 81-H ) :   0.9923 B(  1-C ,  2-F ) :   1.1449 B(  1-C ,  3-C ) :   1.2882
B(  3-C ,  4-F ) :   1.1321 B(  3-C ,  5-C ) :   1.3175 B(  5-C ,  6-C ) :   1.3203
B(  5-C , 82-H ) :   1.0199 B(  6-C ,  7-C ) :   1.3432 B(  6-C , 15-C ) :   0.9534
B(  7-C ,  8-C ) :   1.0019 B(  8-C ,  9-C ) :   1.6354 B(  8-C , 14-C ) :   1.0803
B(  9-C , 10-C ) :   1.1402 B(  9-C , 12-C ) :   1.1395 B( 10-C , 11-N ) :   2.9796
B( 12-C , 13-N ) :   2.9895 B( 14-C , 15-C ) :   0.9397 B( 14-C , 17-C ) :   1.5198
B( 15-C , 16-O ) :   2.2198 B( 17-C , 18-C ) :   1.1954 B( 17-C , 83-H ) :   0.9457
B( 18-C , 19-C ) :   1.4399 B( 18-C , 22-C ) :   1.0446 B( 19-C , 20-C ) :   1.1235
B( 19-C , 84-H ) :   1.0204 B( 20-C , 21-C ) :   1.0447 B( 20-C , 24-C ) :   1.4079
B( 21-C , 22-C ) :   1.6365 B( 21-C , 23-F ) :   1.1193 B( 22-C , 85-H ) :   1.0091
B( 24-C , 25-C ) :   1.1954 B( 24-C , 28-C ) :   0.9938 B( 25-C , 26-C ) :   1.4644
B( 25-C , 86-H ) :   1.0083 B( 26-C , 27-C ) :   0.9935 B( 26-C , 30-C ) :   1.1942
B( 27-C , 28-C ) :   1.6776 B( 27-C , 87-H ) :   1.0215 B( 28-C , 29-F ) :   1.1329
B( 30-C , 31-C ) :   1.5382 B( 30-C , 88-H ) :   0.9695 B( 31-C , 32-C ) :   1.2224
B( 31-C , 89-H ) :   0.9560 B( 32-C , 33-S ) :   1.1280 B( 32-C , 36-C ) :   1.2845
B( 33-S , 34-C ) :   1.1798 B( 34-C , 35-C ) :   1.2690 B( 34-C , 47-C ) :   1.1892
B( 35-C , 36-C ) :   1.2580 B( 35-C , 44-C ) :   1.2063 B( 36-C , 37-C ) :   1.2291
B( 37-C , 38-C ) :   0.9535 B( 37-C , 42-C ) :   1.5223 B( 38-C , 39-F ) :   1.1458
B( 38-C , 40-F ) :   1.1100 B( 38-C , 41-F ) :   1.1645 B( 42-C , 43-C ) :   1.2276
B( 42-C , 90-H ) :   0.9894 B( 43-C , 44-C ) :   1.3980 B( 43-C , 91-H ) :   0.9977
B( 44-C , 45-O ) :   1.2099 B( 45-O , 46-C ) :   0.9384 B( 46-C , 92-H ) :   0.9774
B( 46-C , 93-H ) :   0.9703 B( 46-C , 94-H ) :   0.9707 B( 47-C , 48-C ) :   1.6039
B( 47-C , 95-H ) :   0.9406 B( 48-C , 49-C ) :   1.1843 B( 48-C , 96-H ) :   0.9645
B( 49-C , 50-C ) :   1.4853 B( 49-C , 53-C ) :   1.0028 B( 50-C , 51-C ) :   1.1734
B( 50-C , 97-H ) :   1.0071 B( 51-C , 52-C ) :   1.0069 B( 51-C , 55-C ) :   1.4285
B( 52-C , 53-C ) :   1.6666 B( 52-C , 54-F ) :   1.1266 B( 53-C , 98-H ) :   1.0215
B( 55-C , 56-C ) :   1.1294 B( 55-C , 59-C ) :   1.0342 B( 56-C , 57-C ) :   1.4793
B( 56-C , 99-H ) :   1.0217 B( 57-C , 58-C ) :   1.0300 B( 57-C , 61-C ) :   1.1885
B( 58-C , 59-C ) :   1.6610 B( 58-C ,100-H ) :   1.0119 B( 59-C , 60-F ) :   1.1212
B( 61-C , 62-C ) :   1.5721 B( 61-C ,101-H ) :   0.9673 B( 62-C , 63-C ) :   1.1770
B( 62-C ,102-H ) :   0.9613 B( 63-C , 64-C ) :   1.6316 B( 63-C ,103-H ) :   0.9298
B( 64-C , 65-C ) :   0.9509 B( 64-C , 75-C ) :   1.0514 B( 65-C , 66-O ) :   2.2700
B( 65-C , 67-C ) :   0.9283 B( 67-C , 68-C ) :   1.3438 B( 67-C , 72-C ) :   1.3210
B( 68-C , 69-C ) :   1.3208 B( 68-C , 75-C ) :   1.0088 B( 69-C , 70-C ) :   1.3374
B( 69-C , 72-C ) :   0.1047 B( 69-C ,104-H ) :   0.9937 B( 70-C , 71-C ) :   1.2908
B( 70-C , 74-F ) :   1.1437 B( 71-C , 72-C ) :   1.3216 B( 71-C , 73-F ) :   1.1307
B( 72-C ,105-H ) :   1.0192 B( 75-C , 76-C ) :   1.6482 B( 76-C , 77-C ) :   1.1702
B( 76-C , 79-C ) :   1.1251 B( 77-C , 78-N ) :   2.9959 B( 79-C , 80-N ) :   2.9949

-----------------------------------------------------------------------------
         ABSORPTION SPECTRUM VIA TRANSITION ELECTRIC DIPOLE MOMENTS
-----------------------------------------------------------------------------
State   Energy  Wavelength   fosc         T2         TX        TY        TZ
        (cm-1)    (nm)                  (au**2)     (au)      (au)      (au)
-----------------------------------------------------------------------------
   0    8296.2   1205.4   1.493925140  59.28253  -5.94167   1.98298  -4.47738
   1   12677.5    788.8   0.303034536   7.86926   0.09003  -2.52847  -1.21161
   2   15015.4    666.0   0.020931295   0.45892   0.28748   0.56282   0.24394
   3   15421.5    648.4   0.058618571   1.25137  -0.62770  -0.25371  -0.89050
   4   16953.0    589.9   0.010915660   0.21197  -0.01892   0.43442   0.15130
   5   18904.6    529.0   0.424888337   7.39917  -2.25695   1.17705  -0.95912
   6   20436.2    489.3   0.113228421   1.82403   1.03555   0.77891   0.38075
   7   21894.7    456.7   0.112280942   1.68827   0.74477   1.00431   0.35349
   8   22942.4    435.9   0.309623415   4.44294   0.64414  -1.90188  -0.64098
   9   23510.3    425.3   0.012798163   0.17921   0.21346  -0.00597   0.36553
  10   23839.4    419.5   0.373265078   5.15463  -1.60651   0.27471  -1.58060
  11   24392.5    410.0   0.030602570   0.41303  -0.32053   0.43676   0.34572
  12   25204.6    396.8   0.026375294   0.34450   0.05936  -0.44348   0.37987
  13   25757.7    388.2   0.033809008   0.43212   0.39180   0.27076   0.45309
  14   26224.6    381.3   0.040496679   0.50838   0.28151   0.40266   0.51671
  15   26696.8    374.6   0.308214104   3.80074   1.02819  -0.18351   1.64618
  16   27024.3    370.0   0.113928180   1.38788  -0.05603  -1.03166   0.56606
  17   27367.4    365.4   0.015194979   0.18279   0.13437  -0.34305  -0.21690
  18   27613.9    362.1   0.041371758   0.49323  -0.53536   0.34283  -0.29847
  19   27648.4    361.7   0.018626822   0.22179  -0.33375   0.03033   0.33088
  20   28206.5    354.5   0.043798379   0.51119  -0.55574   0.25451   0.37090
  21   28646.9    349.1   0.073464223   0.84426   0.57470  -0.46463   0.54597
  22   29239.3    342.0   0.094600555   1.06513  -0.56661   0.25484  -0.82410
  23   29497.5    339.0   0.011091551   0.12379   0.25957   0.01386  -0.23711
  24   30041.0    332.9   0.014572702   0.15970   0.07735  -0.38720   0.06160
  25   30685.8    325.9   0.036710154   0.39384  -0.09082  -0.13535  -0.60603
  26   31215.4    320.4   0.143681168   1.51533   0.68114  -0.66008   0.78464
  27   31546.0    317.0   0.069600312   0.72634  -0.30857   0.14200  -0.78164
  28   32076.4    311.8   0.091385527   0.93792   0.17512   0.34619  -0.88736
  29   32108.9    311.4   0.019292578   0.19781  -0.11130  -0.43001  -0.02261
  30   32255.0    310.0   0.016783168   0.17130  -0.18470   0.33273   0.16271
  31   32572.8    307.0   0.048590795   0.49111   0.02406   0.35450  -0.60404
  32   32758.1    305.3   0.049713314   0.49961   0.46101   0.06340   0.53203
  33   32932.7    303.7   0.023340575   0.23332   0.29741  -0.14010   0.35390
  34   33689.2    296.8   0.106709152   1.04277   0.88654  -0.14890   0.48439
  35   33900.3    295.0   0.095263259   0.92512   0.83980  -0.43515   0.17462
  36   34042.0    293.8   0.136257432   1.31771  -0.37408   0.34302  -1.02962
  37   34176.6    292.6   0.017515410   0.16872  -0.15476   0.35815  -0.12846
  38   34442.4    290.3   0.050487189   0.48257   0.27362   0.28797   0.56989
  39   34792.6    287.4   0.002674901   0.02531  -0.02666  -0.10075  -0.12021
  40   34890.2    286.6   0.170678660   1.61047   0.23305  -0.23817   1.22451
  41   35235.5    283.8   0.193232995   1.80541  -0.61480   0.30307   1.15567
  42   35324.2    283.1   0.022977358   0.21414  -0.45493   0.08285  -0.01779
  43   35712.6    280.0   0.026498510   0.24427  -0.00323   0.27964  -0.40751
  44   36029.8    277.5   0.046354747   0.42355  -0.16648   0.07853  -0.62424
  45   36054.6    277.4   0.093093953   0.85003  -0.31561  -0.52683   0.68766
  46   36571.9    273.4   0.008676375   0.07810  -0.04003  -0.04407  -0.27305
  47   36742.9    272.2   0.505569772   4.52985   1.65974   0.23906  -1.31071
  48   36854.8    271.3   0.223594549   1.99730  -0.49276   0.30880  -1.28807
  49   37089.7    269.6   0.072217916   0.64101   0.48657  -0.43139   0.46708
  50   37326.5    267.9   0.056142265   0.49516  -0.22922  -0.21253   0.63044
  51   37516.5    266.5   0.107833628   0.94625   0.73708  -0.38179   0.50715
  52   37627.8    265.8   0.054742570   0.47895  -0.68063   0.11677  -0.04545
  53   37846.1    264.2   0.081307647   0.70727  -0.41655  -0.00398   0.73058
  54   38252.1    261.4   0.046969802   0.40424   0.42830  -0.41064   0.22843
  55   38412.0    260.3   0.015622728   0.13390  -0.15550   0.03661   0.32920
  56   38717.3    258.3   0.020275520   0.17240   0.04165  -0.39437  -0.12306
  57   38959.8    256.7   0.027086787   0.22888   0.07526  -0.38908  -0.26802
  58   39345.8    254.2   0.015250741   0.12761   0.11074   0.10684  -0.32238
  59   39487.5    253.2   0.018752141   0.15634  -0.10083  -0.30508   0.23044
  60   39784.2    251.4   0.013192576   0.10917  -0.07613   0.18638  -0.26198
  61   39926.2    250.5   0.001384924   0.01142   0.10439   0.00816  -0.02132
  62   40205.5    248.7   0.003592166   0.02941   0.01422  -0.08502   0.14827
  63   40316.8    248.0   0.020279071   0.16559  -0.33634  -0.07443  -0.21662

FINAL SINGLE POINT ENERGY     -4313.670871186475

DIPOLE MOMENT
-------------
                                X             Y             Z
Electronic contribution:    -18.18633      31.93757     -23.64305
Nuclear contribution   :     22.11231     -36.86222      24.01534
                        -----------------------------------------
Total Dipole Moment    :      3.92598      -4.92465       0.37228
                        -----------------------------------------
Magnitude (a.u.)       :      6.30905
Magnitude (Debye)      :     16.03634

Rotational constants in cm-1:     0.001073     0.000140     0.000131
Rotational constants in MHz :    32.179088     4.192933     3.934446

                             ****ORCA TERMINATED NORMALLY****
TOTAL RUN TIME: 0 days 0 hours 12 minutes 14 seconds 976 msec
