                         Program Version 4.2.0 -  RELEASE  -
|  1> # ORCA input file
|  2> # SCF done       -199.301913833097          0.000689305488
|  3> ! CAM-B3LYP def2-SVP def2/J RIJCOSX Grid4 TightSCF
|  4> %maxcore 5000
|  5> %tddft
|  6>     Mode sTDDFT
|  7>     Ethresh 5.0
|  8>     maxcore 5000
|  9> end
| 10>
| 11> %pal
| 12>   nprocs 6
| 13>   end
| 14> * xyz 0 1
| 15>    C       -4.10780        -3.73579        11.47107
| 16>    S       -3.73597        -5.10309        10.53900
| 17>    C       -5.03117        -4.80820         9.40851
| 18>    C       -5.74691        -3.65817         9.79396
| 19>    C       -5.20003        -3.04988        10.97276
| 20>    C       -5.80303        -1.89918        11.50973
| 21>    C       -6.90844        -1.34302        10.91645
| 22>    C       -7.53971        -0.17279        11.62055
| 23>    F       -7.05379        -0.00310        12.85968
| 24>    F       -7.33613         1.00773        10.99786
| 25>    F       -8.86802        -0.30029        11.77151
| 26>    C       -7.45401        -1.92546         9.72969
| 27>    O       -8.55470        -1.51391         9.05503
| 28>    C       -8.83141        -0.14275         8.82609
| 29>    C       -6.87688        -3.07191         9.21545
| 30>    C       -5.17834        -5.69051         8.31724
| 31>    C       -4.53260        -6.91211         8.19259
| 32>    C       -4.90479        -7.52006         6.97488
| 33>    C       -5.81734        -6.56823         6.33803
| 34>    C       -5.99019        -5.48824         7.11712
| 35>    F       -6.37799        -6.76559         5.13828
| 36>    C       -4.51417        -8.74754         6.46474
| 37>    C       -4.91067        -9.35944         5.25668
| 38>    C       -4.28026       -10.59431         5.14171
| 39>    C       -3.44044       -10.78126         6.32483
| 40>    C       -3.58678        -9.69179         7.09420
| 41>    F       -2.98666        -9.46578         8.26942
| 42>    C       -4.38254       -11.54899         4.11774
| 43>    C       -5.15957       -11.40475         2.99590
| 44>    C       -5.29553       -12.33902         1.96494
| 45>    S       -6.33359       -11.98018         0.59376
| 46>    C       -6.03293       -13.49713        -0.21749
| 47>    C       -5.14534       -14.26499         0.56458
| 48>    C       -4.74589       -13.61029         1.76756
| 49>    N       -3.90331       -14.43364         2.43664
| 50>    C       -3.75925       -15.58312         1.69994
| 51>    N       -2.92863       -16.60822         2.17870
| 52>    O       -2.37310       -16.39862         3.24791
| 53>    O       -2.81483       -17.61672         1.51170
| 54>    C       -4.50683       -15.51946         0.54069
| 55>    C       -6.63865       -13.78386        -1.44186
| 56>    C       -7.52699       -12.96061        -2.13272
| 57>    C       -7.92524       -13.60276        -3.32054
| 58>    C       -7.21471       -14.88253        -3.32304
| 59>    C       -6.45413       -15.00403        -2.22261
| 60>    F       -7.32503       -15.78910        -4.30178
| 61>    C       -8.80988       -13.15305        -4.29111
| 62>    C       -9.22869       -13.81027        -5.46593
| 63>    C      -10.14234       -13.00701        -6.13672
| 64>    C      -10.31448       -11.77619        -5.36305
| 65>    C       -9.52547       -11.87212        -4.28271
| 66>    F       -9.38306       -10.95456        -3.31801
| 67>    C      -10.84093       -13.26070        -7.33364
| 68>    C      -10.64284       -14.36405        -8.11527
| 69>    C      -11.31459       -14.70930        -9.30480
| 70>    S      -10.58613       -15.93649       -10.30175
| 71>    C      -11.78832       -15.81208       -11.49720
| 72>    C      -12.75831       -14.88462       -11.16709
| 73>    C      -12.50366       -14.25293        -9.90448
| 74>    C      -13.45735       -13.34645        -9.41165
| 75>    C      -14.56353       -13.04821       -10.15953
| 76>    C      -15.59257       -12.08060        -9.64797
| 77>    F      -15.27106       -11.58279        -8.44084
| 78>    F      -15.75005       -11.01763       -10.45296
| 79>    F      -16.80573       -12.63786        -9.50603
| 80>    C      -14.79911       -13.64084       -11.43929
| 81>    O      -15.93022       -13.23835       -12.05362
| 82>    C      -16.25363       -13.79113       -13.30801
| 83>    C      -13.90364       -14.55747       -11.92554
| 84>    H       -3.52519        -3.49300        12.33722
| 85>    H       -5.39501        -1.47406        12.41336
| 86>    H       -9.40577        -0.11962         7.89991
| 87>    H       -7.91627         0.43748         8.69453
| 88>    H       -9.43869         0.29279         9.62120
| 89>    H       -7.35182        -3.50303         8.35234
| 90>    H       -3.87108        -7.34035         8.92022
| 91>    H       -6.57251        -4.62291         6.87832
| 92>    H       -5.59350        -8.92974         4.55174
| 93>    H       -2.82880       -11.64089         6.51885
| 94>    H       -3.79993       -12.45021         4.24810
| 95>    H       -5.72757       -10.49323         2.87867
| 96>    H       -3.43350       -14.29482         3.31802
| 97>    H       -4.56088       -16.29393        -0.19529
| 98>    H       -7.85583       -11.99447        -1.80265
| 99>    H       -5.82697       -15.83037        -1.96050
|100>    H       -8.89677       -14.78235        -5.77069
|101>    H      -10.95830       -10.96260        -5.63476
|102>    H      -11.54635       -12.50293        -7.63983
|103>    H       -9.85084       -15.04409        -7.82991
|104>    H      -11.73503       -16.41671       -12.38033
|105>    H      -13.34279       -12.90259        -8.43755
|106>    H      -17.19251       -13.32386       -13.59771
|107>    H      -16.39047       -14.87462       -13.24121
|108>    H      -15.48611       -13.56224       -14.05331
|109>    H      -14.05111       -15.05055       -12.87184
|110> *
|111>
|112>                          ****END OF INPUT****

CARTESIAN COORDINATES (ANGSTROEM)
---------------------------------
  C     -4.107800   -3.735790   11.471070
  S     -3.735970   -5.103090   10.539000
  C     -5.031170   -4.808200    9.408510
  C     -5.746910   -3.658170    9.793960
  C     -5.200030   -3.049880   10.972760
  C     -5.803030   -1.899180   11.509730
  C     -6.908440   -1.343020   10.916450
  C     -7.539710   -0.172790   11.620550
  F     -7.053790   -0.003100   12.859680
  F     -7.336130    1.007730   10.997860
  F     -8.868020   -0.300290   11.771510
  C     -7.454010   -1.925460    9.729690
  O     -8.554700   -1.513910    9.055030
  C     -8.831410   -0.142750    8.826090
  C     -6.876880   -3.071910    9.215450
  C     -5.178340   -5.690510    8.317240
  C     -4.532600   -6.912110    8.192590
  C     -4.904790   -7.520060    6.974880
  C     -5.817340   -6.568230    6.338030
  C     -5.990190   -5.488240    7.117120
  F     -6.377990   -6.765590    5.138280
  C     -4.514170   -8.747540    6.464740
  C     -4.910670   -9.359440    5.256680
  C     -4.280260  -10.594310    5.141710
  C     -3.440440  -10.781260    6.324830
  C     -3.586780   -9.691790    7.094200
  F     -2.986660   -9.465780    8.269420
  C     -4.382540  -11.548990    4.117740
  C     -5.159570  -11.404750    2.995900
  C     -5.295530  -12.339020    1.964940
  S     -6.333590  -11.980180    0.593760
  C     -6.032930  -13.497130   -0.217490
  C     -5.145340  -14.264990    0.564580
  C     -4.745890  -13.610290    1.767560
  N     -3.903310  -14.433640    2.436640
  C     -3.759250  -15.583120    1.699940
  N     -2.928630  -16.608220    2.178700
  O     -2.373100  -16.398620    3.247910
  O     -2.814830  -17.616720    1.511700
  C     -4.506830  -15.519460    0.540690
  C     -6.638650  -13.783860   -1.441860
  C     -7.526990  -12.960610   -2.132720
  C     -7.925240  -13.602760   -3.320540
  C     -7.214710  -14.882530   -3.323040
  C     -6.454130  -15.004030   -2.222610
  F     -7.325030  -15.789100   -4.301780
  C     -8.809880  -13.153050   -4.291110
  C     -9.228690  -13.810270   -5.465930
  C    -10.142340  -13.007010   -6.136720
  C    -10.314480  -11.776190   -5.363050
  C     -9.525470  -11.872120   -4.282710
  F     -9.383060  -10.954560   -3.318010
  C    -10.840930  -13.260700   -7.333640
  C    -10.642840  -14.364050   -8.115270
  C    -11.314590  -14.709300   -9.304800
  S    -10.586130  -15.936490  -10.301750
  C    -11.788320  -15.812080  -11.497200
  C    -12.758310  -14.884620  -11.167090
  C    -12.503660  -14.252930   -9.904480
  C    -13.457350  -13.346450   -9.411650
  C    -14.563530  -13.048210  -10.159530
  C    -15.592570  -12.080600   -9.647970
  F    -15.271060  -11.582790   -8.440840
  F    -15.750050  -11.017630  -10.452960
  F    -16.805730  -12.637860   -9.506030
  C    -14.799110  -13.640840  -11.439290
  O    -15.930220  -13.238350  -12.053620
  C    -16.253630  -13.791130  -13.308010
  C    -13.903640  -14.557470  -11.925540
  H     -3.525190   -3.493000   12.337220
  H     -5.395010   -1.474060   12.413360
  H     -9.405770   -0.119620    7.899910
  H     -7.916270    0.437480    8.694530
  H     -9.438690    0.292790    9.621200
  H     -7.351820   -3.503030    8.352340
  H     -3.871080   -7.340350    8.920220
  H     -6.572510   -4.622910    6.878320
  H     -5.593500   -8.929740    4.551740
  H     -2.828800  -11.640890    6.518850
  H     -3.799930  -12.450210    4.248100
  H     -5.727570  -10.493230    2.878670
  H     -3.433500  -14.294820    3.318020
  H     -4.560880  -16.293930   -0.195290
  H     -7.855830  -11.994470   -1.802650
  H     -5.826970  -15.830370   -1.960500
  H     -8.896770  -14.782350   -5.770690
  H    -10.958300  -10.962600   -5.634760
  H    -11.546350  -12.502930   -7.639830
  H     -9.850840  -15.044090   -7.829910
  H    -11.735030  -16.416710  -12.380330
  H    -13.342790  -12.902590   -8.437550
  H    -17.192510  -13.323860  -13.597710
  H    -16.390470  -14.874620  -13.241210
  H    -15.486110  -13.562240  -14.053310
  H    -14.051110  -15.050550  -12.871840

 Total Charge           Charge          ....    0
 Multiplicity           Mult            ....    1
 Number of Electrons    NEL             ....  510
 Basis Dimension        Dim             .... 1108

ORBITAL ENERGIES
----------------

  NO   OCC          E(Eh)            E(eV)
   0   2.0000     -88.976656     -2421.1779
   1   2.0000     -88.974762     -2421.1264
   2   2.0000     -88.971821     -2421.0463
   3   2.0000     -24.800580      -674.8581
   4   2.0000     -24.800276      -674.8498
   5   2.0000     -24.797403      -674.7716
   6   2.0000     -24.790936      -674.5957
   7   2.0000     -24.788537      -674.5304
   8   2.0000     -24.785698      -674.4531
   9   2.0000     -24.785594      -674.4503
  10   2.0000     -24.782636      -674.3698
  11   2.0000     -24.782490      -674.3658
  12   2.0000     -24.782396      -674.3633
  13   2.0000     -19.257875      -524.0334
  14   2.0000     -19.248845      -523.7877
  15   2.0000     -19.248686      -523.7834
  16   2.0000     -19.244272      -523.6633
  17   2.0000     -14.658861      -398.8879
  18   2.0000     -14.486575      -394.1997
  19   2.0000     -10.520320      -286.2725
  20   2.0000     -10.507612      -285.9267
  21   2.0000     -10.365242      -282.0526
  22   2.0000     -10.354377      -281.7569
  23   2.0000     -10.350795      -281.6594
  24   2.0000     -10.350658      -281.6557
  25   2.0000     -10.350354      -281.6475
  26   2.0000     -10.349501      -281.6243
  27   2.0000     -10.346978      -281.5556
  28   2.0000     -10.334082      -281.2047
  29   2.0000     -10.331091      -281.1233
  30   2.0000     -10.324686      -280.9490
  31   2.0000     -10.319535      -280.8088
  32   2.0000     -10.317374      -280.7500
  33   2.0000     -10.315431      -280.6972
  34   2.0000     -10.310806      -280.5713
  35   2.0000     -10.307302      -280.4759
  36   2.0000     -10.304572      -280.4017
  37   2.0000     -10.304119      -280.3893
  38   2.0000     -10.303860      -280.3823
  39   2.0000     -10.300446      -280.2894
  40   2.0000     -10.299709      -280.2693
  41   2.0000     -10.299168      -280.2546
  42   2.0000     -10.299148      -280.2541
  43   2.0000     -10.298581      -280.2386
  44   2.0000     -10.297805      -280.2175
  45   2.0000     -10.297328      -280.2045
  46   2.0000     -10.296962      -280.1946
  47   2.0000     -10.295273      -280.1486
  48   2.0000     -10.294593      -280.1301
  49   2.0000     -10.294345      -280.1234
  50   2.0000     -10.293734      -280.1067
  51   2.0000     -10.293054      -280.0882
  52   2.0000     -10.292975      -280.0861
  53   2.0000     -10.292650      -280.0772
  54   2.0000     -10.290199      -280.0105
  55   2.0000     -10.287167      -279.9280
  56   2.0000     -10.286538      -279.9109
  57   2.0000     -10.283666      -279.8328
  58   2.0000     -10.282759      -279.8081
  59   2.0000     -10.280581      -279.7488
  60   2.0000     -10.273953      -279.5685
  61   2.0000     -10.273112      -279.5456
  62   2.0000     -10.268590      -279.4225
  63   2.0000     -10.267326      -279.3881
  64   2.0000     -10.264445      -279.3098
  65   2.0000     -10.263137      -279.2742
  66   2.0000     -10.255241      -279.0593
  67   2.0000     -10.253397      -279.0091
  68   2.0000     -10.252204      -278.9766
  69   2.0000      -8.072078      -219.6524
  70   2.0000      -8.069826      -219.5911
  71   2.0000      -8.066469      -219.4998
  72   2.0000      -6.040927      -164.3820
  73   2.0000      -6.038699      -164.3214
  74   2.0000      -6.036688      -164.2666
  75   2.0000      -6.035800      -164.2425
  76   2.0000      -6.035282      -164.2284
  77   2.0000      -6.034334      -164.2026
  78   2.0000      -6.033115      -164.1694
  79   2.0000      -6.031680      -164.1304
  80   2.0000      -6.028604      -164.0466
  81   2.0000      -1.390283       -37.8315
  82   2.0000      -1.376103       -37.4457
  83   2.0000      -1.328593       -36.1529
  84   2.0000      -1.300849       -35.3979
  85   2.0000      -1.297775       -35.3142
  86   2.0000      -1.297635       -35.3105
  87   2.0000      -1.294653       -35.2293
  88   2.0000      -1.292429       -35.1688
  89   2.0000      -1.289418       -35.0868
  90   2.0000      -1.279373       -34.8135
  91   2.0000      -1.275004       -34.6946
  92   2.0000      -1.165699       -31.7203
  93   2.0000      -1.148955       -31.2647
  94   2.0000      -1.148716       -31.2582
  95   2.0000      -1.110506       -30.2184
  96   2.0000      -1.005247       -27.3542
  97   2.0000      -1.004878       -27.3441
  98   2.0000      -0.996047       -27.1038
  99   2.0000      -0.981090       -26.6968
 100   2.0000      -0.979114       -26.6430
 101   2.0000      -0.965029       -26.2598
 102   2.0000      -0.962105       -26.1802
 103   2.0000      -0.948195       -25.8017
 104   2.0000      -0.944514       -25.7015
 105   2.0000      -0.923361       -25.1259
 106   2.0000      -0.905595       -24.6425
 107   2.0000      -0.904053       -24.6005
 108   2.0000      -0.883862       -24.0511
 109   2.0000      -0.880416       -23.9573
 110   2.0000      -0.872750       -23.7487
 111   2.0000      -0.865195       -23.5432
 112   2.0000      -0.861481       -23.4421
 113   2.0000      -0.857575       -23.3358
 114   2.0000      -0.846688       -23.0395
 115   2.0000      -0.836820       -22.7710
 116   2.0000      -0.826891       -22.5009
 117   2.0000      -0.821013       -22.3409
 118   2.0000      -0.799350       -21.7514
 119   2.0000      -0.798873       -21.7384
 120   2.0000      -0.796984       -21.6870
 121   2.0000      -0.789699       -21.4888
 122   2.0000      -0.787927       -21.4406
 123   2.0000      -0.780454       -21.2372
 124   2.0000      -0.777803       -21.1651
 125   2.0000      -0.775833       -21.1115
 126   2.0000      -0.762698       -20.7541
 127   2.0000      -0.753984       -20.5170
 128   2.0000      -0.744833       -20.2679
 129   2.0000      -0.725005       -19.7284
 130   2.0000      -0.721060       -19.6210
 131   2.0000      -0.715825       -19.4786
 132   2.0000      -0.709007       -19.2931
 133   2.0000      -0.703973       -19.1561
 134   2.0000      -0.698081       -18.9957
 135   2.0000      -0.691288       -18.8109
 136   2.0000      -0.688549       -18.7364
 137   2.0000      -0.680425       -18.5153
 138   2.0000      -0.674989       -18.3674
 139   2.0000      -0.672869       -18.3097
 140   2.0000      -0.670034       -18.2326
 141   2.0000      -0.667267       -18.1573
 142   2.0000      -0.664248       -18.0751
 143   2.0000      -0.660854       -17.9827
 144   2.0000      -0.658601       -17.9214
 145   2.0000      -0.658014       -17.9055
 146   2.0000      -0.655474       -17.8364
 147   2.0000      -0.653747       -17.7894
 148   2.0000      -0.643070       -17.4988
 149   2.0000      -0.641438       -17.4544
 150   2.0000      -0.639277       -17.3956
 151   2.0000      -0.632151       -17.2017
 152   2.0000      -0.630206       -17.1488
 153   2.0000      -0.623247       -16.9594
 154   2.0000      -0.622417       -16.9368
 155   2.0000      -0.617134       -16.7931
 156   2.0000      -0.613988       -16.7075
 157   2.0000      -0.609370       -16.5818
 158   2.0000      -0.602201       -16.3867
 159   2.0000      -0.599037       -16.3006
 160   2.0000      -0.594430       -16.1753
 161   2.0000      -0.591666       -16.1001
 162   2.0000      -0.589345       -16.0369
 163   2.0000      -0.583119       -15.8675
 164   2.0000      -0.573492       -15.6055
 165   2.0000      -0.566704       -15.4208
 166   2.0000      -0.565606       -15.3909
 167   2.0000      -0.562511       -15.3067
 168   2.0000      -0.562190       -15.2980
 169   2.0000      -0.558072       -15.1859
 170   2.0000      -0.554826       -15.0976
 171   2.0000      -0.554285       -15.0829
 172   2.0000      -0.551120       -14.9967
 173   2.0000      -0.550489       -14.9796
 174   2.0000      -0.549957       -14.9651
 175   2.0000      -0.548256       -14.9188
 176   2.0000      -0.547344       -14.8940
 177   2.0000      -0.545966       -14.8565
 178   2.0000      -0.544318       -14.8117
 179   2.0000      -0.543632       -14.7930
 180   2.0000      -0.540367       -14.7041
 181   2.0000      -0.539782       -14.6882
 182   2.0000      -0.536777       -14.6065
 183   2.0000      -0.535500       -14.5717
 184   2.0000      -0.535398       -14.5689
 185   2.0000      -0.534898       -14.5553
 186   2.0000      -0.528985       -14.3944
 187   2.0000      -0.525775       -14.3071
 188   2.0000      -0.521657       -14.1950
 189   2.0000      -0.515115       -14.0170
 190   2.0000      -0.511402       -13.9159
 191   2.0000      -0.510750       -13.8982
 192   2.0000      -0.508214       -13.8292
 193   2.0000      -0.505724       -13.7614
 194   2.0000      -0.505083       -13.7440
 195   2.0000      -0.502589       -13.6762
 196   2.0000      -0.500718       -13.6252
 197   2.0000      -0.495551       -13.4846
 198   2.0000      -0.494166       -13.4469
 199   2.0000      -0.493163       -13.4196
 200   2.0000      -0.491417       -13.3721
 201   2.0000      -0.488437       -13.2910
 202   2.0000      -0.488322       -13.2879
 203   2.0000      -0.486326       -13.2336
 204   2.0000      -0.485434       -13.2093
 205   2.0000      -0.477336       -12.9890
 206   2.0000      -0.474481       -12.9113
 207   2.0000      -0.470834       -12.8120
 208   2.0000      -0.470226       -12.7955
 209   2.0000      -0.469352       -12.7717
 210   2.0000      -0.467679       -12.7262
 211   2.0000      -0.466779       -12.7017
 212   2.0000      -0.463455       -12.6113
 213   2.0000      -0.463061       -12.6005
 214   2.0000      -0.461396       -12.5552
 215   2.0000      -0.459963       -12.5162
 216   2.0000      -0.456233       -12.4147
 217   2.0000      -0.453261       -12.3339
 218   2.0000      -0.451469       -12.2851
 219   2.0000      -0.449604       -12.2343
 220   2.0000      -0.449106       -12.2208
 221   2.0000      -0.441606       -12.0167
 222   2.0000      -0.439877       -11.9697
 223   2.0000      -0.432672       -11.7736
 224   2.0000      -0.431753       -11.7486
 225   2.0000      -0.430217       -11.7068
 226   2.0000      -0.429918       -11.6987
 227   2.0000      -0.427736       -11.6393
 228   2.0000      -0.424959       -11.5637
 229   2.0000      -0.413191       -11.2435
 230   2.0000      -0.411149       -11.1879
 231   2.0000      -0.410133       -11.1603
 232   2.0000      -0.406710       -11.0671
 233   2.0000      -0.405199       -11.0260
 234   2.0000      -0.396559       -10.7909
 235   2.0000      -0.395311       -10.7570
 236   2.0000      -0.393290       -10.7020
 237   2.0000      -0.387113       -10.5339
 238   2.0000      -0.383318       -10.4306
 239   2.0000      -0.378787       -10.3073
 240   2.0000      -0.367998       -10.0137
 241   2.0000      -0.356666        -9.7054
 242   2.0000      -0.353910        -9.6304
 243   2.0000      -0.329609        -8.9691
 244   2.0000      -0.321740        -8.7550
 245   2.0000      -0.319007        -8.6806
 246   2.0000      -0.312235        -8.4964
 247   2.0000      -0.308056        -8.3826
 248   2.0000      -0.300234        -8.1698
 249   2.0000      -0.292566        -7.9611
 250   2.0000      -0.285964        -7.7815
 251   2.0000      -0.276159        -7.5147
 252   2.0000      -0.254878        -6.9356
 253   2.0000      -0.239519        -6.5176
 254   2.0000      -0.212052        -5.7702
 255   0.0000      -0.121195        -3.2979
 256   0.0000      -0.092690        -2.5222
 257   0.0000      -0.063928        -1.7396
 258   0.0000      -0.044802        -1.2191
 259   0.0000      -0.039860        -1.0847

MULLIKEN ATOMIC CHARGES
-----------------------
   0 C :   -0.100627
   1 S :    0.180940
   2 C :   -0.150585
   3 C :    0.194104
   4 C :    0.085442
   5 C :   -0.032985
   6 C :   -0.167702
   7 C :    0.520563
   8 F :   -0.155911
   9 F :   -0.172425
  10 F :   -0.159025
  11 C :    0.190282
  12 O :   -0.313062
  13 C :    0.179681
  14 C :   -0.106672
  15 C :    0.108746
  16 C :   -0.134321
  17 C :    0.029359
  18 C :    0.250102
  19 C :   -0.095421
  20 F :   -0.174696
  21 C :    0.008570
  22 C :   -0.106188
  23 C :    0.104738
  24 C :   -0.089260
  25 C :    0.255190
  26 F :   -0.177853
  27 C :   -0.010408
  28 C :    0.079074
  29 C :   -0.159681
  30 S :    0.166305
  31 C :   -0.102822
  32 C :    0.106436
  33 C :    0.118517
  34 N :   -0.031043
  35 C :    0.130806
  36 N :    0.289483
  37 O :   -0.266029
  38 O :   -0.235258
  39 C :   -0.106399
  40 C :    0.104589
  41 C :   -0.117394
  42 C :    0.023743
  43 C :    0.255644
  44 C :   -0.089689
  45 F :   -0.175429
  46 C :    0.012472
  47 C :   -0.102073
  48 C :    0.107545
  49 C :   -0.086298
  50 C :    0.257868
  51 F :   -0.177766
  52 C :   -0.029421
  53 C :    0.068015
  54 C :   -0.143665
  55 S :    0.171816
  56 C :   -0.129567
  57 C :    0.107416
  58 C :    0.145438
  59 C :   -0.058201
  60 C :   -0.152792
  61 C :    0.538922
  62 F :   -0.164448
  63 F :   -0.163233
  64 F :   -0.162823
  65 C :    0.250786
  66 O :   -0.293677
  67 C :    0.179429
  68 C :   -0.146892
  69 H :    0.025846
  70 H :   -0.007265
  71 H :    0.032857
  72 H :    0.023841
  73 H :    0.039205
  74 H :   -0.032214
  75 H :   -0.014124
  76 H :   -0.021517
  77 H :   -0.020151
  78 H :   -0.023081
  79 H :   -0.069397
  80 H :   -0.017092
  81 H :    0.147683
  82 H :   -0.000304
  83 H :   -0.009465
  84 H :   -0.037324
  85 H :   -0.020943
  86 H :   -0.017061
  87 H :   -0.017115
  88 H :   -0.008515
  89 H :    0.021012
  90 H :   -0.014183
  91 H :    0.046730
  92 H :    0.026661
  93 H :    0.026314
  94 H :   -0.040679
Sum of atomic charges:   -0.0000000

LOEWDIN ATOMIC CHARGES
----------------------
   0 C :   -0.172756
   1 S :    0.517241
   2 C :   -0.182354
   3 C :   -0.028217
   4 C :   -0.065537
   5 C :    0.023555
   6 C :   -0.115352
   7 C :    0.174124
   8 F :   -0.054664
   9 F :   -0.067773
  10 F :   -0.055157
  11 C :    0.062477
  12 O :   -0.107441
  13 C :    0.072443
  14 C :   -0.042633
  15 C :   -0.011598
  16 C :   -0.090125
  17 C :   -0.003671
  18 C :    0.087112
  19 C :   -0.067349
  20 F :   -0.052224
  21 C :   -0.007285
  22 C :   -0.068992
  23 C :   -0.005496
  24 C :   -0.066230
  25 C :    0.081103
  26 F :   -0.053900
  27 C :   -0.035831
  28 C :   -0.016466
  29 C :   -0.192769
  30 S :    0.474657
  31 C :   -0.148092
  32 C :   -0.062979
  33 C :    0.002138
  34 N :    0.078649
  35 C :   -0.005827
  36 N :    0.280684
  37 O :   -0.227437
  38 O :   -0.197551
  39 C :   -0.022834
  40 C :   -0.027059
  41 C :   -0.064042
  42 C :   -0.013163
  43 C :    0.087210
  44 C :   -0.065945
  45 F :   -0.052047
  46 C :    0.003933
  47 C :   -0.075525
  48 C :    0.005702
  49 C :   -0.061948
  50 C :    0.081854
  51 F :   -0.052900
  52 C :   -0.031972
  53 C :   -0.012140
  54 C :   -0.173244
  55 S :    0.499545
  56 C :   -0.200153
  57 C :   -0.036895
  58 C :   -0.052711
  59 C :    0.016407
  60 C :   -0.093152
  61 C :    0.168385
  62 F :   -0.063439
  63 F :   -0.062094
  64 F :   -0.062089
  65 C :    0.061659
  66 O :   -0.088465
  67 C :    0.081420
  68 C :   -0.078766
  69 H :    0.028236
  70 H :    0.036664
  71 H :    0.026773
  72 H :    0.014974
  73 H :    0.013171
  74 H :    0.033421
  75 H :    0.014394
  76 H :    0.027962
  77 H :    0.017790
  78 H :    0.027398
  79 H :    0.018265
  80 H :    0.035205
  81 H :    0.090712
  82 H :    0.039794
  83 H :    0.018348
  84 H :    0.026847
  85 H :    0.017893
  86 H :    0.030077
  87 H :    0.028751
  88 H :    0.032646
  89 H :    0.024953
  90 H :    0.033325
  91 H :    0.033393
  92 H :    0.017585
  93 H :    0.017512
  94 H :    0.029903

  Mayer bond orders larger than 0.100000
B(  0-C ,  1-S ) :   1.2386 B(  0-C ,  2-C ) :   0.1064 B(  0-C ,  4-C ) :   1.3806
B(  0-C , 69-H ) :   0.9718 B(  1-S ,  2-C ) :   1.1589 B(  2-C ,  3-C ) :   1.3175
B(  2-C , 15-C ) :   1.1761 B(  3-C ,  4-C ) :   1.1961 B(  3-C , 14-C ) :   1.1768
B(  4-C ,  5-C ) :   1.1630 B(  5-C ,  6-C ) :   1.5405 B(  5-C , 70-H ) :   1.0011
B(  6-C ,  7-C ) :   0.9448 B(  6-C , 11-C ) :   1.1738 B(  7-C ,  8-F ) :   1.1591
B(  7-C ,  9-F ) :   1.1313 B(  7-C , 10-F ) :   1.1548 B( 11-C , 12-O ) :   1.1927
B( 11-C , 14-C ) :   1.5027 B( 12-O , 13-C ) :   0.9303 B( 13-C , 71-H ) :   0.9783
B( 13-C , 72-H ) :   0.9666 B( 13-C , 73-H ) :   0.9640 B( 14-C , 74-H ) :   1.0027
B( 15-C , 16-C ) :   1.4774 B( 15-C , 19-C ) :   1.0287 B( 16-C , 17-C ) :   1.1926
B( 16-C , 75-H ) :   1.0060 B( 17-C , 18-C ) :   1.0239 B( 17-C , 21-C ) :   1.3854
B( 18-C , 19-C ) :   1.6580 B( 18-C , 20-F ) :   1.1256 B( 19-C , 76-H ) :   1.0146
B( 21-C , 22-C ) :   1.1873 B( 21-C , 25-C ) :   1.0219 B( 22-C , 23-C ) :   1.4735
B( 22-C , 77-H ) :   1.0075 B( 23-C , 24-C ) :   1.0114 B( 23-C , 27-C ) :   1.2007
B( 24-C , 25-C ) :   1.6519 B( 24-C , 78-H ) :   1.0194 B( 25-C , 26-F ) :   1.1227
B( 27-C , 28-C ) :   1.5472 B( 27-C , 79-H ) :   0.9624 B( 28-C , 29-C ) :   1.2192
B( 28-C , 80-H ) :   0.9473 B( 29-C , 30-S ) :   1.0952 B( 29-C , 33-C ) :   1.3174
B( 30-S , 31-C ) :   1.1494 B( 31-C , 32-C ) :   1.2757 B( 31-C , 40-C ) :   1.2294
B( 32-C , 33-C ) :   1.2528 B( 32-C , 39-C ) :   1.1575 B( 33-C , 34-N ) :   1.2067
B( 34-N , 35-C ) :   1.1746 B( 34-N , 81-H ) :   0.8984 B( 35-C , 36-N ) :   0.9306
B( 35-C , 39-C ) :   1.5092 B( 36-N , 37-O ) :   1.4773 B( 36-N , 38-O ) :   1.5350
B( 37-O , 38-O ) :   0.2676 B( 39-C , 82-H ) :   1.0207 B( 40-C , 41-C ) :   1.4359
B( 40-C , 44-C ) :   1.0312 B( 41-C , 42-C ) :   1.2015 B( 41-C , 83-H ) :   1.0090
B( 42-C , 43-C ) :   1.0299 B( 42-C , 46-C ) :   1.3716 B( 43-C , 44-C ) :   1.6566
B( 43-C , 45-F ) :   1.1249 B( 44-C , 84-H ) :   1.0192 B( 46-C , 47-C ) :   1.1957
B( 46-C , 50-C ) :   1.0150 B( 47-C , 48-C ) :   1.4777 B( 47-C , 85-H ) :   1.0063
B( 48-C , 49-C ) :   1.0099 B( 48-C , 52-C ) :   1.1690 B( 49-C , 50-C ) :   1.6553
B( 49-C , 86-H ) :   1.0214 B( 50-C , 51-F ) :   1.1210 B( 52-C , 53-C ) :   1.5917
B( 52-C , 87-H ) :   0.9738 B( 53-C , 54-C ) :   1.1801 B( 53-C , 88-H ) :   0.9515
B( 54-C , 55-S ) :   1.1787 B( 54-C , 56-C ) :   0.1000 B( 54-C , 58-C ) :   1.3088
B( 55-S , 56-C ) :   1.2010 B( 56-C , 57-C ) :   1.4051 B( 56-C , 89-H ) :   0.9698
B( 57-C , 58-C ) :   1.2199 B( 57-C , 68-C ) :   1.1387 B( 58-C , 59-C ) :   1.1756
B( 59-C , 60-C ) :   1.5866 B( 59-C , 90-H ) :   0.9925 B( 60-C , 61-C ) :   0.9366
B( 60-C , 65-C ) :   1.1986 B( 61-C , 62-F ) :   1.1470 B( 61-C , 63-F ) :   1.1687
B( 61-C , 64-F ) :   1.1716 B( 65-C , 66-O ) :   1.2136 B( 65-C , 68-C ) :   1.4605
B( 66-O , 67-C ) :   0.9555 B( 67-C , 91-H ) :   0.9790 B( 67-C , 92-H ) :   0.9688
B( 67-C , 93-H ) :   0.9690 B( 68-C , 94-H ) :   1.0104

-----------------------------------------------------------------------------
         ABSORPTION SPECTRUM VIA TRANSITION ELECTRIC DIPOLE MOMENTS
-----------------------------------------------------------------------------
State   Energy  Wavelength   fosc         T2         TX        TY        TZ
        (cm-1)    (nm)                  (au**2)     (au)      (au)      (au)
-----------------------------------------------------------------------------
   0    7501.3   1333.1   1.355304714  59.48059   2.40918   3.17998   6.60032
   1   12328.2    811.1   0.398575860  10.64358  -1.99076   2.53109  -0.52350
   2   13102.0    763.2   0.049962639   1.25540  -0.32213   1.01172   0.35785
   3   14457.2    691.7   0.009774905   0.22259  -0.08550   0.39815   0.23824
   4   17572.6    569.1   0.001142957   0.02141   0.00131  -0.11360  -0.09223
   5   18337.5    545.3   0.009488540   0.17035   0.23360  -0.17561   0.29145
   6   20226.2    494.4   0.661709169  10.77031  -1.14126  -1.26631  -2.80433
   7   21072.3    474.6   0.096110162   1.50153   0.81219  -0.88134   0.25518
   8   22341.8    447.6   0.166366150   2.45145   0.37942   0.76139   1.31445
   9   23103.6    432.8   0.174381603   2.48483  -0.74615   1.35190   0.31693
  10   23973.3    417.1   0.102424061   1.40653   0.70744   0.01395   0.95177
  11   24202.5    413.2   0.040667330   0.55317   0.10576  -0.62062  -0.39600
  12   24815.6    403.0   0.031472340   0.41752   0.05537   0.43962   0.47031
  13   26285.6    380.4   0.183688956   2.30060  -0.63190   1.37153   0.14217
  14   27358.4    365.5   0.161247116   1.94034   0.82983  -0.10063   1.11427
  15   27975.5    357.5   0.054647880   0.64309  -0.58669   0.14874  -0.52608
  16   28491.0    351.0   0.187303514   2.16428   0.25568  -1.33446  -0.56403
  17   28766.2    347.6   0.046581069   0.53309  -0.00033   0.41963   0.59750
  18   29434.7    339.7   0.016904393   0.18907   0.37817  -0.04741   0.20930
  19   30086.8    332.4   0.047556131   0.52036   0.46869  -0.24021   0.49294
  20   30619.1    326.6   0.000699440   0.00752   0.05307   0.05125  -0.04557
  21   30912.7    323.5   0.032434211   0.34542   0.33203  -0.27386   0.40022
  22   31301.2    319.5   0.005094187   0.05358  -0.01556  -0.15266  -0.17329
  23   31477.1    317.7   0.080252407   0.83934   0.52206  -0.73246   0.17404
  24   31896.8    313.5   0.003230855   0.03335  -0.15061   0.08968  -0.05119
  25   32364.1    309.0   0.021545553   0.21916   0.25433  -0.35555  -0.16753
  26   32408.2    308.6   0.016262782   0.16520   0.11121   0.00573   0.39090
  27   33330.4    300.0   0.001809875   0.01788  -0.08775  -0.00356  -0.10082
  28   34480.9    290.0   0.000698867   0.00667   0.00221  -0.08123  -0.00830
  29   34839.3    287.0   0.014541432   0.13741   0.33012   0.05796   0.15833
  30   35549.0    281.3   0.053906785   0.49922  -0.51489   0.02083  -0.48340
  31   35760.6    279.6   0.032473804   0.29895   0.26859  -0.47096  -0.07083
  32   35916.0    278.4   0.089864782   0.82372   0.61897  -0.28055   0.60157
  33   36283.8    275.6   0.000339733   0.00308   0.03363  -0.03242  -0.03001
  34   36370.9    274.9   0.000506713   0.00459  -0.00536  -0.00560   0.06728
  35   36849.1    271.4   0.021240523   0.18976   0.26834  -0.30024   0.16616
  36   37572.3    266.2   0.005842894   0.05120  -0.11289   0.17730  -0.08376
  37   37701.9    265.2   0.241622154   2.10984   0.76096  -1.23023   0.13154
  38   37853.3    264.2   0.001287599   0.01120   0.08775  -0.05864  -0.00765
  39   38070.0    262.7   0.064085042   0.55418  -0.01547  -0.68134  -0.29953
  40   38361.9    260.7   0.065941551   0.56589   0.52781  -0.52354   0.11496
  41   38550.0    259.4   0.112351299   0.95947   0.58024  -0.15942   0.77290
  42   38901.8    257.1   0.013767551   0.11651  -0.21054   0.23722   0.12613
  43   39207.4    255.1   0.007050566   0.05920   0.05579   0.18065   0.15315
  44   39597.9    252.5   0.055855671   0.46438  -0.50710   0.44982   0.06993
  45   39955.7    250.3   0.024183258   0.19926   0.32835  -0.26888   0.13837
  46   40323.6    248.0   0.011609118   0.09478  -0.22418   0.18889  -0.09403

FINAL SINGLE POINT ENERGY     -4519.812691996273

DIPOLE MOMENT
-------------
                                X             Y             Z
Electronic contribution:     -2.08362      20.01829      27.69282
Nuclear contribution   :      1.78400     -19.93466     -29.79560
                        -----------------------------------------
Total Dipole Moment    :     -0.29962       0.08363      -2.10278
                        -----------------------------------------
Magnitude (a.u.)       :      2.12567
Magnitude (Debye)      :      5.40302

Rotational constants in cm-1:     0.001019     0.000185     0.000158
Rotational constants in MHz :    30.562984     5.550690     4.724125

                             ****ORCA TERMINATED NORMALLY****
TOTAL RUN TIME: 0 days 0 hours 10 minutes 25 seconds 975 msec
