                         Program Version 4.2.0 -  RELEASE  -
|  1> # ORCA input file
|  2> # SCF done       -175.778232742223          0.000670761958
|  3> ! CAM-B3LYP def2-SVP def2/J RIJCOSX Grid4 TightSCF
|  4> %maxcore 5000
|  5> %tddft
|  6>     Mode sTDDFT
|  7>     Ethresh 5.0
|  8>     maxcore 5000
|  9> end
| 10>
| 11> %pal
| 12>   nprocs 6
| 13>   end
| 14> * xyz 0 1
| 15>    C       -8.45004        -0.42935        -0.66606
| 16>    C       -8.85765        -0.98461        -1.87010
| 17>    C       -8.22633        -2.10446        -2.39163
| 18>    C       -7.16412        -2.69924        -1.72690
| 19>    C       -6.75042        -2.15696        -0.52159
| 20>    C       -7.39729        -1.01967         0.01445
| 21>    C       -6.77630        -0.68072         1.28822
| 22>    C       -7.04967         0.41917         2.05767
| 23>    C       -8.01139         1.39716         1.72965
| 24>    N       -8.77989         2.22456         1.52307
| 25>    C       -6.38163         0.74639         3.25629
| 26>    N       -5.87009         1.07066         4.23191
| 27>    C       -5.80852        -1.72855         1.57176
| 28>    C       -5.66158        -2.53083         0.36899
| 29>    C       -4.61475        -3.35990         0.06161
| 30>    C       -3.39325        -3.39737         0.76465
| 31>    N       -2.33672        -3.40455         1.21419
| 32>    C       -4.56974        -4.18278        -1.08206
| 33>    N       -4.48621        -4.90045        -1.97456
| 34>    C       -5.33473        -2.04042         2.82106
| 35>    C       -4.67919        -3.20292         3.14314
| 36>    C       -4.16589        -4.24705         3.51585
| 37>    C       -3.58045        -5.45633         3.79717
| 38>    S       -3.19168        -6.56667         2.50144
| 39>    C       -2.56710        -7.71683         3.64977
| 40>    C       -2.66304        -7.24372         4.95010
| 41>    C       -3.22797        -5.97977         5.03185
| 42>    C       -2.06138        -8.92775         3.22065
| 43>    C       -1.63270        -9.98075         2.78685
| 44>    C       -1.15147       -11.18434         2.29818
| 45>    C       -0.95259       -11.39163         0.97168
| 46>    C       -0.49225       -12.59822         0.38910
| 47>    N       -0.26134       -12.67637        -0.97085
| 48>    C        0.15035       -13.93452        -1.26976
| 49>    C        0.54804       -14.77065        -2.30780
| 50>    C        0.80240       -16.01760        -1.72461
| 51>    N        0.56916       -15.94189        -0.36481
| 52>    C        0.17434       -14.67795        -0.06154
| 53>    C       -0.22232       -13.84118         0.97606
| 54>    C        1.21077       -17.23614        -2.32462
| 55>    C        1.52784       -17.38540        -3.63465
| 56>    C        1.89158       -18.59892        -4.19615
| 57>    C        2.18931       -19.66960        -4.69107
| 58>    C        2.52366       -20.86669        -5.29451
| 59>    S        3.17011       -20.90263        -6.91219
| 60>    C        3.25411       -22.64825        -6.86336
| 61>    C        2.80030       -23.13919        -5.65042
| 62>    C        2.39752       -22.14283        -4.77092
| 63>    C        3.72937       -23.36462        -7.93893
| 64>    C        4.14906       -23.96958        -8.91013
| 65>    C        4.61529       -24.66818       -10.00353
| 66>    C        4.61470       -26.03043       -10.06973
| 67>    C        5.15459       -26.81789       -11.11043
| 68>    C        5.45782       -26.48390       -12.40662
| 69>    C        6.41559       -27.22083       -13.22385
| 70>    C        6.87963       -28.49470       -13.02634
| 71>    C        6.47542       -29.37401       -11.99971
| 72>    N        6.19617       -30.15576       -11.20577
| 73>    C        7.80917       -29.13580       -13.87257
| 74>    N        8.56415       -29.71773       -14.51240
| 75>    C        6.79820       -26.34081       -14.32153
| 76>    C        5.97945       -25.19029       -14.28769
| 77>    C        6.15078       -24.17273       -15.21099
| 78>    C        7.14272       -24.31057       -16.17053
| 79>    C        7.94174       -25.44389       -16.21197
| 80>    C        7.77934       -26.46898       -15.29169
| 81>    C        5.02986       -25.33576       -13.19367
| 82>    C        3.82875       -24.68199       -13.10177
| 83>    C        3.43154       -23.64275       -13.96731
| 84>    N        3.06518       -22.77982       -14.62986
| 85>    C        2.81230       -25.02189       -12.18603
| 86>    N        1.93913       -25.28336       -11.48871
| 87>    H       -8.95257         0.43987        -0.27456
| 88>    H       -9.68086        -0.53715        -2.40585
| 89>    H       -8.56444        -2.52128        -3.32809
| 90>    H       -6.68298        -3.57039        -2.14112
| 91>    H       -5.56081        -1.38199         3.64997
| 92>    H       -2.32330        -7.81483         5.79555
| 93>    H       -3.38557        -5.44050         5.94895
| 94>    H       -0.93910       -11.95978         3.02082
| 95>    H       -1.15792       -10.57594         0.28898
| 96>    H       -0.38098       -11.91185        -1.61295
| 97>    H        0.63637       -14.53164        -3.34797
| 98>    H        0.68686       -16.70693         0.27680
| 99>    H       -0.31861       -14.08000         2.01572
|100>    H        1.26768       -18.10082        -1.67460
|101>    H        1.50563       -16.53750        -4.30551
|102>    H        2.77407       -24.19173        -5.43141
|103>    H        2.01564       -22.32283        -3.78186
|104>    H        5.03834       -24.07041       -10.80214
|105>    H        4.26055       -26.57251        -9.20292
|106>    H        5.44015       -27.81481       -10.79972
|107>    H        5.54122       -23.28400       -15.18359
|108>    H        7.29424       -23.52243       -16.89217
|109>    H        8.70663       -25.53083       -16.96849
|110>    H        8.41432       -27.33827       -15.33588
|111> *
|112>
|113>                          ****END OF INPUT****

CARTESIAN COORDINATES (ANGSTROEM)
---------------------------------
  C     -8.450040   -0.429350   -0.666060
  C     -8.857650   -0.984610   -1.870100
  C     -8.226330   -2.104460   -2.391630
  C     -7.164120   -2.699240   -1.726900
  C     -6.750420   -2.156960   -0.521590
  C     -7.397290   -1.019670    0.014450
  C     -6.776300   -0.680720    1.288220
  C     -7.049670    0.419170    2.057670
  C     -8.011390    1.397160    1.729650
  N     -8.779890    2.224560    1.523070
  C     -6.381630    0.746390    3.256290
  N     -5.870090    1.070660    4.231910
  C     -5.808520   -1.728550    1.571760
  C     -5.661580   -2.530830    0.368990
  C     -4.614750   -3.359900    0.061610
  C     -3.393250   -3.397370    0.764650
  N     -2.336720   -3.404550    1.214190
  C     -4.569740   -4.182780   -1.082060
  N     -4.486210   -4.900450   -1.974560
  C     -5.334730   -2.040420    2.821060
  C     -4.679190   -3.202920    3.143140
  C     -4.165890   -4.247050    3.515850
  C     -3.580450   -5.456330    3.797170
  S     -3.191680   -6.566670    2.501440
  C     -2.567100   -7.716830    3.649770
  C     -2.663040   -7.243720    4.950100
  C     -3.227970   -5.979770    5.031850
  C     -2.061380   -8.927750    3.220650
  C     -1.632700   -9.980750    2.786850
  C     -1.151470  -11.184340    2.298180
  C     -0.952590  -11.391630    0.971680
  C     -0.492250  -12.598220    0.389100
  N     -0.261340  -12.676370   -0.970850
  C      0.150350  -13.934520   -1.269760
  C      0.548040  -14.770650   -2.307800
  C      0.802400  -16.017600   -1.724610
  N      0.569160  -15.941890   -0.364810
  C      0.174340  -14.677950   -0.061540
  C     -0.222320  -13.841180    0.976060
  C      1.210770  -17.236140   -2.324620
  C      1.527840  -17.385400   -3.634650
  C      1.891580  -18.598920   -4.196150
  C      2.189310  -19.669600   -4.691070
  C      2.523660  -20.866690   -5.294510
  S      3.170110  -20.902630   -6.912190
  C      3.254110  -22.648250   -6.863360
  C      2.800300  -23.139190   -5.650420
  C      2.397520  -22.142830   -4.770920
  C      3.729370  -23.364620   -7.938930
  C      4.149060  -23.969580   -8.910130
  C      4.615290  -24.668180  -10.003530
  C      4.614700  -26.030430  -10.069730
  C      5.154590  -26.817890  -11.110430
  C      5.457820  -26.483900  -12.406620
  C      6.415590  -27.220830  -13.223850
  C      6.879630  -28.494700  -13.026340
  C      6.475420  -29.374010  -11.999710
  N      6.196170  -30.155760  -11.205770
  C      7.809170  -29.135800  -13.872570
  N      8.564150  -29.717730  -14.512400
  C      6.798200  -26.340810  -14.321530
  C      5.979450  -25.190290  -14.287690
  C      6.150780  -24.172730  -15.210990
  C      7.142720  -24.310570  -16.170530
  C      7.941740  -25.443890  -16.211970
  C      7.779340  -26.468980  -15.291690
  C      5.029860  -25.335760  -13.193670
  C      3.828750  -24.681990  -13.101770
  C      3.431540  -23.642750  -13.967310
  N      3.065180  -22.779820  -14.629860
  C      2.812300  -25.021890  -12.186030
  N      1.939130  -25.283360  -11.488710
  H     -8.952570    0.439870   -0.274560
  H     -9.680860   -0.537150   -2.405850
  H     -8.564440   -2.521280   -3.328090
  H     -6.682980   -3.570390   -2.141120
  H     -5.560810   -1.381990    3.649970
  H     -2.323300   -7.814830    5.795550
  H     -3.385570   -5.440500    5.948950
  H     -0.939100  -11.959780    3.020820
  H     -1.157920  -10.575940    0.288980
  H     -0.380980  -11.911850   -1.612950
  H      0.636370  -14.531640   -3.347970
  H      0.686860  -16.706930    0.276800
  H     -0.318610  -14.080000    2.015720
  H      1.267680  -18.100820   -1.674600
  H      1.505630  -16.537500   -4.305510
  H      2.774070  -24.191730   -5.431410
  H      2.015640  -22.322830   -3.781860
  H      5.038340  -24.070410  -10.802140
  H      4.260550  -26.572510   -9.202920
  H      5.440150  -27.814810  -10.799720
  H      5.541220  -23.284000  -15.183590
  H      7.294240  -23.522430  -16.892170
  H      8.706630  -25.530830  -16.968490
  H      8.414320  -27.338270  -15.335880

 Total Charge           Charge          ....    0
 Multiplicity           Mult            ....    1
 Number of Electrons    NEL             ....  486
 Basis Dimension        Dim             .... 1136

ORBITAL ENERGIES
----------------

  NO   OCC          E(Eh)            E(eV)
   0   2.0000     -88.973587     -2421.0944
   1   2.0000     -88.972303     -2421.0594
   2   2.0000     -14.469277      -393.7290
   3   2.0000     -14.468851      -393.7174
   4   2.0000     -14.422841      -392.4655
   5   2.0000     -14.422426      -392.4542
   6   2.0000     -14.421945      -392.4411
   7   2.0000     -14.421859      -392.4387
   8   2.0000     -14.421120      -392.4186
   9   2.0000     -14.421016      -392.4158
  10   2.0000     -14.419126      -392.3644
  11   2.0000     -14.416200      -392.2847
  12   2.0000     -10.351904      -281.6896
  13   2.0000     -10.351863      -281.6885
  14   2.0000     -10.351282      -281.6727
  15   2.0000     -10.349791      -281.6321
  16   2.0000     -10.348644      -281.6009
  17   2.0000     -10.348338      -281.5926
  18   2.0000     -10.348274      -281.5908
  19   2.0000     -10.345620      -281.5186
  20   2.0000     -10.336997      -281.2840
  21   2.0000     -10.335437      -281.2416
  22   2.0000     -10.331365      -281.1307
  23   2.0000     -10.326823      -281.0071
  24   2.0000     -10.326326      -280.9936
  25   2.0000     -10.325148      -280.9616
  26   2.0000     -10.324619      -280.9472
  27   2.0000     -10.324591      -280.9464
  28   2.0000     -10.324237      -280.9368
  29   2.0000     -10.323967      -280.9294
  30   2.0000     -10.323841      -280.9260
  31   2.0000     -10.323496      -280.9166
  32   2.0000     -10.321885      -280.8728
  33   2.0000     -10.321207      -280.8543
  34   2.0000     -10.321121      -280.8520
  35   2.0000     -10.318780      -280.7883
  36   2.0000     -10.318712      -280.7864
  37   2.0000     -10.317297      -280.7479
  38   2.0000     -10.316574      -280.7282
  39   2.0000     -10.313443      -280.6430
  40   2.0000     -10.313135      -280.6347
  41   2.0000     -10.313065      -280.6328
  42   2.0000     -10.312819      -280.6261
  43   2.0000     -10.310694      -280.5682
  44   2.0000     -10.304975      -280.4126
  45   2.0000     -10.304519      -280.4002
  46   2.0000     -10.302009      -280.3319
  47   2.0000     -10.301787      -280.3259
  48   2.0000     -10.301276      -280.3120
  49   2.0000     -10.301193      -280.3097
  50   2.0000     -10.301187      -280.3095
  51   2.0000     -10.301100      -280.3072
  52   2.0000     -10.301061      -280.3061
  53   2.0000     -10.300960      -280.3034
  54   2.0000     -10.300605      -280.2937
  55   2.0000     -10.300556      -280.2924
  56   2.0000     -10.300330      -280.2862
  57   2.0000     -10.299701      -280.2691
  58   2.0000     -10.299265      -280.2572
  59   2.0000     -10.297159      -280.1999
  60   2.0000     -10.296795      -280.1900
  61   2.0000     -10.296384      -280.1789
  62   2.0000     -10.296069      -280.1703
  63   2.0000     -10.291732      -280.0523
  64   2.0000     -10.291258      -280.0394
  65   2.0000     -10.290174      -280.0099
  66   2.0000     -10.289435      -279.9898
  67   2.0000     -10.287189      -279.9287
  68   2.0000     -10.282347      -279.7969
  69   2.0000     -10.282133      -279.7911
  70   2.0000     -10.276797      -279.6459
  71   2.0000     -10.275528      -279.6113
  72   2.0000      -8.068931      -219.5668
  73   2.0000      -8.067836      -219.5370
  74   2.0000      -6.038286      -164.3101
  75   2.0000      -6.037215      -164.2810
  76   2.0000      -6.034038      -164.1945
  77   2.0000      -6.032968      -164.1654
  78   2.0000      -6.030889      -164.1088
  79   2.0000      -6.029786      -164.0788
  80   2.0000      -1.100846       -29.9555
  81   2.0000      -1.064465       -28.9656
  82   2.0000      -1.036629       -28.2081
  83   2.0000      -1.036456       -28.2034
  84   2.0000      -1.018182       -27.7061
  85   2.0000      -1.018131       -27.7047
  86   2.0000      -1.007814       -27.4240
  87   2.0000      -1.007676       -27.4203
  88   2.0000      -1.001601       -27.2550
  89   2.0000      -1.000008       -27.2116
  90   2.0000      -0.999513       -27.1981
  91   2.0000      -0.999104       -27.1870
  92   2.0000      -0.998461       -27.1695
  93   2.0000      -0.996891       -27.1268
  94   2.0000      -0.961633       -26.1674
  95   2.0000      -0.961333       -26.1592
  96   2.0000      -0.940634       -25.5960
  97   2.0000      -0.940347       -25.5882
  98   2.0000      -0.933638       -25.4056
  99   2.0000      -0.921671       -25.0800
 100   2.0000      -0.919895       -25.0316
 101   2.0000      -0.916558       -24.9408
 102   2.0000      -0.898887       -24.4600
 103   2.0000      -0.895669       -24.3724
 104   2.0000      -0.894187       -24.3321
 105   2.0000      -0.890223       -24.2242
 106   2.0000      -0.880148       -23.9500
 107   2.0000      -0.875716       -23.8294
 108   2.0000      -0.871822       -23.7235
 109   2.0000      -0.866868       -23.5887
 110   2.0000      -0.866587       -23.5810
 111   2.0000      -0.857734       -23.3401
 112   2.0000      -0.851402       -23.1678
 113   2.0000      -0.843451       -22.9515
 114   2.0000      -0.838181       -22.8081
 115   2.0000      -0.827672       -22.5221
 116   2.0000      -0.817720       -22.2513
 117   2.0000      -0.800792       -21.7907
 118   2.0000      -0.793047       -21.5799
 119   2.0000      -0.792059       -21.5530
 120   2.0000      -0.791223       -21.5303
 121   2.0000      -0.779691       -21.2165
 122   2.0000      -0.760976       -20.7072
 123   2.0000      -0.738107       -20.0849
 124   2.0000      -0.727946       -19.8084
 125   2.0000      -0.717975       -19.5371
 126   2.0000      -0.716900       -19.5078
 127   2.0000      -0.714268       -19.4362
 128   2.0000      -0.713965       -19.4280
 129   2.0000      -0.710844       -19.3431
 130   2.0000      -0.705391       -19.1947
 131   2.0000      -0.703069       -19.1315
 132   2.0000      -0.692557       -18.8454
 133   2.0000      -0.688141       -18.7253
 134   2.0000      -0.677057       -18.4237
 135   2.0000      -0.673792       -18.3348
 136   2.0000      -0.670526       -18.2459
 137   2.0000      -0.667274       -18.1574
 138   2.0000      -0.666524       -18.1370
 139   2.0000      -0.666145       -18.1267
 140   2.0000      -0.662356       -18.0236
 141   2.0000      -0.653033       -17.7699
 142   2.0000      -0.641053       -17.4439
 143   2.0000      -0.634050       -17.2534
 144   2.0000      -0.630440       -17.1552
 145   2.0000      -0.627121       -17.0648
 146   2.0000      -0.625524       -17.0214
 147   2.0000      -0.616610       -16.7788
 148   2.0000      -0.608839       -16.5673
 149   2.0000      -0.602465       -16.3939
 150   2.0000      -0.587917       -15.9980
 151   2.0000      -0.586784       -15.9672
 152   2.0000      -0.586577       -15.9616
 153   2.0000      -0.586305       -15.9542
 154   2.0000      -0.572041       -15.5660
 155   2.0000      -0.567150       -15.4329
 156   2.0000      -0.559900       -15.2356
 157   2.0000      -0.553877       -15.0717
 158   2.0000      -0.548863       -14.9353
 159   2.0000      -0.547459       -14.8971
 160   2.0000      -0.545532       -14.8447
 161   2.0000      -0.545267       -14.8375
 162   2.0000      -0.543359       -14.7855
 163   2.0000      -0.543260       -14.7829
 164   2.0000      -0.539897       -14.6913
 165   2.0000      -0.539126       -14.6704
 166   2.0000      -0.536565       -14.6007
 167   2.0000      -0.533164       -14.5081
 168   2.0000      -0.523243       -14.2382
 169   2.0000      -0.520878       -14.1738
 170   2.0000      -0.519575       -14.1384
 171   2.0000      -0.518484       -14.1087
 172   2.0000      -0.516461       -14.0536
 173   2.0000      -0.513648       -13.9771
 174   2.0000      -0.510051       -13.8792
 175   2.0000      -0.509038       -13.8516
 176   2.0000      -0.508597       -13.8396
 177   2.0000      -0.504663       -13.7326
 178   2.0000      -0.502926       -13.6853
 179   2.0000      -0.500745       -13.6260
 180   2.0000      -0.496277       -13.5044
 181   2.0000      -0.494326       -13.4513
 182   2.0000      -0.486863       -13.2482
 183   2.0000      -0.485865       -13.2211
 184   2.0000      -0.483683       -13.1617
 185   2.0000      -0.475873       -12.9492
 186   2.0000      -0.471143       -12.8204
 187   2.0000      -0.470958       -12.8154
 188   2.0000      -0.470632       -12.8065
 189   2.0000      -0.465722       -12.6729
 190   2.0000      -0.462207       -12.5773
 191   2.0000      -0.461390       -12.5551
 192   2.0000      -0.459208       -12.4957
 193   2.0000      -0.458833       -12.4855
 194   2.0000      -0.454003       -12.3541
 195   2.0000      -0.453609       -12.3433
 196   2.0000      -0.453526       -12.3411
 197   2.0000      -0.453211       -12.3325
 198   2.0000      -0.452572       -12.3151
 199   2.0000      -0.448749       -12.2111
 200   2.0000      -0.447985       -12.1903
 201   2.0000      -0.446566       -12.1517
 202   2.0000      -0.445912       -12.1339
 203   2.0000      -0.443539       -12.0693
 204   2.0000      -0.442867       -12.0510
 205   2.0000      -0.440913       -11.9979
 206   2.0000      -0.439238       -11.9523
 207   2.0000      -0.436198       -11.8695
 208   2.0000      -0.432905       -11.7799
 209   2.0000      -0.432409       -11.7665
 210   2.0000      -0.431971       -11.7545
 211   2.0000      -0.430446       -11.7130
 212   2.0000      -0.429985       -11.7005
 213   2.0000      -0.427128       -11.6227
 214   2.0000      -0.426585       -11.6080
 215   2.0000      -0.418202       -11.3798
 216   2.0000      -0.416991       -11.3469
 217   2.0000      -0.414962       -11.2917
 218   2.0000      -0.413307       -11.2467
 219   2.0000      -0.411263       -11.1910
 220   2.0000      -0.408670       -11.1205
 221   2.0000      -0.390912       -10.6373
 222   2.0000      -0.385936       -10.5018
 223   2.0000      -0.385317       -10.4850
 224   2.0000      -0.382151       -10.3988
 225   2.0000      -0.369562       -10.0563
 226   2.0000      -0.364684        -9.9236
 227   2.0000      -0.361455        -9.8357
 228   2.0000      -0.353721        -9.6252
 229   2.0000      -0.350640        -9.5414
 230   2.0000      -0.349038        -9.4978
 231   2.0000      -0.340630        -9.2690
 232   2.0000      -0.339311        -9.2331
 233   2.0000      -0.335634        -9.1331
 234   2.0000      -0.334289        -9.0965
 235   2.0000      -0.332887        -9.0583
 236   2.0000      -0.321018        -8.7353
 237   2.0000      -0.310979        -8.4622
 238   2.0000      -0.301220        -8.1966
 239   2.0000      -0.299743        -8.1564
 240   2.0000      -0.278143        -7.5687
 241   2.0000      -0.261605        -7.1186
 242   2.0000      -0.225932        -6.1479
 243   0.0000      -0.109563        -2.9814
 244   0.0000      -0.104463        -2.8426
 245   0.0000      -0.088499        -2.4082
 246   0.0000      -0.087632        -2.3846
 247   0.0000      -0.064502        -1.7552

MULLIKEN ATOMIC CHARGES
-----------------------
   0 C :   -0.032090
   1 C :    0.045273
   2 C :    0.050846
   3 C :   -0.038471
   4 C :    0.019240
   5 C :    0.007596
   6 C :    0.289422
   7 C :   -0.338880
   8 C :   -0.187799
   9 N :    0.158295
  10 C :   -0.190406
  11 N :    0.168320
  12 C :   -0.082769
  13 C :    0.255679
  14 C :   -0.316896
  15 C :   -0.233480
  16 N :    0.190999
  17 C :   -0.182126
  18 N :    0.150887
  19 C :   -0.025317
  20 C :   -0.020588
  21 C :    0.104928
  22 C :   -0.172680
  23 S :    0.211707
  24 C :   -0.124935
  25 C :    0.047603
  26 C :    0.076856
  27 C :    0.042525
  28 C :   -0.000438
  29 C :   -0.106114
  30 C :    0.021928
  31 C :    0.097350
  32 N :   -0.033036
  33 C :    0.118253
  34 C :   -0.166235
  35 C :    0.096989
  36 N :   -0.035146
  37 C :    0.117622
  38 C :   -0.164966
  39 C :    0.022125
  40 C :   -0.103357
  41 C :   -0.004847
  42 C :    0.047429
  43 C :   -0.137018
  44 S :    0.199025
  45 C :   -0.173806
  46 C :    0.065400
  47 C :    0.047266
  48 C :    0.086563
  49 C :   -0.003240
  50 C :   -0.045103
  51 C :    0.001680
  52 C :    0.036617
  53 C :   -0.065240
  54 C :    0.293890
  55 C :   -0.341653
  56 C :   -0.183800
  57 N :    0.154914
  58 C :   -0.187122
  59 N :    0.157787
  60 C :    0.016091
  61 C :    0.001018
  62 C :   -0.031017
  63 C :    0.045119
  64 C :    0.044357
  65 C :   -0.032324
  66 C :    0.223089
  67 C :   -0.331454
  68 C :   -0.178455
  69 N :    0.161875
  70 C :   -0.201187
  71 N :    0.187678
  72 H :    0.005689
  73 H :    0.004367
  74 H :    0.003486
  75 H :    0.004472
  76 H :    0.053805
  77 H :   -0.002726
  78 H :    0.003523
  79 H :    0.024603
  80 H :   -0.006156
  81 H :    0.125051
  82 H :   -0.029654
  83 H :    0.122684
  84 H :   -0.031224
  85 H :   -0.012643
  86 H :    0.027016
  87 H :    0.000960
  88 H :   -0.006556
  89 H :    0.052311
  90 H :    0.018685
  91 H :    0.024702
  92 H :    0.006728
  93 H :    0.005667
  94 H :    0.005559
  95 H :    0.007401
Sum of atomic charges:   -0.0000000

LOEWDIN ATOMIC CHARGES
----------------------
   0 C :    0.005267
   1 C :    0.000626
   2 C :    0.004320
   3 C :    0.000476
   4 C :   -0.008919
   5 C :   -0.014230
   6 C :    0.076490
   7 C :   -0.130554
   8 C :   -0.018886
   9 N :   -0.045096
  10 C :   -0.023529
  11 N :   -0.041182
  12 C :   -0.048343
  13 C :    0.069771
  14 C :   -0.126333
  15 C :   -0.025226
  16 N :   -0.040240
  17 C :   -0.017979
  18 N :   -0.049656
  19 C :    0.044245
  20 C :   -0.041039
  21 C :    0.012554
  22 C :   -0.199605
  23 S :    0.485858
  24 C :   -0.154973
  25 C :   -0.045404
  26 C :   -0.004439
  27 C :   -0.078496
  28 C :   -0.001142
  29 C :   -0.058628
  30 C :    0.005194
  31 C :   -0.007926
  32 N :    0.073432
  33 C :   -0.015286
  34 C :   -0.085526
  35 C :   -0.004749
  36 N :    0.071104
  37 C :   -0.017369
  38 C :   -0.083402
  39 C :   -0.001601
  40 C :   -0.053846
  41 C :   -0.009651
  42 C :   -0.074006
  43 C :   -0.165976
  44 S :    0.471992
  45 C :   -0.196673
  46 C :   -0.016159
  47 C :   -0.042851
  48 C :   -0.016343
  49 C :   -0.030365
  50 C :    0.023605
  51 C :   -0.024491
  52 C :    0.056195
  53 C :   -0.057455
  54 C :    0.078577
  55 C :   -0.133613
  56 C :   -0.023051
  57 N :   -0.043697
  58 C :   -0.018641
  59 N :   -0.047701
  60 C :   -0.013202
  61 C :   -0.011172
  62 C :    0.000636
  63 C :    0.003796
  64 C :    0.001542
  65 C :    0.004939
  66 C :    0.063120
  67 C :   -0.132697
  68 C :   -0.020869
  69 N :   -0.045555
  70 C :   -0.021039
  71 N :   -0.030265
  72 H :    0.041494
  73 H :    0.037583
  74 H :    0.037352
  75 H :    0.040719
  76 H :    0.063236
  77 H :    0.038055
  78 H :    0.040942
  79 H :    0.042104
  80 H :    0.036543
  81 H :    0.091723
  82 H :    0.025598
  83 H :    0.090275
  84 H :    0.025163
  85 H :    0.033920
  86 H :    0.043123
  87 H :    0.039395
  88 H :    0.036521
  89 H :    0.048732
  90 H :    0.044382
  91 H :    0.050064
  92 H :    0.040861
  93 H :    0.037864
  94 H :    0.037924
  95 H :    0.041764

  Mayer bond orders larger than 0.100000
B(  0-C ,  1-C ) :   1.3675 B(  0-C ,  5-C ) :   1.3850 B(  0-C , 72-H ) :   0.9845
B(  1-C ,  2-C ) :   1.3792 B(  1-C , 73-H ) :   0.9862 B(  2-C ,  3-C ) :   1.3649
B(  2-C , 74-H ) :   0.9858 B(  3-C ,  4-C ) :   1.3846 B(  3-C , 75-H ) :   0.9850
B(  4-C ,  5-C ) :   1.3095 B(  4-C , 13-C ) :   1.0183 B(  5-C ,  6-C ) :   1.0046
B(  6-C ,  7-C ) :   1.6422 B(  6-C , 12-C ) :   1.0432 B(  7-C ,  8-C ) :   1.1468
B(  7-C , 10-C ) :   1.1374 B(  8-C ,  9-N ) :   2.9761 B( 10-C , 11-N ) :   2.9897
B( 12-C , 13-C ) :   1.0377 B( 12-C , 19-C ) :   1.5925 B( 13-C , 14-C ) :   1.6295
B( 14-C , 15-C ) :   1.1584 B( 14-C , 17-C ) :   1.1351 B( 15-C , 16-N ) :   2.9996
B( 17-C , 18-N ) :   2.9831 B( 19-C , 20-C ) :   1.0456 B( 19-C , 76-H ) :   0.9351
B( 20-C , 21-C ) :   2.0983 B( 21-C , 22-C ) :   1.0703 B( 22-C , 23-S ) :   1.0857
B( 22-C , 24-C ) :   0.1013 B( 22-C , 26-C ) :   1.4263 B( 23-S , 24-C ) :   1.1435
B( 24-C , 25-C ) :   1.4477 B( 24-C , 27-C ) :   0.9923 B( 25-C , 26-C ) :   1.3105
B( 25-C , 77-H ) :   1.0009 B( 26-C , 78-H ) :   1.0004 B( 27-C , 28-C ) :   2.2514
B( 28-C , 29-C ) :   1.0313 B( 29-C , 30-C ) :   1.6729 B( 29-C , 79-H ) :   0.9553
B( 30-C , 31-C ) :   1.1292 B( 30-C , 80-H ) :   0.9676 B( 31-C , 32-N ) :   1.1672
B( 31-C , 38-C ) :   1.3906 B( 32-N , 33-C ) :   1.1731 B( 32-N , 81-H ) :   0.9368
B( 33-C , 34-C ) :   1.2669 B( 33-C , 37-C ) :   1.3021 B( 34-C , 35-C ) :   1.3976
B( 34-C , 82-H ) :   1.0301 B( 35-C , 36-N ) :   1.1679 B( 35-C , 39-C ) :   1.1231
B( 36-N , 37-C ) :   1.1673 B( 36-N , 83-H ) :   0.9375 B( 37-C , 38-C ) :   1.2719
B( 38-C , 84-H ) :   1.0303 B( 39-C , 40-C ) :   1.6843 B( 39-C , 85-H ) :   0.9686
B( 40-C , 41-C ) :   1.0205 B( 40-C , 86-H ) :   0.9535 B( 41-C , 42-C ) :   2.2599
B( 42-C , 43-C ) :   0.9794 B( 43-C , 44-S ) :   1.1306 B( 43-C , 45-C ) :   0.1038
B( 43-C , 47-C ) :   1.4671 B( 44-S , 45-C ) :   1.0940 B( 45-C , 46-C ) :   1.4588
B( 45-C , 48-C ) :   1.0142 B( 46-C , 47-C ) :   1.2978 B( 46-C , 87-H ) :   1.0006
B( 47-C , 88-H ) :   1.0005 B( 48-C , 49-C ) :   2.1935 B( 49-C , 50-C ) :   1.0994
B( 50-C , 51-C ) :   1.6166 B( 50-C , 89-H ) :   0.9345 B( 51-C , 52-C ) :   1.2193
B( 51-C , 90-H ) :   0.9569 B( 52-C , 53-C ) :   1.5829 B( 52-C , 91-H ) :   0.9221
B( 53-C , 54-C ) :   1.0646 B( 53-C , 66-C ) :   1.0222 B( 54-C , 55-C ) :   1.6315
B( 54-C , 60-C ) :   0.9958 B( 55-C , 56-C ) :   1.1363 B( 55-C , 58-C ) :   1.1470
B( 56-C , 57-N ) :   2.9727 B( 58-C , 59-N ) :   2.9765 B( 60-C , 61-C ) :   1.3133
B( 60-C , 65-C ) :   1.3823 B( 61-C , 62-C ) :   1.3852 B( 61-C , 66-C ) :   1.0060
B( 62-C , 63-C ) :   1.3653 B( 62-C , 92-H ) :   0.9868 B( 63-C , 64-C ) :   1.3780
B( 63-C , 93-H ) :   0.9865 B( 64-C , 65-C ) :   1.3709 B( 64-C , 94-H ) :   0.9865
B( 65-C , 95-H ) :   0.9835 B( 66-C , 67-C ) :   1.6491 B( 67-C , 68-C ) :   1.1361
B( 67-C , 70-C ) :   1.1549 B( 68-C , 69-N ) :   2.9927 B( 70-C , 71-N ) :   3.0073

-----------------------------------------------------------------------------
         ABSORPTION SPECTRUM VIA TRANSITION ELECTRIC DIPOLE MOMENTS
-----------------------------------------------------------------------------
State   Energy  Wavelength   fosc         T2         TX        TY        TZ
        (cm-1)    (nm)                  (au**2)     (au)      (au)      (au)
-----------------------------------------------------------------------------
   0   13883.7    720.3   2.769050832  65.66020   3.00518  -6.48220  -3.82233
   1   15791.2    633.3   0.384053222   8.00669   0.56743  -1.00505   2.58352
   2   19994.2    500.1   0.118555839   1.95206   0.57684  -1.11221  -0.61831
   3   20531.9    487.0   0.075316586   1.20764  -0.49828   0.91284  -0.35508
   4   21268.0    470.2   0.199088830   3.08174  -0.59814   0.95920   1.34309
   5   22324.0    447.9   0.267610092   3.94644   0.44402  -0.41921   1.89038
   6   23168.4    431.6   0.906588462  12.88217  -1.01104   2.79087   2.01767
   7   25815.0    387.4   0.082513988   1.05228  -0.43340   0.82189   0.43468
   8   25854.4    386.8   0.136831687   1.74232  -0.69586   1.11368   0.13354
   9   26291.7    380.3   0.069784424   0.87381  -0.67068   0.19385   0.62162
  10   27172.2    368.0   0.056120427   0.67994   0.71335  -0.29617   0.28871
  11   28347.8    352.8   0.015356341   0.17834  -0.05382   0.02762   0.41795
  12   29004.2    344.8   0.033810122   0.38376   0.48080  -0.34785   0.17774
  13   29359.6    340.6   0.084671603   0.94943  -0.14992  -0.06667   0.96047
  14   30800.5    324.7   0.072123432   0.77089  -0.47653   0.66834   0.31167
  15   30912.3    323.5   0.116619224   1.24198   0.40937  -0.52628  -0.89299
  16   31206.3    320.4   0.196296442   2.07084  -0.84750   1.16222  -0.04282
  17   31430.1    318.2   0.018521069   0.19400  -0.26417   0.19054  -0.29649
  18   31680.2    315.7   0.004267169   0.04434   0.02126  -0.05039   0.20335
  19   32519.4    307.5   0.137512107   1.39211   0.64270  -0.92656   0.34719
  20   32982.0    303.2   0.219048972   2.18645   0.98894  -1.09639   0.07993
  21   33030.5    302.8   0.186444958   1.85828  -0.61076   1.05071   0.61746
  22   33302.1    300.3   0.204263776   2.01928   0.88534  -1.10695  -0.10053
  23   33577.4    297.8   0.031072558   0.30465   0.18127  -0.36808  -0.36920
  24   33665.6    297.0   0.323640420   3.16484  -0.98018   1.36389   0.58643
  25   33949.3    294.6   0.003450299   0.03346  -0.00373   0.09581   0.15577
  26   34051.5    293.7   0.051734444   0.50017   0.31151  -0.63456   0.02177
  27   34442.4    290.3   0.065307768   0.62423  -0.58206   0.07587  -0.52885
  28   34582.6    289.2   0.121491095   1.15654  -0.64735   0.81228   0.27872
  29   34852.1    286.9   0.131004005   1.23746   0.63042  -0.48548  -0.77739
  30   35157.6    284.4   0.072634092   0.68014   0.31785  -0.51227  -0.56275
  31   35515.1    281.6   0.319978520   2.96608  -0.14229   0.75219  -1.54274
  32   35768.2    279.6   0.300235184   2.76338  -1.60783  -0.32259  -0.27239
  33   36494.5    274.0   0.084839333   0.76532  -0.30616   0.01467  -0.81938
  34   37061.3    269.8   0.089574235   0.79568  -0.26560  -0.25077   0.81379
  35   37320.5    267.9   0.048792993   0.43041   0.09739  -0.08289   0.64347
  36   37445.6    267.1   0.019225426   0.16902  -0.00228  -0.06137  -0.40651
  37   37580.6    266.1   0.026833765   0.23507  -0.27583   0.08256  -0.39009
  38   37822.2    264.4   0.008927713   0.07771  -0.08201   0.16551  -0.20878
  39   38242.4    261.5   0.050636372   0.43591  -0.60929  -0.11546   0.22658
  40   38476.2    259.9   0.028758154   0.24606  -0.07413  -0.01944  -0.49009
  41   38650.3    258.7   0.001572734   0.01340  -0.01362  -0.01328   0.11417
  42   39040.9    256.1   0.113729053   0.95902  -0.07694  -0.63617  -0.74053
  43   39241.9    254.8   0.148416198   1.24511  -0.09884   0.46609  -1.00901
  44   39390.6    253.9   0.001930741   0.01614   0.11371  -0.00649   0.05626

FINAL SINGLE POINT ENERGY     -3640.337260471536

DIPOLE MOMENT
-------------
                                X             Y             Z
Electronic contribution:     -5.48787      14.62170       2.08138
Nuclear contribution   :      5.67692     -14.96341      -0.71511
                        -----------------------------------------
Total Dipole Moment    :      0.18905      -0.34171       1.36627
                        -----------------------------------------
Magnitude (a.u.)       :      1.42099
Magnitude (Debye)      :      3.61186

Rotational constants in cm-1:     0.001927     0.000108     0.000103
Rotational constants in MHz :    57.771695     3.233447     3.098841

                             ****ORCA TERMINATED NORMALLY****
TOTAL RUN TIME: 0 days 0 hours 9 minutes 14 seconds 499 msec
