                         Program Version 4.2.0 -  RELEASE  -
|  1> # ORCA input file
|  2> # SCF done       -202.997619112121          0.000635100088
|  3> ! CAM-B3LYP def2-SVP def2/J RIJCOSX Grid4 TightSCF
|  4> %maxcore 5000
|  5> %tddft
|  6>     Mode sTDDFT
|  7>     Ethresh 5.0
|  8>     maxcore 5000
|  9> end
| 10>
| 11> %pal
| 12>   nprocs 6
| 13>   end
| 14> * xyz 0 1
| 15>    C       -2.12908       -11.64612        -3.68011
| 16>    C       -0.95005       -10.94750        -3.61861
| 17>    C        0.31961       -11.55246        -3.53476
| 18>    N        1.37443       -11.99530        -3.44257
| 19>    C       -0.88577        -9.54356        -3.73384
| 20>    N       -0.79948        -8.40684        -3.87261
| 21>    C       -2.25047       -13.08676        -3.88702
| 22>    C       -3.52791       -13.36281        -4.40945
| 23>    C       -3.91053       -14.64590        -4.74229
| 24>    C       -3.00246       -15.67860        -4.53835
| 25>    C       -1.73443       -15.41181        -4.00883
| 26>    C       -1.34746       -14.11562        -3.68459
| 27>   Cl       -0.62992       -16.69983        -3.75059
| 28>   Cl       -3.44246       -17.28913        -4.93785
| 29>    C       -4.30474       -12.10652        -4.50580
| 30>    O       -5.40883       -11.94466        -4.96609
| 31>    C       -3.44596       -11.07727        -3.85609
| 32>    C       -3.99061        -9.88276        -3.48795
| 33>    C       -3.52947        -8.94129        -2.52974
| 34>    C       -3.95418        -7.62827        -2.55921
| 35>    C       -3.52887        -6.63957        -1.68289
| 36>    C       -2.59714        -6.93812        -0.59458
| 37>    C       -2.10590        -8.16949        -0.32987
| 38>    S       -2.48150        -9.55670        -1.25535
| 39>    C       -2.37421        -5.69908         0.06285
| 40>    C       -3.10700        -4.68282        -0.56164
| 41>    C       -2.91671        -3.43955         0.08642
| 42>    C       -2.06919        -3.54537         1.14274
| 43>    S       -1.46542        -5.14472         1.40597
| 44>    C       -3.83881        -5.25642        -1.66218
| 45>    C       -4.70653        -4.61346        -2.56667
| 46>    C       -4.91824        -3.26999        -2.63740
| 47>    C       -5.79953        -2.64356        -3.53886
| 48>    S       -6.81129        -3.50334        -4.65505
| 49>    C       -7.49693        -2.03197        -5.29601
| 50>    C       -6.94512        -0.92353        -4.64865
| 51>    C       -6.00473        -1.26822        -3.67198
| 52>    S       -5.07364        -0.17708        -2.65284
| 53>    C       -5.58601         1.48563        -2.93628
| 54>    O       -5.02722         2.34208        -2.30776
| 55>    C       -6.67218         1.86343        -3.91535
| 56>    O       -7.02340         3.00706        -4.00416
| 57>    S       -7.45330         0.72041        -5.01726
| 58>    C       -8.47447        -2.16783        -6.30888
| 59>    C       -9.05234        -1.16813        -7.02470
| 60>    C      -10.06510        -1.31828        -8.01335
| 61>    C      -10.69674        -2.49826        -8.35088
| 62>    C      -11.70123        -2.61371        -9.30275
| 63>    C      -12.18546        -1.45509       -10.05323
| 64>    C      -11.71048        -0.19743        -9.89448
| 65>    S      -10.47514         0.20698        -8.78321
| 66>    C      -13.20098        -1.95572       -10.91096
| 67>    C      -13.35763        -3.33263       -10.72398
| 68>    C      -14.36914        -3.85806       -11.56076
| 69>    C      -14.93177        -2.89251       -12.33393
| 70>    S      -14.27048        -1.31300       -12.08956
| 71>    C      -12.41993        -3.76690        -9.71525
| 72>    C      -12.21939        -5.05828        -9.20819
| 73>    C      -12.89614        -6.18479        -9.59788
| 74>    C      -12.63177        -7.43914        -9.03787
| 75>    C      -13.27332        -8.60455        -9.39467
| 76>    C      -13.03688        -9.92138        -8.85173
| 77>    C      -12.16081       -10.26682        -7.85143
| 78>    C      -11.99124       -11.58069        -7.36836
| 79>    N      -11.80954       -12.62407        -6.92457
| 80>    C      -11.31600        -9.37824        -7.15650
| 81>    N      -10.60114        -8.72101        -6.54163
| 82>    C      -13.91879       -10.85364        -9.55592
| 83>    C      -14.68584       -10.13502       -10.48843
| 84>    C      -14.32408        -8.70102       -10.42675
| 85>    O      -14.80920        -7.81222       -11.09942
| 86>    C      -15.61123       -10.75313       -11.30281
| 87>    C      -15.77659       -12.12788       -11.18676
| 88>    C      -15.01698       -12.85202       -10.26340
| 89>    C      -14.08567       -12.22357        -9.44296
| 90>   Cl      -15.22831       -14.55228       -10.13074
| 91>   Cl      -16.91818       -12.93639       -12.18428
| 92>    H       -4.88965       -14.84047        -5.15058
| 93>    H       -0.36504       -13.94238        -3.27598
| 94>    H       -4.95033        -9.65983        -3.94464
| 95>    H       -4.62556        -7.36118        -3.36407
| 96>    H       -1.43463        -8.36408         0.49165
| 97>    H       -3.37325        -2.50658        -0.18704
| 98>    H       -1.75058        -2.76385         1.80444
| 99>    H       -5.23798        -5.24336        -3.26912
|100>    H       -4.37761        -2.60235        -1.98527
|101>    H       -8.75141        -3.19414        -6.50818
|102>    H       -8.73120        -0.15061        -6.86131
|103>    H      -10.38801        -3.38838        -7.82281
|104>    H      -12.08483         0.64019       -10.46141
|105>    H      -14.68332        -4.88414       -11.60831
|106>    H      -15.71741        -3.00876       -13.05461
|107>    H      -11.46151        -5.17003        -8.44164
|108>    H      -13.65566        -6.12397       -10.35684
|109>    H      -11.86497        -7.48502        -8.27547
|110>    H      -16.18972       -10.18162       -12.01132
|111>    H      -13.51905       -12.81672        -8.74433
|112> *
|113>
|114>                          ****END OF INPUT****

CARTESIAN COORDINATES (ANGSTROEM)
---------------------------------
  C     -2.129080  -11.646120   -3.680110
  C     -0.950050  -10.947500   -3.618610
  C      0.319610  -11.552460   -3.534760
  N      1.374430  -11.995300   -3.442570
  C     -0.885770   -9.543560   -3.733840
  N     -0.799480   -8.406840   -3.872610
  C     -2.250470  -13.086760   -3.887020
  C     -3.527910  -13.362810   -4.409450
  C     -3.910530  -14.645900   -4.742290
  C     -3.002460  -15.678600   -4.538350
  C     -1.734430  -15.411810   -4.008830
  C     -1.347460  -14.115620   -3.684590
  Cl    -0.629920  -16.699830   -3.750590
  Cl    -3.442460  -17.289130   -4.937850
  C     -4.304740  -12.106520   -4.505800
  O     -5.408830  -11.944660   -4.966090
  C     -3.445960  -11.077270   -3.856090
  C     -3.990610   -9.882760   -3.487950
  C     -3.529470   -8.941290   -2.529740
  C     -3.954180   -7.628270   -2.559210
  C     -3.528870   -6.639570   -1.682890
  C     -2.597140   -6.938120   -0.594580
  C     -2.105900   -8.169490   -0.329870
  S     -2.481500   -9.556700   -1.255350
  C     -2.374210   -5.699080    0.062850
  C     -3.107000   -4.682820   -0.561640
  C     -2.916710   -3.439550    0.086420
  C     -2.069190   -3.545370    1.142740
  S     -1.465420   -5.144720    1.405970
  C     -3.838810   -5.256420   -1.662180
  C     -4.706530   -4.613460   -2.566670
  C     -4.918240   -3.269990   -2.637400
  C     -5.799530   -2.643560   -3.538860
  S     -6.811290   -3.503340   -4.655050
  C     -7.496930   -2.031970   -5.296010
  C     -6.945120   -0.923530   -4.648650
  C     -6.004730   -1.268220   -3.671980
  S     -5.073640   -0.177080   -2.652840
  C     -5.586010    1.485630   -2.936280
  O     -5.027220    2.342080   -2.307760
  C     -6.672180    1.863430   -3.915350
  O     -7.023400    3.007060   -4.004160
  S     -7.453300    0.720410   -5.017260
  C     -8.474470   -2.167830   -6.308880
  C     -9.052340   -1.168130   -7.024700
  C    -10.065100   -1.318280   -8.013350
  C    -10.696740   -2.498260   -8.350880
  C    -11.701230   -2.613710   -9.302750
  C    -12.185460   -1.455090  -10.053230
  C    -11.710480   -0.197430   -9.894480
  S    -10.475140    0.206980   -8.783210
  C    -13.200980   -1.955720  -10.910960
  C    -13.357630   -3.332630  -10.723980
  C    -14.369140   -3.858060  -11.560760
  C    -14.931770   -2.892510  -12.333930
  S    -14.270480   -1.313000  -12.089560
  C    -12.419930   -3.766900   -9.715250
  C    -12.219390   -5.058280   -9.208190
  C    -12.896140   -6.184790   -9.597880
  C    -12.631770   -7.439140   -9.037870
  C    -13.273320   -8.604550   -9.394670
  C    -13.036880   -9.921380   -8.851730
  C    -12.160810  -10.266820   -7.851430
  C    -11.991240  -11.580690   -7.368360
  N    -11.809540  -12.624070   -6.924570
  C    -11.316000   -9.378240   -7.156500
  N    -10.601140   -8.721010   -6.541630
  C    -13.918790  -10.853640   -9.555920
  C    -14.685840  -10.135020  -10.488430
  C    -14.324080   -8.701020  -10.426750
  O    -14.809200   -7.812220  -11.099420
  C    -15.611230  -10.753130  -11.302810
  C    -15.776590  -12.127880  -11.186760
  C    -15.016980  -12.852020  -10.263400
  C    -14.085670  -12.223570   -9.442960
  Cl   -15.228310  -14.552280  -10.130740
  Cl   -16.918180  -12.936390  -12.184280
  H     -4.889650  -14.840470   -5.150580
  H     -0.365040  -13.942380   -3.275980
  H     -4.950330   -9.659830   -3.944640
  H     -4.625560   -7.361180   -3.364070
  H     -1.434630   -8.364080    0.491650
  H     -3.373250   -2.506580   -0.187040
  H     -1.750580   -2.763850    1.804440
  H     -5.237980   -5.243360   -3.269120
  H     -4.377610   -2.602350   -1.985270
  H     -8.751410   -3.194140   -6.508180
  H     -8.731200   -0.150610   -6.861310
  H    -10.388010   -3.388380   -7.822810
  H    -12.084830    0.640190  -10.461410
  H    -14.683320   -4.884140  -11.608310
  H    -15.717410   -3.008760  -13.054610
  H    -11.461510   -5.170030   -8.441640
  H    -13.655660   -6.123970  -10.356840
  H    -11.864970   -7.485020   -8.275470
  H    -16.189720  -10.181620  -12.011320
  H    -13.519050  -12.816720   -8.744330

 Total Charge           Charge          ....    0
 Multiplicity           Mult            ....    1
 Number of Electrons    NEL             ....  608
 Basis Dimension        Dim             .... 1222

ORBITAL ENERGIES
----------------

  NO   OCC          E(Eh)            E(eV)
   0   2.0000    -101.600848     -2764.6996
   1   2.0000    -101.600716     -2764.6960
   2   2.0000    -101.593471     -2764.4989
   3   2.0000    -101.591378     -2764.4419
   4   2.0000     -88.995175     -2421.6818
   5   2.0000     -88.987460     -2421.4719
   6   2.0000     -88.985416     -2421.4163
   7   2.0000     -88.983026     -2421.3512
   8   2.0000     -88.980853     -2421.2921
   9   2.0000     -88.970786     -2421.0182
  10   2.0000     -88.964547     -2420.8484
  11   2.0000     -19.253207      -523.9064
  12   2.0000     -19.249543      -523.8067
  13   2.0000     -19.222802      -523.0790
  14   2.0000     -19.210734      -522.7507
  15   2.0000     -14.421758      -392.4360
  16   2.0000     -14.419552      -392.3760
  17   2.0000     -14.410261      -392.1231
  18   2.0000     -14.405689      -391.9987
  19   2.0000     -10.417038      -283.4620
  20   2.0000     -10.415262      -283.4137
  21   2.0000     -10.374554      -282.3060
  22   2.0000     -10.361156      -281.9414
  23   2.0000     -10.358382      -281.8659
  24   2.0000     -10.357307      -281.8367
  25   2.0000     -10.350926      -281.6630
  26   2.0000     -10.348614      -281.6001
  27   2.0000     -10.347637      -281.5735
  28   2.0000     -10.347038      -281.5572
  29   2.0000     -10.344694      -281.4934
  30   2.0000     -10.344667      -281.4927
  31   2.0000     -10.343352      -281.4569
  32   2.0000     -10.342393      -281.4308
  33   2.0000     -10.339894      -281.3628
  34   2.0000     -10.337877      -281.3079
  35   2.0000     -10.336818      -281.2791
  36   2.0000     -10.336419      -281.2683
  37   2.0000     -10.333538      -281.1899
  38   2.0000     -10.332112      -281.1511
  39   2.0000     -10.328452      -281.0515
  40   2.0000     -10.323722      -280.9227
  41   2.0000     -10.321889      -280.8729
  42   2.0000     -10.321572      -280.8642
  43   2.0000     -10.319175      -280.7990
  44   2.0000     -10.317558      -280.7550
  45   2.0000     -10.314889      -280.6824
  46   2.0000     -10.314239      -280.6647
  47   2.0000     -10.313343      -280.6403
  48   2.0000     -10.311456      -280.5890
  49   2.0000     -10.311222      -280.5826
  50   2.0000     -10.311163      -280.5810
  51   2.0000     -10.310868      -280.5730
  52   2.0000     -10.310608      -280.5659
  53   2.0000     -10.309405      -280.5332
  54   2.0000     -10.309115      -280.5253
  55   2.0000     -10.305683      -280.4319
  56   2.0000     -10.305659      -280.4312
  57   2.0000     -10.305516      -280.4274
  58   2.0000     -10.304506      -280.3999
  59   2.0000     -10.303996      -280.3860
  60   2.0000     -10.303976      -280.3855
  61   2.0000     -10.302974      -280.3582
  62   2.0000     -10.302778      -280.3528
  63   2.0000     -10.302268      -280.3390
  64   2.0000     -10.302170      -280.3363
  65   2.0000     -10.301304      -280.3127
  66   2.0000     -10.300498      -280.2908
  67   2.0000     -10.299667      -280.2682
  68   2.0000     -10.297581      -280.2114
  69   2.0000     -10.291398      -280.0432
  70   2.0000     -10.291296      -280.0404
  71   2.0000     -10.289026      -279.9786
  72   2.0000     -10.287954      -279.9495
  73   2.0000     -10.286135      -279.9000
  74   2.0000     -10.282323      -279.7962
  75   2.0000     -10.279073      -279.7078
  76   2.0000     -10.270582      -279.4767
  77   2.0000      -9.555872      -260.0285
  78   2.0000      -9.555722      -260.0244
  79   2.0000      -9.548469      -259.8270
  80   2.0000      -9.546386      -259.7704
  81   2.0000      -8.090552      -220.1551
  82   2.0000      -8.082443      -219.9344
  83   2.0000      -8.080767      -219.8889
  84   2.0000      -8.079123      -219.8441
  85   2.0000      -8.077096      -219.7890
  86   2.0000      -8.066388      -219.4976
  87   2.0000      -8.060117      -219.3269
  88   2.0000      -7.326261      -199.3577
  89   2.0000      -7.326109      -199.3536
  90   2.0000      -7.318813      -199.1550
  91   2.0000      -7.316776      -199.0996
  92   2.0000      -7.316115      -199.0816
  93   2.0000      -7.316001      -199.0785
  94   2.0000      -7.315397      -199.0621
  95   2.0000      -7.315259      -199.0583
  96   2.0000      -7.308756      -198.8814
  97   2.0000      -7.308039      -198.8618
  98   2.0000      -7.306624      -198.8234
  99   2.0000      -7.305948      -198.8049
 100   2.0000      -6.059908      -164.8985
 101   2.0000      -6.055354      -164.7745
 102   2.0000      -6.052839      -164.7061
 103   2.0000      -6.052023      -164.6839
 104   2.0000      -6.049965      -164.6279
 105   2.0000      -6.049017      -164.6021
 106   2.0000      -6.047429      -164.5589
 107   2.0000      -6.046921      -164.5451
 108   2.0000      -6.046197      -164.5254
 109   2.0000      -6.044334      -164.4747
 110   2.0000      -6.044307      -164.4739
 111   2.0000      -6.042670      -164.4294
 112   2.0000      -6.042364      -164.4211
 113   2.0000      -6.040087      -164.3591
 114   2.0000      -6.038091      -164.3048
 115   2.0000      -6.035786      -164.2421
 116   2.0000      -6.031510      -164.1257
 117   2.0000      -6.029528      -164.0718
 118   2.0000      -6.028455      -164.0426
 119   2.0000      -6.025279      -163.9562
 120   2.0000      -6.022165      -163.8714
 121   2.0000      -1.189319       -32.3630
 122   2.0000      -1.157111       -31.4866
 123   2.0000      -1.138727       -30.9863
 124   2.0000      -1.124137       -30.5893
 125   2.0000      -1.034196       -28.1419
 126   2.0000      -1.030782       -28.0490
 127   2.0000      -1.023399       -27.8481
 128   2.0000      -1.022243       -27.8166
 129   2.0000      -1.020278       -27.7632
 130   2.0000      -1.018919       -27.7262
 131   2.0000      -1.007514       -27.4159
 132   2.0000      -1.000320       -27.2201
 133   2.0000      -0.995341       -27.0846
 134   2.0000      -0.988526       -26.8992
 135   2.0000      -0.986998       -26.8576
 136   2.0000      -0.985768       -26.8241
 137   2.0000      -0.981034       -26.6953
 138   2.0000      -0.963191       -26.2097
 139   2.0000      -0.954009       -25.9599
 140   2.0000      -0.951670       -25.8963
 141   2.0000      -0.948630       -25.8135
 142   2.0000      -0.944364       -25.6974
 143   2.0000      -0.940437       -25.5906
 144   2.0000      -0.933906       -25.4129
 145   2.0000      -0.927085       -25.2273
 146   2.0000      -0.920947       -25.0602
 147   2.0000      -0.917523       -24.9671
 148   2.0000      -0.906295       -24.6615
 149   2.0000      -0.899140       -24.4668
 150   2.0000      -0.893848       -24.3228
 151   2.0000      -0.884035       -24.0558
 152   2.0000      -0.879449       -23.9310
 153   2.0000      -0.863687       -23.5021
 154   2.0000      -0.861966       -23.4553
 155   2.0000      -0.858620       -23.3642
 156   2.0000      -0.856714       -23.3124
 157   2.0000      -0.851777       -23.1780
 158   2.0000      -0.846698       -23.0398
 159   2.0000      -0.835825       -22.7439
 160   2.0000      -0.830059       -22.5871
 161   2.0000      -0.818246       -22.2656
 162   2.0000      -0.816212       -22.2102
 163   2.0000      -0.799975       -21.7684
 164   2.0000      -0.790634       -21.5142
 165   2.0000      -0.778116       -21.1736
 166   2.0000      -0.769364       -20.9355
 167   2.0000      -0.763676       -20.7807
 168   2.0000      -0.762017       -20.7355
 169   2.0000      -0.756753       -20.5923
 170   2.0000      -0.753904       -20.5148
 171   2.0000      -0.739655       -20.1270
 172   2.0000      -0.731215       -19.8974
 173   2.0000      -0.728423       -19.8214
 174   2.0000      -0.711762       -19.3680
 175   2.0000      -0.705721       -19.2036
 176   2.0000      -0.695048       -18.9132
 177   2.0000      -0.690339       -18.7851
 178   2.0000      -0.688782       -18.7427
 179   2.0000      -0.686162       -18.6714
 180   2.0000      -0.674701       -18.3595
 181   2.0000      -0.672852       -18.3092
 182   2.0000      -0.669302       -18.2126
 183   2.0000      -0.665876       -18.1194
 184   2.0000      -0.661660       -18.0047
 185   2.0000      -0.658835       -17.9278
 186   2.0000      -0.649637       -17.6775
 187   2.0000      -0.644400       -17.5350
 188   2.0000      -0.634894       -17.2763
 189   2.0000      -0.634320       -17.2607
 190   2.0000      -0.630312       -17.1517
 191   2.0000      -0.624666       -16.9980
 192   2.0000      -0.620128       -16.8745
 193   2.0000      -0.609152       -16.5759
 194   2.0000      -0.606974       -16.5166
 195   2.0000      -0.602995       -16.4083
 196   2.0000      -0.597210       -16.2509
 197   2.0000      -0.595608       -16.2073
 198   2.0000      -0.591717       -16.1014
 199   2.0000      -0.583313       -15.8728
 200   2.0000      -0.579523       -15.7696
 201   2.0000      -0.578817       -15.7504
 202   2.0000      -0.575093       -15.6491
 203   2.0000      -0.573759       -15.6128
 204   2.0000      -0.566853       -15.4248
 205   2.0000      -0.562642       -15.3103
 206   2.0000      -0.561832       -15.2882
 207   2.0000      -0.559530       -15.2256
 208   2.0000      -0.557486       -15.1700
 209   2.0000      -0.552484       -15.0339
 210   2.0000      -0.548671       -14.9301
 211   2.0000      -0.545725       -14.8499
 212   2.0000      -0.544172       -14.8077
 213   2.0000      -0.543108       -14.7787
 214   2.0000      -0.540441       -14.7062
 215   2.0000      -0.537514       -14.6265
 216   2.0000      -0.535400       -14.5690
 217   2.0000      -0.531568       -14.4647
 218   2.0000      -0.530872       -14.4458
 219   2.0000      -0.528818       -14.3899
 220   2.0000      -0.528314       -14.3761
 221   2.0000      -0.526630       -14.3303
 222   2.0000      -0.525284       -14.2937
 223   2.0000      -0.523666       -14.2497
 224   2.0000      -0.521140       -14.1809
 225   2.0000      -0.519034       -14.1236
 226   2.0000      -0.514483       -13.9998
 227   2.0000      -0.510505       -13.8915
 228   2.0000      -0.508233       -13.8297
 229   2.0000      -0.503922       -13.7124
 230   2.0000      -0.502917       -13.6851
 231   2.0000      -0.499515       -13.5925
 232   2.0000      -0.496305       -13.5051
 233   2.0000      -0.493306       -13.4235
 234   2.0000      -0.491413       -13.3720
 235   2.0000      -0.487450       -13.2642
 236   2.0000      -0.486330       -13.2337
 237   2.0000      -0.485803       -13.2194
 238   2.0000      -0.484200       -13.1758
 239   2.0000      -0.482828       -13.1384
 240   2.0000      -0.476839       -12.9754
 241   2.0000      -0.475235       -12.9318
 242   2.0000      -0.472187       -12.8489
 243   2.0000      -0.469904       -12.7867
 244   2.0000      -0.465954       -12.6793
 245   2.0000      -0.461517       -12.5585
 246   2.0000      -0.461111       -12.5475
 247   2.0000      -0.458357       -12.4725
 248   2.0000      -0.454337       -12.3631
 249   2.0000      -0.452260       -12.3066
 250   2.0000      -0.450515       -12.2591
 251   2.0000      -0.449446       -12.2300
 252   2.0000      -0.448064       -12.1924
 253   2.0000      -0.444984       -12.1086
 254   2.0000      -0.444043       -12.0830
 255   2.0000      -0.441810       -12.0223
 256   2.0000      -0.440564       -11.9884
 257   2.0000      -0.439057       -11.9474
 258   2.0000      -0.438388       -11.9291
 259   2.0000      -0.436760       -11.8848
 260   2.0000      -0.435931       -11.8623
 261   2.0000      -0.435498       -11.8505
 262   2.0000      -0.434823       -11.8321
 263   2.0000      -0.431719       -11.7477
 264   2.0000      -0.429927       -11.6989
 265   2.0000      -0.429472       -11.6865
 266   2.0000      -0.428751       -11.6669
 267   2.0000      -0.427614       -11.6360
 268   2.0000      -0.424901       -11.5621
 269   2.0000      -0.424812       -11.5597
 270   2.0000      -0.420825       -11.4512
 271   2.0000      -0.419479       -11.4146
 272   2.0000      -0.419160       -11.4059
 273   2.0000      -0.411493       -11.1973
 274   2.0000      -0.410837       -11.1794
 275   2.0000      -0.409032       -11.1303
 276   2.0000      -0.408770       -11.1232
 277   2.0000      -0.406518       -11.0619
 278   2.0000      -0.404340       -11.0027
 279   2.0000      -0.400373       -10.8947
 280   2.0000      -0.399198       -10.8627
 281   2.0000      -0.386090       -10.5060
 282   2.0000      -0.382460       -10.4073
 283   2.0000      -0.376524       -10.2457
 284   2.0000      -0.375919       -10.2293
 285   2.0000      -0.374548       -10.1920
 286   2.0000      -0.362813        -9.8727
 287   2.0000      -0.351378        -9.5615
 288   2.0000      -0.349773        -9.5178
 289   2.0000      -0.347359        -9.4521
 290   2.0000      -0.345535        -9.4025
 291   2.0000      -0.342792        -9.3279
 292   2.0000      -0.332857        -9.0575
 293   2.0000      -0.331694        -9.0259
 294   2.0000      -0.329961        -8.9787
 295   2.0000      -0.314626        -8.5614
 296   2.0000      -0.313417        -8.5285
 297   2.0000      -0.312943        -8.5156
 298   2.0000      -0.307761        -8.3746
 299   2.0000      -0.301148        -8.1946
 300   2.0000      -0.290350        -7.9008
 301   2.0000      -0.281631        -7.6636
 302   2.0000      -0.250154        -6.8070
 303   2.0000      -0.232984        -6.3398
 304   0.0000      -0.114978        -3.1287
 305   0.0000      -0.097896        -2.6639
 306   0.0000      -0.075021        -2.0414
 307   0.0000      -0.068067        -1.8522
 308   0.0000      -0.064133        -1.7451

MULLIKEN ATOMIC CHARGES
-----------------------
   0 C :    0.246975
   1 C :   -0.312367
   2 C :   -0.182530
   3 N :    0.161609
   4 C :   -0.209806
   5 N :    0.173543
   6 C :    0.018973
   7 C :   -0.001344
   8 C :   -0.025414
   9 C :    0.054894
  10 C :    0.052324
  11 C :   -0.013144
  12 Cl:   -0.035937
  13 Cl:   -0.039745
  14 C :    0.140083
  15 O :   -0.126856
  16 C :   -0.126479
  17 C :    0.032973
  18 C :   -0.098330
  19 C :    0.001912
  20 C :    0.064667
  21 C :    0.071329
  22 C :   -0.110448
  23 S :    0.150591
  24 C :   -0.101862
  25 C :    0.045531
  26 C :   -0.004226
  27 C :   -0.064315
  28 S :    0.145697
  29 C :    0.106691
  30 C :   -0.023518
  31 C :   -0.015166
  32 C :   -0.077816
  33 S :    0.150462
  34 C :   -0.131415
  35 C :   -0.008480
  36 C :   -0.040861
  37 S :    0.067823
  38 C :    0.085693
  39 O :   -0.127958
  40 C :    0.093008
  41 O :   -0.123668
  42 S :    0.061741
  43 C :    0.066684
  44 C :    0.009812
  45 C :   -0.074107
  46 C :   -0.032744
  47 C :    0.071304
  48 C :    0.061756
  49 C :   -0.124074
  50 S :    0.165213
  51 C :   -0.119533
  52 C :    0.058942
  53 C :   -0.009471
  54 C :   -0.063604
  55 S :    0.132397
  56 C :    0.095937
  57 C :    0.002031
  58 C :   -0.021802
  59 C :   -0.022315
  60 C :   -0.089355
  61 C :    0.329939
  62 C :   -0.358571
  63 C :   -0.192390
  64 N :    0.148075
  65 C :   -0.185178
  66 N :    0.129304
  67 C :    0.028274
  68 C :   -0.006562
  69 C :    0.144492
  70 O :   -0.163739
  71 C :   -0.036508
  72 C :    0.059260
  73 C :    0.046464
  74 C :   -0.016915
  75 Cl:   -0.042373
  76 Cl:   -0.050506
  77 H :    0.004989
  78 H :    0.002908
  79 H :    0.036373
  80 H :   -0.004792
  81 H :    0.043739
  82 H :   -0.004471
  83 H :    0.032901
  84 H :   -0.021319
  85 H :   -0.007293
  86 H :   -0.003193
  87 H :    0.009701
  88 H :   -0.018572
  89 H :    0.042223
  90 H :    0.017990
  91 H :    0.031463
  92 H :   -0.020749
  93 H :    0.002253
  94 H :   -0.002083
  95 H :   -0.005233
  96 H :   -0.001807
Sum of atomic charges:   -0.0000000

LOEWDIN ATOMIC CHARGES
----------------------
   0 C :    0.055357
   1 C :   -0.139312
   2 C :   -0.022330
   3 N :   -0.044509
   4 C :   -0.036541
   5 N :   -0.049178
   6 C :   -0.010416
   7 C :   -0.046031
   8 C :    0.003827
   9 C :   -0.135480
  10 C :   -0.129300
  11 C :   -0.015802
  12 Cl:    0.163184
  13 Cl:    0.160819
  14 C :    0.083922
  15 O :   -0.128874
  16 C :   -0.099783
  17 C :    0.045564
  18 C :   -0.180540
  19 C :    0.026397
  20 C :   -0.020302
  21 C :   -0.050916
  22 C :   -0.124677
  23 S :    0.489128
  24 C :   -0.184927
  25 C :   -0.041127
  26 C :   -0.063751
  27 C :   -0.158302
  28 S :    0.438877
  29 C :   -0.024632
  30 C :   -0.004594
  31 C :   -0.056720
  32 C :   -0.175154
  33 S :    0.463888
  34 C :   -0.185271
  35 C :   -0.210440
  36 C :   -0.220369
  37 S :    0.390228
  38 C :   -0.113852
  39 O :   -0.102205
  40 C :   -0.108319
  41 O :   -0.096852
  42 S :    0.397656
  43 C :   -0.029851
  44 C :   -0.058915
  45 C :   -0.151769
  46 C :   -0.020179
  47 C :    0.013307
  48 C :   -0.046489
  49 C :   -0.141114
  50 S :    0.486287
  51 C :   -0.203954
  52 C :   -0.029704
  53 C :   -0.059225
  54 C :   -0.157232
  55 S :    0.426569
  56 C :   -0.064328
  57 C :    0.041921
  58 C :   -0.054835
  59 C :    0.068015
  60 C :   -0.118667
  61 C :    0.075499
  62 C :   -0.150629
  63 C :   -0.020883
  64 N :   -0.059130
  65 C :   -0.016031
  66 N :   -0.068458
  67 C :   -0.012595
  68 C :   -0.041612
  69 C :    0.084799
  70 O :   -0.157922
  71 C :   -0.003340
  72 C :   -0.136642
  73 C :   -0.133078
  74 C :   -0.014226
  75 Cl:    0.155934
  76 Cl:    0.152622
  77 H :    0.048148
  78 H :    0.044227
  79 H :    0.052940
  80 H :    0.042974
  81 H :    0.040339
  82 H :    0.030596
  83 H :    0.027227
  84 H :    0.023153
  85 H :    0.026401
  86 H :    0.031701
  87 H :    0.011484
  88 H :    0.036941
  89 H :    0.039595
  90 H :    0.039646
  91 H :    0.026441
  92 H :    0.030244
  93 H :    0.029707
  94 H :    0.038483
  95 H :    0.043644
  96 H :    0.043624

  Mayer bond orders larger than 0.100000
B(  0-C ,  1-C ) :   1.6504 B(  0-C ,  6-C ) :   1.0071 B(  0-C , 16-C ) :   1.0447
B(  1-C ,  2-C ) :   1.1360 B(  1-C ,  4-C ) :   1.1556 B(  2-C ,  3-N ) :   2.9920
B(  4-C ,  5-N ) :   3.0206 B(  6-C ,  7-C ) :   1.3277 B(  6-C , 11-C ) :   1.3509
B(  7-C ,  8-C ) :   1.3497 B(  7-C , 14-C ) :   0.9211 B(  8-C ,  9-C ) :   1.3446
B(  8-C , 77-H ) :   1.0159 B(  9-C , 10-C ) :   1.4081 B(  9-C , 13-Cl) :   1.0498
B( 10-C , 11-C ) :   1.3558 B( 10-C , 12-Cl) :   1.0692 B( 11-C , 78-H ) :   0.9900
B( 14-C , 15-O ) :   2.2807 B( 14-C , 16-C ) :   0.9393 B( 16-C , 17-C ) :   1.6206
B( 17-C , 18-C ) :   1.1379 B( 17-C , 79-H ) :   0.9475 B( 18-C , 19-C ) :   1.4679
B( 18-C , 23-S ) :   1.0527 B( 19-C , 20-C ) :   1.2510 B( 19-C , 80-H ) :   0.9759
B( 20-C , 21-C ) :   1.0534 B( 20-C , 29-C ) :   1.3277 B( 21-C , 22-C ) :   1.5883
B( 21-C , 24-C ) :   1.1909 B( 22-C , 23-S ) :   1.1601 B( 22-C , 81-H ) :   0.9415
B( 24-C , 25-C ) :   1.4318 B( 24-C , 28-S ) :   1.0939 B( 25-C , 26-C ) :   1.2062
B( 25-C , 29-C ) :   1.0976 B( 26-C , 27-C ) :   1.5990 B( 26-C , 82-H ) :   0.9964
B( 27-C , 28-S ) :   1.1513 B( 27-C , 83-H ) :   0.9636 B( 29-C , 30-C ) :   1.2049
B( 30-C , 31-C ) :   1.5929 B( 30-C , 84-H ) :   0.9612 B( 31-C , 32-C ) :   1.1886
B( 31-C , 85-H ) :   0.9673 B( 32-C , 33-S ) :   1.1199 B( 32-C , 34-C ) :   0.1014
B( 32-C , 36-C ) :   1.5075 B( 33-S , 34-C ) :   1.1198 B( 34-C , 35-C ) :   1.5058
B( 34-C , 43-C ) :   1.1848 B( 35-C , 36-C ) :   1.3181 B( 35-C , 42-S ) :   0.9669
B( 36-C , 37-S ) :   0.9695 B( 37-S , 38-C ) :   1.0592 B( 37-S , 39-O ) :   0.1418
B( 38-C , 39-O ) :   2.1582 B( 38-C , 40-C ) :   0.7743 B( 40-C , 41-O ) :   2.1678
B( 40-C , 42-S ) :   1.0432 B( 41-O , 42-S ) :   0.1350 B( 43-C , 44-C ) :   1.6642
B( 43-C , 86-H ) :   0.9412 B( 44-C , 45-C ) :   1.1339 B( 44-C , 87-H ) :   0.9466
B( 45-C , 46-C ) :   1.4957 B( 45-C , 50-S ) :   1.0905 B( 46-C , 47-C ) :   1.2990
B( 46-C , 88-H ) :   0.9625 B( 47-C , 48-C ) :   1.0662 B( 47-C , 56-C ) :   1.2946
B( 48-C , 49-C ) :   1.5773 B( 48-C , 51-C ) :   1.1873 B( 49-C , 50-S ) :   1.1568
B( 49-C , 89-H ) :   0.9415 B( 51-C , 52-C ) :   1.4459 B( 51-C , 55-S ) :   1.0803
B( 52-C , 53-C ) :   1.2209 B( 52-C , 56-C ) :   1.0779 B( 53-C , 54-C ) :   1.5865
B( 53-C , 90-H ) :   0.9973 B( 54-C , 55-S ) :   1.1544 B( 54-C , 91-H ) :   0.9627
B( 56-C , 57-C ) :   1.2085 B( 57-C , 58-C ) :   1.4410 B( 57-C , 92-H ) :   0.9758
B( 58-C , 59-C ) :   1.2413 B( 58-C , 93-H ) :   0.9959 B( 59-C , 60-C ) :   1.4343
B( 59-C , 94-H ) :   0.9653 B( 60-C , 61-C ) :   1.1013 B( 60-C , 69-C ) :   0.9741
B( 61-C , 62-C ) :   1.6013 B( 61-C , 67-C ) :   0.9829 B( 62-C , 63-C ) :   1.1445
B( 62-C , 65-C ) :   1.1558 B( 63-C , 64-N ) :   2.9676 B( 65-C , 66-N ) :   2.9538
B( 67-C , 68-C ) :   1.3350 B( 67-C , 74-C ) :   1.3474 B( 68-C , 69-C ) :   0.9391
B( 68-C , 71-C ) :   1.3504 B( 69-C , 70-O ) :   2.1794 B( 71-C , 72-C ) :   1.3350
B( 71-C , 95-H ) :   1.0167 B( 72-C , 73-C ) :   1.4182 B( 72-C , 76-Cl) :   1.0390
B( 73-C , 74-C ) :   1.3528 B( 73-C , 75-Cl) :   1.0695 B( 74-C , 96-H ) :   0.9859

-----------------------------------------------------------------------------
         ABSORPTION SPECTRUM VIA TRANSITION ELECTRIC DIPOLE MOMENTS
-----------------------------------------------------------------------------
State   Energy  Wavelength   fosc         T2         TX        TY        TZ
        (cm-1)    (nm)                  (au**2)     (au)      (au)      (au)
-----------------------------------------------------------------------------
   0   12087.3    827.3   0.637514407  17.36347   3.59503  -1.13776   1.77334
   1   15688.7    637.4   1.562587137  32.78938  -0.72713  -5.53552  -1.27227
   2   17827.7    560.9   0.094553961   1.74606  -0.28690   1.28903  -0.04630
   3   20180.8    495.5   0.648277660  10.57545  -1.07178   2.22023  -2.12069
   4   21338.5    468.6   0.192772022   2.97410   0.42708  -0.25997   1.65049
   5   21989.7    454.8   0.050421777   0.75487  -0.22765   0.82282  -0.16130
   6   22346.2    447.5   0.035958522   0.52975  -0.48990   0.25457  -0.47428
   7   22661.1    441.3   0.017376247   0.25244  -0.19381  -0.44263  -0.13768
   8   22801.4    438.6   0.020932336   0.30223   0.41066   0.00785   0.36541
   9   22938.1    436.0   0.131853435   1.89239  -0.67459  -1.01353  -0.64037
  10   23967.6    417.2   0.078339345   1.07605   0.53348  -0.67491   0.57960
  11   25293.5    395.4   0.347736899   4.52603  -0.56310   1.77787  -1.02378
  12   26344.5    379.6   0.227200829   2.83919  -1.12702   0.09890  -1.24869
  13   26742.8    373.9   0.084184184   1.03633   0.71719   0.21589   0.68946
  14   27360.6    365.5   0.091644478   1.10270  -0.47226  -0.93549  -0.06732
  15   28457.4    351.4   0.073865870   0.85452  -0.47309  -0.54666  -0.57608
  16   28571.4    350.0   0.029323461   0.33788  -0.22718   0.52498  -0.10325
  17   28767.5    347.6   0.055645077   0.63680  -0.69143   0.32589  -0.22917
  18   29024.3    344.5   0.087786911   0.99574  -0.45628  -0.78418  -0.41545
  19   29275.8    341.6   0.029039496   0.32655   0.05824   0.55374   0.12857
  20   29465.1    339.4   0.000234250   0.00262  -0.03122   0.01858  -0.03602
  21   29706.6    336.6   0.080383871   0.89082   0.01854   0.93385   0.13565
  22   29934.2    334.1   0.095064878   1.04551  -0.40439   0.91918  -0.19260
  23   30568.4    327.1   0.033009802   0.35551  -0.14332  -0.41771   0.40060
  24   30907.0    323.6   0.074370458   0.79217   0.51590   0.64879   0.32417
  25   31151.8    321.0   0.346969942   3.66678   0.91920   1.54172   0.66705
  26   31656.3    315.9   0.047139548   0.49023  -0.08089   0.63959   0.27316
  27   31770.2    314.8   0.000307432   0.00319  -0.02073  -0.03580  -0.03839
  28   31962.5    312.9   0.046532005   0.47928  -0.66645   0.10711  -0.15377
  29   32311.9    309.5   0.118656976   1.20894   0.81274   0.50742   0.53938
  30   32613.9    306.6   0.039649013   0.40023  -0.29101  -0.05289  -0.55923
  31   32843.6    304.5   0.014487076   0.14521   0.01255   0.34638   0.15835
  32   32994.8    303.1   0.152045484   1.51706   0.12582   1.14290   0.44160
  33   33473.0    298.7   0.094194469   0.92642   0.54139   0.63468   0.48009
  34   33649.7    297.2   0.108614905   1.06263   0.03772   1.00596   0.22194
  35   33916.0    294.8   0.035264236   0.34230  -0.28051   0.41268  -0.30547
  36   34386.5    290.8   0.096732488   0.92610  -0.31429  -0.78766  -0.45489
  37   34429.4    290.4   0.576970737   5.51696  -0.01529   2.28042   0.56250
  38   34504.7    289.8   0.066732441   0.63670   0.45821   0.47827   0.44498
  39   34845.3    287.0   0.292238249   2.76101   1.06981   0.88663   0.91127
  40   34976.5    285.9   0.075250210   0.70828   0.37726   0.67192   0.33836
  41   35073.9    285.1   0.031015313   0.29112  -0.40516  -0.29277  -0.20311
  42   35314.0    283.2   0.092761773   0.86476   0.63447   0.01590   0.67968
  43   35581.1    281.0   0.253803983   2.34831   0.95281  -0.91391   0.77795
  44   35700.8    280.1   0.248344970   2.29009  -1.02170  -0.48633  -1.00484
  45   35997.8    277.8   0.002583327   0.02363   0.01022   0.11951   0.09612
  46   36188.2    276.3   0.110593192   1.00609   0.86033   0.45076   0.25048
  47   36502.3    274.0   0.035981724   0.32452   0.53915  -0.18167   0.02878
  48   36662.4    272.8   0.246299444   2.21166  -1.08776  -1.01027  -0.08825
  49   36861.2    271.3   0.053041425   0.47372  -0.10215  -0.45863  -0.50294
  50   37043.9    270.0   0.048577193   0.43171  -0.41190  -0.43128  -0.27576
  51   37401.9    267.4   0.075576203   0.66522  -0.21455  -0.64749  -0.44715
  52   37593.8    266.0   0.015236524   0.13343  -0.04153   0.32794  -0.15543
  53   37749.6    264.9   0.005784775   0.05045   0.11993   0.00012   0.18991
  54   38085.0    262.6   0.076585170   0.66201  -0.33429   0.50823  -0.54034
  55   38327.0    260.9   0.004514265   0.03878   0.10928   0.00255   0.16379
  56   38425.2    260.2   0.137941791   1.18183   0.12656   1.04001   0.29015
  57   38589.9    259.1   0.001178883   0.01006   0.05504  -0.05627   0.06214
  58   38658.6    258.7   0.089184915   0.75949  -0.74102  -0.31250  -0.33573
  59   38757.1    258.0   0.061844161   0.52532   0.04253   0.62515  -0.36428
  60   39163.1    255.3   0.000023400   0.00020  -0.00205  -0.01350   0.00320
  61   39388.4    253.9   0.005914808   0.04944  -0.00115  -0.20743   0.08004
  62   39464.8    253.4   0.115944471   0.96720  -0.61674   0.76215  -0.07719
  63   40050.3    249.7   0.004592024   0.03775   0.11096   0.15718   0.02697
  64   40138.8    249.1   0.048196961   0.39530   0.57998  -0.01734   0.24212
  65   40308.2    248.1   0.081041891   0.66190  -0.01037   0.78924  -0.19723

FINAL SINGLE POINT ENERGY     -7365.230109924202

DIPOLE MOMENT
-------------
                                X             Y             Z
Electronic contribution:      5.37684     -60.31863      -4.41887
Nuclear contribution   :     -5.94191      62.38476       4.74855
                        -----------------------------------------
Total Dipole Moment    :     -0.56507       2.06613       0.32969
                        -----------------------------------------
Magnitude (a.u.)       :      2.16723
Magnitude (Debye)      :      5.50867

Rotational constants in cm-1:     0.000444     0.000340     0.000200
Rotational constants in MHz :    13.310798    10.193940     5.995479

                             ****ORCA TERMINATED NORMALLY****
TOTAL RUN TIME: 0 days 0 hours 12 minutes 14 seconds 202 msec
