                         Program Version 4.2.0 -  RELEASE  -
|  1> # ORCA input file
|  2> # SCF done       -223.645792312808          0.000653566869
|  3> ! CAM-B3LYP def2-SVP def2/J RIJCOSX Grid4 TightSCF
|  4> %maxcore 5000
|  5> %tddft
|  6>     Mode sTDDFT
|  7>     Ethresh 5.0
|  8>     maxcore 5000
|  9> end
| 10>
| 11> %pal
| 12>   nprocs 6
| 13>   end
| 14> * xyz 0 1
| 15>    C       -9.64387         0.81209        -3.98766
| 16>    C       -8.48280         1.47086        -3.67672
| 17>    C       -8.26542         2.84419        -3.92338
| 18>    N       -8.01918         3.95233        -4.09239
| 19>    C       -7.34901         0.91939        -3.04058
| 20>    N       -6.38969         0.57788        -2.50928
| 21>    C      -10.83315         1.44358        -4.55342
| 22>    C      -11.86704         0.49524        -4.59719
| 23>    C      -13.12365         0.80446        -5.07617
| 24>    C      -13.35570         2.09728        -5.52761
| 25>    C      -12.32983         3.04912        -5.49349
| 26>    C      -11.06620         2.73202        -5.00766
| 27>   Cl      -12.62655         4.64219        -6.06129
| 28>   Cl      -14.90473         2.52592        -6.13050
| 29>    C      -11.38347        -0.80434        -4.08117
| 30>    O      -12.04893        -1.81110        -3.99304
| 31>    C       -9.95125        -0.59090        -3.75148
| 32>    C       -9.00622        -1.51705        -3.39230
| 33>    C       -9.09141        -2.88134        -3.04347
| 34>    C       -7.95510        -3.64276        -2.81614
| 35>    C       -8.34118        -4.96201        -2.44237
| 36>    C       -9.80285        -4.94274        -2.44828
| 37>    C      -10.26040        -3.73078        -2.80020
| 38>    F      -10.54733        -6.00885        -2.12984
| 39>    C       -7.53049        -6.03453        -2.13472
| 40>    C       -7.91365        -7.34240        -1.74900
| 41>    C       -6.77685        -8.10602        -1.53174
| 42>    C       -5.60381        -7.26073        -1.78550
| 43>    C       -6.05931        -6.05096        -2.13877
| 44>    F       -5.31622        -4.98913        -2.45802
| 45>    C       -6.77658        -9.45743        -1.15359
| 46>    C       -5.65675       -10.19888        -0.88748
| 47>    C       -5.65202       -11.54628        -0.49171
| 48>    S       -4.35748       -12.04972         0.55078
| 49>    C       -5.16118       -13.51793         1.00501
| 50>    C       -6.37852       -13.65109         0.29199
| 51>    C       -6.60938       -12.58249        -0.62832
| 52>    C       -7.65275       -12.71975        -1.57484
| 53>    C       -7.78170       -11.91968        -2.84287
| 54>    F       -6.65306       -11.31673        -3.23532
| 55>    F       -8.13160       -12.72219        -3.86665
| 56>    F       -8.73968       -10.97366        -2.79588
| 57>    C       -8.54626       -13.76015        -1.43438
| 58>    C       -8.42109       -14.70958        -0.42437
| 59>    C       -7.32063       -14.70929         0.41187
| 60>    O       -7.07684       -15.65975         1.33501
| 61>    C       -7.98482       -16.73350         1.47610
| 62>    C       -4.59794       -14.39089         1.94146
| 63>    C       -3.35829       -14.22617         2.50622
| 64>    C       -2.78477       -15.10982         3.43114
| 65>    C       -1.50782       -15.00770         3.96841
| 66>    C       -1.28091       -16.09459         4.84437
| 67>    C       -2.52620       -16.87289         4.82078
| 68>    C       -3.41599       -16.30888         3.99208
| 69>    F       -2.71262       -17.98778         5.53485
| 70>    C       -0.13848       -16.40493         5.55733
| 71>    C        0.08906       -17.51403         6.41339
| 72>    C        1.39018       -17.46419         6.88652
| 73>    C        2.03305       -16.27117         6.32731
| 74>    C        1.12247       -15.65910         5.55456
| 75>    F        1.30123       -14.52978         4.85881
| 76>    C        1.98110       -18.41617         7.73881
| 77>    C        3.28658       -18.40471         8.14776
| 78>    C        3.80519       -19.41624         8.97607
| 79>    C        5.11118       -19.50467         9.38678
| 80>    C        5.68989       -20.53636        10.22305
| 81>    C        5.03928       -21.58982        10.81268
| 82>    C        5.67188       -22.56196        11.61684
| 83>    N        6.11931       -23.38478        12.28031
| 84>    C        3.65850       -21.86387        10.71783
| 85>    N        2.54940       -22.16104        10.69424
| 86>    C        7.11985       -20.25548        10.34374
| 87>    C        7.41635       -19.08182         9.62954
| 88>    C        6.18319       -18.55246         9.00814
| 89>    O        6.09218       -17.55093         8.33126
| 90>    C        8.69665       -18.57179         9.56416
| 91>    C        9.71134       -19.25052        10.22739
| 92>    C        9.42631       -20.42077        10.94021
| 93>    C        8.13375       -20.92997        11.00434
| 94>   Cl       10.68910       -21.25260        11.75366
| 95>   Cl       11.31875       -18.65087        10.16925
| 96>    H      -13.90230         0.05842        -5.09771
| 97>    H      -10.30259         3.49202        -5.00133
| 98>    H       -7.98453        -1.15422        -3.36893
| 99>    H       -6.94308        -3.29739        -2.90645
|100>    H      -11.28044        -3.42174        -2.89989
|101>    H       -8.92368        -7.68909        -1.65240
|102>    H       -4.57939        -7.56599        -1.70985
|103>    H       -7.74907        -9.91208        -1.03012
|104>    H       -4.69701        -9.70139        -0.85866
|105>    H       -9.35442       -13.86148        -2.14221
|106>    H       -9.16898       -15.48064        -0.35382
|107>    H       -8.06212       -17.31392         0.55301
|108>    H       -8.97500       -16.38165         1.77709
|109>    H       -7.57225       -17.36201         2.26343
|110>    H       -5.18861       -15.25096         2.20860
|111>    H       -2.76076       -13.37000         2.21607
|112>    H       -0.79954       -14.23364         3.74702
|113>    H       -4.40682       -16.65660         3.77848
|114>    H       -0.63022       -18.27476         6.64615
|115>    H        3.04057       -15.95730         6.51343
|116>    H        1.33931       -19.22378         8.07242
|117>    H        3.95298       -17.62000         7.82570
|118>    H        3.10974       -20.18231         9.29467
|119>    H        8.90116       -17.66921         9.01026
|120>    H        7.95477       -21.83395        11.56269
|121> *
|122>
|123>                          ****END OF INPUT****

CARTESIAN COORDINATES (ANGSTROEM)
---------------------------------
  C     -9.643870    0.812090   -3.987660
  C     -8.482800    1.470860   -3.676720
  C     -8.265420    2.844190   -3.923380
  N     -8.019180    3.952330   -4.092390
  C     -7.349010    0.919390   -3.040580
  N     -6.389690    0.577880   -2.509280
  C    -10.833150    1.443580   -4.553420
  C    -11.867040    0.495240   -4.597190
  C    -13.123650    0.804460   -5.076170
  C    -13.355700    2.097280   -5.527610
  C    -12.329830    3.049120   -5.493490
  C    -11.066200    2.732020   -5.007660
  Cl   -12.626550    4.642190   -6.061290
  Cl   -14.904730    2.525920   -6.130500
  C    -11.383470   -0.804340   -4.081170
  O    -12.048930   -1.811100   -3.993040
  C     -9.951250   -0.590900   -3.751480
  C     -9.006220   -1.517050   -3.392300
  C     -9.091410   -2.881340   -3.043470
  C     -7.955100   -3.642760   -2.816140
  C     -8.341180   -4.962010   -2.442370
  C     -9.802850   -4.942740   -2.448280
  C    -10.260400   -3.730780   -2.800200
  F    -10.547330   -6.008850   -2.129840
  C     -7.530490   -6.034530   -2.134720
  C     -7.913650   -7.342400   -1.749000
  C     -6.776850   -8.106020   -1.531740
  C     -5.603810   -7.260730   -1.785500
  C     -6.059310   -6.050960   -2.138770
  F     -5.316220   -4.989130   -2.458020
  C     -6.776580   -9.457430   -1.153590
  C     -5.656750  -10.198880   -0.887480
  C     -5.652020  -11.546280   -0.491710
  S     -4.357480  -12.049720    0.550780
  C     -5.161180  -13.517930    1.005010
  C     -6.378520  -13.651090    0.291990
  C     -6.609380  -12.582490   -0.628320
  C     -7.652750  -12.719750   -1.574840
  C     -7.781700  -11.919680   -2.842870
  F     -6.653060  -11.316730   -3.235320
  F     -8.131600  -12.722190   -3.866650
  F     -8.739680  -10.973660   -2.795880
  C     -8.546260  -13.760150   -1.434380
  C     -8.421090  -14.709580   -0.424370
  C     -7.320630  -14.709290    0.411870
  O     -7.076840  -15.659750    1.335010
  C     -7.984820  -16.733500    1.476100
  C     -4.597940  -14.390890    1.941460
  C     -3.358290  -14.226170    2.506220
  C     -2.784770  -15.109820    3.431140
  C     -1.507820  -15.007700    3.968410
  C     -1.280910  -16.094590    4.844370
  C     -2.526200  -16.872890    4.820780
  C     -3.415990  -16.308880    3.992080
  F     -2.712620  -17.987780    5.534850
  C     -0.138480  -16.404930    5.557330
  C      0.089060  -17.514030    6.413390
  C      1.390180  -17.464190    6.886520
  C      2.033050  -16.271170    6.327310
  C      1.122470  -15.659100    5.554560
  F      1.301230  -14.529780    4.858810
  C      1.981100  -18.416170    7.738810
  C      3.286580  -18.404710    8.147760
  C      3.805190  -19.416240    8.976070
  C      5.111180  -19.504670    9.386780
  C      5.689890  -20.536360   10.223050
  C      5.039280  -21.589820   10.812680
  C      5.671880  -22.561960   11.616840
  N      6.119310  -23.384780   12.280310
  C      3.658500  -21.863870   10.717830
  N      2.549400  -22.161040   10.694240
  C      7.119850  -20.255480   10.343740
  C      7.416350  -19.081820    9.629540
  C      6.183190  -18.552460    9.008140
  O      6.092180  -17.550930    8.331260
  C      8.696650  -18.571790    9.564160
  C      9.711340  -19.250520   10.227390
  C      9.426310  -20.420770   10.940210
  C      8.133750  -20.929970   11.004340
  Cl    10.689100  -21.252600   11.753660
  Cl    11.318750  -18.650870   10.169250
  H    -13.902300    0.058420   -5.097710
  H    -10.302590    3.492020   -5.001330
  H     -7.984530   -1.154220   -3.368930
  H     -6.943080   -3.297390   -2.906450
  H    -11.280440   -3.421740   -2.899890
  H     -8.923680   -7.689090   -1.652400
  H     -4.579390   -7.565990   -1.709850
  H     -7.749070   -9.912080   -1.030120
  H     -4.697010   -9.701390   -0.858660
  H     -9.354420  -13.861480   -2.142210
  H     -9.168980  -15.480640   -0.353820
  H     -8.062120  -17.313920    0.553010
  H     -8.975000  -16.381650    1.777090
  H     -7.572250  -17.362010    2.263430
  H     -5.188610  -15.250960    2.208600
  H     -2.760760  -13.370000    2.216070
  H     -0.799540  -14.233640    3.747020
  H     -4.406820  -16.656600    3.778480
  H     -0.630220  -18.274760    6.646150
  H      3.040570  -15.957300    6.513430
  H      1.339310  -19.223780    8.072420
  H      3.952980  -17.620000    7.825700
  H      3.109740  -20.182310    9.294670
  H      8.901160  -17.669210    9.010260
  H      7.954770  -21.833950   11.562690

 Total Charge           Charge          ....    0
 Multiplicity           Mult            ....    1
 Number of Electrons    NEL             ....  596
 Basis Dimension        Dim             .... 1279

ORBITAL ENERGIES
----------------

  NO   OCC          E(Eh)            E(eV)
   0   2.0000    -101.600859     -2764.6999
   1   2.0000    -101.599697     -2764.6683
   2   2.0000    -101.599056     -2764.6509
   3   2.0000    -101.597951     -2764.6208
   4   2.0000     -88.992622     -2421.6124
   5   2.0000     -24.809316      -675.0958
   6   2.0000     -24.805956      -675.0044
   7   2.0000     -24.805477      -674.9914
   8   2.0000     -24.802729      -674.9166
   9   2.0000     -24.802625      -674.9137
  10   2.0000     -24.795967      -674.7326
  11   2.0000     -24.786677      -674.4798
  12   2.0000     -19.290404      -524.9186
  13   2.0000     -19.222653      -523.0750
  14   2.0000     -19.221788      -523.0514
  15   2.0000     -14.420235      -392.3945
  16   2.0000     -14.417808      -392.3285
  17   2.0000     -14.417271      -392.3139
  18   2.0000     -14.415920      -392.2771
  19   2.0000     -10.527587      -286.4702
  20   2.0000     -10.378892      -282.4240
  21   2.0000     -10.374305      -282.2992
  22   2.0000     -10.373301      -282.2719
  23   2.0000     -10.372776      -282.2576
  24   2.0000     -10.371060      -282.2109
  25   2.0000     -10.362181      -281.9693
  26   2.0000     -10.356661      -281.8191
  27   2.0000     -10.356374      -281.8113
  28   2.0000     -10.356275      -281.8086
  29   2.0000     -10.355524      -281.7881
  30   2.0000     -10.355127      -281.7773
  31   2.0000     -10.350996      -281.6649
  32   2.0000     -10.346710      -281.5483
  33   2.0000     -10.345646      -281.5193
  34   2.0000     -10.345381      -281.5121
  35   2.0000     -10.344138      -281.4783
  36   2.0000     -10.339720      -281.3581
  37   2.0000     -10.337554      -281.2991
  38   2.0000     -10.325899      -280.9820
  39   2.0000     -10.322820      -280.8982
  40   2.0000     -10.321743      -280.8689
  41   2.0000     -10.321210      -280.8544
  42   2.0000     -10.320487      -280.8347
  43   2.0000     -10.320157      -280.8257
  44   2.0000     -10.319911      -280.8191
  45   2.0000     -10.318588      -280.7831
  46   2.0000     -10.318490      -280.7804
  47   2.0000     -10.316757      -280.7332
  48   2.0000     -10.316183      -280.7176
  49   2.0000     -10.314789      -280.6797
  50   2.0000     -10.313954      -280.6569
  51   2.0000     -10.313769      -280.6519
  52   2.0000     -10.313580      -280.6468
  53   2.0000     -10.313248      -280.6377
  54   2.0000     -10.309792      -280.5437
  55   2.0000     -10.309718      -280.5417
  56   2.0000     -10.309099      -280.5249
  57   2.0000     -10.308874      -280.5187
  58   2.0000     -10.308664      -280.5130
  59   2.0000     -10.308459      -280.5074
  60   2.0000     -10.308357      -280.5047
  61   2.0000     -10.307934      -280.4931
  62   2.0000     -10.307285      -280.4755
  63   2.0000     -10.303517      -280.3730
  64   2.0000     -10.302046      -280.3329
  65   2.0000     -10.301725      -280.3242
  66   2.0000     -10.301125      -280.3079
  67   2.0000     -10.300209      -280.2829
  68   2.0000     -10.300024      -280.2779
  69   2.0000     -10.299547      -280.2649
  70   2.0000     -10.298395      -280.2336
  71   2.0000     -10.296993      -280.1954
  72   2.0000     -10.290460      -280.0177
  73   2.0000     -10.289647      -279.9955
  74   2.0000     -10.288388      -279.9613
  75   2.0000     -10.287667      -279.9417
  76   2.0000     -10.285224      -279.8752
  77   2.0000     -10.280298      -279.7411
  78   2.0000     -10.277650      -279.6691
  79   2.0000     -10.274805      -279.5916
  80   2.0000     -10.266735      -279.3720
  81   2.0000      -9.555868      -260.0284
  82   2.0000      -9.554745      -259.9978
  83   2.0000      -9.554119      -259.9808
  84   2.0000      -9.553024      -259.9510
  85   2.0000      -8.088091      -220.0881
  86   2.0000      -7.326266      -199.3578
  87   2.0000      -7.325095      -199.3260
  88   2.0000      -7.324522      -199.3104
  89   2.0000      -7.323407      -199.2800
  90   2.0000      -7.316128      -199.0820
  91   2.0000      -7.315397      -199.0621
  92   2.0000      -7.315028      -199.0520
  93   2.0000      -7.314363      -199.0339
  94   2.0000      -7.314294      -199.0320
  95   2.0000      -7.313634      -199.0141
  96   2.0000      -7.313276      -199.0044
  97   2.0000      -7.312551      -198.9846
  98   2.0000      -6.056976      -164.8187
  99   2.0000      -6.053007      -164.7107
 100   2.0000      -6.050805      -164.6508
 101   2.0000      -1.397292       -38.0222
 102   2.0000      -1.318405       -35.8756
 103   2.0000      -1.316277       -35.8177
 104   2.0000      -1.308491       -35.6058
 105   2.0000      -1.301174       -35.4067
 106   2.0000      -1.299276       -35.3551
 107   2.0000      -1.294838       -35.2343
 108   2.0000      -1.195128       -32.5211
 109   2.0000      -1.138068       -30.9684
 110   2.0000      -1.137290       -30.9472
 111   2.0000      -1.031655       -28.0728
 112   2.0000      -1.030678       -28.0462
 113   2.0000      -1.028106       -27.9762
 114   2.0000      -1.017853       -27.6972
 115   2.0000      -1.016504       -27.6605
 116   2.0000      -1.002043       -27.2670
 117   2.0000      -0.999572       -27.1997
 118   2.0000      -0.997256       -27.1367
 119   2.0000      -0.995302       -27.0835
 120   2.0000      -0.991938       -26.9920
 121   2.0000      -0.991064       -26.9682
 122   2.0000      -0.983368       -26.7588
 123   2.0000      -0.978982       -26.6395
 124   2.0000      -0.968839       -26.3634
 125   2.0000      -0.962146       -26.1813
 126   2.0000      -0.961043       -26.1513
 127   2.0000      -0.939235       -25.5579
 128   2.0000      -0.937863       -25.5206
 129   2.0000      -0.933509       -25.4021
 130   2.0000      -0.921826       -25.0841
 131   2.0000      -0.907989       -24.7076
 132   2.0000      -0.903548       -24.5868
 133   2.0000      -0.898111       -24.4388
 134   2.0000      -0.893780       -24.3210
 135   2.0000      -0.877261       -23.8715
 136   2.0000      -0.870258       -23.6809
 137   2.0000      -0.867407       -23.6033
 138   2.0000      -0.861304       -23.4373
 139   2.0000      -0.860099       -23.4045
 140   2.0000      -0.854844       -23.2615
 141   2.0000      -0.847125       -23.0514
 142   2.0000      -0.838635       -22.8204
 143   2.0000      -0.836378       -22.7590
 144   2.0000      -0.819553       -22.3012
 145   2.0000      -0.813292       -22.1308
 146   2.0000      -0.811915       -22.0933
 147   2.0000      -0.802154       -21.8277
 148   2.0000      -0.789465       -21.4824
 149   2.0000      -0.782148       -21.2833
 150   2.0000      -0.775888       -21.1130
 151   2.0000      -0.769018       -20.9260
 152   2.0000      -0.767399       -20.8820
 153   2.0000      -0.759318       -20.6621
 154   2.0000      -0.753702       -20.5093
 155   2.0000      -0.736494       -20.0410
 156   2.0000      -0.730824       -19.8867
 157   2.0000      -0.727795       -19.8043
 158   2.0000      -0.721495       -19.6329
 159   2.0000      -0.714386       -19.4394
 160   2.0000      -0.700109       -19.0509
 161   2.0000      -0.696893       -18.9634
 162   2.0000      -0.694968       -18.9110
 163   2.0000      -0.692582       -18.8461
 164   2.0000      -0.687904       -18.7188
 165   2.0000      -0.684654       -18.6304
 166   2.0000      -0.681729       -18.5508
 167   2.0000      -0.680265       -18.5110
 168   2.0000      -0.679527       -18.4909
 169   2.0000      -0.673722       -18.3329
 170   2.0000      -0.671649       -18.2765
 171   2.0000      -0.669308       -18.2128
 172   2.0000      -0.667538       -18.1646
 173   2.0000      -0.654619       -17.8131
 174   2.0000      -0.651508       -17.7284
 175   2.0000      -0.646910       -17.6033
 176   2.0000      -0.643516       -17.5110
 177   2.0000      -0.638749       -17.3812
 178   2.0000      -0.635605       -17.2957
 179   2.0000      -0.631314       -17.1789
 180   2.0000      -0.627182       -17.0665
 181   2.0000      -0.622207       -16.9311
 182   2.0000      -0.618350       -16.8262
 183   2.0000      -0.616692       -16.7810
 184   2.0000      -0.616380       -16.7726
 185   2.0000      -0.610517       -16.6130
 186   2.0000      -0.595374       -16.2009
 187   2.0000      -0.592407       -16.1202
 188   2.0000      -0.590188       -16.0598
 189   2.0000      -0.587729       -15.9929
 190   2.0000      -0.585171       -15.9233
 191   2.0000      -0.578968       -15.7545
 192   2.0000      -0.574059       -15.6209
 193   2.0000      -0.571255       -15.5446
 194   2.0000      -0.570259       -15.5175
 195   2.0000      -0.566259       -15.4087
 196   2.0000      -0.563395       -15.3307
 197   2.0000      -0.562594       -15.3090
 198   2.0000      -0.562280       -15.3004
 199   2.0000      -0.562102       -15.2956
 200   2.0000      -0.560139       -15.2421
 201   2.0000      -0.557495       -15.1702
 202   2.0000      -0.556129       -15.1330
 203   2.0000      -0.554692       -15.0939
 204   2.0000      -0.554400       -15.0860
 205   2.0000      -0.551144       -14.9974
 206   2.0000      -0.549028       -14.9398
 207   2.0000      -0.548071       -14.9138
 208   2.0000      -0.546132       -14.8610
 209   2.0000      -0.545297       -14.8383
 210   2.0000      -0.544774       -14.8240
 211   2.0000      -0.542736       -14.7686
 212   2.0000      -0.539733       -14.6869
 213   2.0000      -0.538236       -14.6462
 214   2.0000      -0.534538       -14.5455
 215   2.0000      -0.532724       -14.4962
 216   2.0000      -0.528429       -14.3793
 217   2.0000      -0.526001       -14.3132
 218   2.0000      -0.522928       -14.2296
 219   2.0000      -0.520319       -14.1586
 220   2.0000      -0.516058       -14.0427
 221   2.0000      -0.515910       -14.0386
 222   2.0000      -0.515159       -14.0182
 223   2.0000      -0.511069       -13.9069
 224   2.0000      -0.509542       -13.8653
 225   2.0000      -0.508968       -13.8497
 226   2.0000      -0.507221       -13.8022
 227   2.0000      -0.506226       -13.7751
 228   2.0000      -0.499478       -13.5915
 229   2.0000      -0.497467       -13.5368
 230   2.0000      -0.496699       -13.5159
 231   2.0000      -0.495404       -13.4806
 232   2.0000      -0.492670       -13.4062
 233   2.0000      -0.490181       -13.3385
 234   2.0000      -0.487915       -13.2769
 235   2.0000      -0.487176       -13.2567
 236   2.0000      -0.487121       -13.2552
 237   2.0000      -0.485562       -13.2128
 238   2.0000      -0.482398       -13.1267
 239   2.0000      -0.479166       -13.0388
 240   2.0000      -0.476737       -12.9727
 241   2.0000      -0.474804       -12.9201
 242   2.0000      -0.474256       -12.9052
 243   2.0000      -0.471745       -12.8368
 244   2.0000      -0.468863       -12.7584
 245   2.0000      -0.468180       -12.7398
 246   2.0000      -0.466239       -12.6870
 247   2.0000      -0.464812       -12.6482
 248   2.0000      -0.460825       -12.5397
 249   2.0000      -0.458748       -12.4832
 250   2.0000      -0.454611       -12.3706
 251   2.0000      -0.453499       -12.3403
 252   2.0000      -0.452565       -12.3149
 253   2.0000      -0.451831       -12.2950
 254   2.0000      -0.448944       -12.2164
 255   2.0000      -0.448056       -12.1922
 256   2.0000      -0.445463       -12.1217
 257   2.0000      -0.443984       -12.0814
 258   2.0000      -0.440891       -11.9972
 259   2.0000      -0.438728       -11.9384
 260   2.0000      -0.437520       -11.9055
 261   2.0000      -0.431071       -11.7300
 262   2.0000      -0.429552       -11.6887
 263   2.0000      -0.428718       -11.6660
 264   2.0000      -0.428433       -11.6582
 265   2.0000      -0.428185       -11.6515
 266   2.0000      -0.427805       -11.6412
 267   2.0000      -0.426562       -11.6073
 268   2.0000      -0.426326       -11.6009
 269   2.0000      -0.425469       -11.5776
 270   2.0000      -0.423734       -11.5304
 271   2.0000      -0.416732       -11.3398
 272   2.0000      -0.413098       -11.2410
 273   2.0000      -0.410507       -11.1705
 274   2.0000      -0.407951       -11.1009
 275   2.0000      -0.406883       -11.0719
 276   2.0000      -0.402408       -10.9501
 277   2.0000      -0.390230       -10.6187
 278   2.0000      -0.381946       -10.3933
 279   2.0000      -0.380823       -10.3627
 280   2.0000      -0.378116       -10.2891
 281   2.0000      -0.362054        -9.8520
 282   2.0000      -0.351593        -9.5673
 283   2.0000      -0.348553        -9.4846
 284   2.0000      -0.343976        -9.3600
 285   2.0000      -0.342039        -9.3074
 286   2.0000      -0.341226        -9.2852
 287   2.0000      -0.337601        -9.1866
 288   2.0000      -0.334234        -9.0950
 289   2.0000      -0.318091        -8.6557
 290   2.0000      -0.317218        -8.6319
 291   2.0000      -0.310613        -8.4522
 292   2.0000      -0.310192        -8.4407
 293   2.0000      -0.309313        -8.4168
 294   2.0000      -0.292434        -7.9575
 295   2.0000      -0.281319        -7.6551
 296   2.0000      -0.271682        -7.3929
 297   2.0000      -0.237314        -6.4576
 298   0.0000      -0.140045        -3.8108
 299   0.0000      -0.118591        -3.2270
 300   0.0000      -0.086255        -2.3471
 301   0.0000      -0.076826        -2.0905
 302   0.0000      -0.069528        -1.8919

MULLIKEN ATOMIC CHARGES
-----------------------
   0 C :    0.306971
   1 C :   -0.350847
   2 C :   -0.189829
   3 N :    0.155867
   4 C :   -0.197833
   5 N :    0.165178
   6 C :    0.035284
   7 C :   -0.015845
   8 C :   -0.033428
   9 C :    0.062851
  10 C :    0.048818
  11 C :   -0.016254
  12 Cl:   -0.035291
  13 Cl:   -0.042934
  14 C :    0.153984
  15 O :   -0.141274
  16 C :   -0.071345
  17 C :   -0.031893
  18 C :    0.072431
  19 C :   -0.061705
  20 C :    0.013253
  21 C :    0.251179
  22 C :   -0.066589
  23 F :   -0.178908
  24 C :    0.025461
  25 C :   -0.089116
  26 C :    0.103870
  27 C :   -0.075603
  28 C :    0.264466
  29 F :   -0.166104
  30 C :    0.015339
  31 C :    0.042224
  32 C :   -0.150859
  33 S :    0.172059
  34 C :   -0.119706
  35 C :    0.101429
  36 C :    0.128161
  37 C :   -0.143298
  38 C :    0.515965
  39 F :   -0.149310
  40 F :   -0.166317
  41 F :   -0.167116
  42 C :    0.012579
  43 C :   -0.102369
  44 C :    0.198961
  45 O :   -0.309427
  46 C :    0.173555
  47 C :    0.005034
  48 C :   -0.009866
  49 C :    0.119674
  50 C :   -0.089420
  51 C :    0.023895
  52 C :    0.259925
  53 C :   -0.079217
  54 F :   -0.171407
  55 C :    0.003175
  56 C :   -0.063976
  57 C :    0.100127
  58 C :   -0.073752
  59 C :    0.254791
  60 F :   -0.176359
  61 C :    0.028870
  62 C :   -0.009314
  63 C :   -0.028519
  64 C :   -0.073525
  65 C :    0.326950
  66 C :   -0.347131
  67 C :   -0.190580
  68 N :    0.157294
  69 C :   -0.191079
  70 N :    0.149992
  71 C :    0.031904
  72 C :   -0.015931
  73 C :    0.149108
  74 O :   -0.147675
  75 C :   -0.030124
  76 C :    0.063254
  77 C :    0.045195
  78 C :   -0.013913
  79 Cl:   -0.034738
  80 Cl:   -0.043496
  81 H :   -0.000172
  82 H :    0.000939
  83 H :    0.010999
  84 H :    0.010717
  85 H :    0.005150
  86 H :   -0.005247
  87 H :   -0.011360
  88 H :   -0.001799
  89 H :   -0.006973
  90 H :    0.012413
  91 H :   -0.016491
  92 H :    0.039348
  93 H :    0.038668
  94 H :    0.047292
  95 H :    0.008930
  96 H :   -0.007851
  97 H :   -0.010803
  98 H :   -0.019586
  99 H :   -0.005727
 100 H :   -0.003234
 101 H :    0.003931
 102 H :    0.027578
 103 H :    0.009903
 104 H :   -0.001610
 105 H :   -0.000866
Sum of atomic charges:   -0.0000000

LOEWDIN ATOMIC CHARGES
----------------------
   0 C :    0.074403
   1 C :   -0.135445
   2 C :   -0.019357
   3 N :   -0.048145
   4 C :   -0.025257
   5 N :   -0.046247
   6 C :   -0.013927
   7 C :   -0.043405
   8 C :    0.000487
   9 C :   -0.134513
  10 C :   -0.130335
  11 C :   -0.013030
  12 Cl:    0.161753
  13 Cl:    0.158658
  14 C :    0.086811
  15 O :   -0.131370
  16 C :   -0.097190
  17 C :    0.074305
  18 C :   -0.026517
  19 C :    0.011588
  20 C :   -0.019346
  21 C :    0.065751
  22 C :   -0.046127
  23 F :   -0.055187
  24 C :    0.024132
  25 C :   -0.055561
  26 C :    0.017580
  27 C :   -0.055886
  28 C :    0.087848
  29 F :   -0.043207
  30 C :   -0.011532
  31 C :   -0.026432
  32 C :   -0.165668
  33 S :    0.498400
  34 C :   -0.154664
  35 C :   -0.051019
  36 C :   -0.024992
  37 C :   -0.105510
  38 C :    0.171457
  39 F :   -0.044688
  40 F :   -0.062719
  41 F :   -0.063706
  42 C :    0.023485
  43 C :   -0.084778
  44 C :    0.082483
  45 O :   -0.079914
  46 C :    0.084218
  47 C :   -0.022607
  48 C :   -0.018957
  49 C :    0.010931
  50 C :   -0.059709
  51 C :    0.012389
  52 C :    0.087211
  53 C :   -0.058893
  54 F :   -0.047761
  55 C :   -0.014069
  56 C :   -0.020417
  57 C :   -0.018200
  58 C :   -0.053291
  59 C :    0.077909
  60 F :   -0.052522
  61 C :    0.040908
  62 C :   -0.030480
  63 C :    0.069231
  64 C :   -0.098050
  65 C :    0.073210
  66 C :   -0.136261
  67 C :   -0.020379
  68 N :   -0.048118
  69 C :   -0.019778
  70 N :   -0.050138
  71 C :   -0.013135
  72 C :   -0.043403
  73 C :    0.084900
  74 O :   -0.141791
  75 C :    0.000204
  76 C :   -0.134465
  77 C :   -0.130692
  78 C :   -0.012818
  79 Cl:    0.161982
  80 Cl:    0.158838
  81 H :    0.045650
  82 H :    0.044256
  83 H :    0.048982
  84 H :    0.031688
  85 H :    0.031925
  86 H :    0.028016
  87 H :    0.030897
  88 H :    0.031680
  89 H :    0.031188
  90 H :    0.040879
  91 H :    0.033993
  92 H :    0.023110
  93 H :    0.022826
  94 H :    0.032892
  95 H :    0.034340
  96 H :    0.025973
  97 H :    0.025658
  98 H :    0.029068
  99 H :    0.027029
 100 H :    0.035590
 101 H :    0.039747
 102 H :    0.033040
 103 H :    0.042327
 104 H :    0.045512
 105 H :    0.044274

  Mayer bond orders larger than 0.100000
B(  0-C ,  1-C ) :   1.6291 B(  0-C ,  6-C ) :   0.9873 B(  0-C , 16-C ) :   1.0809
B(  1-C ,  2-C ) :   1.1457 B(  1-C ,  4-C ) :   1.1406 B(  2-C ,  3-N ) :   2.9718
B(  4-C ,  5-N ) :   2.9871 B(  6-C ,  7-C ) :   1.3316 B(  6-C , 11-C ) :   1.3389
B(  7-C ,  8-C ) :   1.3455 B(  7-C , 14-C ) :   0.9502 B(  8-C ,  9-C ) :   1.3406
B(  8-C , 81-H ) :   1.0174 B(  9-C , 10-C ) :   1.4040 B(  9-C , 13-Cl) :   1.0473
B( 10-C , 11-C ) :   1.3609 B( 10-C , 12-Cl) :   1.0770 B( 11-C , 82-H ) :   0.9869
B( 14-C , 15-O ) :   2.2027 B( 14-C , 16-C ) :   0.9313 B( 16-C , 17-C ) :   1.5189
B( 17-C , 18-C ) :   1.1933 B( 17-C , 83-H ) :   0.9415 B( 18-C , 19-C ) :   1.4476
B( 18-C , 22-C ) :   1.0416 B( 19-C , 20-C ) :   1.1098 B( 19-C , 84-H ) :   1.0209
B( 20-C , 21-C ) :   1.0413 B( 20-C , 24-C ) :   1.4236 B( 21-C , 22-C ) :   1.6209
B( 21-C , 23-F ) :   1.1223 B( 22-C , 85-H ) :   1.0108 B( 24-C , 25-C ) :   1.1587
B( 24-C , 28-C ) :   1.0028 B( 25-C , 26-C ) :   1.4533 B( 25-C , 86-H ) :   1.0260
B( 26-C , 27-C ) :   1.0022 B( 26-C , 30-C ) :   1.2301 B( 27-C , 28-C ) :   1.6842
B( 27-C , 87-H ) :   1.0122 B( 28-C , 29-F ) :   1.1355 B( 30-C , 31-C ) :   1.5604
B( 30-C , 88-H ) :   0.9546 B( 31-C , 32-C ) :   1.1837 B( 31-C , 89-H ) :   0.9487
B( 32-C , 33-S ) :   1.1474 B( 32-C , 36-C ) :   1.2893 B( 33-S , 34-C ) :   1.1469
B( 34-C , 35-C ) :   1.2778 B( 34-C , 47-C ) :   1.2389 B( 35-C , 36-C ) :   1.2627
B( 35-C , 44-C ) :   1.1970 B( 36-C , 37-C ) :   1.2450 B( 37-C , 38-C ) :   0.9612
B( 37-C , 42-C ) :   1.5044 B( 38-C , 39-F ) :   1.1532 B( 38-C , 40-F ) :   1.1538
B( 38-C , 41-F ) :   1.1395 B( 42-C , 43-C ) :   1.2386 B( 42-C , 90-H ) :   0.9865
B( 43-C , 44-C ) :   1.4066 B( 43-C , 91-H ) :   0.9950 B( 44-C , 45-O ) :   1.1859
B( 45-O , 46-C ) :   0.9374 B( 46-C , 92-H ) :   0.9704 B( 46-C , 93-H ) :   0.9704
B( 46-C , 94-H ) :   0.9783 B( 47-C , 48-C ) :   1.5009 B( 47-C , 95-H ) :   0.9637
B( 48-C , 49-C ) :   1.2052 B( 48-C , 96-H ) :   0.9765 B( 49-C , 50-C ) :   1.4452
B( 49-C , 53-C ) :   1.0113 B( 50-C , 51-C ) :   1.1656 B( 50-C , 97-H ) :   1.0237
B( 51-C , 52-C ) :   1.0091 B( 51-C , 55-C ) :   1.4178 B( 52-C , 53-C ) :   1.6765
B( 52-C , 54-F ) :   1.1305 B( 53-C , 98-H ) :   1.0125 B( 55-C , 56-C ) :   1.1335
B( 55-C , 59-C ) :   1.0349 B( 56-C , 57-C ) :   1.4711 B( 56-C , 99-H ) :   1.0215
B( 57-C , 58-C ) :   1.0297 B( 57-C , 61-C ) :   1.1373 B( 58-C , 59-C ) :   1.6542
B( 58-C ,100-H ) :   1.0158 B( 59-C , 60-F ) :   1.1253 B( 61-C , 62-C ) :   1.5101
B( 61-C ,101-H ) :   0.9906 B( 62-C , 63-C ) :   1.1840 B( 62-C ,102-H ) :   0.9798
B( 63-C , 64-C ) :   1.5088 B( 63-C ,103-H ) :   0.9624 B( 64-C , 65-C ) :   1.0765
B( 64-C , 73-C ) :   0.9519 B( 65-C , 66-C ) :   1.6281 B( 65-C , 71-C ) :   0.9883
B( 66-C , 67-C ) :   1.1405 B( 66-C , 69-C ) :   1.1494 B( 67-C , 68-N ) :   2.9709
B( 69-C , 70-N ) :   2.9616 B( 71-C , 72-C ) :   1.3300 B( 71-C , 78-C ) :   1.3411
B( 72-C , 73-C ) :   0.9429 B( 72-C , 75-C ) :   1.3482 B( 73-C , 74-O ) :   2.2004
B( 75-C , 76-C ) :   1.3386 B( 75-C ,104-H ) :   1.0167 B( 76-C , 77-C ) :   1.4077
B( 76-C , 80-Cl) :   1.0461 B( 77-C , 78-C ) :   1.3592 B( 77-C , 79-Cl) :   1.0776
B( 78-C ,105-H ) :   0.9862

-----------------------------------------------------------------------------
         ABSORPTION SPECTRUM VIA TRANSITION ELECTRIC DIPOLE MOMENTS
-----------------------------------------------------------------------------
State   Energy  Wavelength   fosc         T2         TX        TY        TZ
        (cm-1)    (nm)                  (au**2)     (au)      (au)      (au)
-----------------------------------------------------------------------------
   0    8608.8   1161.6   2.078817702  79.49633  -4.88633   6.10563  -4.28268
   1   13053.6    766.1   0.258949445   6.53069  -1.68349  -1.45534  -1.25640
   2   15323.8    652.6   0.022194005   0.47681   0.53344   0.23115   0.37259
   3   15713.2    636.4   0.064145387   1.34393   0.89978  -0.55874   0.47131
   4   17691.5    565.2   0.003219697   0.05991   0.23978   0.04917   0.00095
   5   19366.9    516.3   0.345311754   5.86984  -0.88064   1.91835  -1.18922
   6   21340.2    468.6   0.075879114   1.17057  -0.75110   0.61932  -0.47209
   7   22495.1    444.5   0.439048242   6.42539  -1.93966   0.16837  -1.62319
   8   23514.5    425.3   0.476908862   6.67690  -0.50263   2.48655  -0.49126
   9   23873.7    418.9   0.010113439   0.13946   0.13545  -0.33945   0.07673
  10   24185.6    413.5   0.268962620   3.66109   1.07394  -1.40636   0.72794
  11   24620.9    406.2   0.021347154   0.28544   0.53175   0.02919   0.04281
  12   25816.4    387.3   0.024606999   0.31379   0.45695  -0.19296   0.26030
  13   26309.7    380.1   0.166252971   2.08032  -1.07784   0.85460  -0.43385
  14   26512.1    377.2   0.109912327   1.36483  -0.34709   1.10440  -0.15700
  15   26804.9    373.1   0.400303901   4.91645   2.12323   0.02513   0.63853
  16   26906.5    371.7   0.004475180   0.05476  -0.12749   0.19467   0.02460
  17   27339.3    365.8   0.024973974   0.30073   0.22957  -0.49656   0.03820
  18   27379.2    365.2   0.001032795   0.01242   0.10776  -0.02586   0.01172
  19   27663.7    361.5   0.028555985   0.33983   0.50388   0.08640   0.28013
  20   27991.0    357.3   0.045717666   0.53770   0.26751  -0.59912   0.32740
  21   28628.7    349.3   0.018488447   0.21261  -0.08004   0.36678   0.26771
  22   28958.8    345.3   0.040247435   0.45754   0.05304  -0.61508   0.27643
  23   29455.4    339.5   0.123456298   1.37982   0.96119  -0.50149   0.45215
  24   30627.2    326.5   0.020670145   0.22218  -0.40946   0.00552  -0.23344
  25   30998.4    322.6   0.029007946   0.30807  -0.32338   0.23317  -0.38617
  26   31447.9    318.0   0.087393666   0.91488   0.36477  -0.87613   0.11925
  27   31799.8    314.5   0.053029124   0.54899  -0.00884   0.73531  -0.09075
  28   31914.7    313.3   0.030156572   0.31108  -0.54465  -0.08465  -0.08526
  29   31947.8    313.0   0.038703482   0.39883   0.60522   0.13048   0.12457
  30   32200.4    310.6   0.013769779   0.14078   0.30456  -0.21077   0.06002
  31   32397.4    308.7   0.068290959   0.69395  -0.64130   0.35585  -0.39503
  32   32458.7    308.1   0.014243761   0.14447   0.33532  -0.06038   0.16848
  33   32556.0    307.2   0.013366792   0.13517  -0.20474   0.30512  -0.01233
  34   33099.5    302.1   0.043961400   0.43725   0.40738   0.51867  -0.04754
  35   33798.7    295.9   0.087300373   0.85034   0.80475  -0.23487   0.38412
  36   33923.0    294.8   0.092030773   0.89313  -0.91803  -0.00220  -0.22439
  37   33955.1    294.5   0.255932283   2.48139  -1.44531  -0.61947   0.09349
  38   34555.3    289.4   0.157584089   1.50132   1.01146   0.48281   0.49513
  39   34744.8    287.8   0.027087538   0.25666  -0.45387  -0.14698   0.17045
  40   35024.7    285.5   0.382718813   3.59734   1.81356  -0.15216   0.53401
  41   35320.7    283.1   0.260343831   2.42658   1.41256   0.28170   0.59321
  42   35430.8    282.2   0.140582237   1.30625  -0.70672  -0.86372   0.24655
  43   35502.2    281.7   0.180029057   1.66941   0.96054   0.82685  -0.25118
  44   35923.6    278.4   0.125660542   1.15158  -0.75579  -0.66284   0.37552
  45   35995.0    277.8   0.044341201   0.40555  -0.57968  -0.22838  -0.13176
  46   36452.7    274.3   0.064561494   0.58307  -0.16522  -0.64491   0.37398
  47   36513.5    273.9   0.009722769   0.08766   0.21959   0.15071  -0.12933
  48   36591.6    273.3   0.076463989   0.68794  -0.29215  -0.69773   0.34024
  49   36797.9    271.8   0.031172666   0.27889   0.39271   0.33967  -0.09636
  50   36994.3    270.3   0.014061734   0.12514  -0.09618  -0.34034  -0.00740
  51   37323.2    267.9   0.022928414   0.20224   0.44495  -0.04818   0.04401
  52   37423.1    267.2   0.000311420   0.00274   0.03270  -0.03860   0.01343
  53   37734.8    265.0   0.001155156   0.01008  -0.00775  -0.02158  -0.09774
  54   37880.5    264.0   0.005827046   0.05064  -0.13031   0.16302  -0.08416
  55   38923.8    256.9   0.038127212   0.32247   0.49537   0.15710   0.22893
  56   39130.8    255.6   0.057004880   0.47959   0.28726  -0.46128   0.42928
  57   39269.4    254.7   0.005636365   0.04725   0.02933  -0.14604  -0.15831
  58   39351.8    254.1   0.008044740   0.06730   0.23786   0.08939   0.05230
  59   39463.9    253.4   0.000201301   0.00168  -0.03737   0.01329   0.01029
  60   39613.6    252.4   0.001830624   0.01521  -0.04845  -0.10051   0.05258
  61   39968.1    250.2   0.225696431   1.85903   0.89093  -0.70100   0.75755
  62   40313.7    248.1   0.048236085   0.39391  -0.30915   0.52843  -0.13818

FINAL SINGLE POINT ENERGY     -5755.005701340756

DIPOLE MOMENT
-------------
                                X             Y             Z
Electronic contribution:      9.83673      46.18360     -16.91942
Nuclear contribution   :    -12.02408     -48.82254      15.77078
                        -----------------------------------------
Total Dipole Moment    :     -2.18735      -2.63894      -1.14864
                        -----------------------------------------
Magnitude (a.u.)       :      3.61495
Magnitude (Debye)      :      9.18847

Rotational constants in cm-1:     0.001230     0.000097     0.000092
Rotational constants in MHz :    36.882945     2.919125     2.743145

                             ****ORCA TERMINATED NORMALLY****
TOTAL RUN TIME: 0 days 0 hours 11 minutes 45 seconds 539 msec
