                         Program Version 4.2.0 -  RELEASE  -
|  1> # ORCA input file
|  2> # SCF done       -189.599830582509          0.000263043651
|  3> ! CAM-B3LYP def2-SVP def2/J RIJCOSX Grid4 TightSCF
|  4> %maxcore 5000
|  5> %tddft
|  6>     Mode sTDDFT
|  7>     Ethresh 5.0
|  8>     maxcore 5000
|  9> end
| 10>
| 11> %pal
| 12>   nprocs 6
| 13>   end
| 14> * xyz 0 1
| 15>    C        0.26308         1.31543         0.37559
| 16>    N       -0.20670         0.18786        -0.03749
| 17>    C        0.73312        -0.74730         0.26364
| 18>    C        1.79592        -0.18240         0.92100
| 19>    N        1.49822         1.17771         0.98005
| 20>    C        2.20906         2.23899         1.54964
| 21>    O        2.72408         2.21544         2.63196
| 22>    N        2.23240         3.37707         0.74911
| 23>    C        2.00598         3.52141        -0.60977
| 24>    C        2.22065         4.83173        -0.88640
| 25>    N        2.56700         5.50838         0.25296
| 26>    C        2.57987         4.63547         1.19934
| 27>    C        3.01799        -0.83659         1.36390
| 28>    C        3.56517        -1.80872         0.51399
| 29>    C        4.70360        -2.48588         0.88741
| 30>    C        5.31171        -2.18094         2.12011
| 31>    C        4.76319        -1.23841         2.97514
| 32>    C        3.61175        -0.57443         2.59801
| 33>    C        6.50750        -2.97944         2.26202
| 34>    C        6.63897        -3.78918         1.12282
| 35>    C        5.49690        -3.54667         0.15032
| 36>    C        6.12643        -3.00324        -1.15298
| 37>    C        5.18780        -2.75592        -2.32599
| 38>    C        4.73890        -4.88184        -0.04930
| 39>    C        3.24516        -4.78988        -0.33778
| 40>    C        7.70263        -4.64892         1.00195
| 41>    C        8.69495        -4.67540         1.99837
| 42>    C        8.53964        -3.86397         3.13432
| 43>    C        7.45226        -3.03077         3.27875
| 44>    C        9.85088        -5.50936         1.81113
| 45>    C       11.06158        -5.27937         2.38709
| 46>    C       12.24716        -6.01943         2.20549
| 47>    C       12.44068        -7.26080         1.64815
| 48>    C       13.71035        -7.86942         1.48727
| 49>    C       13.67245        -9.12929         0.97166
| 50>    C       12.36774        -9.59878         0.71160
| 51>    S       11.19171        -8.36973         1.10155
| 52>    C       12.01824       -10.86011         0.24740
| 53>    C       12.89897       -11.89393        -0.12938
| 54>    C       12.27704       -13.04911        -0.50755
| 55>    C       10.87103       -12.99809        -0.43813
| 56>    S       10.36686       -11.39924         0.09758
| 57>    C        9.88711       -13.95085        -0.62318
| 58>    C        9.92673       -15.29043        -1.03802
| 59>    C        8.72245       -16.05433        -0.86628
| 60>    C        8.62641       -17.44722        -1.22813
| 61>    N        7.50867       -18.14008        -0.92229
| 62>    C        6.50152       -17.51985        -0.35597
| 63>    C        6.56719       -16.11877        -0.08889
| 64>    N        7.66921       -15.44019        -0.33168
| 65>    C        5.45099       -15.44263         0.45608
| 66>    N        4.53549       -14.91451         0.89987
| 67>    C        5.32969       -18.23173        -0.00058
| 68>    N        4.35335       -18.74764         0.30485
| 69>    C        9.68479       -18.12140        -1.85702
| 70>    C       10.86698       -17.38182        -2.05181
| 71>    C       11.00016       -16.00017        -1.64446
| 72>    N       12.20086       -15.52354        -1.95818
| 73>    S       13.06955       -16.67188        -2.68013
| 74>    N       11.97351       -17.84257        -2.63375
| 75>    C        9.60370       -19.49628        -2.24498
| 76>    C       10.58971       -20.45236        -2.38283
| 77>    N       10.04146       -21.65364        -2.67730
| 78>    C        8.75733       -21.47047        -2.71539
| 79>    N        8.41257       -20.17188        -2.44444
| 80>    C        7.13635       -19.60774        -2.66769
| 81>    O        6.94032       -18.70398        -3.43603
| 82>    N        6.12240       -20.35995        -2.08787
| 83>    C        4.78689       -20.31546        -2.44488
| 84>    C        4.15388       -21.20272        -1.63866
| 85>    N        5.04832       -21.78344        -0.78031
| 86>    C        6.19877       -21.27311        -1.05696
| 87>    H       -0.24644         2.25650         0.31741
| 88>    H        0.57897        -1.77830         0.01719
| 89>    H        1.74728         2.69789        -1.24191
| 90>    H        2.15197         5.34199        -1.82558
| 91>    H        2.81068         4.82120         2.22855
| 92>    H        3.07664        -1.99621        -0.42780
| 93>    H        5.22440        -1.02535         3.92731
| 94>    H        3.17073         0.14587         3.26666
| 95>    H        6.88976        -3.71770        -1.47044
| 96>    H        6.63828        -2.06861        -0.90590
| 97>    H        4.68848        -3.67114        -2.63042
| 98>    H        5.76712        -2.39313        -3.17313
| 99>    H        4.44216        -2.00388        -2.08716
|100>    H        4.86073        -5.47065         0.86384
|101>    H        5.23013        -5.42985        -0.85591
|102>    H        2.72021        -4.32350         0.49211
|103>    H        2.84797        -5.79486        -0.46670
|104>    H        3.03787        -4.22779        -1.24296
|105>    H        7.81004        -5.28675         0.13640
|106>    H        9.27403        -3.91486         3.92341
|107>    H        7.34054        -2.42335         4.16414
|108>    H        9.74728        -6.31301         1.09457
|109>    H       11.17082        -4.39855         3.00601
|110>    H       13.15224        -5.54908         2.57182
|111>    H       14.61398        -7.35399         1.76108
|112>    H       14.54281        -9.73402         0.79408
|113>    H       13.96658       -11.76869        -0.11524
|114>    H       12.78447       -13.93722        -0.83231
|115>    H        8.88711       -13.62948        -0.35395
|116>    H       11.64690       -20.32747        -2.27458
|117>    H        8.03452       -22.22501        -2.95463
|118>    H        4.44716       -19.67262        -3.22931
|119>    H        3.11676       -21.46541        -1.60512
|120>    H        7.11289       -21.49960        -0.54613
|121> *
|122>
|123>                          ****END OF INPUT****

CARTESIAN COORDINATES (ANGSTROEM)
---------------------------------
  C      0.263080    1.315430    0.375590
  N     -0.206700    0.187860   -0.037490
  C      0.733120   -0.747300    0.263640
  C      1.795920   -0.182400    0.921000
  N      1.498220    1.177710    0.980050
  C      2.209060    2.238990    1.549640
  O      2.724080    2.215440    2.631960
  N      2.232400    3.377070    0.749110
  C      2.005980    3.521410   -0.609770
  C      2.220650    4.831730   -0.886400
  N      2.567000    5.508380    0.252960
  C      2.579870    4.635470    1.199340
  C      3.017990   -0.836590    1.363900
  C      3.565170   -1.808720    0.513990
  C      4.703600   -2.485880    0.887410
  C      5.311710   -2.180940    2.120110
  C      4.763190   -1.238410    2.975140
  C      3.611750   -0.574430    2.598010
  C      6.507500   -2.979440    2.262020
  C      6.638970   -3.789180    1.122820
  C      5.496900   -3.546670    0.150320
  C      6.126430   -3.003240   -1.152980
  C      5.187800   -2.755920   -2.325990
  C      4.738900   -4.881840   -0.049300
  C      3.245160   -4.789880   -0.337780
  C      7.702630   -4.648920    1.001950
  C      8.694950   -4.675400    1.998370
  C      8.539640   -3.863970    3.134320
  C      7.452260   -3.030770    3.278750
  C      9.850880   -5.509360    1.811130
  C     11.061580   -5.279370    2.387090
  C     12.247160   -6.019430    2.205490
  C     12.440680   -7.260800    1.648150
  C     13.710350   -7.869420    1.487270
  C     13.672450   -9.129290    0.971660
  C     12.367740   -9.598780    0.711600
  S     11.191710   -8.369730    1.101550
  C     12.018240  -10.860110    0.247400
  C     12.898970  -11.893930   -0.129380
  C     12.277040  -13.049110   -0.507550
  C     10.871030  -12.998090   -0.438130
  S     10.366860  -11.399240    0.097580
  C      9.887110  -13.950850   -0.623180
  C      9.926730  -15.290430   -1.038020
  C      8.722450  -16.054330   -0.866280
  C      8.626410  -17.447220   -1.228130
  N      7.508670  -18.140080   -0.922290
  C      6.501520  -17.519850   -0.355970
  C      6.567190  -16.118770   -0.088890
  N      7.669210  -15.440190   -0.331680
  C      5.450990  -15.442630    0.456080
  N      4.535490  -14.914510    0.899870
  C      5.329690  -18.231730   -0.000580
  N      4.353350  -18.747640    0.304850
  C      9.684790  -18.121400   -1.857020
  C     10.866980  -17.381820   -2.051810
  C     11.000160  -16.000170   -1.644460
  N     12.200860  -15.523540   -1.958180
  S     13.069550  -16.671880   -2.680130
  N     11.973510  -17.842570   -2.633750
  C      9.603700  -19.496280   -2.244980
  C     10.589710  -20.452360   -2.382830
  N     10.041460  -21.653640   -2.677300
  C      8.757330  -21.470470   -2.715390
  N      8.412570  -20.171880   -2.444440
  C      7.136350  -19.607740   -2.667690
  O      6.940320  -18.703980   -3.436030
  N      6.122400  -20.359950   -2.087870
  C      4.786890  -20.315460   -2.444880
  C      4.153880  -21.202720   -1.638660
  N      5.048320  -21.783440   -0.780310
  C      6.198770  -21.273110   -1.056960
  H     -0.246440    2.256500    0.317410
  H      0.578970   -1.778300    0.017190
  H      1.747280    2.697890   -1.241910
  H      2.151970    5.341990   -1.825580
  H      2.810680    4.821200    2.228550
  H      3.076640   -1.996210   -0.427800
  H      5.224400   -1.025350    3.927310
  H      3.170730    0.145870    3.266660
  H      6.889760   -3.717700   -1.470440
  H      6.638280   -2.068610   -0.905900
  H      4.688480   -3.671140   -2.630420
  H      5.767120   -2.393130   -3.173130
  H      4.442160   -2.003880   -2.087160
  H      4.860730   -5.470650    0.863840
  H      5.230130   -5.429850   -0.855910
  H      2.720210   -4.323500    0.492110
  H      2.847970   -5.794860   -0.466700
  H      3.037870   -4.227790   -1.242960
  H      7.810040   -5.286750    0.136400
  H      9.274030   -3.914860    3.923410
  H      7.340540   -2.423350    4.164140
  H      9.747280   -6.313010    1.094570
  H     11.170820   -4.398550    3.006010
  H     13.152240   -5.549080    2.571820
  H     14.613980   -7.353990    1.761080
  H     14.542810   -9.734020    0.794080
  H     13.966580  -11.768690   -0.115240
  H     12.784470  -13.937220   -0.832310
  H      8.887110  -13.629480   -0.353950
  H     11.646900  -20.327470   -2.274580
  H      8.034520  -22.225010   -2.954630
  H      4.447160  -19.672620   -3.229310
  H      3.116760  -21.465410   -1.605120
  H      7.112890  -21.499600   -0.546130

 Total Charge           Charge          ....    0
 Multiplicity           Mult            ....    1
 Number of Electrons    NEL             ....  514
 Basis Dimension        Dim             .... 1190

ORBITAL ENERGIES
----------------

  NO   OCC          E(Eh)            E(eV)
   0   2.0000     -89.036595     -2422.8089
   1   2.0000     -88.967910     -2420.9399
   2   2.0000     -88.960231     -2420.7310
   3   2.0000     -19.246272      -523.7177
   4   2.0000     -19.219422      -522.9871
   5   2.0000     -14.501211      -394.5980
   6   2.0000     -14.498422      -394.5221
   7   2.0000     -14.478751      -393.9869
   8   2.0000     -14.478209      -393.9721
   9   2.0000     -14.456485      -393.3810
  10   2.0000     -14.453225      -393.2923
  11   2.0000     -14.451389      -393.2423
  12   2.0000     -14.443755      -393.0346
  13   2.0000     -14.424322      -392.5058
  14   2.0000     -14.416451      -392.2916
  15   2.0000     -14.405237      -391.9864
  16   2.0000     -14.403551      -391.9405
  17   2.0000     -14.388847      -391.5404
  18   2.0000     -14.384219      -391.4145
  19   2.0000     -10.460756      -284.6516
  20   2.0000     -10.443346      -284.1779
  21   2.0000     -10.375779      -282.3393
  22   2.0000     -10.365434      -282.0578
  23   2.0000     -10.340596      -281.3819
  24   2.0000     -10.340567      -281.3811
  25   2.0000     -10.340548      -281.3806
  26   2.0000     -10.340047      -281.3670
  27   2.0000     -10.339489      -281.3518
  28   2.0000     -10.336335      -281.2660
  29   2.0000     -10.335721      -281.2493
  30   2.0000     -10.328754      -281.0597
  31   2.0000     -10.326730      -281.0046
  32   2.0000     -10.323437      -280.9150
  33   2.0000     -10.323140      -280.9069
  34   2.0000     -10.322056      -280.8774
  35   2.0000     -10.322006      -280.8761
  36   2.0000     -10.317624      -280.7568
  37   2.0000     -10.316539      -280.7273
  38   2.0000     -10.316334      -280.7217
  39   2.0000     -10.311389      -280.5872
  40   2.0000     -10.310657      -280.5672
  41   2.0000     -10.305745      -280.4336
  42   2.0000     -10.304012      -280.3864
  43   2.0000     -10.301729      -280.3243
  44   2.0000     -10.300966      -280.3035
  45   2.0000     -10.300889      -280.3014
  46   2.0000     -10.298648      -280.2405
  47   2.0000     -10.294446      -280.1261
  48   2.0000     -10.292310      -280.0680
  49   2.0000     -10.291955      -280.0583
  50   2.0000     -10.290756      -280.0257
  51   2.0000     -10.288379      -279.9610
  52   2.0000     -10.287676      -279.9419
  53   2.0000     -10.287632      -279.9407
  54   2.0000     -10.287451      -279.9358
  55   2.0000     -10.282966      -279.8137
  56   2.0000     -10.282315      -279.7960
  57   2.0000     -10.279427      -279.7174
  58   2.0000     -10.279185      -279.7108
  59   2.0000     -10.278811      -279.7007
  60   2.0000     -10.278589      -279.6946
  61   2.0000     -10.277665      -279.6695
  62   2.0000     -10.277466      -279.6641
  63   2.0000     -10.276593      -279.6403
  64   2.0000     -10.275740      -279.6171
  65   2.0000     -10.275344      -279.6063
  66   2.0000     -10.275004      -279.5971
  67   2.0000     -10.272412      -279.5265
  68   2.0000     -10.270562      -279.4762
  69   2.0000     -10.269289      -279.4415
  70   2.0000     -10.259355      -279.1712
  71   2.0000     -10.256068      -279.0818
  72   2.0000      -8.128001      -221.1741
  73   2.0000      -8.063728      -219.4252
  74   2.0000      -8.056504      -219.2286
  75   2.0000      -6.099157      -165.9665
  76   2.0000      -6.091452      -165.7568
  77   2.0000      -6.090556      -165.7324
  78   2.0000      -6.033398      -164.1771
  79   2.0000      -6.029281      -164.0651
  80   2.0000      -6.026101      -163.9785
  81   2.0000      -6.024887      -163.9455
  82   2.0000      -6.022024      -163.8676
  83   2.0000      -6.017732      -163.7508
  84   2.0000      -1.203801       -32.7571
  85   2.0000      -1.180870       -32.1331
  86   2.0000      -1.135643       -30.9024
  87   2.0000      -1.128887       -30.7186
  88   2.0000      -1.128041       -30.6955
  89   2.0000      -1.113422       -30.2977
  90   2.0000      -1.111399       -30.2427
  91   2.0000      -1.107516       -30.1370
  92   2.0000      -1.039300       -28.2808
  93   2.0000      -1.013230       -27.5714
  94   2.0000      -1.012022       -27.5385
  95   2.0000      -1.006334       -27.3837
  96   2.0000      -0.995188       -27.0805
  97   2.0000      -0.993944       -27.0466
  98   2.0000      -0.992468       -27.0064
  99   2.0000      -0.990922       -26.9644
 100   2.0000      -0.986713       -26.8498
 101   2.0000      -0.981359       -26.7041
 102   2.0000      -0.971434       -26.4341
 103   2.0000      -0.961259       -26.1572
 104   2.0000      -0.954695       -25.9786
 105   2.0000      -0.930536       -25.3212
 106   2.0000      -0.915787       -24.9198
 107   2.0000      -0.904836       -24.6218
 108   2.0000      -0.900523       -24.5045
 109   2.0000      -0.893750       -24.3202
 110   2.0000      -0.880508       -23.9598
 111   2.0000      -0.865428       -23.5495
 112   2.0000      -0.860580       -23.4176
 113   2.0000      -0.856254       -23.2999
 114   2.0000      -0.848939       -23.1008
 115   2.0000      -0.844720       -22.9860
 116   2.0000      -0.840953       -22.8835
 117   2.0000      -0.840013       -22.8579
 118   2.0000      -0.836659       -22.7667
 119   2.0000      -0.833506       -22.6809
 120   2.0000      -0.828753       -22.5515
 121   2.0000      -0.822336       -22.3769
 122   2.0000      -0.810555       -22.0563
 123   2.0000      -0.794820       -21.6281
 124   2.0000      -0.791192       -21.5294
 125   2.0000      -0.778313       -21.1790
 126   2.0000      -0.775579       -21.1046
 127   2.0000      -0.772759       -21.0278
 128   2.0000      -0.756725       -20.5915
 129   2.0000      -0.735272       -20.0078
 130   2.0000      -0.734796       -19.9948
 131   2.0000      -0.726946       -19.7812
 132   2.0000      -0.720202       -19.5977
 133   2.0000      -0.716097       -19.4860
 134   2.0000      -0.709848       -19.3159
 135   2.0000      -0.706232       -19.2175
 136   2.0000      -0.702545       -19.1172
 137   2.0000      -0.699576       -19.0364
 138   2.0000      -0.697029       -18.9671
 139   2.0000      -0.690033       -18.7767
 140   2.0000      -0.687764       -18.7150
 141   2.0000      -0.684664       -18.6306
 142   2.0000      -0.675152       -18.3718
 143   2.0000      -0.670309       -18.2400
 144   2.0000      -0.669409       -18.2155
 145   2.0000      -0.667514       -18.1640
 146   2.0000      -0.661886       -18.0108
 147   2.0000      -0.658711       -17.9244
 148   2.0000      -0.648487       -17.6462
 149   2.0000      -0.644441       -17.5361
 150   2.0000      -0.643277       -17.5045
 151   2.0000      -0.637408       -17.3448
 152   2.0000      -0.634565       -17.2674
 153   2.0000      -0.623640       -16.9701
 154   2.0000      -0.617081       -16.7916
 155   2.0000      -0.606934       -16.5155
 156   2.0000      -0.601733       -16.3740
 157   2.0000      -0.599537       -16.3142
 158   2.0000      -0.591125       -16.0853
 159   2.0000      -0.588463       -16.0129
 160   2.0000      -0.584809       -15.9135
 161   2.0000      -0.581620       -15.8267
 162   2.0000      -0.578952       -15.7541
 163   2.0000      -0.572382       -15.5753
 164   2.0000      -0.568373       -15.4662
 165   2.0000      -0.563124       -15.3234
 166   2.0000      -0.561161       -15.2700
 167   2.0000      -0.557715       -15.1762
 168   2.0000      -0.552525       -15.0350
 169   2.0000      -0.551759       -15.0141
 170   2.0000      -0.548408       -14.9229
 171   2.0000      -0.546712       -14.8768
 172   2.0000      -0.545260       -14.8373
 173   2.0000      -0.542143       -14.7525
 174   2.0000      -0.539434       -14.6787
 175   2.0000      -0.538197       -14.6451
 176   2.0000      -0.535114       -14.5612
 177   2.0000      -0.532617       -14.4932
 178   2.0000      -0.530024       -14.4227
 179   2.0000      -0.528369       -14.3776
 180   2.0000      -0.525205       -14.2916
 181   2.0000      -0.524869       -14.2824
 182   2.0000      -0.521309       -14.1855
 183   2.0000      -0.519838       -14.1455
 184   2.0000      -0.514136       -13.9904
 185   2.0000      -0.513244       -13.9661
 186   2.0000      -0.509556       -13.8657
 187   2.0000      -0.508135       -13.8270
 188   2.0000      -0.505286       -13.7495
 189   2.0000      -0.504935       -13.7400
 190   2.0000      -0.502525       -13.6744
 191   2.0000      -0.501359       -13.6427
 192   2.0000      -0.494789       -13.4639
 193   2.0000      -0.491488       -13.3741
 194   2.0000      -0.490176       -13.3384
 195   2.0000      -0.488870       -13.3028
 196   2.0000      -0.485327       -13.2064
 197   2.0000      -0.483837       -13.1659
 198   2.0000      -0.482591       -13.1320
 199   2.0000      -0.481600       -13.1050
 200   2.0000      -0.480988       -13.0883
 201   2.0000      -0.476822       -12.9750
 202   2.0000      -0.473418       -12.8824
 203   2.0000      -0.470974       -12.8158
 204   2.0000      -0.467155       -12.7119
 205   2.0000      -0.460496       -12.5307
 206   2.0000      -0.459307       -12.4984
 207   2.0000      -0.456135       -12.4121
 208   2.0000      -0.455337       -12.3903
 209   2.0000      -0.450349       -12.2546
 210   2.0000      -0.449113       -12.2210
 211   2.0000      -0.443766       -12.0755
 212   2.0000      -0.443671       -12.0729
 213   2.0000      -0.442985       -12.0542
 214   2.0000      -0.440426       -11.9846
 215   2.0000      -0.438807       -11.9405
 216   2.0000      -0.433314       -11.7911
 217   2.0000      -0.430987       -11.7278
 218   2.0000      -0.429752       -11.6941
 219   2.0000      -0.428317       -11.6551
 220   2.0000      -0.424837       -11.5604
 221   2.0000      -0.419722       -11.4212
 222   2.0000      -0.415348       -11.3022
 223   2.0000      -0.412681       -11.2296
 224   2.0000      -0.410265       -11.1639
 225   2.0000      -0.408074       -11.1043
 226   2.0000      -0.405480       -11.0337
 227   2.0000      -0.398479       -10.8432
 228   2.0000      -0.396148       -10.7797
 229   2.0000      -0.393654       -10.7119
 230   2.0000      -0.390047       -10.6137
 231   2.0000      -0.387957       -10.5568
 232   2.0000      -0.384573       -10.4648
 233   2.0000      -0.381914       -10.3924
 234   2.0000      -0.379048       -10.3144
 235   2.0000      -0.374455       -10.1894
 236   2.0000      -0.367068        -9.9884
 237   2.0000      -0.362282        -9.8582
 238   2.0000      -0.359029        -9.7697
 239   2.0000      -0.358363        -9.7515
 240   2.0000      -0.356192        -9.6925
 241   2.0000      -0.352548        -9.5933
 242   2.0000      -0.352164        -9.5829
 243   2.0000      -0.344693        -9.3796
 244   2.0000      -0.342507        -9.3201
 245   2.0000      -0.341891        -9.3033
 246   2.0000      -0.336856        -9.1663
 247   2.0000      -0.335378        -9.1261
 248   2.0000      -0.328534        -8.9399
 249   2.0000      -0.326018        -8.8714
 250   2.0000      -0.322342        -8.7714
 251   2.0000      -0.320794        -8.7292
 252   2.0000      -0.307195        -8.3592
 253   2.0000      -0.300725        -8.1831
 254   2.0000      -0.282305        -7.6819
 255   2.0000      -0.262408        -7.1405
 256   2.0000      -0.215565        -5.8658
 257   0.0000      -0.126141        -3.4325
 258   0.0000      -0.078550        -2.1375
 259   0.0000      -0.042634        -1.1601
 260   0.0000      -0.036848        -1.0027
 261   0.0000      -0.031520        -0.8577

MULLIKEN ATOMIC CHARGES
-----------------------
   0 C :    0.077697
   1 N :   -0.086340
   2 C :   -0.046020
   3 C :    0.105360
   4 N :   -0.199575
   5 C :    0.246581
   6 O :   -0.146741
   7 N :   -0.188706
   8 C :    0.051566
   9 C :    0.018882
  10 N :   -0.108982
  11 C :    0.111409
  12 C :    0.055113
  13 C :   -0.112724
  14 C :    0.043973
  15 C :    0.101172
  16 C :   -0.060345
  17 C :    0.007261
  18 C :    0.100541
  19 C :    0.018652
  20 C :   -0.117459
  21 C :    0.059228
  22 C :    0.038678
  23 C :    0.064672
  24 C :    0.017204
  25 C :   -0.098297
  26 C :    0.106601
  27 C :   -0.013059
  28 C :   -0.042087
  29 C :   -0.003552
  30 C :    0.007160
  31 C :    0.011956
  32 C :   -0.038435
  33 C :    0.050008
  34 C :    0.020216
  35 C :   -0.025821
  36 S :    0.099483
  37 C :   -0.050207
  38 C :    0.010691
  39 C :    0.050068
  40 C :   -0.049025
  41 S :    0.117821
  42 C :   -0.054965
  43 C :    0.103211
  44 C :   -0.073019
  45 C :   -0.015010
  46 N :   -0.025992
  47 C :   -0.058193
  48 C :   -0.161982
  49 N :    0.059441
  50 C :   -0.220190
  51 N :    0.231193
  52 C :   -0.243399
  53 N :    0.255233
  54 C :    0.167415
  55 C :   -0.030871
  56 C :    0.027656
  57 N :   -0.304357
  58 S :    0.524885
  59 N :   -0.269437
  60 C :   -0.009011
  61 C :   -0.023229
  62 N :   -0.090939
  63 C :    0.089937
  64 N :   -0.190687
  65 C :    0.225533
  66 O :   -0.153029
  67 N :   -0.182030
  68 C :    0.077449
  69 C :    0.030867
  70 N :   -0.108889
  71 C :    0.082460
  72 H :    0.040266
  73 H :   -0.001864
  74 H :    0.043421
  75 H :    0.010673
  76 H :    0.037157
  77 H :   -0.034120
  78 H :   -0.032163
  79 H :   -0.002606
  80 H :   -0.003127
  81 H :    0.005525
  82 H :    0.014240
  83 H :    0.013552
  84 H :    0.010466
  85 H :    0.012302
  86 H :   -0.000680
  87 H :    0.030742
  88 H :    0.015674
  89 H :    0.004200
  90 H :   -0.035041
  91 H :   -0.021170
  92 H :   -0.032348
  93 H :    0.002673
  94 H :   -0.006490
  95 H :   -0.003735
  96 H :   -0.004557
  97 H :   -0.007417
  98 H :   -0.010823
  99 H :   -0.009272
 100 H :    0.007568
 101 H :   -0.009887
 102 H :    0.038756
 103 H :    0.020663
 104 H :    0.005248
 105 H :    0.037502
Sum of atomic charges:   -0.0000000

LOEWDIN ATOMIC CHARGES
----------------------
   0 C :    0.023453
   1 N :   -0.088199
   2 C :   -0.034866
   3 C :   -0.001373
   4 N :    0.020577
   5 C :    0.124649
   6 O :   -0.122883
   7 N :    0.025293
   8 C :   -0.023435
   9 C :   -0.022708
  10 N :   -0.090808
  11 C :    0.048431
  12 C :   -0.041486
  13 C :   -0.013735
  14 C :    0.002482
  15 C :   -0.013252
  16 C :   -0.018012
  17 C :   -0.010751
  18 C :   -0.011993
  19 C :    0.006701
  20 C :   -0.032276
  21 C :   -0.011408
  22 C :   -0.058238
  23 C :   -0.013901
  24 C :   -0.057043
  25 C :   -0.013795
  26 C :   -0.028900
  27 C :   -0.011933
  28 C :   -0.016110
  29 C :    0.007874
  30 C :   -0.047550
  31 C :   -0.025960
  32 C :   -0.155545
  33 C :   -0.011317
  34 C :   -0.043747
  35 C :   -0.152834
  36 S :    0.403166
  37 C :   -0.192328
  38 C :   -0.018460
  39 C :   -0.039758
  40 C :   -0.115135
  41 S :    0.403631
  42 C :   -0.054270
  43 C :   -0.016915
  44 C :   -0.007239
  45 C :    0.003363
  46 N :   -0.017285
  47 C :   -0.011666
  48 C :   -0.046884
  49 N :    0.006880
  50 C :   -0.038756
  51 N :   -0.019328
  52 C :   -0.039414
  53 N :    0.006006
  54 C :   -0.059705
  55 C :   -0.032068
  56 C :   -0.041299
  57 N :   -0.268148
  58 S :    0.651476
  59 N :   -0.281977
  60 C :   -0.012729
  61 C :   -0.011699
  62 N :   -0.097104
  63 C :    0.033941
  64 N :    0.029438
  65 C :    0.113898
  66 O :   -0.156540
  67 N :    0.030270
  68 C :   -0.009721
  69 C :   -0.018895
  70 N :   -0.089632
  71 C :    0.022948
  72 H :    0.023256
  73 H :    0.023135
  74 H :    0.032247
  75 H :    0.025565
  76 H :    0.027158
  77 H :    0.024317
  78 H :    0.028074
  79 H :    0.028649
  80 H :    0.020296
  81 H :    0.026356
  82 H :    0.022210
  83 H :    0.028904
  84 H :    0.021637
  85 H :    0.029259
  86 H :    0.021363
  87 H :    0.025365
  88 H :    0.029071
  89 H :    0.017192
  90 H :    0.025464
  91 H :    0.026950
  92 H :    0.028493
  93 H :    0.017221
  94 H :    0.031428
  95 H :    0.039124
  96 H :    0.036965
  97 H :    0.034002
  98 H :    0.032909
  99 H :    0.024548
 100 H :    0.034964
 101 H :    0.020266
 102 H :    0.023769
 103 H :    0.030433
 104 H :    0.023714
 105 H :    0.022231

  Mayer bond orders larger than 0.100000
B(  0-C ,  1-N ) :   1.7469 B(  0-C ,  4-N ) :   1.0897 B(  0-C , 72-H ) :   0.9740
B(  1-N ,  2-C ) :   1.3576 B(  2-C ,  3-C ) :   1.5678 B(  2-C , 73-H ) :   1.0027
B(  3-C ,  4-N ) :   1.1016 B(  3-C , 12-C ) :   0.9622 B(  4-N ,  5-C ) :   0.9762
B(  5-C ,  6-O ) :   2.1566 B(  5-C ,  7-N ) :   1.0225 B(  7-N ,  8-C ) :   1.0789
B(  7-N , 11-C ) :   1.1051 B(  8-C ,  9-C ) :   1.6013 B(  8-C , 74-H ) :   0.9839
B(  9-C , 10-N ) :   1.3215 B(  9-C , 75-H ) :   1.0011 B( 10-N , 11-C ) :   1.7596
B( 11-C , 76-H ) :   0.9820 B( 12-C , 13-C ) :   1.3338 B( 12-C , 17-C ) :   1.3751
B( 13-C , 14-C ) :   1.3734 B( 13-C , 77-H ) :   1.0001 B( 14-C , 15-C ) :   1.3909
B( 14-C , 20-C ) :   0.9317 B( 15-C , 16-C ) :   1.3389 B( 15-C , 18-C ) :   0.9982
B( 16-C , 17-C ) :   1.3667 B( 16-C , 78-H ) :   0.9941 B( 17-C , 79-H ) :   0.9818
B( 18-C , 19-C ) :   1.3860 B( 18-C , 28-C ) :   1.3235 B( 19-C , 20-C ) :   0.9336
B( 19-C , 25-C ) :   1.3931 B( 20-C , 21-C ) :   1.0174 B( 20-C , 23-C ) :   0.9956
B( 21-C , 22-C ) :   1.1147 B( 21-C , 80-H ) :   0.9358 B( 21-C , 81-H ) :   0.9417
B( 22-C , 82-H ) :   0.9582 B( 22-C , 83-H ) :   0.9577 B( 22-C , 84-H ) :   0.9640
B( 23-C , 24-C ) :   1.1302 B( 23-C , 85-H ) :   0.9396 B( 23-C , 86-H ) :   0.9359
B( 24-C , 87-H ) :   0.9563 B( 24-C , 88-H ) :   0.9577 B( 24-C , 89-H ) :   0.9619
B( 25-C , 26-C ) :   1.2817 B( 25-C , 90-H ) :   1.0052 B( 26-C , 27-C ) :   1.3365
B( 26-C , 29-C ) :   1.0980 B( 27-C , 28-C ) :   1.4036 B( 27-C , 91-H ) :   0.9843
B( 28-C , 92-H ) :   0.9903 B( 29-C , 30-C ) :   1.6295 B( 29-C , 93-H ) :   0.9594
B( 30-C , 31-C ) :   1.2024 B( 30-C , 94-H ) :   0.9624 B( 31-C , 32-C ) :   1.5643
B( 31-C , 95-H ) :   0.9600 B( 32-C , 33-C ) :   1.1601 B( 32-C , 36-S ) :   1.0305
B( 33-C , 34-C ) :   1.5640 B( 33-C , 96-H ) :   0.9986 B( 34-C , 35-C ) :   1.2110
B( 34-C , 97-H ) :   0.9942 B( 35-C , 36-S ) :   1.0746 B( 35-C , 37-C ) :   1.4318
B( 37-C , 38-C ) :   1.2276 B( 37-C , 41-S ) :   1.0567 B( 38-C , 39-C ) :   1.5269
B( 38-C , 98-H ) :   0.9958 B( 39-C , 40-C ) :   1.2228 B( 39-C , 99-H ) :   0.9675
B( 40-C , 41-S ) :   1.0888 B( 40-C , 42-C ) :   1.3901 B( 42-C , 43-C ) :   1.3844
B( 42-C ,100-H ) :   0.9153 B( 43-C , 44-C ) :   1.1792 B( 43-C , 54-C ) :   0.1144
B( 43-C , 56-C ) :   1.1232 B( 44-C , 45-C ) :   1.0966 B( 44-C , 49-N ) :   1.5079
B( 45-C , 46-N ) :   1.3695 B( 45-C , 54-C ) :   1.2991 B( 46-N , 47-C ) :   1.6644
B( 46-N , 65-C ) :   0.1425 B( 47-C , 48-C ) :   1.2304 B( 47-C , 52-C ) :   1.1678
B( 48-C , 49-N ) :   1.6817 B( 48-C , 50-C ) :   1.1707 B( 50-C , 51-N ) :   3.0432
B( 52-C , 53-N ) :   2.9882 B( 54-C , 55-C ) :   1.2546 B( 54-C , 60-C ) :   0.9903
B( 55-C , 56-C ) :   1.1040 B( 55-C , 59-N ) :   1.5508 B( 56-C , 57-N ) :   1.5064
B( 57-N , 58-S ) :   1.2566 B( 57-N , 59-N ) :   0.1413 B( 58-S , 59-N ) :   1.2594
B( 60-C , 61-C ) :   1.5179 B( 60-C , 63-C ) :   0.1041 B( 60-C , 64-N ) :   1.1278
B( 61-C , 62-N ) :   1.3946 B( 61-C ,101-H ) :   0.9945 B( 62-N , 63-C ) :   1.6960
B( 63-C , 64-N ) :   1.1244 B( 63-C ,102-H ) :   0.9755 B( 64-N , 65-C ) :   0.9143
B( 65-C , 66-O ) :   2.2036 B( 65-C , 67-N ) :   1.0097 B( 67-N , 68-C ) :   1.0972
B( 67-N , 71-C ) :   1.0893 B( 68-C , 69-C ) :   1.5754 B( 68-C ,103-H ) :   0.9996
B( 69-C , 70-N ) :   1.3206 B( 69-C ,104-H ) :   1.0023 B( 70-N , 71-C ) :   1.7601
B( 71-C ,105-H ) :   0.9783

-----------------------------------------------------------------------------
         ABSORPTION SPECTRUM VIA TRANSITION ELECTRIC DIPOLE MOMENTS
-----------------------------------------------------------------------------
State   Energy  Wavelength   fosc         T2         TX        TY        TZ
        (cm-1)    (nm)                  (au**2)     (au)      (au)      (au)
-----------------------------------------------------------------------------
   0    5978.9   1672.6   0.539640607  29.71392  -0.61015  -5.24045  -1.37090
   1   15980.2    625.8   0.625746265  12.89116  -0.70383   3.41767   0.84575
   2   16645.7    600.8   0.062087704   1.22794  -0.91281   0.61970   0.10340
   3   21738.9    460.0   0.185173394   2.80425  -1.63745   0.31709  -0.14988
   4   22252.2    449.4   0.057631641   0.85264  -0.77611   0.49941   0.02956
   5   23018.0    434.4   0.175686314   2.51273   1.22465  -0.82624  -0.57471
   6   24000.2    416.7   0.035147335   0.48212  -0.68110   0.00100   0.13496
   7   26303.5    380.2   0.142789006   1.78713   1.08811   0.62835   0.45641
   8   26838.2    372.6   0.160851333   1.97309   1.33214  -0.43763  -0.08347
   9   27048.2    369.7   0.293189986   3.56850  -1.87486  -0.05934  -0.22332
  10   27764.4    360.2   0.007610731   0.09024  -0.15864  -0.11645  -0.22697
  11   28557.5    350.2   0.039934249   0.46036   0.64907  -0.06648  -0.18615
  12   30318.1    329.8   0.119980028   1.30281  -0.77638   0.75035   0.37016
  13   30539.5    327.4   0.165815448   1.78747   1.28439  -0.36452   0.07023
  14   30860.4    324.0   0.073542458   0.78453  -0.86972  -0.01248   0.16724
  15   31097.9    321.6   0.040687407   0.43073   0.63129   0.11656   0.13644
  16   31193.9    320.6   0.381331994   4.02447  -1.85915  -0.05463   0.75169
  17   31799.4    314.5   0.040746559   0.42184  -0.45820   0.44353  -0.12318
  18   31863.4    313.8   0.027913218   0.28840  -0.35704   0.36737  -0.16113
  19   32069.5    311.8   0.050068305   0.51398  -0.34444   0.46744  -0.42052
  20   32483.1    307.9   0.018479286   0.18729  -0.28621  -0.31328   0.08499
  21   32722.1    305.6   0.055532146   0.55870   0.66026   0.01714   0.34994
  22   33708.3    296.7   0.043099473   0.42093  -0.50293   0.36700  -0.18251
  23   33766.8    296.1   0.008690098   0.08472  -0.23911   0.16561  -0.01119
  24   34099.5    293.3   0.010038047   0.09691  -0.22393  -0.20738  -0.06133
  25   34412.1    290.6   0.015853688   0.15167  -0.29033   0.24530  -0.08488
  26   34759.1    287.7   0.014537455   0.13769  -0.22823   0.29158   0.02403
  27   35002.4    285.7   0.043234273   0.40664  -0.52124   0.16396   0.32873
  28   35424.8    282.3   0.209504247   1.94698  -1.27170   0.03840   0.57296
  29   35535.4    281.4   0.140230106   1.29914   1.00227  -0.24518  -0.48424
  30   35925.7    278.4   0.176284357   1.61542  -0.94594   0.82639  -0.19418
  31   36392.0    274.8   0.010781179   0.09753  -0.13604  -0.15473  -0.23470
  32   37085.7    269.6   0.076767762   0.68147   0.72258   0.30987   0.25166
  33   37303.6    268.1   0.012250601   0.10811   0.25824   0.17746   0.09966
  34   37616.9    265.8   0.038145499   0.33384  -0.14898  -0.52372   0.19328
  35   38203.1    261.8   0.308825864   2.66128   1.57279  -0.42966  -0.05476
  36   38500.1    259.7   0.162322108   1.38801   0.23375  -1.06084  -0.45604
  37   39213.8    255.0   0.010001733   0.08397   0.19403  -0.19416   0.09285
  38   39333.8    254.2   0.024276283   0.20318  -0.19146  -0.30950   0.26596
  39   39731.5    251.7   0.026378283   0.21857  -0.30895   0.33882   0.09118
  40   40178.1    248.9   0.048991126   0.40142   0.56845  -0.25776   0.10885

FINAL SINGLE POINT ENERGY     -4147.493283731495

DIPOLE MOMENT
-------------
                                X             Y             Z
Electronic contribution:     28.43245     -99.59912      -3.92076
Nuclear contribution   :    -24.47625     103.83862       3.80623
                        -----------------------------------------
Total Dipole Moment    :      3.95620       4.23949      -0.11453
                        -----------------------------------------
Magnitude (a.u.)       :      5.79982
Magnitude (Debye)      :     14.74197

Rotational constants in cm-1:     0.001478     0.000228     0.000205
Rotational constants in MHz :    44.309572     6.843368     6.134391

                             ****ORCA TERMINATED NORMALLY****
TOTAL RUN TIME: 0 days 0 hours 19 minutes 46 seconds 835 msec
