                         Program Version 4.2.0 -  RELEASE  -
|  1> # ORCA input file
|  2> # SCF done       -177.128162944355          0.000602565654
|  3> ! CAM-B3LYP def2-SVP def2/J RIJCOSX Grid4 TightSCF
|  4> %maxcore 5000
|  5> %tddft
|  6>     Mode sTDDFT
|  7>     Ethresh 5.0
|  8>     maxcore 5000
|  9> end
| 10>
| 11> %pal
| 12>   nprocs 6
| 13>   end
| 14> * xyz 0 1
| 15>    C       10.86380       -10.88084       -17.14591
| 16>    C       10.99732       -10.92450       -18.50097
| 17>    S        9.77285       -11.90327       -19.21704
| 18>    C        9.05468       -12.25929       -17.66265
| 19>   Cl        7.68739       -13.24797       -17.52686
| 20>    C        9.75239       -11.64765       -16.66435
| 21>    C        9.65733       -11.53437       -15.20404
| 22>    O        8.77717       -11.92414       -14.48043
| 23>    C       10.86384       -10.72235       -14.81342
| 24>    C       11.54113       -10.26166       -16.02760
| 25>    C       12.61549        -9.42423       -16.12364
| 26>    C       13.17523        -9.08457       -17.37536
| 27>    N       13.64092        -8.79716       -18.38303
| 28>    C       13.27366        -8.80291       -15.04181
| 29>    N       13.85255        -8.26251       -14.21141
| 30>    C       11.21920       -10.48091       -13.54148
| 31>    C       10.57182       -11.11906       -12.39052
| 32>    N       10.52277       -12.44806       -12.38920
| 33>    C        9.93686       -13.01407       -11.34864
| 34>    C        9.42065       -12.28373       -10.29248
| 35>    C        9.57711       -10.89295       -10.35388
| 36>    N       10.15294       -10.32689       -11.41881
| 37>    C        9.18581        -9.97116        -9.31130
| 38>    C        8.81503       -10.32332        -8.07083
| 39>    N        8.52036        -9.40955        -7.09604
| 40>    C        8.34192        -9.69288        -5.78470
| 41>    S        8.39915       -11.32754        -5.20887
| 42>    C        8.27016       -10.74811        -3.57536
| 43>    N        8.25893       -11.70302        -2.55612
| 44>    O        8.17933       -11.30859        -1.40747
| 45>    O        8.33137       -12.87076        -2.90383
| 46>    C        8.19935        -9.38573        -3.49005
| 47>    C        8.21212        -8.75214        -4.74949
| 48>    C        8.13545        -7.32705        -4.88939
| 49>    C        7.61506        -6.62958        -5.93257
| 50>    C        7.61182        -5.21999        -5.97565
| 51>    C        6.96540        -4.46509        -6.91768
| 52>    C        6.95552        -3.04931        -7.00381
| 53>    C        6.18745        -2.55718        -8.01229
| 54>    C        5.53294        -3.55407        -8.77412
| 55>    S        5.96093        -5.14321        -8.19463
| 56>    C        4.63302        -3.36200        -9.80724
| 57>    C        4.21083        -2.13203       -10.35832
| 58>    C        3.26847        -2.26470       -11.33393
| 59>    C        2.89314        -3.60253       -11.59797
| 60>    S        3.80495        -4.69565       -10.58123
| 61>    C        1.92965        -4.01472       -12.49667
| 62>    C        1.57043        -5.34693       -12.67926
| 63>    C        0.57472        -5.78209       -13.53041
| 64>    C        0.15064        -7.14357       -13.73824
| 65>    C        0.67609        -8.27704       -13.16146
| 66>    C        0.20752        -9.58140       -13.41465
| 67>    N       -0.12654       -10.66872       -13.57561
| 68>    C        1.74605        -8.31515       -12.24579
| 69>    N        2.60880        -8.44013       -11.49656
| 70>    C       -0.95976        -7.12351       -14.68930
| 71>    C       -1.20699        -5.78209       -15.06902
| 72>    C       -0.25699        -4.89420       -14.36711
| 73>    O       -0.19630        -3.68423       -14.47215
| 74>    C       -2.19721        -5.43058       -15.95236
| 75>    C       -2.98632        -6.45395       -16.48904
| 76>    C       -2.73287        -7.79095       -16.10469
| 77>    C       -1.72898        -8.14594       -15.21078
| 78>    S       -3.82439        -8.89721       -16.88315
| 79>    C       -4.59544        -7.56505       -17.70246
| 80>    C       -4.06488        -6.35422       -17.41039
| 81>   Br       -6.02883        -7.89863       -18.86593
| 82>    H       11.72771       -10.45212       -19.12758
| 83>    H       12.02939        -9.80650       -13.29973
| 84>    H        9.89114       -14.09508       -11.36861
| 85>    H        8.92935       -12.77001        -9.46731
| 86>    H        9.26852        -8.92808        -9.58276
| 87>    H        8.74436       -11.35464        -7.75752
| 88>    H        8.58838        -8.42848        -7.34412
| 89>    H        8.11776        -8.86759        -2.55165
| 90>    H        8.48740        -6.76947        -4.03097
| 91>    H        7.11996        -7.13874        -6.75016
| 92>    H        8.15338        -4.68976        -5.20338
| 93>    H        7.51568        -2.44425        -6.31320
| 94>    H        6.06104        -1.51033        -8.22032
| 95>    H        4.60674        -1.18974       -10.02515
| 96>    H        2.82145        -1.44497       -11.86740
| 97>    H        1.41906        -3.25411       -13.06977
| 98>    H        2.10883        -6.08282       -12.09465
| 99>    H       -2.35999        -4.39840       -16.22043
|100>    H       -1.57855        -9.18010       -14.95039
|101>    H       -4.41803        -5.42798       -17.82564
|102> *
|103>
|104>                          ****END OF INPUT****

CARTESIAN COORDINATES (ANGSTROEM)
---------------------------------
  C     10.863800  -10.880840  -17.145910
  C     10.997320  -10.924500  -18.500970
  S      9.772850  -11.903270  -19.217040
  C      9.054680  -12.259290  -17.662650
  Cl     7.687390  -13.247970  -17.526860
  C      9.752390  -11.647650  -16.664350
  C      9.657330  -11.534370  -15.204040
  O      8.777170  -11.924140  -14.480430
  C     10.863840  -10.722350  -14.813420
  C     11.541130  -10.261660  -16.027600
  C     12.615490   -9.424230  -16.123640
  C     13.175230   -9.084570  -17.375360
  N     13.640920   -8.797160  -18.383030
  C     13.273660   -8.802910  -15.041810
  N     13.852550   -8.262510  -14.211410
  C     11.219200  -10.480910  -13.541480
  C     10.571820  -11.119060  -12.390520
  N     10.522770  -12.448060  -12.389200
  C      9.936860  -13.014070  -11.348640
  C      9.420650  -12.283730  -10.292480
  C      9.577110  -10.892950  -10.353880
  N     10.152940  -10.326890  -11.418810
  C      9.185810   -9.971160   -9.311300
  C      8.815030  -10.323320   -8.070830
  N      8.520360   -9.409550   -7.096040
  C      8.341920   -9.692880   -5.784700
  S      8.399150  -11.327540   -5.208870
  C      8.270160  -10.748110   -3.575360
  N      8.258930  -11.703020   -2.556120
  O      8.179330  -11.308590   -1.407470
  O      8.331370  -12.870760   -2.903830
  C      8.199350   -9.385730   -3.490050
  C      8.212120   -8.752140   -4.749490
  C      8.135450   -7.327050   -4.889390
  C      7.615060   -6.629580   -5.932570
  C      7.611820   -5.219990   -5.975650
  C      6.965400   -4.465090   -6.917680
  C      6.955520   -3.049310   -7.003810
  C      6.187450   -2.557180   -8.012290
  C      5.532940   -3.554070   -8.774120
  S      5.960930   -5.143210   -8.194630
  C      4.633020   -3.362000   -9.807240
  C      4.210830   -2.132030  -10.358320
  C      3.268470   -2.264700  -11.333930
  C      2.893140   -3.602530  -11.597970
  S      3.804950   -4.695650  -10.581230
  C      1.929650   -4.014720  -12.496670
  C      1.570430   -5.346930  -12.679260
  C      0.574720   -5.782090  -13.530410
  C      0.150640   -7.143570  -13.738240
  C      0.676090   -8.277040  -13.161460
  C      0.207520   -9.581400  -13.414650
  N     -0.126540  -10.668720  -13.575610
  C      1.746050   -8.315150  -12.245790
  N      2.608800   -8.440130  -11.496560
  C     -0.959760   -7.123510  -14.689300
  C     -1.206990   -5.782090  -15.069020
  C     -0.256990   -4.894200  -14.367110
  O     -0.196300   -3.684230  -14.472150
  C     -2.197210   -5.430580  -15.952360
  C     -2.986320   -6.453950  -16.489040
  C     -2.732870   -7.790950  -16.104690
  C     -1.728980   -8.145940  -15.210780
  S     -3.824390   -8.897210  -16.883150
  C     -4.595440   -7.565050  -17.702460
  C     -4.064880   -6.354220  -17.410390
  Br    -6.028830   -7.898630  -18.865930
  H     11.727710  -10.452120  -19.127580
  H     12.029390   -9.806500  -13.299730
  H      9.891140  -14.095080  -11.368610
  H      8.929350  -12.770010   -9.467310
  H      9.268520   -8.928080   -9.582760
  H      8.744360  -11.354640   -7.757520
  H      8.588380   -8.428480   -7.344120
  H      8.117760   -8.867590   -2.551650
  H      8.487400   -6.769470   -4.030970
  H      7.119960   -7.138740   -6.750160
  H      8.153380   -4.689760   -5.203380
  H      7.515680   -2.444250   -6.313200
  H      6.061040   -1.510330   -8.220320
  H      4.606740   -1.189740  -10.025150
  H      2.821450   -1.444970  -11.867400
  H      1.419060   -3.254110  -13.069770
  H      2.108830   -6.082820  -12.094650
  H     -2.359990   -4.398400  -16.220430
  H     -1.578550   -9.180100  -14.950390
  H     -4.418030   -5.427980  -17.825640

 Total Charge           Charge          ....    0
 Multiplicity           Mult            ....    1
 Number of Electrons    NEL             ....  528
 Basis Dimension        Dim             .... 1080

ORBITAL ENERGIES
----------------

  NO   OCC          E(Eh)            E(eV)
   0   2.0000    -482.879413    -13139.8169
   1   2.0000    -101.615956     -2765.1108
   2   2.0000     -88.994554     -2421.6649
   3   2.0000     -88.993737     -2421.6427
   4   2.0000     -88.969269     -2420.9769
   5   2.0000     -88.967603     -2420.9315
   6   2.0000     -88.963262     -2420.8134
   7   2.0000     -62.557130     -1702.2660
   8   2.0000     -56.391071     -1534.4790
   9   2.0000     -56.388373     -1534.4056
  10   2.0000     -56.388336     -1534.4046
  11   2.0000     -19.239484      -523.5330
  12   2.0000     -19.238922      -523.5177
  13   2.0000     -19.219383      -522.9860
  14   2.0000     -19.204026      -522.5681
  15   2.0000     -14.651613      -398.6907
  16   2.0000     -14.496426      -394.4678
  17   2.0000     -14.423470      -392.4826
  18   2.0000     -14.422890      -392.4668
  19   2.0000     -14.415279      -392.2597
  20   2.0000     -14.410669      -392.1342
  21   2.0000     -14.404743      -391.9730
  22   2.0000     -14.401892      -391.8954
  23   2.0000     -10.383184      -282.5408
  24   2.0000     -10.375719      -282.3377
  25   2.0000     -10.375581      -282.3339
  26   2.0000     -10.354236      -281.7531
  27   2.0000     -10.352004      -281.6924
  28   2.0000     -10.351499      -281.6786
  29   2.0000     -10.351124      -281.6684
  30   2.0000     -10.351020      -281.6656
  31   2.0000     -10.349864      -281.6341
  32   2.0000     -10.346925      -281.5541
  33   2.0000     -10.340712      -281.3851
  34   2.0000     -10.338680      -281.3298
  35   2.0000     -10.330765      -281.1144
  36   2.0000     -10.330412      -281.1048
  37   2.0000     -10.329543      -281.0812
  38   2.0000     -10.327866      -281.0355
  39   2.0000     -10.327045      -281.0132
  40   2.0000     -10.326164      -280.9892
  41   2.0000     -10.325175      -280.9623
  42   2.0000     -10.324600      -280.9466
  43   2.0000     -10.323646      -280.9207
  44   2.0000     -10.317708      -280.7591
  45   2.0000     -10.316099      -280.7153
  46   2.0000     -10.315926      -280.7106
  47   2.0000     -10.314620      -280.6751
  48   2.0000     -10.313876      -280.6548
  49   2.0000     -10.311091      -280.5791
  50   2.0000     -10.310039      -280.5504
  51   2.0000     -10.309514      -280.5361
  52   2.0000     -10.309393      -280.5329
  53   2.0000     -10.309257      -280.5292
  54   2.0000     -10.309046      -280.5234
  55   2.0000     -10.308526      -280.5092
  56   2.0000     -10.306053      -280.4420
  57   2.0000     -10.305575      -280.4289
  58   2.0000     -10.301955      -280.3305
  59   2.0000     -10.299674      -280.2684
  60   2.0000     -10.298027      -280.2236
  61   2.0000     -10.297162      -280.2000
  62   2.0000     -10.296731      -280.1883
  63   2.0000     -10.294971      -280.1404
  64   2.0000     -10.292033      -280.0604
  65   2.0000     -10.290995      -280.0322
  66   2.0000     -10.290206      -280.0107
  67   2.0000     -10.289258      -279.9849
  68   2.0000     -10.281232      -279.7666
  69   2.0000     -10.280954      -279.7590
  70   2.0000     -10.277456      -279.6638
  71   2.0000      -9.570725      -260.4327
  72   2.0000      -8.786555      -239.0943
  73   2.0000      -8.090280      -220.1477
  74   2.0000      -8.089268      -220.1202
  75   2.0000      -8.065562      -219.4751
  76   2.0000      -8.063544      -219.4202
  77   2.0000      -8.059188      -219.3016
  78   2.0000      -7.341372      -199.7689
  79   2.0000      -7.330755      -199.4800
  80   2.0000      -7.330212      -199.4652
  81   2.0000      -6.622817      -180.2160
  82   2.0000      -6.608304      -179.8211
  83   2.0000      -6.608122      -179.8161
  84   2.0000      -6.059595      -164.8900
  85   2.0000      -6.059002      -164.8738
  86   2.0000      -6.055028      -164.7657
  87   2.0000      -6.054532      -164.7522
  88   2.0000      -6.052618      -164.7001
  89   2.0000      -6.050602      -164.6453
  90   2.0000      -6.035230      -164.2270
  91   2.0000      -6.033246      -164.1730
  92   2.0000      -6.031255      -164.1188
  93   2.0000      -6.028963      -164.0564
  94   2.0000      -6.028802      -164.0520
  95   2.0000      -6.026520      -163.9899
  96   2.0000      -6.024779      -163.9426
  97   2.0000      -6.024774      -163.9424
  98   2.0000      -6.020344      -163.8219
  99   2.0000      -2.738685       -74.5234
 100   2.0000      -2.734615       -74.4127
 101   2.0000      -2.734497       -74.4094
 102   2.0000      -2.722956       -74.0954
 103   2.0000      -2.722930       -74.0947
 104   2.0000      -1.320386       -35.9295
 105   2.0000      -1.139640       -31.0112
 106   2.0000      -1.137360       -30.9491
 107   2.0000      -1.117553       -30.4102
 108   2.0000      -1.104075       -30.0434
 109   2.0000      -1.088779       -29.6272
 110   2.0000      -1.038353       -28.2550
 111   2.0000      -1.019663       -27.7464
 112   2.0000      -1.017085       -27.6763
 113   2.0000      -1.012631       -27.5551
 114   2.0000      -1.012546       -27.5528
 115   2.0000      -1.002604       -27.2822
 116   2.0000      -1.001595       -27.2548
 117   2.0000      -0.994040       -27.0492
 118   2.0000      -0.988585       -26.9008
 119   2.0000      -0.985845       -26.8262
 120   2.0000      -0.982475       -26.7345
 121   2.0000      -0.977939       -26.6111
 122   2.0000      -0.955017       -25.9873
 123   2.0000      -0.942287       -25.6409
 124   2.0000      -0.933775       -25.4093
 125   2.0000      -0.925419       -25.1819
 126   2.0000      -0.915201       -24.9039
 127   2.0000      -0.908444       -24.7200
 128   2.0000      -0.903123       -24.5752
 129   2.0000      -0.898182       -24.4408
 130   2.0000      -0.890522       -24.2323
 131   2.0000      -0.878722       -23.9113
 132   2.0000      -0.876107       -23.8401
 133   2.0000      -0.873710       -23.7748
 134   2.0000      -0.866821       -23.5874
 135   2.0000      -0.855729       -23.2856
 136   2.0000      -0.853193       -23.2166
 137   2.0000      -0.842676       -22.9304
 138   2.0000      -0.833269       -22.6744
 139   2.0000      -0.830449       -22.5977
 140   2.0000      -0.819683       -22.3047
 141   2.0000      -0.801508       -21.8102
 142   2.0000      -0.796703       -21.6794
 143   2.0000      -0.790646       -21.5146
 144   2.0000      -0.770512       -20.9667
 145   2.0000      -0.755630       -20.5617
 146   2.0000      -0.751553       -20.4508
 147   2.0000      -0.746875       -20.3235
 148   2.0000      -0.739709       -20.1285
 149   2.0000      -0.732248       -19.9255
 150   2.0000      -0.728585       -19.8258
 151   2.0000      -0.713976       -19.4283
 152   2.0000      -0.699656       -19.0386
 153   2.0000      -0.692549       -18.8452
 154   2.0000      -0.686970       -18.6934
 155   2.0000      -0.682227       -18.5643
 156   2.0000      -0.679718       -18.4961
 157   2.0000      -0.677671       -18.4404
 158   2.0000      -0.664171       -18.0730
 159   2.0000      -0.655162       -17.8279
 160   2.0000      -0.651865       -17.7381
 161   2.0000      -0.648832       -17.6556
 162   2.0000      -0.645097       -17.5540
 163   2.0000      -0.642236       -17.4761
 164   2.0000      -0.633220       -17.2308
 165   2.0000      -0.632691       -17.2164
 166   2.0000      -0.630495       -17.1566
 167   2.0000      -0.623034       -16.9536
 168   2.0000      -0.621007       -16.8984
 169   2.0000      -0.617800       -16.8112
 170   2.0000      -0.613529       -16.6950
 171   2.0000      -0.613239       -16.6871
 172   2.0000      -0.602967       -16.4076
 173   2.0000      -0.593529       -16.1508
 174   2.0000      -0.590792       -16.0763
 175   2.0000      -0.589951       -16.0534
 176   2.0000      -0.586046       -15.9471
 177   2.0000      -0.581385       -15.8203
 178   2.0000      -0.572745       -15.5852
 179   2.0000      -0.565263       -15.3816
 180   2.0000      -0.562436       -15.3047
 181   2.0000      -0.550618       -14.9831
 182   2.0000      -0.549663       -14.9571
 183   2.0000      -0.548423       -14.9233
 184   2.0000      -0.545384       -14.8407
 185   2.0000      -0.539555       -14.6820
 186   2.0000      -0.535312       -14.5666
 187   2.0000      -0.533770       -14.5246
 188   2.0000      -0.530687       -14.4407
 189   2.0000      -0.528828       -14.3901
 190   2.0000      -0.528756       -14.3882
 191   2.0000      -0.526094       -14.3157
 192   2.0000      -0.523409       -14.2427
 193   2.0000      -0.520199       -14.1553
 194   2.0000      -0.518332       -14.1045
 195   2.0000      -0.517003       -14.0684
 196   2.0000      -0.515180       -14.0188
 197   2.0000      -0.511184       -13.9100
 198   2.0000      -0.507289       -13.8040
 199   2.0000      -0.506245       -13.7756
 200   2.0000      -0.500189       -13.6108
 201   2.0000      -0.499693       -13.5973
 202   2.0000      -0.499374       -13.5887
 203   2.0000      -0.497390       -13.5347
 204   2.0000      -0.490182       -13.3385
 205   2.0000      -0.487585       -13.2679
 206   2.0000      -0.486570       -13.2402
 207   2.0000      -0.485477       -13.2105
 208   2.0000      -0.484479       -13.1834
 209   2.0000      -0.483272       -13.1505
 210   2.0000      -0.481525       -13.1030
 211   2.0000      -0.481191       -13.0939
 212   2.0000      -0.476130       -12.9562
 213   2.0000      -0.469466       -12.7748
 214   2.0000      -0.462271       -12.5790
 215   2.0000      -0.456788       -12.4298
 216   2.0000      -0.455422       -12.3927
 217   2.0000      -0.453931       -12.3521
 218   2.0000      -0.452092       -12.3021
 219   2.0000      -0.449383       -12.2283
 220   2.0000      -0.449285       -12.2257
 221   2.0000      -0.444790       -12.1033
 222   2.0000      -0.441480       -12.0133
 223   2.0000      -0.440704       -11.9922
 224   2.0000      -0.437651       -11.9091
 225   2.0000      -0.436581       -11.8800
 226   2.0000      -0.435721       -11.8566
 227   2.0000      -0.434482       -11.8228
 228   2.0000      -0.432754       -11.7758
 229   2.0000      -0.429830       -11.6963
 230   2.0000      -0.420436       -11.4406
 231   2.0000      -0.417909       -11.3719
 232   2.0000      -0.417195       -11.3524
 233   2.0000      -0.416363       -11.3298
 234   2.0000      -0.413809       -11.2603
 235   2.0000      -0.412440       -11.2231
 236   2.0000      -0.409015       -11.1299
 237   2.0000      -0.402045       -10.9402
 238   2.0000      -0.397644       -10.8204
 239   2.0000      -0.396373       -10.7859
 240   2.0000      -0.387397       -10.5416
 241   2.0000      -0.384061       -10.4508
 242   2.0000      -0.382048       -10.3961
 243   2.0000      -0.379279       -10.3207
 244   2.0000      -0.378802       -10.3077
 245   2.0000      -0.372908       -10.1473
 246   2.0000      -0.368953       -10.0397
 247   2.0000      -0.368293       -10.0218
 248   2.0000      -0.359385        -9.7794
 249   2.0000      -0.354549        -9.6478
 250   2.0000      -0.353866        -9.6292
 251   2.0000      -0.347835        -9.4651
 252   2.0000      -0.342626        -9.3233
 253   2.0000      -0.336459        -9.1555
 254   2.0000      -0.333542        -9.0761
 255   2.0000      -0.328816        -8.9475
 256   2.0000      -0.325885        -8.8678
 257   2.0000      -0.324060        -8.8181
 258   2.0000      -0.309956        -8.4343
 259   2.0000      -0.306443        -8.3387
 260   2.0000      -0.301687        -8.2093
 261   2.0000      -0.284938        -7.7536
 262   2.0000      -0.274594        -7.4721
 263   2.0000      -0.230770        -6.2796
 264   0.0000      -0.112648        -3.0653
 265   0.0000      -0.091704        -2.4954
 266   0.0000      -0.066645        -1.8135
 267   0.0000      -0.062596        -1.7033
 268   0.0000      -0.047691        -1.2977

MULLIKEN ATOMIC CHARGES
-----------------------
   0 C :    0.024118
   1 C :   -0.126686
   2 S :    0.190692
   3 C :   -0.170685
   4 Cl:    0.003872
   5 C :    0.078929
   6 C :    0.154845
   7 O :   -0.113070
   8 C :   -0.071562
   9 C :    0.296264
  10 C :   -0.325414
  11 C :   -0.195268
  12 N :    0.160869
  13 C :   -0.188189
  14 N :    0.167908
  15 C :    0.018777
  16 C :   -0.040526
  17 N :   -0.071608
  18 C :    0.084612
  19 C :   -0.048142
  20 C :    0.036719
  21 N :   -0.070165
  22 C :    0.016397
  23 C :    0.083102
  24 N :   -0.027441
  25 C :   -0.097409
  26 S :    0.148747
  27 C :   -0.004711
  28 N :    0.281448
  29 O :   -0.251865
  30 O :   -0.267595
  31 C :    0.019717
  32 C :    0.104261
  33 C :   -0.025624
  34 C :   -0.030410
  35 C :   -0.013446
  36 C :   -0.024590
  37 C :    0.049973
  38 C :    0.025419
  39 C :   -0.034534
  40 S :    0.099441
  41 C :   -0.054462
  42 C :    0.044682
  43 C :    0.027749
  44 C :    0.004256
  45 S :    0.114006
  46 C :   -0.026391
  47 C :   -0.035257
  48 C :   -0.087147
  49 C :    0.328158
  50 C :   -0.363777
  51 C :   -0.190428
  52 N :    0.140368
  53 C :   -0.187615
  54 N :    0.131535
  55 C :    0.013151
  56 C :   -0.009687
  57 C :    0.136487
  58 O :   -0.166171
  59 C :   -0.075361
  60 C :    0.117596
  61 C :   -0.092281
  62 C :   -0.024348
  63 S :    0.180574
  64 C :   -0.125275
  65 C :    0.039538
  66 Br:    0.016227
  67 H :    0.054980
  68 H :    0.048152
  69 H :    0.011932
  70 H :   -0.004897
  71 H :   -0.003508
  72 H :    0.034969
  73 H :    0.138605
  74 H :    0.011184
  75 H :    0.004661
  76 H :    0.013840
  77 H :   -0.002267
  78 H :   -0.001648
  79 H :   -0.004234
  80 H :   -0.005416
  81 H :    0.001092
  82 H :    0.017772
  83 H :    0.011781
  84 H :   -0.014926
  85 H :   -0.009169
  86 H :   -0.006203
Sum of atomic charges:   -0.0000000

LOEWDIN ATOMIC CHARGES
----------------------
   0 C :   -0.060796
   1 C :   -0.149155
   2 S :    0.480909
   3 C :   -0.272692
   4 Cl:    0.195379
   5 C :   -0.115662
   6 C :    0.083520
   7 O :   -0.112648
   8 C :   -0.060443
   9 C :    0.076025
  10 C :   -0.127634
  11 C :   -0.014765
  12 N :   -0.047040
  13 C :   -0.021425
  14 N :   -0.039910
  15 C :    0.076804
  16 C :    0.021666
  17 N :   -0.079561
  18 C :    0.057759
  19 C :   -0.058076
  20 C :    0.041061
  21 N :   -0.086250
  22 C :   -0.070287
  23 C :    0.041922
  24 N :    0.047336
  25 C :   -0.086554
  26 S :    0.459365
  27 C :   -0.214033
  28 N :    0.274211
  29 O :   -0.217372
  30 O :   -0.233551
  31 C :    0.008661
  32 C :   -0.115080
  33 C :    0.002025
  34 C :   -0.059290
  35 C :   -0.031511
  36 C :   -0.153098
  37 C :   -0.013899
  38 C :   -0.034229
  39 C :   -0.150151
  40 S :    0.387210
  41 C :   -0.191241
  42 C :   -0.008559
  43 C :   -0.038724
  44 C :   -0.104347
  45 S :    0.409618
  46 C :   -0.071390
  47 C :    0.050382
  48 C :   -0.105498
  49 C :    0.073191
  50 C :   -0.154580
  51 C :   -0.018808
  52 N :   -0.066632
  53 C :   -0.019895
  54 N :   -0.067051
  55 C :   -0.018500
  56 C :   -0.049016
  57 C :    0.082628
  58 O :   -0.157391
  59 C :    0.017944
  60 C :   -0.035457
  61 C :   -0.145511
  62 C :   -0.012887
  63 S :    0.428326
  64 C :   -0.274268
  65 C :   -0.070867
  66 Br:    0.131154
  67 H :    0.037947
  68 H :    0.051331
  69 H :    0.029498
  70 H :    0.031784
  71 H :    0.037270
  72 H :    0.024557
  73 H :    0.097063
  74 H :    0.047272
  75 H :    0.036718
  76 H :    0.021517
  77 H :    0.038061
  78 H :    0.038145
  79 H :    0.035396
  80 H :    0.035131
  81 H :    0.039427
  82 H :    0.038826
  83 H :    0.031949
  84 H :    0.038975
  85 H :    0.040127
  86 H :    0.037640

  Mayer bond orders larger than 0.100000
B(  0-C ,  1-C ) :   1.5349 B(  0-C ,  5-C ) :   1.2237 B(  0-C ,  9-C ) :   1.0119
B(  1-C ,  2-S ) :   1.1704 B(  1-C , 67-H ) :   0.9535 B(  2-S ,  3-C ) :   1.1510
B(  3-C ,  4-Cl) :   1.1312 B(  3-C ,  5-C ) :   1.4791 B(  5-C ,  6-C ) :   0.9418
B(  6-C ,  7-O ) :   2.2667 B(  6-C ,  8-C ) :   0.9089 B(  8-C ,  9-C ) :   1.0295
B(  8-C , 15-C ) :   1.8329 B(  9-C , 10-C ) :   1.6798 B( 10-C , 11-C ) :   1.1418
B( 10-C , 13-C ) :   1.1367 B( 11-C , 12-N ) :   2.9951 B( 13-C , 14-N ) :   2.9822
B( 15-C , 16-C ) :   0.9471 B( 15-C , 68-H ) :   0.9343 B( 16-C , 17-N ) :   1.5026
B( 16-C , 21-N ) :   1.5230 B( 17-N , 18-C ) :   1.5333 B( 18-C , 19-C ) :   1.3978
B( 18-C , 69-H ) :   0.9788 B( 19-C , 20-C ) :   1.3508 B( 19-C , 70-H ) :   0.9646
B( 20-C , 21-N ) :   1.4883 B( 20-C , 22-C ) :   1.0972 B( 22-C , 23-C ) :   1.6875
B( 22-C , 71-H ) :   0.9688 B( 23-C , 24-N ) :   1.1173 B( 23-C , 72-H ) :   0.9516
B( 24-N , 25-C ) :   1.2406 B( 24-N , 73-H ) :   0.9050 B( 25-C , 26-S ) :   1.1438
B( 25-C , 32-C ) :   1.3460 B( 26-S , 27-C ) :   1.0610 B( 27-C , 28-N ) :   0.9793
B( 27-C , 31-C ) :   1.4955 B( 28-N , 29-O ) :   1.5318 B( 28-N , 30-O ) :   1.5053
B( 29-O , 30-O ) :   0.2561 B( 31-C , 32-C ) :   1.2203 B( 31-C , 74-H ) :   1.0081
B( 32-C , 33-C ) :   1.0724 B( 33-C , 34-C ) :   1.6524 B( 33-C , 75-H ) :   0.9726
B( 34-C , 35-C ) :   1.1539 B( 34-C , 76-H ) :   0.9625 B( 35-C , 36-C ) :   1.5761
B( 35-C , 77-H ) :   0.9852 B( 36-C , 37-C ) :   1.1383 B( 36-C , 40-S ) :   1.0211
B( 37-C , 38-C ) :   1.5925 B( 37-C , 78-H ) :   0.9996 B( 38-C , 39-C ) :   1.1879
B( 38-C , 79-H ) :   0.9940 B( 39-C , 40-S ) :   1.0750 B( 39-C , 41-C ) :   1.4804
B( 41-C , 42-C ) :   1.2062 B( 41-C , 45-S ) :   1.0446 B( 42-C , 43-C ) :   1.5512
B( 42-C , 80-H ) :   0.9949 B( 43-C , 44-C ) :   1.1728 B( 43-C , 81-H ) :   1.0021
B( 44-C , 45-S ) :   1.0822 B( 44-C , 46-C ) :   1.4267 B( 46-C , 47-C ) :   1.2500
B( 46-C , 82-H ) :   0.9765 B( 47-C , 48-C ) :   1.4896 B( 47-C , 83-H ) :   0.9443
B( 48-C , 49-C ) :   1.1085 B( 48-C , 57-C ) :   0.9644 B( 49-C , 50-C ) :   1.5863
B( 49-C , 55-C ) :   0.9929 B( 50-C , 51-C ) :   1.1504 B( 50-C , 53-C ) :   1.1554
B( 51-C , 52-N ) :   2.9630 B( 53-C , 54-N ) :   2.9538 B( 55-C , 56-C ) :   1.2775
B( 55-C , 62-C ) :   1.4180 B( 56-C , 57-C ) :   0.9383 B( 56-C , 59-C ) :   1.4319
B( 57-C , 58-O ) :   2.1810 B( 59-C , 60-C ) :   1.2391 B( 59-C , 84-H ) :   1.0165
B( 60-C , 61-C ) :   1.3145 B( 60-C , 65-C ) :   1.1605 B( 61-C , 62-C ) :   1.3235
B( 61-C , 63-S ) :   1.0829 B( 62-C , 85-H ) :   0.9793 B( 63-S , 64-C ) :   1.0867
B( 64-C , 65-C ) :   1.6186 B( 64-C , 66-Br) :   1.0145 B( 65-C , 86-H ) :   1.0006

-----------------------------------------------------------------------------
         ABSORPTION SPECTRUM VIA TRANSITION ELECTRIC DIPOLE MOMENTS
-----------------------------------------------------------------------------
State   Energy  Wavelength   fosc         T2         TX        TY        TZ
        (cm-1)    (nm)                  (au**2)     (au)      (au)      (au)
-----------------------------------------------------------------------------
   0   11975.9    835.0   1.187698902  32.64925  -4.17250   0.23072  -3.89696
   1   20731.5    482.4   0.006653926   0.10566   0.06312  -0.26636  -0.17530
   2   21360.0    468.2   0.060541550   0.93310   0.39845   0.69548   0.53912
   3   21843.1    457.8   0.644170948   9.70874   0.15761  -3.05760  -0.57880
   4   23383.3    427.7   0.243751916   3.43177  -0.07638   0.20269   1.83980
   5   24560.3    407.2   0.144028049   1.93058   0.27130  -0.98619   0.94043
   6   24970.6    400.5   0.269425583   3.55210   1.18185  -0.22185   1.45125
   7   26651.7    375.2   0.010415713   0.12866   0.15976   0.22472  -0.22943
   8   26912.1    371.6   0.000694121   0.00849  -0.02190  -0.08594   0.02501
   9   27981.7    357.4   0.337853109   3.97493   0.33985   1.87117  -0.59846
  10   28546.7    350.3   0.060506642   0.69779   0.27446   0.70576  -0.35265
  11   28577.9    349.9   0.006462555   0.07445  -0.15323  -0.21030   0.08210
  12   29010.1    344.7   0.384820173   4.36700   0.61876   0.45222  -1.94413
  13   29740.5    336.2   0.378838848   4.19356   0.02977   0.09821  -2.04524
  14   30114.0    332.1   0.041459678   0.45324  -0.05553  -0.06230  -0.66804
  15   30124.3    332.0   0.044699458   0.48850  -0.51516  -0.45165  -0.13826
  16   30926.7    323.3   0.116646123   1.24169  -0.37271  -1.03469   0.17941
  17   31350.3    319.0   0.177567295   1.86465  -0.75967  -0.37731  -1.07013
  18   32384.8    308.8   0.388906608   3.95348   1.76813  -0.16567   0.89428
  19   32771.0    305.1   0.105614325   1.06098   0.72838  -0.58497   0.43388
  20   32888.9    304.1   0.000173907   0.00174  -0.01036   0.03996   0.00604
  21   33019.6    302.9   0.005567440   0.05551  -0.01199   0.05352   0.22913
  22   33305.4    300.3   0.111913233   1.10622  -0.60857  -0.77885   0.35953
  23   33858.2    295.3   0.029507122   0.28691   0.41232   0.32896   0.09318
  24   33986.9    294.2   0.011781607   0.11412   0.20231   0.26927   0.02614
  25   34070.4    293.5   0.003890799   0.03760  -0.11681  -0.05699   0.14389
  26   34471.9    290.1   0.135209575   1.29127  -0.57848   0.24412  -0.94712
  27   34939.6    286.2   0.016663838   0.15701  -0.10855  -0.01304  -0.38087
  28   35076.7    285.1   0.005963682   0.05597   0.15299   0.01352  -0.17995
  29   35701.5    280.1   0.086659433   0.79911  -0.20740   0.85840  -0.13871
  30   35858.3    278.9   0.038851183   0.35669  -0.14685   0.03468   0.57786
  31   36241.7    275.9   0.041259414   0.37479  -0.26347   0.47634  -0.28013
  32   36453.3    274.3   0.073230962   0.66135   0.27888   0.16333  -0.74626
  33   36766.5    272.0   0.158648318   1.42056   0.02460   0.99822  -0.65077
  34   36897.5    271.0   0.087744221   0.78288  -0.70088  -0.16850   0.51308
  35   37381.0    267.5   0.103844324   0.91455   0.07344  -0.63617   0.71025
  36   37699.3    265.3   0.043965458   0.38393   0.24626   0.41021   0.39372
  37   37950.9    263.5   0.019647761   0.17044   0.34175   0.03665   0.22869
  38   38072.6    262.7   0.009410418   0.08137  -0.05461  -0.18937  -0.20622
  39   38508.5    259.7   0.243681395   2.08325  -0.97645  -0.77252  -0.73007
  40   38714.5    258.3   0.425715913   3.62011   1.21587   0.33547   1.42451
  41   38793.5    257.8   0.245878919   2.08659   0.29996   1.37254   0.33578
  42   39255.2    254.7   0.001714182   0.01438  -0.07826  -0.06972  -0.05822
  43   39338.2    254.2   0.001045938   0.00875   0.03212   0.07619   0.04378
  44   39378.9    253.9   0.022528541   0.18834  -0.34960  -0.11318  -0.23090
  45   39774.3    251.4   0.009427764   0.07803  -0.07362   0.08219   0.25663
  46   40088.4    249.4   0.000496502   0.00408   0.00129  -0.02273  -0.05966
  47   40169.1    248.9   0.041791410   0.34251   0.26240   0.04278  -0.52137

FINAL SINGLE POINT ENERGY     -7600.944986452601

DIPOLE MOMENT
-------------
                                X             Y             Z
Electronic contribution:   -115.42010     -26.91521    -105.50725
Nuclear contribution   :    115.57781      29.87415     106.06235
                        -----------------------------------------
Total Dipole Moment    :      0.15771       2.95894       0.55510
                        -----------------------------------------
Magnitude (a.u.)       :      3.01468
Magnitude (Debye)      :      7.66272

Rotational constants in cm-1:     0.000629     0.000350     0.000270
Rotational constants in MHz :    18.853836    10.495867     8.083557

                             ****ORCA TERMINATED NORMALLY****
TOTAL RUN TIME: 0 days 0 hours 8 minutes 39 seconds 694 msec
