                         Program Version 4.2.0 -  RELEASE  -
|  1> # ORCA input file
|  2> # SCF done       -185.682173995125          0.000475581193
|  3> ! CAM-B3LYP def2-SVP def2/J RIJCOSX Grid4 TightSCF
|  4> %maxcore 5000
|  5> %tddft
|  6>     Mode sTDDFT
|  7>     Ethresh 5.0
|  8>     maxcore 5000
|  9> end
| 10>
| 11> %pal
| 12>   nprocs 6
| 13>   end
| 14> * xyz 0 1
| 15>    C      -14.55655         7.61089        -2.24829
| 16>    C      -15.26734         8.14062        -1.20279
| 17>    C      -16.53037         8.75330        -1.33164
| 18>    N      -17.55812         9.26227        -1.37836
| 19>    C      -14.82164         8.13448         0.13468
| 20>    N      -14.49430         8.14786         1.23479
| 21>    C      -14.97772         7.59022        -3.64710
| 22>    C      -13.97587         6.94882        -4.42166
| 23>    C      -14.08507         6.77631        -5.78058
| 24>    C      -15.23769         7.25980        -6.40811
| 25>    C      -16.23185         7.89846        -5.62875
| 26>    C      -16.12113         8.07246        -4.25364
| 27>    S      -17.57051         8.41994        -6.60374
| 28>    C      -16.78910         7.78207        -8.02609
| 29>    C      -15.58635         7.20754        -7.78509
| 30>   Br      -17.63258         7.93517        -9.69363
| 31>    C      -12.88169         6.54145        -3.53507
| 32>    O      -11.84498         5.95948        -3.84534
| 33>    C      -13.26380         6.96831        -2.18573
| 34>    C      -12.44381         6.74504        -1.10560
| 35>    N      -11.27411         6.12059        -1.28205
| 36>    C      -10.33998         5.82159        -0.34707
| 37>    S      -10.54059         6.24987         1.32135
| 38>    C       -9.00185         5.52739         1.66426
| 39>    N       -8.55746         5.56102         2.99630
| 40>    O       -7.48133         5.05724         3.24617
| 41>    O       -9.29550         6.10150         3.79994
| 42>    C       -8.38048         4.99492         0.56900
| 43>    C       -9.13564         5.15161        -0.61213
| 44>    C       -8.76034         4.70002        -1.92045
| 45>    C       -7.62080         4.04654        -2.22888
| 46>    C       -7.30348         3.61678        -3.54748
| 47>    C       -6.15616         2.93557        -3.93624
| 48>    C       -5.16066         2.60412        -3.00211
| 49>    N       -4.38454         2.36326        -2.19338
| 50>    C       -6.13617         2.64138        -5.32443
| 51>    C       -7.28466         3.11727        -5.95098
| 52>    S       -8.38386         3.91079        -4.89435
| 53>    S       -7.37674         2.81393        -7.65336
| 54>    C       -5.83638         2.02390        -7.53743
| 55>    C       -5.27883         1.99418        -6.26394
| 56>    C       -4.02744         1.32922        -6.26728
| 57>    C       -3.19857         1.12233        -5.15905
| 58>    N       -2.48271         0.92720        -4.28257
| 59>    C       -3.66410         0.86704        -7.53985
| 60>    S       -4.87690         1.25981        -8.74693
| 61>    C       -2.48710         0.16854        -7.84450
| 62>    C       -2.10267        -0.31108        -9.07239
| 63>    C       -0.91192        -1.02846        -9.35181
| 64>    C       -0.77457        -1.40448       -10.65411
| 65>    C       -1.84574        -1.00452       -11.47982
| 66>    S       -3.03878        -0.12632       -10.53986
| 67>    C       -2.03402        -1.22292       -12.83069
| 68>    C       -1.20483        -1.91858       -13.73883
| 69>    C       -1.69613        -1.96162       -15.00760
| 70>    C       -2.93990        -1.30165       -15.18668
| 71>    S       -3.45298        -0.61914       -13.64874
| 72>    C       -3.63247        -1.22286       -16.36664
| 73>    C       -4.86363        -0.58672       -16.63457
| 74>    C       -5.50974        -0.61047       -17.87408
| 75>    C       -6.71593         0.12758       -17.77832
| 76>    C       -7.70530         0.40118       -18.69614
| 77>    C       -8.79332         1.18155       -18.27071
| 78>    C       -9.92644         1.62267       -18.93853
| 79>    C      -10.72733         2.39739       -18.04013
| 80>    C      -10.08502         2.43210       -16.81642
| 81>    C       -8.86942         1.68427       -16.90987
| 82>    C       -7.89095         1.41396       -15.99324
| 83>    C       -6.79756         0.62630       -16.41676
| 84>    C       -5.67895         0.18888       -15.73785
| 85>    C      -11.98576         3.03915       -18.33543
| 86>    C      -12.61337         3.01062       -19.50795
| 87>    H      -13.30641         6.28443        -6.34211
| 88>    H      -16.90585         8.56587        -3.70508
| 89>    H      -14.96967         6.76515        -8.54592
| 90>    H      -12.70045         7.05504        -0.10092
| 91>    H      -11.09844         5.85422        -2.26965
| 92>    H       -7.42121         4.51501         0.63130
| 93>    H       -9.45473         4.90095        -2.72649
| 94>    H       -6.88216         3.81174        -1.47545
| 95>    H       -1.81964        -0.01088        -7.01117
| 96>    H       -0.19917        -1.24324        -8.57563
| 97>    H        0.06455        -1.95572       -11.03925
| 98>    H       -0.27775        -2.36759       -13.43083
| 99>    H       -1.20399        -2.44965       -15.83076
|100>    H       -3.17373        -1.72344       -17.21154
|101>    H       -5.15396        -1.10990       -18.75654
|102>    H       -7.65527         0.03275       -19.71110
|103>    H      -10.16761         1.41753       -19.96537
|104>    H      -10.43188         2.93526       -15.93231
|105>    H       -7.93755         1.78132       -14.97781
|106>    H       -5.45129         0.39916       -14.70998
|107>    H      -12.42546         3.57993       -17.50646
|108>    H      -12.21695         2.48615       -20.36034
|109>    H      -13.55297         3.51404       -19.65526
|110> *
|111>
|112>                          ****END OF INPUT****

CARTESIAN COORDINATES (ANGSTROEM)
---------------------------------
  C    -14.556550    7.610890   -2.248290
  C    -15.267340    8.140620   -1.202790
  C    -16.530370    8.753300   -1.331640
  N    -17.558120    9.262270   -1.378360
  C    -14.821640    8.134480    0.134680
  N    -14.494300    8.147860    1.234790
  C    -14.977720    7.590220   -3.647100
  C    -13.975870    6.948820   -4.421660
  C    -14.085070    6.776310   -5.780580
  C    -15.237690    7.259800   -6.408110
  C    -16.231850    7.898460   -5.628750
  C    -16.121130    8.072460   -4.253640
  S    -17.570510    8.419940   -6.603740
  C    -16.789100    7.782070   -8.026090
  C    -15.586350    7.207540   -7.785090
  Br   -17.632580    7.935170   -9.693630
  C    -12.881690    6.541450   -3.535070
  O    -11.844980    5.959480   -3.845340
  C    -13.263800    6.968310   -2.185730
  C    -12.443810    6.745040   -1.105600
  N    -11.274110    6.120590   -1.282050
  C    -10.339980    5.821590   -0.347070
  S    -10.540590    6.249870    1.321350
  C     -9.001850    5.527390    1.664260
  N     -8.557460    5.561020    2.996300
  O     -7.481330    5.057240    3.246170
  O     -9.295500    6.101500    3.799940
  C     -8.380480    4.994920    0.569000
  C     -9.135640    5.151610   -0.612130
  C     -8.760340    4.700020   -1.920450
  C     -7.620800    4.046540   -2.228880
  C     -7.303480    3.616780   -3.547480
  C     -6.156160    2.935570   -3.936240
  C     -5.160660    2.604120   -3.002110
  N     -4.384540    2.363260   -2.193380
  C     -6.136170    2.641380   -5.324430
  C     -7.284660    3.117270   -5.950980
  S     -8.383860    3.910790   -4.894350
  S     -7.376740    2.813930   -7.653360
  C     -5.836380    2.023900   -7.537430
  C     -5.278830    1.994180   -6.263940
  C     -4.027440    1.329220   -6.267280
  C     -3.198570    1.122330   -5.159050
  N     -2.482710    0.927200   -4.282570
  C     -3.664100    0.867040   -7.539850
  S     -4.876900    1.259810   -8.746930
  C     -2.487100    0.168540   -7.844500
  C     -2.102670   -0.311080   -9.072390
  C     -0.911920   -1.028460   -9.351810
  C     -0.774570   -1.404480  -10.654110
  C     -1.845740   -1.004520  -11.479820
  S     -3.038780   -0.126320  -10.539860
  C     -2.034020   -1.222920  -12.830690
  C     -1.204830   -1.918580  -13.738830
  C     -1.696130   -1.961620  -15.007600
  C     -2.939900   -1.301650  -15.186680
  S     -3.452980   -0.619140  -13.648740
  C     -3.632470   -1.222860  -16.366640
  C     -4.863630   -0.586720  -16.634570
  C     -5.509740   -0.610470  -17.874080
  C     -6.715930    0.127580  -17.778320
  C     -7.705300    0.401180  -18.696140
  C     -8.793320    1.181550  -18.270710
  C     -9.926440    1.622670  -18.938530
  C    -10.727330    2.397390  -18.040130
  C    -10.085020    2.432100  -16.816420
  C     -8.869420    1.684270  -16.909870
  C     -7.890950    1.413960  -15.993240
  C     -6.797560    0.626300  -16.416760
  C     -5.678950    0.188880  -15.737850
  C    -11.985760    3.039150  -18.335430
  C    -12.613370    3.010620  -19.507950
  H    -13.306410    6.284430   -6.342110
  H    -16.905850    8.565870   -3.705080
  H    -14.969670    6.765150   -8.545920
  H    -12.700450    7.055040   -0.100920
  H    -11.098440    5.854220   -2.269650
  H     -7.421210    4.515010    0.631300
  H     -9.454730    4.900950   -2.726490
  H     -6.882160    3.811740   -1.475450
  H     -1.819640   -0.010880   -7.011170
  H     -0.199170   -1.243240   -8.575630
  H      0.064550   -1.955720  -11.039250
  H     -0.277750   -2.367590  -13.430830
  H     -1.203990   -2.449650  -15.830760
  H     -3.173730   -1.723440  -17.211540
  H     -5.153960   -1.109900  -18.756540
  H     -7.655270    0.032750  -19.711100
  H    -10.167610    1.417530  -19.965370
  H    -10.431880    2.935260  -15.932310
  H     -7.937550    1.781320  -14.977810
  H     -5.451290    0.399160  -14.709980
  H    -12.425460    3.579930  -17.506460
  H    -12.216950    2.486150  -20.360340
  H    -13.552970    3.514040  -19.655260

 Total Charge           Charge          ....    0
 Multiplicity           Mult            ....    1
 Number of Electrons    NEL             ....  566
 Basis Dimension        Dim             .... 1169

ORBITAL ENERGIES
----------------

  NO   OCC          E(Eh)            E(eV)
   0   2.0000    -482.893304    -13140.1948
   1   2.0000     -88.994903     -2421.6744
   2   2.0000     -88.984860     -2421.4011
   3   2.0000     -88.983978     -2421.3771
   4   2.0000     -88.983377     -2421.3608
   5   2.0000     -88.976766     -2421.1809
   6   2.0000     -88.952231     -2420.5133
   7   2.0000     -88.951668     -2420.4979
   8   2.0000     -62.571022     -1702.6441
   9   2.0000     -56.404984     -1534.8576
  10   2.0000     -56.402248     -1534.7832
  11   2.0000     -56.402216     -1534.7823
  12   2.0000     -19.242016      -523.6019
  13   2.0000     -19.241939      -523.5998
  14   2.0000     -19.241740      -523.5944
  15   2.0000     -14.653643      -398.7459
  16   2.0000     -14.502386      -394.6300
  17   2.0000     -14.425457      -392.5366
  18   2.0000     -14.421248      -392.4221
  19   2.0000     -14.402262      -391.9055
  20   2.0000     -14.391424      -391.6105
  21   2.0000     -10.388141      -282.6757
  22   2.0000     -10.378011      -282.4000
  23   2.0000     -10.377215      -282.3784
  24   2.0000     -10.367647      -282.1180
  25   2.0000     -10.353281      -281.7271
  26   2.0000     -10.352448      -281.7044
  27   2.0000     -10.349302      -281.6188
  28   2.0000     -10.336385      -281.2673
  29   2.0000     -10.335469      -281.2424
  30   2.0000     -10.332821      -281.1704
  31   2.0000     -10.327960      -281.0381
  32   2.0000     -10.327608      -281.0285
  33   2.0000     -10.325795      -280.9792
  34   2.0000     -10.324268      -280.9376
  35   2.0000     -10.322615      -280.8926
  36   2.0000     -10.320555      -280.8366
  37   2.0000     -10.319257      -280.8013
  38   2.0000     -10.317526      -280.7542
  39   2.0000     -10.316520      -280.7268
  40   2.0000     -10.316065      -280.7144
  41   2.0000     -10.315708      -280.7047
  42   2.0000     -10.314206      -280.6638
  43   2.0000     -10.313878      -280.6549
  44   2.0000     -10.310873      -280.5731
  45   2.0000     -10.310647      -280.5670
  46   2.0000     -10.310594      -280.5655
  47   2.0000     -10.307259      -280.4748
  48   2.0000     -10.306896      -280.4649
  49   2.0000     -10.306793      -280.4621
  50   2.0000     -10.306642      -280.4580
  51   2.0000     -10.306568      -280.4560
  52   2.0000     -10.305806      -280.4352
  53   2.0000     -10.305764      -280.4341
  54   2.0000     -10.303961      -280.3850
  55   2.0000     -10.303161      -280.3633
  56   2.0000     -10.301520      -280.3186
  57   2.0000     -10.294816      -280.1362
  58   2.0000     -10.294130      -280.1175
  59   2.0000     -10.292385      -280.0700
  60   2.0000     -10.292333      -280.0686
  61   2.0000     -10.291876      -280.0562
  62   2.0000     -10.290976      -280.0317
  63   2.0000     -10.290594      -280.0213
  64   2.0000     -10.285039      -279.8701
  65   2.0000     -10.284826      -279.8644
  66   2.0000     -10.283745      -279.8349
  67   2.0000     -10.282555      -279.8025
  68   2.0000     -10.281066      -279.7620
  69   2.0000     -10.276843      -279.6471
  70   2.0000     -10.276420      -279.6356
  71   2.0000     -10.274929      -279.5950
  72   2.0000     -10.274396      -279.5805
  73   2.0000     -10.273827      -279.5650
  74   2.0000     -10.273345      -279.5519
  75   2.0000     -10.265286      -279.3326
  76   2.0000      -8.800461      -239.4727
  77   2.0000      -8.090098      -220.1428
  78   2.0000      -8.080869      -219.8916
  79   2.0000      -8.079031      -219.8416
  80   2.0000      -8.078550      -219.8285
  81   2.0000      -8.071620      -219.6400
  82   2.0000      -8.048225      -219.0033
  83   2.0000      -8.047889      -218.9942
  84   2.0000      -6.636821      -180.5971
  85   2.0000      -6.622161      -180.1982
  86   2.0000      -6.621967      -180.1929
  87   2.0000      -6.059739      -164.8939
  88   2.0000      -6.055354      -164.7746
  89   2.0000      -6.051595      -164.6723
  90   2.0000      -6.050543      -164.6436
  91   2.0000      -6.048562      -164.5898
  92   2.0000      -6.048506      -164.5882
  93   2.0000      -6.046240      -164.5266
  94   2.0000      -6.044445      -164.4777
  95   2.0000      -6.044318      -164.4743
  96   2.0000      -6.042123      -164.4145
  97   2.0000      -6.041295      -164.3920
  98   2.0000      -6.040667      -164.3749
  99   2.0000      -6.039365      -164.3395
 100   2.0000      -6.036933      -164.2733
 101   2.0000      -6.033168      -164.1709
 102   2.0000      -6.017983      -163.7576
 103   2.0000      -6.017666      -163.7490
 104   2.0000      -6.013936      -163.6475
 105   2.0000      -6.013529      -163.6364
 106   2.0000      -6.009142      -163.5171
 107   2.0000      -6.008804      -163.5079
 108   2.0000      -2.752650       -74.9034
 109   2.0000      -2.748596       -74.7931
 110   2.0000      -2.748413       -74.7881
 111   2.0000      -2.736784       -74.4717
 112   2.0000      -2.736763       -74.4711
 113   2.0000      -1.324178       -36.0327
 114   2.0000      -1.156673       -31.4747
 115   2.0000      -1.143606       -31.1191
 116   2.0000      -1.110432       -30.2164
 117   2.0000      -1.036438       -28.2029
 118   2.0000      -1.033049       -28.1107
 119   2.0000      -1.022305       -27.8183
 120   2.0000      -1.015991       -27.6465
 121   2.0000      -1.005433       -27.3592
 122   2.0000      -1.002763       -27.2866
 123   2.0000      -1.000089       -27.2138
 124   2.0000      -0.999190       -27.1893
 125   2.0000      -0.995396       -27.0861
 126   2.0000      -0.985348       -26.8127
 127   2.0000      -0.978843       -26.6357
 128   2.0000      -0.972211       -26.4552
 129   2.0000      -0.968683       -26.3592
 130   2.0000      -0.951813       -25.9001
 131   2.0000      -0.948592       -25.8125
 132   2.0000      -0.927929       -25.2502
 133   2.0000      -0.918547       -24.9949
 134   2.0000      -0.910315       -24.7709
 135   2.0000      -0.908770       -24.7289
 136   2.0000      -0.896140       -24.3852
 137   2.0000      -0.895571       -24.3697
 138   2.0000      -0.890486       -24.2314
 139   2.0000      -0.885156       -24.0863
 140   2.0000      -0.873897       -23.7800
 141   2.0000      -0.872574       -23.7439
 142   2.0000      -0.865817       -23.5601
 143   2.0000      -0.859248       -23.3813
 144   2.0000      -0.857725       -23.3399
 145   2.0000      -0.854280       -23.2461
 146   2.0000      -0.848203       -23.0808
 147   2.0000      -0.839731       -22.8502
 148   2.0000      -0.829078       -22.5604
 149   2.0000      -0.823187       -22.4001
 150   2.0000      -0.811766       -22.0893
 151   2.0000      -0.806485       -21.9456
 152   2.0000      -0.802331       -21.8325
 153   2.0000      -0.791026       -21.5249
 154   2.0000      -0.773785       -21.0558
 155   2.0000      -0.771101       -20.9827
 156   2.0000      -0.760969       -20.7070
 157   2.0000      -0.753571       -20.5057
 158   2.0000      -0.745166       -20.2770
 159   2.0000      -0.739062       -20.1109
 160   2.0000      -0.729044       -19.8383
 161   2.0000      -0.713842       -19.4246
 162   2.0000      -0.708284       -19.2734
 163   2.0000      -0.700380       -19.0583
 164   2.0000      -0.696492       -18.9525
 165   2.0000      -0.689817       -18.7709
 166   2.0000      -0.685484       -18.6530
 167   2.0000      -0.679155       -18.4808
 168   2.0000      -0.677071       -18.4240
 169   2.0000      -0.669032       -18.2053
 170   2.0000      -0.665352       -18.1052
 171   2.0000      -0.658420       -17.9165
 172   2.0000      -0.651670       -17.7328
 173   2.0000      -0.649397       -17.6710
 174   2.0000      -0.643718       -17.5165
 175   2.0000      -0.640465       -17.4279
 176   2.0000      -0.639329       -17.3970
 177   2.0000      -0.635176       -17.2840
 178   2.0000      -0.633439       -17.2367
 179   2.0000      -0.628937       -17.1142
 180   2.0000      -0.626119       -17.0376
 181   2.0000      -0.623670       -16.9709
 182   2.0000      -0.620018       -16.8715
 183   2.0000      -0.611939       -16.6517
 184   2.0000      -0.602362       -16.3911
 185   2.0000      -0.602084       -16.3835
 186   2.0000      -0.595202       -16.1963
 187   2.0000      -0.588575       -16.0159
 188   2.0000      -0.587662       -15.9911
 189   2.0000      -0.584841       -15.9143
 190   2.0000      -0.582218       -15.8430
 191   2.0000      -0.570020       -15.5110
 192   2.0000      -0.566966       -15.4279
 193   2.0000      -0.566272       -15.4090
 194   2.0000      -0.558158       -15.1883
 195   2.0000      -0.557456       -15.1691
 196   2.0000      -0.554532       -15.0896
 197   2.0000      -0.547361       -14.8945
 198   2.0000      -0.544866       -14.8266
 199   2.0000      -0.542983       -14.7753
 200   2.0000      -0.539123       -14.6703
 201   2.0000      -0.536288       -14.5931
 202   2.0000      -0.536236       -14.5917
 203   2.0000      -0.534018       -14.5314
 204   2.0000      -0.529929       -14.4201
 205   2.0000      -0.528255       -14.3745
 206   2.0000      -0.518031       -14.0963
 207   2.0000      -0.517084       -14.0706
 208   2.0000      -0.513520       -13.9736
 209   2.0000      -0.511447       -13.9172
 210   2.0000      -0.507378       -13.8065
 211   2.0000      -0.507069       -13.7980
 212   2.0000      -0.506559       -13.7842
 213   2.0000      -0.503702       -13.7064
 214   2.0000      -0.502836       -13.6829
 215   2.0000      -0.500360       -13.6155
 216   2.0000      -0.498049       -13.5526
 217   2.0000      -0.496389       -13.5074
 218   2.0000      -0.495644       -13.4872
 219   2.0000      -0.488286       -13.2869
 220   2.0000      -0.486354       -13.2344
 221   2.0000      -0.483749       -13.1635
 222   2.0000      -0.482059       -13.1175
 223   2.0000      -0.476943       -12.9783
 224   2.0000      -0.476246       -12.9593
 225   2.0000      -0.474528       -12.9126
 226   2.0000      -0.472970       -12.8702
 227   2.0000      -0.468911       -12.7597
 228   2.0000      -0.467039       -12.7088
 229   2.0000      -0.461412       -12.5557
 230   2.0000      -0.460187       -12.5223
 231   2.0000      -0.459667       -12.5082
 232   2.0000      -0.458761       -12.4835
 233   2.0000      -0.458661       -12.4808
 234   2.0000      -0.456279       -12.4160
 235   2.0000      -0.452349       -12.3091
 236   2.0000      -0.451201       -12.2778
 237   2.0000      -0.451051       -12.2737
 238   2.0000      -0.448572       -12.2063
 239   2.0000      -0.441969       -12.0266
 240   2.0000      -0.439279       -11.9534
 241   2.0000      -0.435213       -11.8427
 242   2.0000      -0.435089       -11.8394
 243   2.0000      -0.432688       -11.7740
 244   2.0000      -0.430898       -11.7253
 245   2.0000      -0.429765       -11.6945
 246   2.0000      -0.428247       -11.6532
 247   2.0000      -0.423335       -11.5195
 248   2.0000      -0.421953       -11.4819
 249   2.0000      -0.421269       -11.4633
 250   2.0000      -0.419631       -11.4187
 251   2.0000      -0.418131       -11.3779
 252   2.0000      -0.415089       -11.2951
 253   2.0000      -0.412414       -11.2223
 254   2.0000      -0.410799       -11.1784
 255   2.0000      -0.398153       -10.8343
 256   2.0000      -0.397191       -10.8081
 257   2.0000      -0.396898       -10.8002
 258   2.0000      -0.388803       -10.5799
 259   2.0000      -0.382864       -10.4183
 260   2.0000      -0.382757       -10.4153
 261   2.0000      -0.382283       -10.4024
 262   2.0000      -0.380951       -10.3662
 263   2.0000      -0.379018       -10.3136
 264   2.0000      -0.375309       -10.2127
 265   2.0000      -0.371069       -10.0973
 266   2.0000      -0.369974       -10.0675
 267   2.0000      -0.364293        -9.9129
 268   2.0000      -0.358605        -9.7581
 269   2.0000      -0.348622        -9.4865
 270   2.0000      -0.345323        -9.3967
 271   2.0000      -0.340053        -9.2533
 272   2.0000      -0.331346        -9.0164
 273   2.0000      -0.327579        -8.9139
 274   2.0000      -0.324074        -8.8185
 275   2.0000      -0.311843        -8.4857
 276   2.0000      -0.304092        -8.2748
 277   2.0000      -0.296171        -8.0592
 278   2.0000      -0.287982        -7.8364
 279   2.0000      -0.277209        -7.5432
 280   2.0000      -0.263247        -7.1633
 281   2.0000      -0.256502        -6.9798
 282   2.0000      -0.211944        -5.7673
 283   0.0000      -0.105515        -2.8712
 284   0.0000      -0.095380        -2.5954
 285   0.0000      -0.082696        -2.2503
 286   0.0000      -0.077165        -2.0998
 287   0.0000      -0.057450        -1.5633

MULLIKEN ATOMIC CHARGES
-----------------------
   0 C :    0.331303
   1 C :   -0.340639
   2 C :   -0.185145
   3 N :    0.154510
   4 C :   -0.195601
   5 N :    0.145001
   6 C :    0.007482
   7 C :   -0.004933
   8 C :   -0.067761
   9 C :    0.114231
  10 C :   -0.091473
  11 C :   -0.017971
  12 S :    0.194346
  13 C :   -0.124896
  14 C :    0.041825
  15 Br:    0.028583
  16 C :    0.169553
  17 O :   -0.228413
  18 C :   -0.131054
  19 C :    0.028908
  20 N :   -0.011744
  21 C :   -0.117600
  22 S :    0.181875
  23 C :    0.006266
  24 N :    0.273383
  25 O :   -0.236823
  26 O :   -0.254956
  27 C :    0.010725
  28 C :    0.137249
  29 C :   -0.059110
  30 C :    0.001210
  31 C :   -0.088909
  32 C :   -0.022411
  33 C :   -0.321513
  34 N :    0.212277
  35 C :    0.161909
  36 C :   -0.227494
  37 S :    0.146944
  38 S :    0.177513
  39 C :   -0.231660
  40 C :    0.168103
  41 C :   -0.038939
  42 C :   -0.324619
  43 N :    0.192624
  44 C :   -0.062901
  45 S :    0.132726
  46 C :   -0.056021
  47 C :   -0.018930
  48 C :    0.023576
  49 C :    0.041003
  50 C :   -0.043852
  51 S :    0.047725
  52 C :   -0.018980
  53 C :    0.020994
  54 C :    0.045717
  55 C :   -0.031408
  56 S :    0.047201
  57 C :   -0.002621
  58 C :    0.055051
  59 C :   -0.032021
  60 C :    0.065370
  61 C :    0.003405
  62 C :    0.043812
  63 C :   -0.015853
  64 C :    0.061076
  65 C :   -0.024325
  66 C :    0.061090
  67 C :    0.001958
  68 C :    0.039673
  69 C :   -0.025525
  70 C :    0.009623
  71 C :   -0.021542
  72 H :   -0.011523
  73 H :   -0.003183
  74 H :   -0.003818
  75 H :    0.047746
  76 H :    0.186698
  77 H :    0.023154
  78 H :    0.001771
  79 H :    0.017101
  80 H :    0.012038
  81 H :   -0.005003
  82 H :   -0.011563
  83 H :   -0.012452
  84 H :   -0.009733
  85 H :   -0.019968
  86 H :   -0.026474
  87 H :   -0.023353
  88 H :   -0.021241
  89 H :   -0.027158
  90 H :   -0.024176
  91 H :   -0.007707
  92 H :   -0.019344
  93 H :    0.008219
  94 H :    0.021789
Sum of atomic charges:   -0.0000000

LOEWDIN ATOMIC CHARGES
----------------------
   0 C :    0.078345
   1 C :   -0.146104
   2 C :   -0.020104
   3 N :   -0.051159
   4 C :   -0.020497
   5 N :   -0.050444
   6 C :   -0.017621
   7 C :   -0.051953
   8 C :    0.024361
   9 C :   -0.033833
  10 C :   -0.143221
  11 C :   -0.006550
  12 S :    0.439764
  13 C :   -0.270896
  14 C :   -0.070078
  15 Br:    0.140518
  16 C :    0.098081
  17 O :   -0.179753
  18 C :   -0.146038
  19 C :    0.113556
  20 N :    0.079232
  21 C :   -0.113392
  22 S :    0.475735
  23 C :   -0.195769
  24 N :    0.272523
  25 O :   -0.203968
  26 O :   -0.221359
  27 C :    0.007041
  28 C :   -0.084834
  29 C :   -0.028491
  30 C :   -0.025819
  31 C :   -0.132755
  32 C :   -0.091864
  33 C :   -0.040693
  34 N :   -0.031880
  35 C :   -0.063353
  36 C :   -0.330513
  37 S :    0.448093
  38 S :    0.416047
  39 C :   -0.343974
  40 C :   -0.058811
  41 C :   -0.116617
  42 C :   -0.042458
  43 N :   -0.049049
  44 C :   -0.123629
  45 S :    0.433159
  46 C :   -0.091197
  47 C :   -0.135351
  48 C :   -0.039902
  49 C :   -0.024323
  50 C :   -0.193560
  51 S :    0.361875
  52 C :   -0.160356
  53 C :   -0.045055
  54 C :   -0.016826
  55 C :   -0.161283
  56 S :    0.378877
  57 C :   -0.028924
  58 C :   -0.067176
  59 C :    0.019285
  60 C :   -0.060858
  61 C :    0.076894
  62 C :   -0.063496
  63 C :    0.051531
  64 C :   -0.058143
  65 C :    0.016932
  66 C :   -0.057615
  67 C :    0.071291
  68 C :   -0.060837
  69 C :    0.028370
  70 C :   -0.021668
  71 C :   -0.051697
  72 H :    0.041023
  73 H :    0.042626
  74 H :    0.038806
  75 H :    0.037161
  76 H :    0.083368
  77 H :    0.049962
  78 H :    0.022332
  79 H :    0.043647
  80 H :    0.048563
  81 H :    0.036425
  82 H :    0.033571
  83 H :    0.032575
  84 H :    0.034695
  85 H :    0.036905
  86 H :    0.024454
  87 H :    0.035729
  88 H :    0.026088
  89 H :    0.024467
  90 H :    0.035624
  91 H :    0.013547
  92 H :    0.029367
  93 H :    0.018066
  94 H :    0.025236

  Mayer bond orders larger than 0.100000
B(  0-C ,  1-C ) :   1.6306 B(  0-C ,  6-C ) :   1.0044 B(  0-C , 18-C ) :   1.0931
B(  1-C ,  2-C ) :   1.1420 B(  1-C ,  4-C ) :   1.1476 B(  2-C ,  3-N ) :   2.9689
B(  4-C ,  5-N ) :   2.9538 B(  6-C ,  7-C ) :   1.2727 B(  6-C , 11-C ) :   1.4247
B(  7-C ,  8-C ) :   1.4225 B(  7-C , 16-C ) :   0.9834 B(  8-C ,  9-C ) :   1.2417
B(  8-C , 72-H ) :   1.0179 B(  9-C , 10-C ) :   1.3091 B(  9-C , 14-C ) :   1.1648
B( 10-C , 11-C ) :   1.3200 B( 10-C , 12-S ) :   1.0912 B( 11-C , 73-H ) :   0.9793
B( 12-S , 13-C ) :   1.0897 B( 13-C , 14-C ) :   1.6158 B( 13-C , 15-Br) :   1.0212
B( 14-C , 74-H ) :   1.0001 B( 16-C , 17-O ) :   2.0210 B( 16-C , 18-C ) :   1.0092
B( 17-O , 76-H ) :   0.1420 B( 18-C , 19-C ) :   1.4514 B( 19-C , 20-N ) :   1.3406
B( 19-C , 75-H ) :   0.9317 B( 20-N , 21-C ) :   1.1948 B( 20-N , 76-H ) :   0.8218
B( 21-C , 22-S ) :   1.1359 B( 21-C , 28-C ) :   1.3733 B( 22-S , 23-C ) :   1.0837
B( 23-C , 24-N ) :   0.9566 B( 23-C , 27-C ) :   1.5149 B( 24-N , 25-O ) :   1.5429
B( 24-N , 26-O ) :   1.5167 B( 25-O , 26-O ) :   0.2656 B( 27-C , 28-C ) :   1.2147
B( 27-C , 77-H ) :   0.9991 B( 28-C , 29-C ) :   1.0795 B( 29-C , 30-C ) :   1.6936
B( 29-C , 78-H ) :   0.9680 B( 30-C , 31-C ) :   1.1750 B( 30-C , 79-H ) :   0.9651
B( 31-C , 32-C ) :   1.4872 B( 31-C , 37-S ) :   1.1128 B( 32-C , 33-C ) :   1.1746
B( 32-C , 35-C ) :   1.2494 B( 33-C , 34-N ) :   2.9849 B( 35-C , 36-C ) :   1.4067
B( 35-C , 40-C ) :   1.0504 B( 36-C , 37-S ) :   1.0925 B( 36-C , 38-S ) :   1.0896
B( 38-S , 39-C ) :   1.0711 B( 39-C , 40-C ) :   1.4110 B( 39-C , 45-S ) :   1.0837
B( 40-C , 41-C ) :   1.2676 B( 41-C , 42-C ) :   1.1942 B( 41-C , 44-C ) :   1.4387
B( 42-C , 43-N ) :   2.9718 B( 44-C , 45-S ) :   1.0963 B( 44-C , 46-C ) :   1.2376
B( 46-C , 47-C ) :   1.5358 B( 46-C , 80-H ) :   0.9616 B( 47-C , 48-C ) :   1.1526
B( 47-C , 51-S ) :   1.0483 B( 48-C , 49-C ) :   1.5800 B( 48-C , 81-H ) :   1.0006
B( 49-C , 50-C ) :   1.1959 B( 49-C , 82-H ) :   0.9923 B( 50-C , 51-S ) :   1.0270
B( 50-C , 52-C ) :   1.5038 B( 52-C , 53-C ) :   1.1860 B( 52-C , 56-S ) :   1.0562
B( 53-C , 54-C ) :   1.5896 B( 53-C , 83-H ) :   0.9939 B( 54-C , 55-C ) :   1.1417
B( 54-C , 84-H ) :   0.9991 B( 55-C , 56-S ) :   1.0151 B( 55-C , 57-C ) :   1.5764
B( 57-C , 58-C ) :   1.1358 B( 57-C , 85-H ) :   0.9702 B( 58-C , 59-C ) :   1.4280
B( 58-C , 69-C ) :   1.1323 B( 59-C , 60-C ) :   1.1218 B( 59-C , 86-H ) :   1.0194
B( 60-C , 61-C ) :   1.4150 B( 60-C , 68-C ) :   1.1326 B( 61-C , 62-C ) :   1.1506
B( 61-C , 87-H ) :   1.0045 B( 62-C , 63-C ) :   1.4203 B( 62-C , 66-C ) :   1.1268
B( 63-C , 64-C ) :   1.1544 B( 63-C , 88-H ) :   1.0079 B( 64-C , 65-C ) :   1.4996
B( 64-C , 70-C ) :   1.0828 B( 65-C , 66-C ) :   1.0872 B( 65-C , 89-H ) :   1.0169
B( 66-C , 67-C ) :   1.4626 B( 67-C , 68-C ) :   1.1261 B( 67-C , 90-H ) :   1.0041
B( 68-C , 69-C ) :   1.4623 B( 69-C , 91-H ) :   0.9896 B( 70-C , 71-C ) :   1.9360
B( 70-C , 92-H ) :   0.9666 B( 71-C , 93-H ) :   0.9527 B( 71-C , 94-H ) :   0.9491

-----------------------------------------------------------------------------
         ABSORPTION SPECTRUM VIA TRANSITION ELECTRIC DIPOLE MOMENTS
-----------------------------------------------------------------------------
State   Energy  Wavelength   fosc         T2         TX        TY        TZ
        (cm-1)    (nm)                  (au**2)     (au)      (au)      (au)
-----------------------------------------------------------------------------
   0    6710.3   1490.2   0.016471660   0.80811   0.34398   0.00917   0.83048
   1   14353.0    696.7   1.404928895  32.22464  -1.01287  -0.69653  -5.54198
   2   15301.1    653.5   0.032462610   0.69845   0.09453  -0.26903  -0.78558
   3   17978.8    556.2   0.020234991   0.37053  -0.52120   0.22265  -0.22204
   4   21115.2    473.6   0.973185222  15.17315  -3.45324   1.63100  -0.76686
   5   21714.9    460.5   0.001596246   0.02420   0.13779  -0.07166   0.00888
   6   22331.2    447.8   0.126370848   1.86299  -1.08928   0.46170  -0.68065
   7   23652.9    422.8   0.020543397   0.28593  -0.43722   0.26118   0.16295
   8   24036.9    416.0   0.155808786   2.13397  -1.21516   0.73398   0.34442
   9   24382.3    410.1   0.049437689   0.66751  -0.57787   0.21591  -0.53569
  10   25601.2    390.6   0.398959996   5.13032   1.70131  -1.18154  -0.91643
  11   26216.1    381.4   0.101248251   1.27144   0.83096  -0.56254  -0.51429
  12   26964.1    370.9   0.922032607  11.25733   2.84259  -1.65179  -0.66980
  13   27410.0    364.8   0.157158353   1.88757   0.54954  -0.49161  -1.15927
  14   27928.4    358.1   0.163305496   1.92500   1.19813  -0.66991  -0.20173
  15   28062.7    356.3   0.340477704   3.99425  -1.73921   0.81329  -0.55494
  16   28468.8    351.3   0.025619094   0.29626  -0.45748   0.19363  -0.22244
  17   28604.8    349.6   0.217035337   2.49785  -0.89695   0.18215  -1.28847
  18   29561.4    338.3   0.844897667   9.40926  -1.09221   0.05684  -2.86585
  19   29731.7    336.3   0.065595693   0.72633   0.19198   0.05238   0.82869
  20   30153.5    331.6   0.029380075   0.32077   0.47704  -0.29600  -0.07476
  21   30237.4    330.7   0.014300919   0.15570   0.01602  -0.06632  -0.38865
  22   30472.0    328.2   0.000838428   0.00906   0.09018   0.02544  -0.01669
  23   31462.1    317.8   0.011661916   0.12203  -0.01795   0.06488   0.34278
  24   31832.2    314.1   0.098517447   1.01888   0.84093  -0.28511   0.48003
  25   31979.2    312.7   0.352200003   3.62575   0.55668   0.04946   1.82028
  26   32293.9    309.7   0.003406758   0.03473   0.16543  -0.08200  -0.02530
  27   33040.6    302.7   0.017757763   0.17694   0.16377  -0.15666  -0.35436
  28   33334.8    300.0   0.063521310   0.62733  -0.07418   0.18793   0.76584
  29   33500.8    298.5   0.002402139   0.02361  -0.03284  -0.01184  -0.14962
  30   33747.7    296.3   0.183836523   1.79334  -1.12817   0.49700  -0.52303
  31   33820.4    295.7   0.000055599   0.00054   0.00424   0.00383  -0.02255
  32   33984.4    294.3   0.295477554   2.86234   0.35062  -0.43135  -1.59792
  33   34058.0    293.6   0.308814559   2.98506   0.12178  -0.36278  -1.68482
  34   34169.0    292.7   0.034768079   0.33498  -0.24591   0.22352   0.47387
  35   34302.3    291.5   0.003838566   0.03684  -0.04063   0.05805   0.17838
  36   34786.2    287.5   0.000108052   0.00102   0.02159   0.02307   0.00495
  37   35120.6    284.7   0.016172392   0.15160   0.34057  -0.18326   0.04499
  38   35765.4    279.6   0.018437115   0.16971  -0.26856   0.18220   0.25375
  39   36220.5    276.1   0.008465750   0.07695  -0.23572   0.13505   0.05607
  40   36357.2    275.0   0.008162821   0.07391   0.23470  -0.11881   0.06866
  41   36437.3    274.4   0.000034018   0.00031   0.00476  -0.00884   0.01437
  42   36564.1    273.5   0.053455089   0.48129   0.29712  -0.26069  -0.57013
  43   36616.7    273.1   0.020778895   0.18682   0.25654  -0.21416  -0.27412
  44   36873.7    271.2   0.007468791   0.06668   0.17070  -0.06285   0.18329
  45   37018.1    270.1   0.009154161   0.08141   0.18939  -0.06869   0.20205
  46   37130.9    269.3   0.011939029   0.10585   0.25149  -0.16112  -0.12903
  47   37190.3    268.9   0.019978364   0.17685  -0.36970   0.18046  -0.08721
  48   37212.3    268.7   0.248022704   2.19422   1.27868  -0.61198   0.42976
  49   37426.4    267.2   0.029190626   0.25677  -0.44389   0.24378  -0.01750
  50   37903.1    263.8   0.076695835   0.66615  -0.10841  -0.12282  -0.79957
  51   38125.7    262.3   0.212612753   1.83589  -1.14404   0.48849  -0.53706
  52   38843.4    257.4   0.132735837   1.12498  -0.94046   0.45504  -0.18293
  53   39110.5    255.7   0.037263629   0.31367  -0.35163   0.25112   0.35632
  54   39377.0    254.0   0.006289436   0.05258  -0.00196  -0.03934  -0.22590
  55   39662.7    252.1   0.018984579   0.15758  -0.31462   0.18397   0.15731
  56   39992.6    250.0   0.033478958   0.27559   0.30141  -0.25021  -0.34948
  57   40061.5    249.6   0.060504683   0.49721  -0.55935   0.32306   0.28278

FINAL SINGLE POINT ENERGY     -8020.697680557561

DIPOLE MOMENT
-------------
                                X             Y             Z
Electronic contribution:   -104.01359      68.28653      51.98403
Nuclear contribution   :    103.14051     -69.38593     -59.63874
                        -----------------------------------------
Total Dipole Moment    :     -0.87308      -1.09940      -7.65471
                        -----------------------------------------
Magnitude (a.u.)       :      7.78239
Magnitude (Debye)      :     19.78127

Rotational constants in cm-1:     0.000615     0.000292     0.000198
Rotational constants in MHz :    18.451517     8.741867     5.932766

                             ****ORCA TERMINATED NORMALLY****
TOTAL RUN TIME: 0 days 0 hours 11 minutes 7 seconds 600 msec
