                         Program Version 4.2.0 -  RELEASE  -
|  1> # ORCA input file
|  2> # SCF done       -176.321265123118          0.000789861111
|  3> ! CAM-B3LYP def2-SVP def2/J RIJCOSX Grid4 TightSCF
|  4> %maxcore 5000
|  5> %tddft
|  6>     Mode sTDDFT
|  7>     Ethresh 5.0
|  8>     maxcore 5000
|  9> end
| 10>
| 11> %pal
| 12>   nprocs 6
| 13>   end
| 14> * xyz 0 1
| 15>    C      -13.26547         9.89062        -3.12001
| 16>    C      -14.33542        10.23488        -2.33605
| 17>    C      -15.31118        11.18581        -2.69844
| 18>    N      -16.13212        11.94990        -2.94229
| 19>    C      -14.58520         9.68310        -1.06289
| 20>    N      -14.81644         9.25691        -0.02244
| 21>    C      -12.95552        10.44299        -4.43679
| 22>    C      -11.75400         9.85560        -4.91243
| 23>    C      -11.20422        10.17165        -6.13162
| 24>    C      -11.87181        11.11170        -6.92297
| 25>    C      -13.06929        11.69347        -6.44155
| 26>    C      -13.62417        11.37440        -5.20702
| 27>    S      -13.73043        12.82657        -7.57866
| 28>    C      -12.40940        12.50840        -8.67169
| 29>    C      -11.51672        11.60032        -8.20955
| 30>   Br      -12.33253        13.40375       -10.31723
| 31>    C      -11.26372         8.90510        -3.91076
| 32>    O      -10.25008         8.21282        -3.97130
| 33>    C      -12.22947         8.93206        -2.80786
| 34>    C      -12.08387         8.11694        -1.71067
| 35>    N      -11.03042         7.29594        -1.63832
| 36>    C      -10.72812         6.39866        -0.66928
| 37>    S      -11.75404         6.13283         0.70235
| 38>    C      -10.65111         4.91460         1.25735
| 39>    N      -10.96221         4.26368         2.46279
| 40>    O      -10.19132         3.41450         2.86105
| 41>    O      -11.99065         4.60887         3.01538
| 42>    C       -9.57124         4.72646         0.43952
| 43>    C       -9.58923         5.57888        -0.68326
| 44>    C       -8.59154         5.64977        -1.71134
| 45>    C       -7.56806         4.78854        -1.88462
| 46>    C       -6.60806         4.93869        -2.92528
| 47>    C       -5.58389         4.05542        -3.24347
| 48>    C       -5.39399         2.87274        -2.50926
| 49>    N       -5.28559         1.92769        -1.86950
| 50>    C       -4.79980         4.49687        -4.34195
| 51>    C       -5.25411         5.72441        -4.81561
| 52>    S       -6.61975         6.34062        -3.97525
| 53>    S       -4.35813         6.38362        -6.14269
| 54>    C       -3.34383         4.97778        -6.07960
| 55>    C       -3.67503         4.04966        -5.09836
| 56>    C       -2.80841         2.92868        -5.14213
| 57>    C       -2.87169         1.80416        -4.31067
| 58>    N       -2.88676         0.85999        -3.65779
| 59>    C       -1.83686         3.03563        -6.14533
| 60>    S       -1.98902         4.53381        -7.04562
| 61>    C       -0.85124         2.07727        -6.43008
| 62>    C        0.14157         2.16692        -7.37143
| 63>    C        1.12679         1.17845        -7.63541
| 64>    C        2.02100         1.52120        -8.60079
| 65>    C        1.80199         2.80274        -9.15646
| 66>    S        0.39547         3.54820        -8.41933
| 67>    C        2.53720         3.46493       -10.11482
| 68>    C        3.70952         3.02887       -10.77943
| 69>    C        4.21269         3.93809       -11.65273
| 70>    C        3.48232         5.15820       -11.72527
| 71>    S        2.09440         5.06982       -10.65440
| 72>    C        3.77442         6.19080       -12.57171
| 73>    C        3.15596         7.45816       -12.68761
| 74>    C        2.53473         8.28511       -11.75913
| 75>    C        2.01438         9.46603       -12.35193
| 76>    S        1.10639        10.76565       -11.58323
| 77>    C        0.83205        10.05602        -9.92843
| 78>    C        2.13449         9.56323        -9.34122
| 79>    S        2.59879         7.94383       -10.04043
| 80>    C        2.27520         9.54490       -13.68992
| 81>    S        3.15834         8.20255       -14.27365
| 82>    H      -10.28968         9.70704        -6.46534
| 83>    H      -14.53892        11.84438        -4.88680
| 84>    H      -10.64420        11.28671        -8.75292
| 85>    H      -12.79163         8.10086        -0.89201
| 86>    H      -10.40285         7.36684        -2.46303
| 87>    H       -8.80128         4.00995         0.65934
| 88>    H       -8.67244         6.47251        -2.41071
| 89>    H       -7.43679         3.92645        -1.24591
| 90>    H       -0.88631         1.17724        -5.82924
| 91>    H        1.13722         0.24924        -7.09399
| 92>    H        2.83304         0.89494        -8.92386
| 93>    H        4.14434         2.06452       -10.58784
| 94>    H        5.09804         3.78888       -12.24534
| 95>    H        4.54553         5.99446       -13.30720
| 96>    H        0.09987         9.25075       -10.00137
| 97>    H        0.41665        10.87395        -9.33959
| 98>    H        2.03874         9.37328        -8.27210
| 99>    H        2.94301        10.27456        -9.51386
|100>    H        1.98382        10.33486       -14.35188
|101> *
|102>
|103>                          ****END OF INPUT****

CARTESIAN COORDINATES (ANGSTROEM)
---------------------------------
  C    -13.265470    9.890620   -3.120010
  C    -14.335420   10.234880   -2.336050
  C    -15.311180   11.185810   -2.698440
  N    -16.132120   11.949900   -2.942290
  C    -14.585200    9.683100   -1.062890
  N    -14.816440    9.256910   -0.022440
  C    -12.955520   10.442990   -4.436790
  C    -11.754000    9.855600   -4.912430
  C    -11.204220   10.171650   -6.131620
  C    -11.871810   11.111700   -6.922970
  C    -13.069290   11.693470   -6.441550
  C    -13.624170   11.374400   -5.207020
  S    -13.730430   12.826570   -7.578660
  C    -12.409400   12.508400   -8.671690
  C    -11.516720   11.600320   -8.209550
  Br   -12.332530   13.403750  -10.317230
  C    -11.263720    8.905100   -3.910760
  O    -10.250080    8.212820   -3.971300
  C    -12.229470    8.932060   -2.807860
  C    -12.083870    8.116940   -1.710670
  N    -11.030420    7.295940   -1.638320
  C    -10.728120    6.398660   -0.669280
  S    -11.754040    6.132830    0.702350
  C    -10.651110    4.914600    1.257350
  N    -10.962210    4.263680    2.462790
  O    -10.191320    3.414500    2.861050
  O    -11.990650    4.608870    3.015380
  C     -9.571240    4.726460    0.439520
  C     -9.589230    5.578880   -0.683260
  C     -8.591540    5.649770   -1.711340
  C     -7.568060    4.788540   -1.884620
  C     -6.608060    4.938690   -2.925280
  C     -5.583890    4.055420   -3.243470
  C     -5.393990    2.872740   -2.509260
  N     -5.285590    1.927690   -1.869500
  C     -4.799800    4.496870   -4.341950
  C     -5.254110    5.724410   -4.815610
  S     -6.619750    6.340620   -3.975250
  S     -4.358130    6.383620   -6.142690
  C     -3.343830    4.977780   -6.079600
  C     -3.675030    4.049660   -5.098360
  C     -2.808410    2.928680   -5.142130
  C     -2.871690    1.804160   -4.310670
  N     -2.886760    0.859990   -3.657790
  C     -1.836860    3.035630   -6.145330
  S     -1.989020    4.533810   -7.045620
  C     -0.851240    2.077270   -6.430080
  C      0.141570    2.166920   -7.371430
  C      1.126790    1.178450   -7.635410
  C      2.021000    1.521200   -8.600790
  C      1.801990    2.802740   -9.156460
  S      0.395470    3.548200   -8.419330
  C      2.537200    3.464930  -10.114820
  C      3.709520    3.028870  -10.779430
  C      4.212690    3.938090  -11.652730
  C      3.482320    5.158200  -11.725270
  S      2.094400    5.069820  -10.654400
  C      3.774420    6.190800  -12.571710
  C      3.155960    7.458160  -12.687610
  C      2.534730    8.285110  -11.759130
  C      2.014380    9.466030  -12.351930
  S      1.106390   10.765650  -11.583230
  C      0.832050   10.056020   -9.928430
  C      2.134490    9.563230   -9.341220
  S      2.598790    7.943830  -10.040430
  C      2.275200    9.544900  -13.689920
  S      3.158340    8.202550  -14.273650
  H    -10.289680    9.707040   -6.465340
  H    -14.538920   11.844380   -4.886800
  H    -10.644200   11.286710   -8.752920
  H    -12.791630    8.100860   -0.892010
  H    -10.402850    7.366840   -2.463030
  H     -8.801280    4.009950    0.659340
  H     -8.672440    6.472510   -2.410710
  H     -7.436790    3.926450   -1.245910
  H     -0.886310    1.177240   -5.829240
  H      1.137220    0.249240   -7.093990
  H      2.833040    0.894940   -8.923860
  H      4.144340    2.064520  -10.587840
  H      5.098040    3.788880  -12.245340
  H      4.545530    5.994460  -13.307200
  H      0.099870    9.250750  -10.001370
  H      0.416650   10.873950   -9.339590
  H      2.038740    9.373280   -8.272100
  H      2.943010   10.274560   -9.513860
  H      1.983820   10.334860  -14.351880

 Total Charge           Charge          ....    0
 Multiplicity           Mult            ....    1
 Number of Electrons    NEL             ....  562
 Basis Dimension        Dim             .... 1091

ORBITAL ENERGIES
----------------

  NO   OCC          E(Eh)            E(eV)
   0   2.0000    -482.893386    -13140.1971
   1   2.0000     -88.996365     -2421.7142
   2   2.0000     -88.986059     -2421.4338
   3   2.0000     -88.985765     -2421.4258
   4   2.0000     -88.985265     -2421.4122
   5   2.0000     -88.980220     -2421.2749
   6   2.0000     -88.959267     -2420.7047
   7   2.0000     -88.954477     -2420.5744
   8   2.0000     -88.950754     -2420.4731
   9   2.0000     -88.935712     -2420.0638
  10   2.0000     -88.932999     -2419.9899
  11   2.0000     -62.571103     -1702.6463
  12   2.0000     -56.405066     -1534.8599
  13   2.0000     -56.402326     -1534.7853
  14   2.0000     -56.402298     -1534.7845
  15   2.0000     -19.243055      -523.6301
  16   2.0000     -19.242904      -523.6260
  17   2.0000     -19.242661      -523.6194
  18   2.0000     -14.654754      -398.7761
  19   2.0000     -14.503001      -394.6467
  20   2.0000     -14.426270      -392.5588
  21   2.0000     -14.421972      -392.4418
  22   2.0000     -14.404051      -391.9542
  23   2.0000     -14.395006      -391.7080
  24   2.0000     -10.389059      -282.7007
  25   2.0000     -10.379281      -282.4346
  26   2.0000     -10.378266      -282.4070
  27   2.0000     -10.367996      -282.1275
  28   2.0000     -10.354112      -281.7497
  29   2.0000     -10.353481      -281.7325
  30   2.0000     -10.350116      -281.6410
  31   2.0000     -10.338488      -281.3246
  32   2.0000     -10.335924      -281.2548
  33   2.0000     -10.334937      -281.2279
  34   2.0000     -10.331422      -281.1323
  35   2.0000     -10.329251      -281.0732
  36   2.0000     -10.328478      -281.0522
  37   2.0000     -10.324944      -280.9560
  38   2.0000     -10.324646      -280.9479
  39   2.0000     -10.320996      -280.8486
  40   2.0000     -10.319859      -280.8176
  41   2.0000     -10.319478      -280.8073
  42   2.0000     -10.317913      -280.7647
  43   2.0000     -10.317756      -280.7604
  44   2.0000     -10.316276      -280.7201
  45   2.0000     -10.315125      -280.6888
  46   2.0000     -10.315086      -280.6878
  47   2.0000     -10.315070      -280.6873
  48   2.0000     -10.314366      -280.6682
  49   2.0000     -10.312846      -280.6268
  50   2.0000     -10.312626      -280.6208
  51   2.0000     -10.311602      -280.5930
  52   2.0000     -10.310989      -280.5763
  53   2.0000     -10.309363      -280.5320
  54   2.0000     -10.308917      -280.5199
  55   2.0000     -10.308895      -280.5193
  56   2.0000     -10.308358      -280.5047
  57   2.0000     -10.307725      -280.4875
  58   2.0000     -10.306331      -280.4495
  59   2.0000     -10.306316      -280.4491
  60   2.0000     -10.306025      -280.4412
  61   2.0000     -10.305765      -280.4341
  62   2.0000     -10.303308      -280.3673
  63   2.0000     -10.298564      -280.2382
  64   2.0000     -10.296529      -280.1828
  65   2.0000     -10.295427      -280.1528
  66   2.0000     -10.295291      -280.1491
  67   2.0000     -10.294861      -280.1374
  68   2.0000     -10.293412      -280.0980
  69   2.0000     -10.289405      -279.9889
  70   2.0000     -10.288584      -279.9666
  71   2.0000      -8.800540      -239.4749
  72   2.0000      -8.091586      -220.1832
  73   2.0000      -8.081242      -219.9018
  74   2.0000      -8.081236      -219.9016
  75   2.0000      -8.080921      -219.8930
  76   2.0000      -8.075068      -219.7338
  77   2.0000      -8.055365      -219.1976
  78   2.0000      -8.050765      -219.0725
  79   2.0000      -8.046882      -218.9668
  80   2.0000      -8.031132      -218.5382
  81   2.0000      -8.028807      -218.4750
  82   2.0000      -6.636908      -180.5995
  83   2.0000      -6.622247      -180.2005
  84   2.0000      -6.622027      -180.1945
  85   2.0000      -6.061195      -164.9335
  86   2.0000      -6.056856      -164.8154
  87   2.0000      -6.053091      -164.7130
  88   2.0000      -6.051212      -164.6618
  89   2.0000      -6.050910      -164.6536
  90   2.0000      -6.050447      -164.6410
  91   2.0000      -6.046980      -164.5467
  92   2.0000      -6.046624      -164.5370
  93   2.0000      -6.046309      -164.5284
  94   2.0000      -6.044715      -164.4851
  95   2.0000      -6.042545      -164.4260
  96   2.0000      -6.042505      -164.4249
  97   2.0000      -6.042058      -164.4127
  98   2.0000      -6.040387      -164.3673
  99   2.0000      -6.036633      -164.2651
 100   2.0000      -6.024731      -163.9413
 101   2.0000      -6.020624      -163.8295
 102   2.0000      -6.020528      -163.8269
 103   2.0000      -6.017204      -163.7364
 104   2.0000      -6.016632      -163.7209
 105   2.0000      -6.016421      -163.7151
 106   2.0000      -6.012526      -163.6092
 107   2.0000      -6.011630      -163.5848
 108   2.0000      -6.007717      -163.4783
 109   2.0000      -6.001537      -163.3101
 110   2.0000      -5.999379      -163.2514
 111   2.0000      -5.997361      -163.1965
 112   2.0000      -5.995315      -163.1408
 113   2.0000      -5.990743      -163.0164
 114   2.0000      -5.988101      -162.9445
 115   2.0000      -2.752724       -74.9054
 116   2.0000      -2.748655       -74.7947
 117   2.0000      -2.748531       -74.7913
 118   2.0000      -2.736849       -74.4734
 119   2.0000      -2.736838       -74.4731
 120   2.0000      -1.325313       -36.0636
 121   2.0000      -1.157823       -31.5060
 122   2.0000      -1.144765       -31.1506
 123   2.0000      -1.111215       -30.2377
 124   2.0000      -1.039199       -28.2780
 125   2.0000      -1.033644       -28.1269
 126   2.0000      -1.022974       -27.8365
 127   2.0000      -1.017180       -27.6789
 128   2.0000      -1.008322       -27.4378
 129   2.0000      -1.003731       -27.3129
 130   2.0000      -1.003557       -27.3082
 131   2.0000      -0.999877       -27.2080
 132   2.0000      -0.998041       -27.1581
 133   2.0000      -0.987441       -26.8696
 134   2.0000      -0.979574       -26.6556
 135   2.0000      -0.975378       -26.5414
 136   2.0000      -0.952563       -25.9206
 137   2.0000      -0.951220       -25.8840
 138   2.0000      -0.936941       -25.4954
 139   2.0000      -0.929499       -25.2929
 140   2.0000      -0.919109       -25.0102
 141   2.0000      -0.910443       -24.7744
 142   2.0000      -0.905299       -24.6345
 143   2.0000      -0.896626       -24.3984
 144   2.0000      -0.895153       -24.3583
 145   2.0000      -0.890675       -24.2365
 146   2.0000      -0.883816       -24.0498
 147   2.0000      -0.873345       -23.7649
 148   2.0000      -0.865063       -23.5396
 149   2.0000      -0.861091       -23.4315
 150   2.0000      -0.858759       -23.3680
 151   2.0000      -0.853350       -23.2208
 152   2.0000      -0.849179       -23.1073
 153   2.0000      -0.840192       -22.8628
 154   2.0000      -0.831694       -22.6315
 155   2.0000      -0.828766       -22.5519
 156   2.0000      -0.815509       -22.1911
 157   2.0000      -0.805643       -21.9227
 158   2.0000      -0.797223       -21.6935
 159   2.0000      -0.777305       -21.1515
 160   2.0000      -0.772985       -21.0340
 161   2.0000      -0.762545       -20.7499
 162   2.0000      -0.747014       -20.3273
 163   2.0000      -0.744352       -20.2548
 164   2.0000      -0.738709       -20.1013
 165   2.0000      -0.728941       -19.8355
 166   2.0000      -0.712597       -19.3908
 167   2.0000      -0.705183       -19.1890
 168   2.0000      -0.701064       -19.0769
 169   2.0000      -0.697629       -18.9834
 170   2.0000      -0.693652       -18.8752
 171   2.0000      -0.689697       -18.7676
 172   2.0000      -0.680788       -18.5252
 173   2.0000      -0.670302       -18.2398
 174   2.0000      -0.666501       -18.1364
 175   2.0000      -0.663271       -18.0485
 176   2.0000      -0.655277       -17.8310
 177   2.0000      -0.648012       -17.6333
 178   2.0000      -0.643314       -17.5055
 179   2.0000      -0.641553       -17.4575
 180   2.0000      -0.636299       -17.3146
 181   2.0000      -0.634951       -17.2779
 182   2.0000      -0.629772       -17.1370
 183   2.0000      -0.627583       -17.0774
 184   2.0000      -0.623167       -16.9572
 185   2.0000      -0.622274       -16.9329
 186   2.0000      -0.612771       -16.6744
 187   2.0000      -0.603270       -16.4158
 188   2.0000      -0.599841       -16.3225
 189   2.0000      -0.592868       -16.1328
 190   2.0000      -0.589176       -16.0323
 191   2.0000      -0.586485       -15.9591
 192   2.0000      -0.572220       -15.5709
 193   2.0000      -0.570800       -15.5322
 194   2.0000      -0.567399       -15.4397
 195   2.0000      -0.566746       -15.4219
 196   2.0000      -0.558566       -15.1994
 197   2.0000      -0.556102       -15.1323
 198   2.0000      -0.554861       -15.0985
 199   2.0000      -0.548210       -14.9176
 200   2.0000      -0.544202       -14.8085
 201   2.0000      -0.540613       -14.7108
 202   2.0000      -0.538925       -14.6649
 203   2.0000      -0.537338       -14.6217
 204   2.0000      -0.536740       -14.6054
 205   2.0000      -0.534545       -14.5457
 206   2.0000      -0.529380       -14.4052
 207   2.0000      -0.525541       -14.3007
 208   2.0000      -0.519353       -14.1323
 209   2.0000      -0.518575       -14.1111
 210   2.0000      -0.515672       -14.0321
 211   2.0000      -0.509882       -13.8746
 212   2.0000      -0.508295       -13.8314
 213   2.0000      -0.507869       -13.8198
 214   2.0000      -0.507447       -13.8083
 215   2.0000      -0.504632       -13.7317
 216   2.0000      -0.501033       -13.6338
 217   2.0000      -0.498706       -13.5705
 218   2.0000      -0.497274       -13.5315
 219   2.0000      -0.491598       -13.3771
 220   2.0000      -0.487142       -13.2558
 221   2.0000      -0.486531       -13.2392
 222   2.0000      -0.486241       -13.2313
 223   2.0000      -0.480200       -13.0669
 224   2.0000      -0.478220       -13.0130
 225   2.0000      -0.477181       -12.9848
 226   2.0000      -0.476726       -12.9724
 227   2.0000      -0.470195       -12.7947
 228   2.0000      -0.469314       -12.7707
 229   2.0000      -0.464626       -12.6431
 230   2.0000      -0.461127       -12.5479
 231   2.0000      -0.459337       -12.4992
 232   2.0000      -0.457331       -12.4446
 233   2.0000      -0.455922       -12.4063
 234   2.0000      -0.453425       -12.3383
 235   2.0000      -0.451796       -12.2940
 236   2.0000      -0.449023       -12.2185
 237   2.0000      -0.442581       -12.0432
 238   2.0000      -0.439021       -11.9464
 239   2.0000      -0.436072       -11.8661
 240   2.0000      -0.435846       -11.8600
 241   2.0000      -0.434873       -11.8335
 242   2.0000      -0.432628       -11.7724
 243   2.0000      -0.431719       -11.7477
 244   2.0000      -0.427749       -11.6396
 245   2.0000      -0.425440       -11.5768
 246   2.0000      -0.423607       -11.5269
 247   2.0000      -0.422793       -11.5048
 248   2.0000      -0.421922       -11.4811
 249   2.0000      -0.418961       -11.4005
 250   2.0000      -0.418436       -11.3862
 251   2.0000      -0.414667       -11.2837
 252   2.0000      -0.407966       -11.1013
 253   2.0000      -0.401556       -10.9269
 254   2.0000      -0.398564       -10.8455
 255   2.0000      -0.391463       -10.6522
 256   2.0000      -0.389781       -10.6065
 257   2.0000      -0.386360       -10.5134
 258   2.0000      -0.384456       -10.4616
 259   2.0000      -0.382835       -10.4175
 260   2.0000      -0.382249       -10.4015
 261   2.0000      -0.380640       -10.3578
 262   2.0000      -0.373948       -10.1756
 263   2.0000      -0.372146       -10.1266
 264   2.0000      -0.369346       -10.0504
 265   2.0000      -0.366450        -9.9716
 266   2.0000      -0.365216        -9.9380
 267   2.0000      -0.352609        -9.5950
 268   2.0000      -0.348128        -9.4730
 269   2.0000      -0.342825        -9.3287
 270   2.0000      -0.337093        -9.1728
 271   2.0000      -0.330209        -8.9855
 272   2.0000      -0.327954        -8.9241
 273   2.0000      -0.316291        -8.6067
 274   2.0000      -0.304802        -8.2941
 275   2.0000      -0.299034        -8.1371
 276   2.0000      -0.297583        -8.0976
 277   2.0000      -0.272251        -7.4083
 278   2.0000      -0.269138        -7.3236
 279   2.0000      -0.265136        -7.2147
 280   2.0000      -0.220005        -5.9866
 281   0.0000      -0.096278        -2.6199
 282   0.0000      -0.086520        -2.3543
 283   0.0000      -0.078088        -2.1249
 284   0.0000      -0.058764        -1.5990
 285   0.0000      -0.040919        -1.1135

MULLIKEN ATOMIC CHARGES
-----------------------
   0 C :    0.326310
   1 C :   -0.339345
   2 C :   -0.183825
   3 N :    0.150051
   4 C :   -0.196924
   5 N :    0.150424
   6 C :    0.007163
   7 C :   -0.003501
   8 C :   -0.064306
   9 C :    0.112983
  10 C :   -0.089969
  11 C :   -0.015672
  12 S :    0.194296
  13 C :   -0.125715
  14 C :    0.041890
  15 Br:    0.029580
  16 C :    0.168259
  17 O :   -0.228731
  18 C :   -0.131032
  19 C :    0.031057
  20 N :   -0.011161
  21 C :   -0.117160
  22 S :    0.184463
  23 C :    0.005570
  24 N :    0.274095
  25 O :   -0.237642
  26 O :   -0.254811
  27 C :    0.007347
  28 C :    0.136102
  29 C :   -0.061383
  30 C :    0.007284
  31 C :   -0.095926
  32 C :   -0.018186
  33 C :   -0.327788
  34 N :    0.215192
  35 C :    0.158985
  36 C :   -0.226085
  37 S :    0.148752
  38 S :    0.179560
  39 C :   -0.232026
  40 C :    0.168237
  41 C :   -0.034081
  42 C :   -0.328249
  43 N :    0.196575
  44 C :   -0.067279
  45 S :    0.135895
  46 C :   -0.051370
  47 C :   -0.021783
  48 C :    0.027449
  49 C :    0.041100
  50 C :   -0.041654
  51 S :    0.053591
  52 C :   -0.052736
  53 C :    0.030999
  54 C :    0.041615
  55 C :   -0.038132
  56 S :    0.113560
  57 C :    0.001757
  58 C :   -0.176924
  59 C :    0.003666
  60 C :   -0.040402
  61 S :   -0.000214
  62 C :   -0.057440
  63 C :   -0.054306
  64 S :    0.018138
  65 C :   -0.094848
  66 S :    0.126550
  67 H :   -0.011869
  68 H :   -0.004925
  69 H :   -0.003338
  70 H :    0.046833
  71 H :    0.186755
  72 H :    0.023411
  73 H :    0.005293
  74 H :    0.019243
  75 H :    0.014349
  76 H :   -0.004054
  77 H :   -0.009932
  78 H :   -0.011638
  79 H :   -0.007760
  80 H :   -0.000597
  81 H :    0.071334
  82 H :    0.059998
  83 H :    0.061980
  84 H :    0.072616
  85 H :    0.024412
Sum of atomic charges:   -0.0000000

LOEWDIN ATOMIC CHARGES
----------------------
   0 C :    0.078320
   1 C :   -0.145776
   2 C :   -0.019961
   3 N :   -0.050908
   4 C :   -0.020417
   5 N :   -0.050399
   6 C :   -0.017800
   7 C :   -0.052171
   8 C :    0.024892
   9 C :   -0.033745
  10 C :   -0.143206
  11 C :   -0.006172
  12 S :    0.439957
  13 C :   -0.270579
  14 C :   -0.069962
  15 Br:    0.141418
  16 C :    0.098166
  17 O :   -0.178941
  18 C :   -0.145622
  19 C :    0.113627
  20 N :    0.078819
  21 C :   -0.113295
  22 S :    0.476550
  23 C :   -0.196329
  24 N :    0.272518
  25 O :   -0.204430
  26 O :   -0.221207
  27 C :    0.006524
  28 C :   -0.085725
  29 C :   -0.028213
  30 C :   -0.025785
  31 C :   -0.131595
  32 C :   -0.092441
  33 C :   -0.041109
  34 N :   -0.031758
  35 C :   -0.063255
  36 C :   -0.330797
  37 S :    0.450218
  38 S :    0.417029
  39 C :   -0.342660
  40 C :   -0.058946
  41 C :   -0.113579
  42 C :   -0.042627
  43 N :   -0.046415
  44 C :   -0.125354
  45 S :    0.436527
  46 C :   -0.086715
  47 C :   -0.136153
  48 C :   -0.035346
  49 C :   -0.024318
  50 C :   -0.187400
  51 S :    0.364226
  52 C :   -0.163490
  53 C :   -0.039243
  54 C :   -0.018051
  55 C :   -0.158122
  56 S :    0.389786
  57 C :   -0.069927
  58 C :   -0.203898
  59 C :   -0.215466
  60 C :   -0.213886
  61 S :    0.286294
  62 C :   -0.144950
  63 C :   -0.146361
  64 S :    0.312406
  65 C :   -0.208666
  66 S :    0.438704
  67 H :    0.041018
  68 H :    0.042390
  69 H :    0.039016
  70 H :    0.037558
  71 H :    0.082734
  72 H :    0.050025
  73 H :    0.021661
  74 H :    0.044050
  75 H :    0.049212
  76 H :    0.037067
  77 H :    0.034060
  78 H :    0.032684
  79 H :    0.035059
  80 H :    0.035848
  81 H :    0.026013
  82 H :    0.033059
  83 H :    0.033829
  84 H :    0.027270
  85 H :    0.024635

  Mayer bond orders larger than 0.100000
B(  0-C ,  1-C ) :   1.6332 B(  0-C ,  6-C ) :   1.0035 B(  0-C , 18-C ) :   1.0937
B(  1-C ,  2-C ) :   1.1405 B(  1-C ,  4-C ) :   1.1477 B(  2-C ,  3-N ) :   2.9682
B(  4-C ,  5-N ) :   2.9568 B(  6-C ,  7-C ) :   1.2747 B(  6-C , 11-C ) :   1.4238
B(  7-C ,  8-C ) :   1.4195 B(  7-C , 16-C ) :   0.9863 B(  8-C ,  9-C ) :   1.2429
B(  8-C , 67-H ) :   1.0186 B(  9-C , 10-C ) :   1.3096 B(  9-C , 14-C ) :   1.1627
B( 10-C , 11-C ) :   1.3189 B( 10-C , 12-S ) :   1.0910 B( 11-C , 68-H ) :   0.9808
B( 12-S , 13-C ) :   1.0898 B( 13-C , 14-C ) :   1.6158 B( 13-C , 15-Br) :   1.0217
B( 14-C , 69-H ) :   1.0006 B( 16-C , 17-O ) :   2.0152 B( 16-C , 18-C ) :   1.0092
B( 17-O , 71-H ) :   0.1465 B( 18-C , 19-C ) :   1.4530 B( 19-C , 20-N ) :   1.3404
B( 19-C , 70-H ) :   0.9326 B( 20-N , 21-C ) :   1.1956 B( 20-N , 71-H ) :   0.8181
B( 21-C , 22-S ) :   1.1371 B( 21-C , 28-C ) :   1.3727 B( 22-S , 23-C ) :   1.0840
B( 23-C , 24-N ) :   0.9569 B( 23-C , 27-C ) :   1.5118 B( 24-N , 25-O ) :   1.5431
B( 24-N , 26-O ) :   1.5162 B( 25-O , 26-O ) :   0.2653 B( 27-C , 28-C ) :   1.2166
B( 27-C , 72-H ) :   1.0010 B( 28-C , 29-C ) :   1.0785 B( 29-C , 30-C ) :   1.6948
B( 29-C , 73-H ) :   0.9640 B( 30-C , 31-C ) :   1.1734 B( 30-C , 74-H ) :   0.9666
B( 31-C , 32-C ) :   1.4854 B( 31-C , 37-S ) :   1.1170 B( 32-C , 33-C ) :   1.1776
B( 32-C , 35-C ) :   1.2492 B( 33-C , 34-N ) :   2.9885 B( 35-C , 36-C ) :   1.4101
B( 35-C , 40-C ) :   1.0520 B( 36-C , 37-S ) :   1.0926 B( 36-C , 38-S ) :   1.0874
B( 38-S , 39-C ) :   1.0738 B( 39-C , 40-C ) :   1.4076 B( 39-C , 45-S ) :   1.0858
B( 40-C , 41-C ) :   1.2678 B( 41-C , 42-C ) :   1.1940 B( 41-C , 44-C ) :   1.4414
B( 42-C , 43-N ) :   2.9747 B( 44-C , 45-S ) :   1.0986 B( 44-C , 46-C ) :   1.2304
B( 46-C , 47-C ) :   1.5477 B( 46-C , 75-H ) :   0.9619 B( 47-C , 48-C ) :   1.1438
B( 47-C , 51-S ) :   1.0456 B( 48-C , 49-C ) :   1.5930 B( 48-C , 76-H ) :   1.0008
B( 49-C , 50-C ) :   1.1819 B( 49-C , 77-H ) :   0.9928 B( 50-C , 51-S ) :   1.0285
B( 50-C , 52-C ) :   1.5262 B( 52-C , 53-C ) :   1.1660 B( 52-C , 56-S ) :   1.0617
B( 53-C , 54-C ) :   1.6159 B( 53-C , 78-H ) :   0.9933 B( 54-C , 55-C ) :   1.1246
B( 54-C , 79-H ) :   0.9982 B( 55-C , 56-S ) :   1.0318 B( 55-C , 57-C ) :   1.6398
B( 57-C , 58-C ) :   1.1309 B( 57-C , 80-H ) :   0.9491 B( 58-C , 59-C ) :   1.5118
B( 58-C , 66-S ) :   1.1264 B( 59-C , 60-C ) :   1.2570 B( 59-C , 64-S ) :   1.0186
B( 60-C , 61-S ) :   0.9864 B( 60-C , 65-C ) :   1.5904 B( 61-S , 62-C ) :   1.0188
B( 62-C , 63-C ) :   1.0125 B( 62-C , 81-H ) :   0.9489 B( 62-C , 82-H ) :   0.9476
B( 63-C , 64-S ) :   1.0112 B( 63-C , 83-H ) :   0.9473 B( 63-C , 84-H ) :   0.9473
B( 65-C , 66-S ) :   1.1602 B( 65-C , 85-H ) :   0.9681

-----------------------------------------------------------------------------
         ABSORPTION SPECTRUM VIA TRANSITION ELECTRIC DIPOLE MOMENTS
-----------------------------------------------------------------------------
State   Energy  Wavelength   fosc         T2         TX        TY        TZ
        (cm-1)    (nm)                  (au**2)     (au)      (au)      (au)
-----------------------------------------------------------------------------
   0   15138.9    660.6   1.290668650  28.06703  -3.38468  -1.93172   3.58879
   1   19322.0    517.5   0.028621543   0.48766  -0.36143   0.56371  -0.19813
   2   21308.2    469.3   0.930139540  14.37064  -2.33727   2.71744  -1.23423
   3   23064.9    433.6   0.006143335   0.08769  -0.14854   0.25429  -0.03101
   4   23665.5    422.6   0.119270486   1.65918  -0.70412   0.35858   1.01726
   5   24479.3    408.5   0.039324623   0.52886  -0.07786   0.39375  -0.60643
   6   24752.5    404.0   0.009347664   0.12433   0.31551  -0.15097   0.04453
   7   24902.0    401.6   0.060659857   0.80194  -0.65985   0.59998   0.08104
   8   27265.7    366.8   0.714068749   8.62182  -2.25910   1.31184   1.34067
   9   27662.4    361.5   0.230545203   2.74374  -1.09174   1.20156   0.32877
  10   27855.5    359.0   0.062077994   0.73367   0.19054  -0.83100  -0.08247
  11   28671.1    348.8   0.103912241   1.19316   0.16484   0.71013  -0.81345
  12   29548.8    338.4   0.931986629  10.38355  -0.65802  -1.29848   2.87481
  13   30232.0    330.8   0.010689915   0.11641  -0.25076   0.09009   0.21310
  14   30328.7    329.7   0.114675658   1.24478  -0.46505   0.98760  -0.23055
  15   30397.8    329.0   0.079338565   0.85925   0.40982  -0.83087   0.03077
  16   30903.0    323.6   0.005860092   0.06243   0.11292  -0.00485  -0.22283
  17   31105.5    321.5   0.008234785   0.08715  -0.12155  -0.11896   0.24131
  18   31485.0    317.6   0.000236509   0.00247   0.00482  -0.02620   0.04199
  19   32002.9    312.5   0.303324555   3.12029   0.43588   0.70621  -1.55935
  20   32346.1    309.2   0.017474545   0.17785   0.14314  -0.38614   0.09089
  21   33300.2    300.3   0.043747836   0.43250   0.49203  -0.03485  -0.43496
  22   33837.6    295.5   0.004910842   0.04778  -0.14211   0.02602   0.16403
  23   33904.7    294.9   0.005874348   0.05704  -0.06931  -0.08216   0.21327
  24   33964.6    294.4   0.589067077   5.70970   1.46916  -0.00012  -1.88448
  25   34592.7    289.1   0.128968061   1.22737  -0.12145  -0.77788   0.77943
  26   34778.7    287.5   0.001462537   0.01384  -0.02037   0.10943  -0.03812
  27   34971.2    285.9   0.011116116   0.10465   0.25390  -0.15169  -0.13104
  28   35010.2    285.6   0.011799359   0.11095   0.17251  -0.28495  -0.00106
  29   35158.3    284.4   0.026677893   0.24980  -0.32818   0.32378   0.19305
  30   36068.7    277.2   0.007426745   0.06779  -0.15220   0.20659  -0.04407
  31   36177.3    276.4   0.008138112   0.07406  -0.24288  -0.05275   0.11082
  32   36461.2    274.3   0.000426335   0.00385  -0.01444   0.03333  -0.05030
  33   36672.2    272.7   0.107128050   0.96170   0.23160   0.67265  -0.67499
  34   37290.9    268.2   0.066194606   0.58438   0.31765  -0.61264  -0.32886
  35   37597.4    266.0   0.053050962   0.46453   0.59502  -0.32991  -0.04044
  36   37762.7    264.8   0.150743834   1.31417   0.49913   0.01455  -1.03190
  37   38124.1    262.3   0.175746672   1.51762  -0.52061   0.82089  -0.75678
  38   38371.9    260.6   0.016894398   0.14495   0.30546  -0.22613  -0.02246
  39   38656.7    258.7   0.019825671   0.16884  -0.35201   0.17129   0.12487
  40   38753.9    258.0   0.005463338   0.04641  -0.00256  -0.01450   0.21493
  41   38849.5    257.4   0.021803874   0.18477   0.34211  -0.26020  -0.00492
  42   38915.8    257.0   0.011142130   0.09426  -0.18701   0.24109   0.03403
  43   39924.3    250.5   0.034193307   0.28195   0.05928  -0.48471   0.20856
  44   40144.1    249.1   0.114003352   0.93491   0.80373  -0.51260  -0.16180
  45   40258.6    248.4   0.010198024   0.08339   0.05297  -0.23377   0.16105

FINAL SINGLE POINT ENERGY     -8908.121879913726

DIPOLE MOMENT
-------------
                                X             Y             Z
Electronic contribution:   -103.60838      69.25456     -27.40194
Nuclear contribution   :    106.88034     -66.72631      22.48853
                        -----------------------------------------
Total Dipole Moment    :      3.27196       2.52825      -4.91341
                        -----------------------------------------
Magnitude (a.u.)       :      6.42179
Magnitude (Debye)      :     16.32290

Rotational constants in cm-1:     0.000754     0.000282     0.000212
Rotational constants in MHz :    22.592177     8.465735     6.344218

                             ****ORCA TERMINATED NORMALLY****
TOTAL RUN TIME: 0 days 0 hours 7 minutes 50 seconds 755 msec
