                         Program Version 4.2.0 -  RELEASE  -
|  1> # ORCA input file
|  2> # SCF done       -192.105685689711          0.000721534578
|  3> ! CAM-B3LYP def2-SVP def2/J RIJCOSX Grid4 TightSCF
|  4> %maxcore 5000
|  5> %tddft
|  6>     Mode sTDDFT
|  7>     Ethresh 5.0
|  8>     maxcore 5000
|  9> end
| 10>
| 11> %pal
| 12>   nprocs 6
| 13>   end
| 14> * xyz 0 1
| 15>    C       -4.36219        -7.43658        -4.79719
| 16>    O       -4.50571        -7.85594        -3.65898
| 17>    C       -3.13691        -7.59088        -5.61708
| 18>    C       -3.28783        -6.88392        -6.82079
| 19>    C       -2.25865        -6.88513        -7.74721
| 20>    C       -1.10088        -7.59853        -7.45993
| 21>    C       -0.98157        -8.29311        -6.26773
| 22>    C       -1.99450        -8.30008        -5.31838
| 23>   Br        0.61437        -9.26717        -5.91577
| 24>    C       -4.61897        -6.26871        -6.82673
| 25>    C       -5.15612        -5.55176        -7.87221
| 26>    C       -4.45897        -5.24411        -9.05460
| 27>    N       -3.93252        -4.96106       -10.03623
| 28>    C       -6.47428        -5.05788        -7.90801
| 29>    N       -7.54217        -4.64694        -8.01786
| 30>    C       -5.27334        -6.62319        -5.60051
| 31>    C       -6.48392        -6.10662        -5.13682
| 32>    C       -7.23383        -6.62329        -4.09744
| 33>    S       -8.29940        -5.57253        -3.17538
| 34>    C       -8.54817        -6.76491        -1.93374
| 35>    C       -8.01858        -8.02456        -2.35313
| 36>    C       -7.28377        -7.93672        -3.56307
| 37>    C       -6.77472        -9.09494        -4.16256
| 38>    C       -6.93652       -10.29749        -3.52539
| 39>    F       -6.43669       -11.41658        -4.08092
| 40>    C       -7.65516       -10.38740        -2.32548
| 41>    F       -7.83619       -11.59059        -1.75157
| 42>    C       -8.22484        -9.27510        -1.75732
| 43>    C       -9.06972        -6.41440        -0.69193
| 44>    C       -8.75328        -7.14389         0.44188
| 45>    C       -9.11943        -6.93943         1.75795
| 46>    C       -8.51255        -7.69818         2.76216
| 47>    C       -8.66268        -7.65806         4.15502
| 48>    C       -7.82821        -8.51645         4.83992
| 49>    C       -6.98884        -9.26316         4.00909
| 50>    S       -7.30243        -8.88633         2.33580
| 51>    C       -5.93221       -10.13852         4.27049
| 52>    C       -5.29574       -10.50267         5.46504
| 53>    C       -4.15882       -11.24931         5.27178
| 54>    C       -3.84645       -11.48489         3.92056
| 55>    S       -5.10925       -10.83073         2.90291
| 56>    C       -2.76119       -12.16823         3.39403
| 57>    C       -2.40876       -12.21860         2.04330
| 58>    S       -1.65621       -13.68248         1.44785
| 59>    C       -1.85906       -13.22168        -0.19799
| 60>    C       -2.47016       -11.96448        -0.31258
| 61>    C       -2.66350       -11.33950         0.96274
| 62>    C       -2.94505        -9.95057         1.02422
| 63>    C       -2.74572        -9.18810         2.25112
| 64>    C       -3.31875        -8.02610         2.54169
| 65>    C       -3.30496        -9.32916        -0.15621
| 66>    C       -3.39347       -10.02598        -1.36283
| 67>    C       -2.95528       -11.32457        -1.48708
| 68>    C       -3.06301       -12.01128        -2.81092
| 69>    C       -1.29482       -14.07593        -1.22151
| 70>    C       -0.48846       -13.51824        -2.22444
| 71>    C        0.07306       -14.34340        -3.16632
| 72>    C       -0.14550       -15.73196        -3.12609
| 73>    C       -0.91838       -16.29197        -2.11939
| 74>    C       -1.47816       -15.46120        -1.16870
| 75>    C        0.56186       -16.33883        -4.23469
| 76>    C        1.21594       -15.32604        -4.95479
| 77>    C        0.95954       -13.97475        -4.33155
| 78>    C        0.23129       -13.03037        -5.30526
| 79>    C       -1.05590       -13.62523        -5.86314
| 80>    C        2.26707       -13.31250        -3.85969
| 81>    C        3.04468       -14.17492        -2.87291
| 82>    C        1.96236       -15.63278        -6.06714
| 83>    C        2.07976       -16.96546        -6.48231
| 84>    C        1.41952       -17.96169        -5.75586
| 85>    C        0.66358       -17.66139        -4.63987
| 86>    C        2.88540       -17.25518        -7.66068
| 87>    C        3.23442       -18.45440        -8.11251
| 88>    H       -2.33121        -6.34891        -8.67896
| 89>    H       -0.28955        -7.61028        -8.17183
| 90>    H       -1.90232        -8.83618        -4.38623
| 91>    H       -6.83152        -5.17530        -5.56671
| 92>    H       -6.29029        -9.06239        -5.12391
| 93>    H       -8.85184        -9.40050        -0.89079
| 94>    H       -9.61360        -5.48429        -0.60516
| 95>    H       -8.03343        -7.93769         0.29095
| 96>    H       -9.84803        -6.19164         2.03463
| 97>    H       -9.36136        -6.99368         4.63249
| 98>    H       -7.80420        -8.60489         5.91176
| 99>    H       -5.66192       -10.19540         6.42829
|100>    H       -3.52256       -11.59553         6.06754
|101>    H       -2.20063       -12.79852         4.07433
|102>    H       -2.04219        -9.62364         2.95068
|103>    H       -4.05696        -7.57301         1.90208
|104>    H       -3.08633        -7.49781         3.45032
|105>    H       -3.52448        -8.27338        -0.15586
|106>    H       -3.77940        -9.50452        -2.22667
|107>    H       -2.18814       -11.82217        -3.43152
|108>    H       -3.93003       -11.62889        -3.34462
|109>    H       -3.16932       -13.08644        -2.69419
|110>    H       -0.29335       -12.45663        -2.22035
|111>    H       -1.08115       -17.35807        -2.07529
|112>    H       -2.08925       -15.87609        -0.37987
|113>    H        0.90519       -12.78664        -6.12815
|114>    H        0.00989       -12.09928        -4.78088
|115>    H       -0.84660       -14.52759        -6.43310
|116>    H       -1.54254       -12.90903        -6.52121
|117>    H       -1.74652       -13.88029        -5.06226
|118>    H        2.02686       -12.35287        -3.39781
|119>    H        2.88856       -13.11077        -4.73384
|120>    H        2.45656       -14.36295        -1.97715
|121>    H        3.96410       -13.67256        -2.58184
|122>    H        3.30254       -15.13263        -3.31995
|123>    H        2.46493       -14.85485        -6.62452
|124>    H        1.49360       -18.98879        -6.07744
|125>    H        0.15894       -18.44547        -4.09487
|126>    H        3.22998       -16.37729        -8.19411
|127>    H        2.94313       -19.36974        -7.62695
|128>    H        3.83994       -18.56397        -8.99568
|129> *
|130>
|131>                          ****END OF INPUT****

CARTESIAN COORDINATES (ANGSTROEM)
---------------------------------
  C     -4.362190   -7.436580   -4.797190
  O     -4.505710   -7.855940   -3.658980
  C     -3.136910   -7.590880   -5.617080
  C     -3.287830   -6.883920   -6.820790
  C     -2.258650   -6.885130   -7.747210
  C     -1.100880   -7.598530   -7.459930
  C     -0.981570   -8.293110   -6.267730
  C     -1.994500   -8.300080   -5.318380
  Br     0.614370   -9.267170   -5.915770
  C     -4.618970   -6.268710   -6.826730
  C     -5.156120   -5.551760   -7.872210
  C     -4.458970   -5.244110   -9.054600
  N     -3.932520   -4.961060  -10.036230
  C     -6.474280   -5.057880   -7.908010
  N     -7.542170   -4.646940   -8.017860
  C     -5.273340   -6.623190   -5.600510
  C     -6.483920   -6.106620   -5.136820
  C     -7.233830   -6.623290   -4.097440
  S     -8.299400   -5.572530   -3.175380
  C     -8.548170   -6.764910   -1.933740
  C     -8.018580   -8.024560   -2.353130
  C     -7.283770   -7.936720   -3.563070
  C     -6.774720   -9.094940   -4.162560
  C     -6.936520  -10.297490   -3.525390
  F     -6.436690  -11.416580   -4.080920
  C     -7.655160  -10.387400   -2.325480
  F     -7.836190  -11.590590   -1.751570
  C     -8.224840   -9.275100   -1.757320
  C     -9.069720   -6.414400   -0.691930
  C     -8.753280   -7.143890    0.441880
  C     -9.119430   -6.939430    1.757950
  C     -8.512550   -7.698180    2.762160
  C     -8.662680   -7.658060    4.155020
  C     -7.828210   -8.516450    4.839920
  C     -6.988840   -9.263160    4.009090
  S     -7.302430   -8.886330    2.335800
  C     -5.932210  -10.138520    4.270490
  C     -5.295740  -10.502670    5.465040
  C     -4.158820  -11.249310    5.271780
  C     -3.846450  -11.484890    3.920560
  S     -5.109250  -10.830730    2.902910
  C     -2.761190  -12.168230    3.394030
  C     -2.408760  -12.218600    2.043300
  S     -1.656210  -13.682480    1.447850
  C     -1.859060  -13.221680   -0.197990
  C     -2.470160  -11.964480   -0.312580
  C     -2.663500  -11.339500    0.962740
  C     -2.945050   -9.950570    1.024220
  C     -2.745720   -9.188100    2.251120
  C     -3.318750   -8.026100    2.541690
  C     -3.304960   -9.329160   -0.156210
  C     -3.393470  -10.025980   -1.362830
  C     -2.955280  -11.324570   -1.487080
  C     -3.063010  -12.011280   -2.810920
  C     -1.294820  -14.075930   -1.221510
  C     -0.488460  -13.518240   -2.224440
  C      0.073060  -14.343400   -3.166320
  C     -0.145500  -15.731960   -3.126090
  C     -0.918380  -16.291970   -2.119390
  C     -1.478160  -15.461200   -1.168700
  C      0.561860  -16.338830   -4.234690
  C      1.215940  -15.326040   -4.954790
  C      0.959540  -13.974750   -4.331550
  C      0.231290  -13.030370   -5.305260
  C     -1.055900  -13.625230   -5.863140
  C      2.267070  -13.312500   -3.859690
  C      3.044680  -14.174920   -2.872910
  C      1.962360  -15.632780   -6.067140
  C      2.079760  -16.965460   -6.482310
  C      1.419520  -17.961690   -5.755860
  C      0.663580  -17.661390   -4.639870
  C      2.885400  -17.255180   -7.660680
  C      3.234420  -18.454400   -8.112510
  H     -2.331210   -6.348910   -8.678960
  H     -0.289550   -7.610280   -8.171830
  H     -1.902320   -8.836180   -4.386230
  H     -6.831520   -5.175300   -5.566710
  H     -6.290290   -9.062390   -5.123910
  H     -8.851840   -9.400500   -0.890790
  H     -9.613600   -5.484290   -0.605160
  H     -8.033430   -7.937690    0.290950
  H     -9.848030   -6.191640    2.034630
  H     -9.361360   -6.993680    4.632490
  H     -7.804200   -8.604890    5.911760
  H     -5.661920  -10.195400    6.428290
  H     -3.522560  -11.595530    6.067540
  H     -2.200630  -12.798520    4.074330
  H     -2.042190   -9.623640    2.950680
  H     -4.056960   -7.573010    1.902080
  H     -3.086330   -7.497810    3.450320
  H     -3.524480   -8.273380   -0.155860
  H     -3.779400   -9.504520   -2.226670
  H     -2.188140  -11.822170   -3.431520
  H     -3.930030  -11.628890   -3.344620
  H     -3.169320  -13.086440   -2.694190
  H     -0.293350  -12.456630   -2.220350
  H     -1.081150  -17.358070   -2.075290
  H     -2.089250  -15.876090   -0.379870
  H      0.905190  -12.786640   -6.128150
  H      0.009890  -12.099280   -4.780880
  H     -0.846600  -14.527590   -6.433100
  H     -1.542540  -12.909030   -6.521210
  H     -1.746520  -13.880290   -5.062260
  H      2.026860  -12.352870   -3.397810
  H      2.888560  -13.110770   -4.733840
  H      2.456560  -14.362950   -1.977150
  H      3.964100  -13.672560   -2.581840
  H      3.302540  -15.132630   -3.319950
  H      2.464930  -14.854850   -6.624520
  H      1.493600  -18.988790   -6.077440
  H      0.158940  -18.445470   -4.094870
  H      3.229980  -16.377290   -8.194110
  H      2.943130  -19.369740   -7.626950
  H      3.839940  -18.563970   -8.995680

 Total Charge           Charge          ....    0
 Multiplicity           Mult            ....    1
 Number of Electrons    NEL             ....  558
 Basis Dimension        Dim             .... 1261

ORBITAL ENERGIES
----------------

  NO   OCC          E(Eh)            E(eV)
   0   2.0000    -482.863023    -13139.3709
   1   2.0000     -88.979171     -2421.2463
   2   2.0000     -88.960024     -2420.7253
   3   2.0000     -88.957243     -2420.6496
   4   2.0000     -88.957003     -2420.6431
   5   2.0000     -62.540466     -1701.8126
   6   2.0000     -56.374276     -1534.0220
   7   2.0000     -56.371876     -1533.9567
   8   2.0000     -56.371764     -1533.9537
   9   2.0000     -24.787397      -674.4994
  10   2.0000     -24.780502      -674.3117
  11   2.0000     -19.192447      -522.2530
  12   2.0000     -14.388224      -391.5235
  13   2.0000     -14.388139      -391.5212
  14   2.0000     -10.364281      -282.0264
  15   2.0000     -10.360317      -281.9186
  16   2.0000     -10.341392      -281.4036
  17   2.0000     -10.332944      -281.1737
  18   2.0000     -10.329785      -281.0877
  19   2.0000     -10.327379      -281.0223
  20   2.0000     -10.327378      -281.0223
  21   2.0000     -10.322558      -280.8911
  22   2.0000     -10.319399      -280.8051
  23   2.0000     -10.318561      -280.7823
  24   2.0000     -10.316983      -280.7394
  25   2.0000     -10.314415      -280.6695
  26   2.0000     -10.313133      -280.6346
  27   2.0000     -10.310207      -280.5550
  28   2.0000     -10.306210      -280.4462
  29   2.0000     -10.302246      -280.3384
  30   2.0000     -10.298346      -280.2322
  31   2.0000     -10.297370      -280.2057
  32   2.0000     -10.295480      -280.1543
  33   2.0000     -10.295000      -280.1412
  34   2.0000     -10.293086      -280.0891
  35   2.0000     -10.292686      -280.0782
  36   2.0000     -10.292501      -280.0732
  37   2.0000     -10.292291      -280.0675
  38   2.0000     -10.292207      -280.0652
  39   2.0000     -10.291746      -280.0526
  40   2.0000     -10.291036      -280.0333
  41   2.0000     -10.287912      -279.9483
  42   2.0000     -10.287781      -279.9448
  43   2.0000     -10.287320      -279.9322
  44   2.0000     -10.286960      -279.9224
  45   2.0000     -10.285754      -279.8896
  46   2.0000     -10.284616      -279.8586
  47   2.0000     -10.283500      -279.8282
  48   2.0000     -10.283342      -279.8240
  49   2.0000     -10.281907      -279.7849
  50   2.0000     -10.281693      -279.7791
  51   2.0000     -10.281474      -279.7731
  52   2.0000     -10.281107      -279.7631
  53   2.0000     -10.280548      -279.7479
  54   2.0000     -10.280044      -279.7342
  55   2.0000     -10.279495      -279.7193
  56   2.0000     -10.278779      -279.6998
  57   2.0000     -10.277728      -279.6712
  58   2.0000     -10.276856      -279.6475
  59   2.0000     -10.276338      -279.6334
  60   2.0000     -10.275247      -279.6037
  61   2.0000     -10.273989      -279.5695
  62   2.0000     -10.273657      -279.5604
  63   2.0000     -10.272045      -279.5165
  64   2.0000     -10.270804      -279.4828
  65   2.0000     -10.269783      -279.4550
  66   2.0000     -10.269427      -279.4453
  67   2.0000     -10.269242      -279.4403
  68   2.0000     -10.264876      -279.3215
  69   2.0000     -10.263095      -279.2730
  70   2.0000     -10.262371      -279.2533
  71   2.0000     -10.262282      -279.2509
  72   2.0000     -10.261620      -279.2329
  73   2.0000     -10.261250      -279.2228
  74   2.0000     -10.259673      -279.1799
  75   2.0000     -10.248605      -278.8787
  76   2.0000     -10.245176      -278.7854
  77   2.0000      -8.769631      -238.6338
  78   2.0000      -8.074605      -219.7212
  79   2.0000      -8.055533      -219.2022
  80   2.0000      -8.053070      -219.1352
  81   2.0000      -8.053043      -219.1344
  82   2.0000      -6.605196      -179.7365
  83   2.0000      -6.591780      -179.3714
  84   2.0000      -6.591578      -179.3660
  85   2.0000      -6.043493      -164.4518
  86   2.0000      -6.039548      -164.3445
  87   2.0000      -6.037326      -164.2840
  88   2.0000      -6.025188      -163.9537
  89   2.0000      -6.022580      -163.8827
  90   2.0000      -6.022357      -163.8767
  91   2.0000      -6.020997      -163.8397
  92   2.0000      -6.018502      -163.7718
  93   2.0000      -6.018362      -163.7680
  94   2.0000      -6.016740      -163.7238
  95   2.0000      -6.014964      -163.6755
  96   2.0000      -6.014428      -163.6609
  97   2.0000      -2.721171       -74.0468
  98   2.0000      -2.717507       -73.9471
  99   2.0000      -2.717288       -73.9412
 100   2.0000      -2.706660       -73.6520
 101   2.0000      -2.706651       -73.6517
 102   2.0000      -1.304927       -35.5089
 103   2.0000      -1.289271       -35.0828
 104   2.0000      -1.105964       -30.0948
 105   2.0000      -1.015645       -27.6371
 106   2.0000      -1.008140       -27.4329
 107   2.0000      -1.000081       -27.2136
 108   2.0000      -0.993590       -27.0370
 109   2.0000      -0.992055       -26.9952
 110   2.0000      -0.986262       -26.8376
 111   2.0000      -0.978007       -26.6129
 112   2.0000      -0.967548       -26.3283
 113   2.0000      -0.953208       -25.9381
 114   2.0000      -0.943421       -25.6718
 115   2.0000      -0.941728       -25.6257
 116   2.0000      -0.938960       -25.5504
 117   2.0000      -0.926345       -25.2071
 118   2.0000      -0.919671       -25.0255
 119   2.0000      -0.910530       -24.7768
 120   2.0000      -0.896544       -24.3962
 121   2.0000      -0.889309       -24.1993
 122   2.0000      -0.887098       -24.1392
 123   2.0000      -0.882954       -24.0264
 124   2.0000      -0.870721       -23.6935
 125   2.0000      -0.865629       -23.5550
 126   2.0000      -0.859479       -23.3876
 127   2.0000      -0.848196       -23.0806
 128   2.0000      -0.846144       -23.0248
 129   2.0000      -0.843036       -22.9402
 130   2.0000      -0.839169       -22.8350
 131   2.0000      -0.837430       -22.7876
 132   2.0000      -0.836100       -22.7514
 133   2.0000      -0.834322       -22.7031
 134   2.0000      -0.831711       -22.6320
 135   2.0000      -0.831289       -22.6205
 136   2.0000      -0.828546       -22.5459
 137   2.0000      -0.821119       -22.3438
 138   2.0000      -0.804722       -21.8976
 139   2.0000      -0.791787       -21.5456
 140   2.0000      -0.778740       -21.1906
 141   2.0000      -0.765596       -20.8329
 142   2.0000      -0.763855       -20.7856
 143   2.0000      -0.752002       -20.4630
 144   2.0000      -0.743129       -20.2216
 145   2.0000      -0.735088       -20.0028
 146   2.0000      -0.732149       -19.9228
 147   2.0000      -0.729952       -19.8630
 148   2.0000      -0.716300       -19.4915
 149   2.0000      -0.708322       -19.2744
 150   2.0000      -0.704732       -19.1767
 151   2.0000      -0.696657       -18.9570
 152   2.0000      -0.691815       -18.8252
 153   2.0000      -0.684019       -18.6131
 154   2.0000      -0.679794       -18.4981
 155   2.0000      -0.674825       -18.3629
 156   2.0000      -0.670947       -18.2574
 157   2.0000      -0.669188       -18.2095
 158   2.0000      -0.668031       -18.1780
 159   2.0000      -0.665233       -18.1019
 160   2.0000      -0.658461       -17.9176
 161   2.0000      -0.653508       -17.7828
 162   2.0000      -0.645816       -17.5735
 163   2.0000      -0.644548       -17.5390
 164   2.0000      -0.632489       -17.2109
 165   2.0000      -0.630398       -17.1540
 166   2.0000      -0.626713       -17.0537
 167   2.0000      -0.616491       -16.7756
 168   2.0000      -0.613792       -16.7021
 169   2.0000      -0.607653       -16.5351
 170   2.0000      -0.605504       -16.4766
 171   2.0000      -0.601298       -16.3621
 172   2.0000      -0.596602       -16.2344
 173   2.0000      -0.592286       -16.1169
 174   2.0000      -0.591188       -16.0871
 175   2.0000      -0.585647       -15.9363
 176   2.0000      -0.578161       -15.7326
 177   2.0000      -0.572604       -15.5813
 178   2.0000      -0.570278       -15.5181
 179   2.0000      -0.565473       -15.3873
 180   2.0000      -0.562123       -15.2961
 181   2.0000      -0.557763       -15.1775
 182   2.0000      -0.553528       -15.0623
 183   2.0000      -0.549478       -14.9521
 184   2.0000      -0.544917       -14.8279
 185   2.0000      -0.543838       -14.7986
 186   2.0000      -0.542069       -14.7505
 187   2.0000      -0.538855       -14.6630
 188   2.0000      -0.537211       -14.6183
 189   2.0000      -0.533896       -14.5281
 190   2.0000      -0.532012       -14.4768
 191   2.0000      -0.531135       -14.4529
 192   2.0000      -0.528606       -14.3841
 193   2.0000      -0.527212       -14.3462
 194   2.0000      -0.521054       -14.1786
 195   2.0000      -0.520598       -14.1662
 196   2.0000      -0.518996       -14.1226
 197   2.0000      -0.518239       -14.1020
 198   2.0000      -0.516825       -14.0635
 199   2.0000      -0.514928       -14.0119
 200   2.0000      -0.512301       -13.9404
 201   2.0000      -0.510570       -13.8933
 202   2.0000      -0.509578       -13.8663
 203   2.0000      -0.508105       -13.8262
 204   2.0000      -0.504208       -13.7202
 205   2.0000      -0.500307       -13.6141
 206   2.0000      -0.499215       -13.5843
 207   2.0000      -0.494182       -13.4474
 208   2.0000      -0.491075       -13.3628
 209   2.0000      -0.489784       -13.3277
 210   2.0000      -0.488190       -13.2843
 211   2.0000      -0.486001       -13.2248
 212   2.0000      -0.482235       -13.1223
 213   2.0000      -0.481169       -13.0933
 214   2.0000      -0.478221       -13.0131
 215   2.0000      -0.476012       -12.9529
 216   2.0000      -0.472915       -12.8687
 217   2.0000      -0.472587       -12.8598
 218   2.0000      -0.470770       -12.8103
 219   2.0000      -0.469817       -12.7844
 220   2.0000      -0.467907       -12.7324
 221   2.0000      -0.465071       -12.6552
 222   2.0000      -0.462740       -12.5918
 223   2.0000      -0.456769       -12.4293
 224   2.0000      -0.455540       -12.3959
 225   2.0000      -0.453460       -12.3393
 226   2.0000      -0.451540       -12.2870
 227   2.0000      -0.449364       -12.2278
 228   2.0000      -0.447197       -12.1689
 229   2.0000      -0.446072       -12.1382
 230   2.0000      -0.443843       -12.0776
 231   2.0000      -0.441453       -12.0125
 232   2.0000      -0.437324       -11.9002
 233   2.0000      -0.435201       -11.8424
 234   2.0000      -0.432511       -11.7692
 235   2.0000      -0.431799       -11.7498
 236   2.0000      -0.429118       -11.6769
 237   2.0000      -0.426473       -11.6049
 238   2.0000      -0.425387       -11.5754
 239   2.0000      -0.425141       -11.5687
 240   2.0000      -0.424126       -11.5411
 241   2.0000      -0.422826       -11.5057
 242   2.0000      -0.418715       -11.3938
 243   2.0000      -0.417619       -11.3640
 244   2.0000      -0.415274       -11.3002
 245   2.0000      -0.413319       -11.2470
 246   2.0000      -0.407388       -11.0856
 247   2.0000      -0.404450       -11.0056
 248   2.0000      -0.403032       -10.9670
 249   2.0000      -0.401582       -10.9276
 250   2.0000      -0.399995       -10.8844
 251   2.0000      -0.398221       -10.8361
 252   2.0000      -0.397026       -10.8036
 253   2.0000      -0.392684       -10.6855
 254   2.0000      -0.390623       -10.6294
 255   2.0000      -0.385774       -10.4974
 256   2.0000      -0.384783       -10.4705
 257   2.0000      -0.383434       -10.4338
 258   2.0000      -0.377160       -10.2630
 259   2.0000      -0.369127       -10.0445
 260   2.0000      -0.358350        -9.7512
 261   2.0000      -0.357035        -9.7154
 262   2.0000      -0.349308        -9.5052
 263   2.0000      -0.336529        -9.1574
 264   2.0000      -0.332694        -9.0531
 265   2.0000      -0.329623        -8.9695
 266   2.0000      -0.327028        -8.8989
 267   2.0000      -0.325811        -8.8658
 268   2.0000      -0.323105        -8.7921
 269   2.0000      -0.316869        -8.6224
 270   2.0000      -0.314724        -8.5641
 271   2.0000      -0.312735        -8.5100
 272   2.0000      -0.305221        -8.3055
 273   2.0000      -0.302606        -8.2343
 274   2.0000      -0.287503        -7.8233
 275   2.0000      -0.276014        -7.5107
 276   2.0000      -0.265418        -7.2224
 277   2.0000      -0.242546        -6.6000
 278   2.0000      -0.205905        -5.6030
 279   0.0000      -0.113829        -3.0974
 280   0.0000      -0.071092        -1.9345
 281   0.0000      -0.051262        -1.3949
 282   0.0000      -0.044575        -1.2129
 283   0.0000      -0.021705        -0.5906

MULLIKEN ATOMIC CHARGES
-----------------------
   0 C :    0.122572
   1 O :   -0.177212
   2 C :   -0.008896
   3 C :    0.036027
   4 C :   -0.037104
   5 C :    0.038525
   6 C :    0.001038
   7 C :   -0.030266
   8 Br:   -0.041228
   9 C :    0.307319
  10 C :   -0.366103
  11 C :   -0.188576
  12 N :    0.129310
  13 C :   -0.212740
  14 N :    0.148195
  15 C :   -0.163214
  16 C :    0.043288
  17 C :   -0.154466
  18 S :    0.158831
  19 C :   -0.075006
  20 C :    0.089754
  21 C :    0.163543
  22 C :   -0.070504
  23 C :    0.216803
  24 F :   -0.179680
  25 C :    0.227976
  26 F :   -0.184051
  27 C :   -0.129573
  28 C :    0.018914
  29 C :   -0.014489
  30 C :   -0.003435
  31 C :   -0.007720
  32 C :    0.007860
  33 C :    0.043776
  34 C :   -0.042871
  35 S :    0.048982
  36 C :   -0.016442
  37 C :    0.007132
  38 C :    0.066136
  39 C :   -0.089660
  40 S :    0.126420
  41 C :    0.061073
  42 C :   -0.206864
  43 S :    0.182910
  44 C :   -0.156314
  45 C :    0.111797
  46 C :    0.095257
  47 C :    0.033638
  48 C :   -0.018206
  49 C :   -0.011012
  50 C :   -0.014638
  51 C :   -0.029530
  52 C :   -0.110209
  53 C :    0.120011
  54 C :    0.033528
  55 C :   -0.073272
  56 C :    0.005586
  57 C :    0.121580
  58 C :   -0.051774
  59 C :   -0.001536
  60 C :    0.103927
  61 C :    0.017143
  62 C :   -0.137828
  63 C :    0.059267
  64 C :    0.024815
  65 C :    0.068360
  66 C :    0.026218
  67 C :   -0.105148
  68 C :    0.114130
  69 C :   -0.015141
  70 C :   -0.044464
  71 C :   -0.003651
  72 C :   -0.014632
  73 H :    0.002963
  74 H :   -0.002245
  75 H :   -0.020357
  76 H :    0.014916
  77 H :   -0.000701
  78 H :   -0.000569
  79 H :   -0.013757
  80 H :    0.036547
  81 H :   -0.016303
  82 H :   -0.011198
  83 H :   -0.008024
  84 H :   -0.012297
  85 H :   -0.006392
  86 H :    0.003207
  87 H :    0.001253
  88 H :    0.021068
  89 H :    0.020248
  90 H :   -0.010589
  91 H :   -0.017334
  92 H :    0.028736
  93 H :    0.021638
  94 H :    0.031827
  95 H :   -0.019658
  96 H :   -0.029893
  97 H :   -0.021159
  98 H :   -0.002357
  99 H :    0.003585
 100 H :    0.021482
 101 H :    0.015454
 102 H :    0.017384
 103 H :   -0.000393
 104 H :   -0.000780
 105 H :    0.017264
 106 H :    0.009805
 107 H :    0.022471
 108 H :   -0.040041
 109 H :   -0.033292
 110 H :   -0.037380
 111 H :   -0.015840
 112 H :    0.013087
 113 H :    0.023437
Sum of atomic charges:   -0.0000000

LOEWDIN ATOMIC CHARGES
----------------------
   0 C :    0.069868
   1 O :   -0.172475
   2 C :   -0.032419
   3 C :   -0.012586
   4 C :    0.003556
   5 C :   -0.025127
   6 C :   -0.105086
   7 C :   -0.016807
   8 Br:    0.104272
   9 C :    0.072798
  10 C :   -0.164686
  11 C :   -0.019976
  12 N :   -0.076104
  13 C :   -0.024912
  14 N :   -0.070678
  15 C :   -0.150590
  16 C :    0.025230
  17 C :   -0.190778
  18 S :    0.450268
  19 C :   -0.107270
  20 C :   -0.056182
  21 C :   -0.005843
  22 C :   -0.018921
  23 C :    0.068562
  24 F :   -0.054830
  25 C :    0.053733
  26 F :   -0.062160
  27 C :   -0.036321
  28 C :   -0.083135
  29 C :    0.003564
  30 C :   -0.090821
  31 C :   -0.111466
  32 C :   -0.065592
  33 C :   -0.011325
  34 C :   -0.208202
  35 S :    0.404252
  36 C :   -0.139381
  37 C :   -0.056343
  38 C :   -0.007949
  39 C :   -0.177323
  40 S :    0.457582
  41 C :   -0.028729
  42 C :   -0.203826
  43 S :    0.488855
  44 C :   -0.125172
  45 C :   -0.051651
  46 C :   -0.029675
  47 C :   -0.048677
  48 C :   -0.033454
  49 C :   -0.039647
  50 C :    0.018406
  51 C :   -0.027644
  52 C :   -0.002390
  53 C :   -0.047685
  54 C :   -0.059282
  55 C :   -0.003960
  56 C :    0.005108
  57 C :   -0.004538
  58 C :   -0.018264
  59 C :   -0.020156
  60 C :   -0.024235
  61 C :    0.005580
  62 C :   -0.035492
  63 C :   -0.012870
  64 C :   -0.057973
  65 C :   -0.011150
  66 C :   -0.057803
  67 C :   -0.021221
  68 C :   -0.019884
  69 C :   -0.013479
  70 C :   -0.014552
  71 C :   -0.020608
  72 C :   -0.041504
  73 H :    0.041309
  74 H :    0.036683
  75 H :    0.036245
  76 H :    0.040839
  77 H :    0.043541
  78 H :    0.041593
  79 H :    0.030790
  80 H :    0.020118
  81 H :    0.031869
  82 H :    0.033134
  83 H :    0.034500
  84 H :    0.032787
  85 H :    0.035853
  86 H :    0.037396
  87 H :    0.028821
  88 H :    0.019515
  89 H :    0.024526
  90 H :    0.035480
  91 H :    0.029965
  92 H :    0.035692
  93 H :    0.035641
  94 H :    0.035188
  95 H :    0.029935
  96 H :    0.029182
  97 H :    0.024914
  98 H :    0.019529
  99 H :    0.011673
 100 H :    0.025974
 101 H :    0.027087
 102 H :    0.022766
 103 H :    0.020311
 104 H :    0.021045
 105 H :    0.023726
 106 H :    0.024455
 107 H :    0.026085
 108 H :    0.024431
 109 H :    0.025982
 110 H :    0.026418
 111 H :    0.028138
 112 H :    0.019619
 113 H :    0.026419

  Mayer bond orders larger than 0.100000
B(  0-C ,  1-O ) :   2.0754 B(  0-C ,  2-C ) :   0.9232 B(  0-C , 15-C ) :   1.0509
B(  2-C ,  3-C ) :   1.3399 B(  2-C ,  7-C ) :   1.3940 B(  3-C ,  4-C ) :   1.3854
B(  3-C ,  9-C ) :   0.9703 B(  4-C ,  5-C ) :   1.3579 B(  4-C , 73-H ) :   0.9835
B(  5-C ,  6-C ) :   1.4146 B(  5-C , 74-H ) :   0.9847 B(  6-C ,  7-C ) :   1.3198
B(  6-C ,  8-Br) :   0.9756 B(  7-C , 75-H ) :   1.0066 B(  9-C , 10-C ) :   1.5814
B(  9-C , 15-C ) :   1.1614 B( 10-C , 11-C ) :   1.1481 B( 10-C , 13-C ) :   1.1520
B( 11-C , 12-N ) :   2.9667 B( 13-C , 14-N ) :   2.9923 B( 15-C , 16-C ) :   1.3229
B( 16-C , 17-C ) :   1.4544 B( 16-C , 76-H ) :   0.9314 B( 17-C , 18-S ) :   1.0392
B( 17-C , 21-C ) :   1.1946 B( 18-S , 19-C ) :   1.1646 B( 19-C , 20-C ) :   1.1697
B( 19-C , 28-C ) :   1.3209 B( 20-C , 21-C ) :   1.3006 B( 20-C , 27-C ) :   1.2101
B( 21-C , 22-C ) :   1.2329 B( 22-C , 23-C ) :   1.4441 B( 22-C , 27-C ) :   0.1043
B( 22-C , 77-H ) :   0.9831 B( 23-C , 24-F ) :   1.0952 B( 23-C , 25-C ) :   1.2222
B( 25-C , 26-F ) :   1.1227 B( 25-C , 27-C ) :   1.4375 B( 27-C , 78-H ) :   0.9930
B( 28-C , 29-C ) :   1.4123 B( 28-C , 79-H ) :   0.9670 B( 29-C , 30-C ) :   1.3463
B( 29-C , 80-H ) :   0.9533 B( 30-C , 31-C ) :   1.3586 B( 30-C , 81-H ) :   0.9911
B( 31-C , 32-C ) :   1.2582 B( 31-C , 35-S ) :   1.0932 B( 32-C , 33-C ) :   1.4526
B( 32-C , 82-H ) :   0.9991 B( 33-C , 34-C ) :   1.3064 B( 33-C , 83-H ) :   0.9960
B( 34-C , 35-S ) :   1.0556 B( 34-C , 36-C ) :   1.3391 B( 36-C , 37-C ) :   1.2622
B( 36-C , 40-S ) :   1.1289 B( 37-C , 38-C ) :   1.5038 B( 37-C , 84-H ) :   0.9973
B( 38-C , 39-C ) :   1.2139 B( 38-C , 85-H ) :   0.9978 B( 39-C , 40-S ) :   1.0575
B( 39-C , 41-C ) :   1.4724 B( 41-C , 42-C ) :   1.2577 B( 41-C , 86-H ) :   0.9539
B( 42-C , 43-S ) :   1.0817 B( 42-C , 46-C ) :   1.2665 B( 43-S , 44-C ) :   1.2294
B( 44-C , 45-C ) :   1.3492 B( 44-C , 54-C ) :   1.0072 B( 45-C , 46-C ) :   1.2256
B( 45-C , 52-C ) :   1.1984 B( 46-C , 47-C ) :   1.2074 B( 47-C , 48-C ) :   1.0631
B( 47-C , 50-C ) :   1.4704 B( 48-C , 49-C ) :   1.9605 B( 48-C , 87-H ) :   0.9517
B( 49-C , 88-H ) :   0.9526 B( 49-C , 89-H ) :   0.9495 B( 50-C , 51-C ) :   1.2504
B( 50-C , 90-H ) :   0.9926 B( 51-C , 52-C ) :   1.5035 B( 51-C , 91-H ) :   0.9751
B( 52-C , 53-C ) :   1.0996 B( 53-C , 92-H ) :   0.9280 B( 53-C , 93-H ) :   0.9348
B( 53-C , 94-H ) :   0.9383 B( 54-C , 55-C ) :   1.3192 B( 54-C , 59-C ) :   1.3513
B( 55-C , 56-C ) :   1.4180 B( 55-C , 95-H ) :   0.9991 B( 56-C , 57-C ) :   1.3623
B( 56-C , 62-C ) :   0.9121 B( 57-C , 58-C ) :   1.3426 B( 57-C , 60-C ) :   0.9926
B( 58-C , 59-C ) :   1.3732 B( 58-C , 96-H ) :   0.9927 B( 59-C , 97-H ) :   0.9900
B( 60-C , 61-C ) :   1.3760 B( 60-C , 70-C ) :   1.3321 B( 61-C , 62-C ) :   0.9143
B( 61-C , 67-C ) :   1.3740 B( 62-C , 63-C ) :   1.0329 B( 62-C , 65-C ) :   1.0419
B( 63-C , 64-C ) :   1.1026 B( 63-C , 98-H ) :   0.9360 B( 63-C , 99-H ) :   0.9362
B( 64-C ,100-H ) :   0.9605 B( 64-C ,101-H ) :   0.9633 B( 64-C ,102-H ) :   0.9631
B( 65-C , 66-C ) :   1.1002 B( 65-C ,103-H ) :   0.9395 B( 65-C ,104-H ) :   0.9382
B( 66-C ,105-H ) :   0.9639 B( 66-C ,106-H ) :   0.9639 B( 66-C ,107-H ) :   0.9649
B( 67-C , 68-C ) :   1.3047 B( 67-C ,108-H ) :   1.0121 B( 68-C , 69-C ) :   1.3529
B( 68-C , 71-C ) :   1.0602 B( 69-C , 70-C ) :   1.3995 B( 69-C ,109-H ) :   0.9863
B( 70-C ,110-H ) :   0.9910 B( 71-C , 72-C ) :   1.9510 B( 71-C ,111-H ) :   0.9689
B( 72-C ,112-H ) :   0.9495 B( 72-C ,113-H ) :   0.9486

-----------------------------------------------------------------------------
         ABSORPTION SPECTRUM VIA TRANSITION ELECTRIC DIPOLE MOMENTS
-----------------------------------------------------------------------------
State   Energy  Wavelength   fosc         T2         TX        TY        TZ
        (cm-1)    (nm)                  (au**2)     (au)      (au)      (au)
-----------------------------------------------------------------------------
   0    6108.2   1637.1   0.308357723  16.61939  -1.92684   2.67094  -2.40266
   1   13493.0    741.1   0.125185246   3.05436   0.87886  -0.13406  -1.50466
   2   15816.3    632.3   1.476554409  30.73409  -2.80209   0.34679   4.77097
   3   18696.7    534.9   0.046185688   0.81324   0.43642  -0.77790   0.13287
   4   19095.9    523.7   0.034432135   0.59361   0.57204  -0.32412   0.40164
   5   21107.0    473.8   0.166361380   2.59479  -1.55544   0.15312  -0.38982
   6   22042.1    453.7   0.255195345   3.81149  -0.89031   1.30528   1.14677
   7   23083.7    433.2   0.147471654   2.10319   0.63847   0.33583   1.25808
   8   24204.6    413.1   0.054563803   0.74213   0.78135  -0.36274  -0.00686
   9   25159.7    397.5   0.088399457   1.15670   0.82763  -0.07205  -0.68303
  10   25697.5    389.1   0.021939576   0.28107  -0.36294  -0.35291  -0.15748
  11   26246.4    381.0   0.040871080   0.51265   0.21745   0.61428   0.29668
  12   26857.2    372.3   0.005446458   0.06676   0.19306   0.14827  -0.08662
  13   27440.3    364.4   0.028504594   0.34198   0.15272  -0.04898   0.56237
  14   27986.1    357.3   0.088395480   1.03983  -0.35400   0.69291  -0.65908
  15   28173.9    354.9   0.086944928   1.01595   0.45417  -0.50342  -0.74582
  16   28281.2    353.6   0.016484333   0.19189  -0.04411   0.13815  -0.41335
  17   28620.5    349.4   0.031264953   0.35963  -0.33373   0.02197   0.49776
  18   28843.7    346.7   0.052004355   0.59356   0.03382  -0.64845   0.41464
  19   28913.8    345.9   0.150825578   1.71730  -0.56838   1.17640   0.10164
  20   30539.9    327.4   0.033289221   0.35885   0.38344  -0.09421  -0.45050
  21   31284.5    319.6   0.061468937   0.64685   0.06845  -0.25544   0.75955
  22   31448.3    318.0   0.103683599   1.08540  -0.85804   0.41251   0.42308
  23   31612.8    316.3   0.030190943   0.31441  -0.16737   0.21974   0.48796
  24   31722.5    315.2   0.139934310   1.45222  -0.54597   0.86675   0.63473
  25   32551.0    307.2   0.015036710   0.15208   0.23119  -0.16979  -0.26420
  26   32567.8    307.1   0.023429819   0.23684  -0.48496   0.03548   0.01999
  27   33205.4    301.2   0.235002397   2.32991  -0.65396   1.37398  -0.12006
  28   33479.0    298.7   0.014182797   0.13947  -0.13750  -0.07620  -0.33875
  29   33863.3    295.3   0.175734429   1.70845  -0.99125   0.30812  -0.79431
  30   34052.6    293.7   0.005071796   0.04903   0.01771  -0.17372   0.13617
  31   34320.1    291.4   0.052519410   0.50379  -0.02981  -0.01663   0.70896
  32   34358.4    291.0   0.052921999   0.50708   0.63262  -0.32161   0.05863
  33   34480.2    290.0   0.091615069   0.87473   0.05158   0.38338   0.85152
  34   35016.2    285.6   0.037890920   0.35624  -0.38708   0.10090   0.44297
  35   35056.6    285.3   0.005844866   0.05489   0.02295  -0.05222   0.22723
  36   35266.5    283.6   0.016480174   0.15384   0.01077   0.09892  -0.37939
  37   35290.1    283.4   0.137796829   1.28547   0.82281  -0.63960  -0.44650
  38   35722.4    279.9   0.090550089   0.83450  -0.75722   0.30690  -0.40857
  39   35770.6    279.6   0.180805066   1.66402  -0.73642   0.92388  -0.51784
  40   36237.6    276.0   0.223548784   2.03090   0.79595  -1.18208   0.00780
  41   36413.2    274.6   0.083530254   0.75520  -0.38832   0.76425  -0.14261
  42   36732.1    272.2   0.007075782   0.06342   0.11057  -0.22223  -0.04247
  43   37003.7    270.2   0.068712119   0.61131  -0.26967   0.07794   0.72974
  44   37187.0    268.9   0.033728552   0.29860  -0.46487   0.25772   0.12677
  45   37441.0    267.1   0.027546832   0.24221  -0.21548   0.17649  -0.40575
  46   38338.0    260.8   0.003237676   0.02780  -0.01111   0.16331  -0.03176
  47   38396.8    260.4   0.033353478   0.28597  -0.21567   0.40561   0.27375
  48   38661.5    258.7   0.047588304   0.40523   0.33981  -0.41270   0.34559
  49   38720.5    258.3   0.076939994   0.65416  -0.61507   0.19918   0.48598
  50   39170.4    255.3   0.043818940   0.36828  -0.33002  -0.45459   0.22961
  51   39482.4    253.3   0.067900918   0.56617   0.07021   0.44678  -0.60136
  52   39582.2    252.6   0.111963978   0.93122  -0.62180   0.46161   0.57577
  53   39799.5    251.3   0.037204552   0.30775   0.04465  -0.27510   0.47966
  54   39917.2    250.5   0.058976478   0.48640  -0.26286   0.63884  -0.09586
  55   40146.2    249.1   0.115735101   0.94906  -0.37201   0.67307   0.59804
  56   40246.6    248.5   0.069090643   0.56515  -0.08447   0.49366  -0.56064

FINAL SINGLE POINT ENERGY     -6972.341497912279

DIPOLE MOMENT
-------------
                                X             Y             Z
Electronic contribution:    -19.51457      58.17696     -29.07481
Nuclear contribution   :     20.90818     -61.21424      34.96015
                        -----------------------------------------
Total Dipole Moment    :      1.39362      -3.03728       5.88534
                        -----------------------------------------
Magnitude (a.u.)       :      6.76790
Magnitude (Debye)      :     17.20264

Rotational constants in cm-1:     0.000893     0.000627     0.000416
Rotational constants in MHz :    26.783666    18.800691    12.469495

                             ****ORCA TERMINATED NORMALLY****
TOTAL RUN TIME: 0 days 0 hours 14 minutes 26 seconds 591 msec
