                         Program Version 4.2.0 -  RELEASE  -
|  1> # ORCA input file
|  2> # SCF done       -132.076521987980          0.000595792956
|  3> ! CAM-B3LYP def2-SVP def2/J RIJCOSX Grid4 TightSCF
|  4> %maxcore 5000
|  5> %tddft
|  6>     Mode sTDDFT
|  7>     Ethresh 5.0
|  8>     maxcore 5000
|  9> end
| 10>
| 11> %pal
| 12>   nprocs 6
| 13>   end
| 14> * xyz 0 1
| 15>    C        1.23558        -2.91492        -1.39682
| 16>    C        1.18188        -1.93438        -2.34326
| 17>    C        0.71592        -0.63153        -2.05359
| 18>    C        0.28097        -0.25199        -0.80820
| 19>    C        0.32986        -1.24176         0.20641
| 20>    C        0.81075        -2.57092        -0.09911
| 21>    N        0.75898        -3.27183         1.01880
| 22>    O        0.28764        -2.44337         1.94816
| 23>    N        0.02512        -1.22613         1.48882
| 24>    C       -0.21873         1.09868        -0.54772
| 25>    N       -0.90283         1.29155         0.57642
| 26>    C       -1.36002         2.51226         0.79559
| 27>    C       -1.14835         3.55362        -0.08901
| 28>    C       -0.41275         3.26091        -1.24966
| 29>    N        0.04302         2.02169        -1.46294
| 30>    C       -0.12655         4.27338        -2.23085
| 31>    C        0.63400         4.04117        -3.32978
| 32>    C        0.92741         5.02638        -4.29444
| 33>    C        1.70949         4.83116        -5.40174
| 34>    C        2.38905         3.66130        -5.83500
| 35>    C        3.09531         3.81647        -6.98518
| 36>    C        3.02213         5.11787        -7.53930
| 37>    S        2.01027         6.13907        -6.53782
| 38>    C        3.63645         5.58267        -8.68064
| 39>    C        4.48740         4.87862        -9.56641
| 40>    C        4.96065         5.62078       -10.60148
| 41>    C        4.51059         6.96700       -10.60363
| 42>    S        3.44429         7.23894        -9.21969
| 43>    C        4.82196         7.94438       -11.49912
| 44>    N        4.32143         9.20475       -11.40932
| 45>    C        4.59777        10.24999       -12.21909
| 46>    S        5.74344        10.09940       -13.51309
| 47>    C        5.47051        11.76694       -13.92221
| 48>    N        6.18955        12.27710       -15.00207
| 49>    O        6.01496        13.44315       -15.30783
| 50>    O        6.94947        11.50126       -15.56418
| 51>    C        4.55714        12.38681       -13.11279
| 52>    C        4.03419        11.53557       -12.12162
| 53>    C        3.04759        11.89449       -11.14072
| 54>    C        2.50287        13.11895       -11.00726
| 55>    C        1.50278        13.49224       -10.04101
| 56>    C        0.89484        12.66395        -9.11941
| 57>    C       -0.08501        13.11235        -8.20770
| 58>    C       -0.51693        14.40753        -8.15923
| 59>    C        0.06754        15.30118        -9.07584
| 60>    C        1.06873        14.84719       -10.00989
| 61>    N        1.42971        15.88879       -10.73306
| 62>    O        0.71139        16.91605       -10.28862
| 63>    N       -0.11228        16.59133        -9.29520
| 64>    H        1.58353        -3.91297        -1.60511
| 65>    H        1.49797        -2.14893        -3.35346
| 66>    H        0.68729         0.10349        -2.84304
| 67>    H       -1.91544         2.64683         1.71511
| 68>    H       -1.52413         4.54666         0.09787
| 69>    H       -0.54279         5.25513        -2.05039
| 70>    H        1.03354         3.04578        -3.45553
| 71>    H        0.50522         6.01147        -4.14450
| 72>    H        2.33848         2.74192        -5.28079
| 73>    H        3.66882         3.03573        -7.45199
| 74>    H        4.72654         3.84270        -9.40858
| 75>    H        5.61963         5.25340       -11.36725
| 76>    H        5.48857         7.74367       -12.32396
| 77>    H        3.68041         9.37273       -10.64095
| 78>    H        4.28633        13.41735       -13.24840
| 79>    H        2.72743        11.10590       -10.47242
| 80>    H        2.81095        13.92628       -11.65498
| 81>    H        1.16451        11.61965        -9.08040
| 82>    H       -0.50483        12.38807        -7.52506
| 83>    H       -1.26497        14.75005        -7.46470
| 84> *
| 85>
| 86>                          ****END OF INPUT****

CARTESIAN COORDINATES (ANGSTROEM)
---------------------------------
  C      1.235580   -2.914920   -1.396820
  C      1.181880   -1.934380   -2.343260
  C      0.715920   -0.631530   -2.053590
  C      0.280970   -0.251990   -0.808200
  C      0.329860   -1.241760    0.206410
  C      0.810750   -2.570920   -0.099110
  N      0.758980   -3.271830    1.018800
  O      0.287640   -2.443370    1.948160
  N      0.025120   -1.226130    1.488820
  C     -0.218730    1.098680   -0.547720
  N     -0.902830    1.291550    0.576420
  C     -1.360020    2.512260    0.795590
  C     -1.148350    3.553620   -0.089010
  C     -0.412750    3.260910   -1.249660
  N      0.043020    2.021690   -1.462940
  C     -0.126550    4.273380   -2.230850
  C      0.634000    4.041170   -3.329780
  C      0.927410    5.026380   -4.294440
  C      1.709490    4.831160   -5.401740
  C      2.389050    3.661300   -5.835000
  C      3.095310    3.816470   -6.985180
  C      3.022130    5.117870   -7.539300
  S      2.010270    6.139070   -6.537820
  C      3.636450    5.582670   -8.680640
  C      4.487400    4.878620   -9.566410
  C      4.960650    5.620780  -10.601480
  C      4.510590    6.967000  -10.603630
  S      3.444290    7.238940   -9.219690
  C      4.821960    7.944380  -11.499120
  N      4.321430    9.204750  -11.409320
  C      4.597770   10.249990  -12.219090
  S      5.743440   10.099400  -13.513090
  C      5.470510   11.766940  -13.922210
  N      6.189550   12.277100  -15.002070
  O      6.014960   13.443150  -15.307830
  O      6.949470   11.501260  -15.564180
  C      4.557140   12.386810  -13.112790
  C      4.034190   11.535570  -12.121620
  C      3.047590   11.894490  -11.140720
  C      2.502870   13.118950  -11.007260
  C      1.502780   13.492240  -10.041010
  C      0.894840   12.663950   -9.119410
  C     -0.085010   13.112350   -8.207700
  C     -0.516930   14.407530   -8.159230
  C      0.067540   15.301180   -9.075840
  C      1.068730   14.847190  -10.009890
  N      1.429710   15.888790  -10.733060
  O      0.711390   16.916050  -10.288620
  N     -0.112280   16.591330   -9.295200
  H      1.583530   -3.912970   -1.605110
  H      1.497970   -2.148930   -3.353460
  H      0.687290    0.103490   -2.843040
  H     -1.915440    2.646830    1.715110
  H     -1.524130    4.546660    0.097870
  H     -0.542790    5.255130   -2.050390
  H      1.033540    3.045780   -3.455530
  H      0.505220    6.011470   -4.144500
  H      2.338480    2.741920   -5.280790
  H      3.668820    3.035730   -7.451990
  H      4.726540    3.842700   -9.408580
  H      5.619630    5.253400  -11.367250
  H      5.488570    7.743670  -12.323960
  H      3.680410    9.372730  -10.640950
  H      4.286330   13.417350  -13.248400
  H      2.727430   11.105900  -10.472420
  H      2.810950   13.926280  -11.654980
  H      1.164510   11.619650   -9.080400
  H     -0.504830   12.388070   -7.525060
  H     -1.264970   14.750050   -7.464700

 Total Charge           Charge          ....    0
 Multiplicity           Mult            ....    1
 Number of Electrons    NEL             ....  360
 Basis Dimension        Dim             ....  798

ORBITAL ENERGIES
----------------

  NO   OCC          E(Eh)            E(eV)
   0   2.0000     -88.989900     -2421.5383
   1   2.0000     -88.965774     -2420.8818
   2   2.0000     -88.954877     -2420.5853
   3   2.0000     -19.353712      -526.6413
   4   2.0000     -19.340329      -526.2771
   5   2.0000     -19.235460      -523.4235
   6   2.0000     -19.235339      -523.4202
   7   2.0000     -14.647350      -398.5746
   8   2.0000     -14.500681      -394.5836
   9   2.0000     -14.478508      -393.9802
  10   2.0000     -14.475922      -393.9099
  11   2.0000     -14.464092      -393.5880
  12   2.0000     -14.461665      -393.5219
  13   2.0000     -14.406957      -392.0332
  14   2.0000     -14.400376      -391.8542
  15   2.0000     -10.378033      -282.4006
  16   2.0000     -10.350000      -281.6378
  17   2.0000     -10.343851      -281.4705
  18   2.0000     -10.343278      -281.4549
  19   2.0000     -10.329758      -281.0870
  20   2.0000     -10.326093      -280.9873
  21   2.0000     -10.325227      -280.9637
  22   2.0000     -10.322783      -280.8972
  23   2.0000     -10.322068      -280.8778
  24   2.0000     -10.321152      -280.8528
  25   2.0000     -10.321117      -280.8519
  26   2.0000     -10.316057      -280.7142
  27   2.0000     -10.313058      -280.6326
  28   2.0000     -10.311385      -280.5870
  29   2.0000     -10.311129      -280.5801
  30   2.0000     -10.310746      -280.5697
  31   2.0000     -10.306389      -280.4511
  32   2.0000     -10.305733      -280.4333
  33   2.0000     -10.305382      -280.4237
  34   2.0000     -10.302509      -280.3455
  35   2.0000     -10.301562      -280.3198
  36   2.0000     -10.300196      -280.2826
  37   2.0000     -10.298935      -280.2483
  38   2.0000     -10.298148      -280.2268
  39   2.0000     -10.294935      -280.1394
  40   2.0000     -10.293690      -280.1055
  41   2.0000     -10.293346      -280.0962
  42   2.0000     -10.292990      -280.0865
  43   2.0000     -10.290944      -280.0308
  44   2.0000     -10.288088      -279.9531
  45   2.0000     -10.286536      -279.9109
  46   2.0000     -10.285644      -279.8866
  47   2.0000     -10.281541      -279.7750
  48   2.0000     -10.275327      -279.6059
  49   2.0000      -8.085263      -220.0112
  50   2.0000      -8.062120      -219.3814
  51   2.0000      -8.051394      -219.0896
  52   2.0000      -6.055033      -164.7658
  53   2.0000      -6.050593      -164.6450
  54   2.0000      -6.046569      -164.5355
  55   2.0000      -6.031976      -164.1384
  56   2.0000      -6.028087      -164.0326
  57   2.0000      -6.022725      -163.8867
  58   2.0000      -6.021196      -163.8451
  59   2.0000      -6.017215      -163.7367
  60   2.0000      -6.012125      -163.5982
  61   2.0000      -1.315540       -35.7977
  62   2.0000      -1.306315       -35.5466
  63   2.0000      -1.293777       -35.2055
  64   2.0000      -1.134717       -30.8772
  65   2.0000      -1.107283       -30.1307
  66   2.0000      -1.080267       -29.3956
  67   2.0000      -1.013873       -27.5889
  68   2.0000      -1.009313       -27.4648
  69   2.0000      -1.005212       -27.3532
  70   2.0000      -0.997486       -27.1430
  71   2.0000      -0.995587       -27.0913
  72   2.0000      -0.985392       -26.8139
  73   2.0000      -0.984667       -26.7942
  74   2.0000      -0.977025       -26.5862
  75   2.0000      -0.932154       -25.3652
  76   2.0000      -0.919750       -25.0277
  77   2.0000      -0.915318       -24.9071
  78   2.0000      -0.908637       -24.7253
  79   2.0000      -0.901232       -24.5238
  80   2.0000      -0.893708       -24.3190
  81   2.0000      -0.880483       -23.9592
  82   2.0000      -0.872996       -23.7554
  83   2.0000      -0.860423       -23.4133
  84   2.0000      -0.853790       -23.2328
  85   2.0000      -0.843154       -22.9434
  86   2.0000      -0.835132       -22.7251
  87   2.0000      -0.830774       -22.6065
  88   2.0000      -0.809213       -22.0198
  89   2.0000      -0.782719       -21.2989
  90   2.0000      -0.771833       -21.0026
  91   2.0000      -0.766663       -20.8620
  92   2.0000      -0.752076       -20.4650
  93   2.0000      -0.745197       -20.2779
  94   2.0000      -0.738249       -20.0888
  95   2.0000      -0.736766       -20.0484
  96   2.0000      -0.736011       -20.0279
  97   2.0000      -0.721698       -19.6384
  98   2.0000      -0.705030       -19.1848
  99   2.0000      -0.697589       -18.9824
 100   2.0000      -0.680954       -18.5297
 101   2.0000      -0.666724       -18.1425
 102   2.0000      -0.660502       -17.9732
 103   2.0000      -0.658249       -17.9119
 104   2.0000      -0.645093       -17.5539
 105   2.0000      -0.640926       -17.4405
 106   2.0000      -0.634815       -17.2742
 107   2.0000      -0.630369       -17.1532
 108   2.0000      -0.628774       -17.1098
 109   2.0000      -0.628625       -17.1058
 110   2.0000      -0.621121       -16.9016
 111   2.0000      -0.613306       -16.6889
 112   2.0000      -0.608240       -16.5510
 113   2.0000      -0.605919       -16.4879
 114   2.0000      -0.604106       -16.4386
 115   2.0000      -0.598869       -16.2961
 116   2.0000      -0.591805       -16.1038
 117   2.0000      -0.589408       -16.0386
 118   2.0000      -0.587552       -15.9881
 119   2.0000      -0.583999       -15.8914
 120   2.0000      -0.578031       -15.7290
 121   2.0000      -0.569506       -15.4970
 122   2.0000      -0.562974       -15.3193
 123   2.0000      -0.557065       -15.1585
 124   2.0000      -0.550273       -14.9737
 125   2.0000      -0.547684       -14.9032
 126   2.0000      -0.544667       -14.8211
 127   2.0000      -0.542132       -14.7522
 128   2.0000      -0.535498       -14.5716
 129   2.0000      -0.528602       -14.3840
 130   2.0000      -0.523964       -14.2578
 131   2.0000      -0.515068       -14.0157
 132   2.0000      -0.511865       -13.9285
 133   2.0000      -0.510577       -13.8935
 134   2.0000      -0.505788       -13.7632
 135   2.0000      -0.505157       -13.7460
 136   2.0000      -0.496067       -13.4987
 137   2.0000      -0.491255       -13.3677
 138   2.0000      -0.487954       -13.2779
 139   2.0000      -0.487161       -13.2563
 140   2.0000      -0.482115       -13.1190
 141   2.0000      -0.480366       -13.0714
 142   2.0000      -0.477711       -12.9992
 143   2.0000      -0.466984       -12.7073
 144   2.0000      -0.465826       -12.6758
 145   2.0000      -0.463310       -12.6073
 146   2.0000      -0.460954       -12.5432
 147   2.0000      -0.459510       -12.5039
 148   2.0000      -0.458749       -12.4832
 149   2.0000      -0.452851       -12.3227
 150   2.0000      -0.451817       -12.2946
 151   2.0000      -0.444463       -12.0944
 152   2.0000      -0.434626       -11.8268
 153   2.0000      -0.429899       -11.6982
 154   2.0000      -0.427580       -11.6351
 155   2.0000      -0.417255       -11.3541
 156   2.0000      -0.406907       -11.0725
 157   2.0000      -0.401574       -10.9274
 158   2.0000      -0.399810       -10.8794
 159   2.0000      -0.396673       -10.7940
 160   2.0000      -0.394680       -10.7398
 161   2.0000      -0.391916       -10.6646
 162   2.0000      -0.383801       -10.4437
 163   2.0000      -0.383184       -10.4270
 164   2.0000      -0.375603       -10.2207
 165   2.0000      -0.371145       -10.0994
 166   2.0000      -0.364646        -9.9225
 167   2.0000      -0.364190        -9.9101
 168   2.0000      -0.364045        -9.9062
 169   2.0000      -0.357673        -9.7328
 170   2.0000      -0.354788        -9.6543
 171   2.0000      -0.350392        -9.5347
 172   2.0000      -0.345140        -9.3917
 173   2.0000      -0.339194        -9.2299
 174   2.0000      -0.323396        -8.8001
 175   2.0000      -0.317513        -8.6400
 176   2.0000      -0.299371        -8.1463
 177   2.0000      -0.292600        -7.9621
 178   2.0000      -0.269680        -7.3384
 179   2.0000      -0.222685        -6.0596
 180   0.0000      -0.090057        -2.4506
 181   0.0000      -0.069444        -1.8897
 182   0.0000      -0.055779        -1.5178
 183   0.0000      -0.052222        -1.4210
 184   0.0000      -0.023342        -0.6352

MULLIKEN ATOMIC CHARGES
-----------------------
   0 C :   -0.016107
   1 C :    0.044230
   2 C :   -0.026644
   3 C :    0.123242
   4 C :   -0.052105
   5 C :   -0.007754
   6 N :    0.050451
   7 O :   -0.102486
   8 N :    0.075351
   9 C :   -0.138093
  10 N :   -0.048704
  11 C :    0.084821
  12 C :   -0.042464
  13 C :    0.069850
  14 N :   -0.060345
  15 C :   -0.031469
  16 C :    0.050690
  17 C :    0.026204
  18 C :   -0.035933
  19 C :    0.027702
  20 C :    0.029214
  21 C :   -0.056238
  22 S :    0.082920
  23 C :   -0.038199
  24 C :    0.026127
  25 C :    0.045036
  26 C :   -0.044863
  27 S :    0.030617
  28 C :    0.030182
  29 N :   -0.031349
  30 C :   -0.112284
  31 S :    0.151122
  32 C :   -0.005560
  33 N :    0.279643
  34 O :   -0.249908
  35 O :   -0.271974
  36 C :    0.009661
  37 C :    0.126383
  38 C :   -0.002121
  39 C :   -0.026524
  40 C :    0.114749
  41 C :   -0.060862
  42 C :    0.049787
  43 C :   -0.031794
  44 C :    0.015720
  45 C :   -0.069082
  46 N :    0.039557
  47 O :   -0.099901
  48 N :    0.053800
  49 H :   -0.010626
  50 H :   -0.004455
  51 H :   -0.007514
  52 H :    0.007518
  53 H :   -0.009629
  54 H :   -0.027108
  55 H :    0.003036
  56 H :   -0.019862
  57 H :   -0.008474
  58 H :   -0.011171
  59 H :   -0.008529
  60 H :   -0.005049
  61 H :    0.030246
  62 H :    0.150353
  63 H :    0.018394
  64 H :   -0.044689
  65 H :    0.001313
  66 H :   -0.019389
  67 H :   -0.000078
  68 H :   -0.008585
Sum of atomic charges:    0.0000000

LOEWDIN ATOMIC CHARGES
----------------------
   0 C :   -0.008377
   1 C :   -0.014178
   2 C :    0.010127
   3 C :   -0.035360
   4 C :   -0.051970
   5 C :   -0.062671
   6 N :   -0.031774
   7 O :    0.074620
   8 N :   -0.009478
   9 C :    0.031680
  10 N :   -0.080773
  11 C :    0.053537
  12 C :   -0.065447
  13 C :    0.035890
  14 N :   -0.091339
  15 C :   -0.054609
  16 C :    0.016556
  17 C :   -0.063517
  18 C :   -0.131448
  19 C :   -0.039842
  20 C :   -0.019465
  21 C :   -0.188220
  22 S :    0.364514
  23 C :   -0.166338
  24 C :   -0.039875
  25 C :   -0.023876
  26 C :   -0.183820
  27 S :    0.337175
  28 C :   -0.006028
  29 N :    0.050090
  30 C :   -0.098070
  31 S :    0.452138
  32 C :   -0.209984
  33 N :    0.273885
  34 O :   -0.216623
  35 O :   -0.238627
  36 C :    0.011807
  37 C :   -0.107204
  38 C :   -0.011201
  39 C :   -0.018847
  40 C :   -0.021106
  41 C :   -0.014944
  42 C :   -0.006889
  43 C :   -0.019458
  44 C :   -0.059395
  45 C :   -0.054187
  46 N :   -0.030311
  47 O :    0.077526
  48 N :   -0.025604
  49 H :    0.039251
  50 H :    0.033369
  51 H :    0.033115
  52 H :    0.027750
  53 H :    0.032007
  54 H :    0.025587
  55 H :    0.029398
  56 H :    0.027966
  57 H :    0.034064
  58 H :    0.033399
  59 H :    0.034315
  60 H :    0.036566
  61 H :    0.032782
  62 H :    0.084989
  63 H :    0.048168
  64 H :    0.019532
  65 H :    0.035179
  66 H :    0.027885
  67 H :    0.035929
  68 H :    0.040057

  Mayer bond orders larger than 0.100000
B(  0-C ,  1-C ) :   1.5381 B(  0-C ,  3-C ) :   0.1120 B(  0-C ,  5-C ) :   1.1614
B(  0-C , 49-H ) :   1.0213 B(  1-C ,  2-C ) :   1.1574 B(  1-C , 50-H ) :   0.9862
B(  2-C ,  3-C ) :   1.6068 B(  2-C , 51-H ) :   0.9899 B(  3-C ,  4-C ) :   1.1435
B(  3-C ,  9-C ) :   0.9219 B(  3-C , 14-N ) :  -0.1162 B(  4-C ,  5-C ) :   1.1509
B(  4-C ,  8-N ) :   1.5999 B(  5-C ,  6-N ) :   1.5968 B(  6-N ,  7-O ) :   1.0692
B(  6-N ,  8-N ) :   0.1892 B(  7-O ,  8-N ) :   1.0537 B(  9-C , 10-N ) :   1.6048
B(  9-C , 14-N ) :   1.6240 B( 10-N , 11-C ) :   1.5226 B( 11-C , 12-C ) :   1.3847
B( 11-C , 52-H ) :   0.9806 B( 12-C , 13-C ) :   1.3162 B( 12-C , 53-H ) :   0.9755
B( 13-C , 14-N ) :   1.4921 B( 13-C , 15-C ) :   1.0744 B( 15-C , 16-C ) :   1.6559
B( 15-C , 54-H ) :   0.9829 B( 16-C , 17-C ) :   1.1680 B( 16-C , 55-H ) :   0.9667
B( 17-C , 18-C ) :   1.5478 B( 17-C , 56-H ) :   0.9687 B( 18-C , 19-C ) :   1.1495
B( 18-C , 22-S ) :   1.0387 B( 19-C , 20-C ) :   1.6134 B( 19-C , 57-H ) :   0.9896
B( 20-C , 21-C ) :   1.1819 B( 20-C , 58-H ) :   0.9921 B( 21-C , 22-S ) :   1.0380
B( 21-C , 23-C ) :   1.5302 B( 23-C , 24-C ) :   1.1795 B( 23-C , 27-S ) :   1.0439
B( 24-C , 25-C ) :   1.6197 B( 24-C , 59-H ) :   0.9915 B( 25-C , 26-C ) :   1.1475
B( 25-C , 60-H ) :   0.9947 B( 26-C , 27-S ) :   1.0059 B( 26-C , 28-C ) :   1.6180
B( 28-C , 29-N ) :   1.1365 B( 28-C , 61-H ) :   0.9586 B( 29-N , 30-C ) :   1.2443
B( 29-N , 62-H ) :   0.9049 B( 30-C , 31-S ) :   1.1323 B( 30-C , 37-C ) :   1.3352
B( 31-S , 32-C ) :   1.0594 B( 32-C , 33-N ) :   0.9808 B( 32-C , 36-C ) :   1.4969
B( 33-N , 34-O ) :   1.5288 B( 33-N , 35-O ) :   1.5008 B( 34-O , 35-O ) :   0.2548
B( 36-C , 37-C ) :   1.2307 B( 36-C , 63-H ) :   0.9999 B( 37-C , 38-C ) :   1.0770
B( 38-C , 39-C ) :   1.7154 B( 38-C , 64-H ) :   0.9626 B( 39-C , 40-C ) :   1.0939
B( 39-C , 65-H ) :   0.9835 B( 40-C , 41-C ) :   1.5085 B( 40-C , 43-C ) :   0.1072
B( 40-C , 45-C ) :   1.1243 B( 41-C , 42-C ) :   1.2090 B( 41-C , 66-H ) :   0.9887
B( 42-C , 43-C ) :   1.5276 B( 42-C , 67-H ) :   0.9811 B( 43-C , 44-C ) :   1.1635
B( 43-C , 68-H ) :   1.0242 B( 44-C , 45-C ) :   1.1473 B( 44-C , 48-N ) :   1.5912
B( 45-C , 46-N ) :   1.6074 B( 46-N , 47-O ) :   1.0655 B( 46-N , 48-N ) :   0.1878
B( 47-O , 48-N ) :   1.0704

-----------------------------------------------------------------------------
         ABSORPTION SPECTRUM VIA TRANSITION ELECTRIC DIPOLE MOMENTS
-----------------------------------------------------------------------------
State   Energy  Wavelength   fosc         T2         TX        TY        TZ
        (cm-1)    (nm)                  (au**2)     (au)      (au)      (au)
-----------------------------------------------------------------------------
   0   15380.4    650.2   1.760057383  37.67345   1.80848   3.66424  -4.57998
   1   20660.8    484.0   0.399140977   6.35997  -1.58756   0.20316   1.94893
   2   23563.0    424.4   0.004512080   0.06304  -0.07912  -0.23829  -0.00029
   3   24480.4    408.5   0.002194912   0.02952  -0.05957   0.15892   0.02669
   4   25632.7    390.1   0.428834098   5.50771  -1.38797   1.26481   1.40767
   5   28241.6    354.1   0.440707830   5.13732  -1.55583   0.58120   1.54237
   6   28910.7    345.9   0.012092388   0.13770   0.13124  -0.34687   0.01239
   7   30100.8    332.2   0.000164837   0.00180   0.00516  -0.00555  -0.04178
   8   31156.1    321.0   0.005373823   0.05678  -0.04521   0.19965  -0.12198
   9   31596.3    316.5   0.007428085   0.07740  -0.23930   0.13864  -0.03018
  10   31958.6    312.9   0.010730190   0.11053   0.18668  -0.16799  -0.21786
  11   32314.2    309.5   0.001985373   0.02023   0.05363   0.07361   0.10924
  12   32940.9    303.6   0.059729768   0.59694   0.45345   0.12311  -0.61333
  13   33428.1    299.1   0.175945353   1.73277   0.44209  -1.23988   0.00601
  14   34666.5    288.5   0.109945160   1.04410   0.07947  -1.00446   0.16982
  15   34841.4    287.0   0.291948056   2.75858  -0.43097   1.59707   0.14908
  16   36041.5    277.5   0.258810340   2.36403  -0.96799   0.54459   1.06323
  17   36522.4    273.8   0.058783301   0.52987   0.33755   0.28746  -0.57732
  18   36794.2    271.8   0.048994192   0.43837   0.21933   0.29583  -0.55023
  19   37479.8    266.8   0.025182065   0.22119   0.00627   0.45453  -0.12066
  20   38431.4    260.2   0.085549716   0.73284  -0.44053   0.63002   0.37662
  21   39221.7    255.0   0.086494954   0.72601   0.20986   0.54885  -0.61704
  22   39587.9    252.6   0.003404957   0.02832   0.03423  -0.15260   0.06211
  23   39777.1    251.4   0.044449480   0.36788  -0.30685   0.51825   0.07169

FINAL SINGLE POINT ENERGY     -3237.905178407232

DIPOLE MOMENT
-------------
                                X             Y             Z
Electronic contribution:      7.09374      11.58577     -10.77588
Nuclear contribution   :     -7.36767     -13.00956      10.48597
                        -----------------------------------------
Total Dipole Moment    :     -0.27393      -1.42378      -0.28991
                        -----------------------------------------
Magnitude (a.u.)       :      1.47860
Magnitude (Debye)      :      3.75829

Rotational constants in cm-1:     0.002882     0.000424     0.000371
Rotational constants in MHz :    86.410563    12.717301    11.114095

                             ****ORCA TERMINATED NORMALLY****
TOTAL RUN TIME: 0 days 0 hours 4 minutes 13 seconds 532 msec
