                         Program Version 4.2.0 -  RELEASE  -
|  1> # ORCA input file
|  2> # SCF done       -144.491103681825          0.000239471727
|  3> ! CAM-B3LYP def2-SVP def2/J RIJCOSX Grid4 TightSCF
|  4> %maxcore 5000
|  5> %tddft
|  6>     Mode sTDDFT
|  7>     Ethresh 5.0
|  8>     maxcore 5000
|  9> end
| 10>
| 11> %pal
| 12>   nprocs 6
| 13>   end
| 14> * xyz 0 1
| 15>    C        5.10504         7.09881         5.04924
| 16>    S        4.08239         5.89614         4.42003
| 17>    C        3.24200         7.02898         3.39708
| 18>    C        3.76955         8.32081         3.55709
| 19>    C        4.84378         8.34235         4.51700
| 20>    C        5.52791         9.54669         4.84513
| 21>    C        6.63634         9.52974         5.84970
| 22>    C        5.13052        10.68661         4.21356
| 23>    C        4.08548        10.67505         3.27000
| 24>    C        3.39956         9.54106         2.92407
| 25>    C        2.30650         9.64012         1.90427
| 26>    C        2.18575         6.55411         2.58317
| 27>    C        1.77645         5.26209         2.51796
| 28>    C        0.70403         4.81432         1.70675
| 29>    S       -0.14921         5.94060         0.68498
| 30>    C       -1.16787         4.68677         0.10384
| 31>    C       -0.88365         3.46760         0.63045
| 32>    C       -1.69803         2.26376         0.28458
| 33>    C        0.20404         3.51828         1.56148
| 34>    C        0.73409         2.41816         2.31916
| 35>    C        0.65410         1.10427         2.02438
| 36>    C        1.20211         0.08243         2.86050
| 37>    C        1.06773        -1.23004         2.58391
| 38>    C        1.55035        -2.34191         3.36277
| 39>    C        2.65834        -2.41974         4.11276
| 40>    C        3.68668        -1.34315         4.24653
| 41>    C        2.97980        -3.70560         4.84301
| 42>    N        3.52046        -3.48096         6.16259
| 43>    C        2.87983        -2.88614         7.17295
| 44>    C        1.64884        -2.28332         7.12874
| 45>    C        0.98222        -1.71798         8.22931
| 46>    C        1.30522        -1.79497         9.56804
| 47>    C        0.61945        -1.18919        10.64654
| 48>    C        1.14725        -1.44660        11.88311
| 49>    C        2.28277        -2.27602        11.84709
| 50>    S        2.64971        -2.72546        10.20368
| 51>    C        3.13937        -2.75705        12.82685
| 52>    C        3.20320        -2.57878        14.21819
| 53>    C        4.26052        -3.21962        14.80432
| 54>    C        5.08659        -3.93526        13.90170
| 55>    S        4.45761        -3.77266        12.28211
| 56>    C        6.20820        -4.66884        14.20757
| 57>    C        7.03945        -5.36794        13.31023
| 58>    S        8.34380        -6.35633        13.96482
| 59>    C        8.90021        -6.89471        12.42379
| 60>    C        8.12883        -6.34587        11.43047
| 61>    C        7.09193        -5.48887        11.92845
| 62>    O        6.38607        -4.96429        10.90039
| 63>    C        6.93646        -5.47762         9.76919
| 64>    N        6.39316        -5.11142         8.53603
| 65>    O        6.89214        -5.61459         7.53432
| 66>    O        5.45923        -4.31955         8.49638
| 67>    C        7.99494        -6.32008        10.01790
| 68>    H        5.84443         6.83210         5.77693
| 69>    H        7.43411         8.86107         5.52744
| 70>    H        6.27227         9.17651         6.81418
| 71>    H        7.04907        10.52713         5.97796
| 72>    H        5.62052        11.62464         4.43152
| 73>    H        3.81905        11.61133         2.80048
| 74>    H        2.22340        10.66571         1.55118
| 75>    H        1.34675         9.35170         2.33151
| 76>    H        2.51465         9.00250         1.04605
| 77>    H        1.66492         7.27269         1.97306
| 78>    H        2.28790         4.51717         3.11197
| 79>    H       -1.93947         4.92968        -0.60047
| 80>    H       -2.63188         2.57328        -0.18028
| 81>    H       -1.92335         1.68491         1.17804
| 82>    H       -1.16728         1.62552        -0.42184
| 83>    H        1.26912         2.69225         3.22010
| 84>    H        0.18613         0.76783         1.11297
| 85>    H        1.69522         0.40325         3.76659
| 86>    H        0.48540        -1.50788         1.71220
| 87>    H        0.93698        -3.23409         3.28558
| 88>    H        3.66691        -0.68224         3.38349
| 89>    H        4.67811        -1.78396         4.33690
| 90>    H        3.50868        -0.74775         5.14263
| 91>    H        3.72954        -4.26319         4.27280
| 92>    H        2.07692        -4.32562         4.91131
| 93>    H        4.41778        -3.88227         6.39139
| 94>    H        3.45975        -2.88783         8.08205
| 95>    H        1.14305        -2.20940         6.17635
| 96>    H        0.07620        -1.16759         8.00490
| 97>    H       -0.24712        -0.57192        10.48101
| 98>    H        0.74721        -1.06518        12.80599
| 99>    H        2.48243        -1.98498        14.75300
|100>    H        4.47637        -3.19442        15.85818
|101>    H        6.48517        -4.73795        15.25071
|102>    H        9.73528        -7.55822        12.35475
|103>    H        8.57799        -6.83168         9.28095
|104> *
|105>
|106>                          ****END OF INPUT****

CARTESIAN COORDINATES (ANGSTROEM)
---------------------------------
  C      5.105040    7.098810    5.049240
  S      4.082390    5.896140    4.420030
  C      3.242000    7.028980    3.397080
  C      3.769550    8.320810    3.557090
  C      4.843780    8.342350    4.517000
  C      5.527910    9.546690    4.845130
  C      6.636340    9.529740    5.849700
  C      5.130520   10.686610    4.213560
  C      4.085480   10.675050    3.270000
  C      3.399560    9.541060    2.924070
  C      2.306500    9.640120    1.904270
  C      2.185750    6.554110    2.583170
  C      1.776450    5.262090    2.517960
  C      0.704030    4.814320    1.706750
  S     -0.149210    5.940600    0.684980
  C     -1.167870    4.686770    0.103840
  C     -0.883650    3.467600    0.630450
  C     -1.698030    2.263760    0.284580
  C      0.204040    3.518280    1.561480
  C      0.734090    2.418160    2.319160
  C      0.654100    1.104270    2.024380
  C      1.202110    0.082430    2.860500
  C      1.067730   -1.230040    2.583910
  C      1.550350   -2.341910    3.362770
  C      2.658340   -2.419740    4.112760
  C      3.686680   -1.343150    4.246530
  C      2.979800   -3.705600    4.843010
  N      3.520460   -3.480960    6.162590
  C      2.879830   -2.886140    7.172950
  C      1.648840   -2.283320    7.128740
  C      0.982220   -1.717980    8.229310
  C      1.305220   -1.794970    9.568040
  C      0.619450   -1.189190   10.646540
  C      1.147250   -1.446600   11.883110
  C      2.282770   -2.276020   11.847090
  S      2.649710   -2.725460   10.203680
  C      3.139370   -2.757050   12.826850
  C      3.203200   -2.578780   14.218190
  C      4.260520   -3.219620   14.804320
  C      5.086590   -3.935260   13.901700
  S      4.457610   -3.772660   12.282110
  C      6.208200   -4.668840   14.207570
  C      7.039450   -5.367940   13.310230
  S      8.343800   -6.356330   13.964820
  C      8.900210   -6.894710   12.423790
  C      8.128830   -6.345870   11.430470
  C      7.091930   -5.488870   11.928450
  O      6.386070   -4.964290   10.900390
  C      6.936460   -5.477620    9.769190
  N      6.393160   -5.111420    8.536030
  O      6.892140   -5.614590    7.534320
  O      5.459230   -4.319550    8.496380
  C      7.994940   -6.320080   10.017900
  H      5.844430    6.832100    5.776930
  H      7.434110    8.861070    5.527440
  H      6.272270    9.176510    6.814180
  H      7.049070   10.527130    5.977960
  H      5.620520   11.624640    4.431520
  H      3.819050   11.611330    2.800480
  H      2.223400   10.665710    1.551180
  H      1.346750    9.351700    2.331510
  H      2.514650    9.002500    1.046050
  H      1.664920    7.272690    1.973060
  H      2.287900    4.517170    3.111970
  H     -1.939470    4.929680   -0.600470
  H     -2.631880    2.573280   -0.180280
  H     -1.923350    1.684910    1.178040
  H     -1.167280    1.625520   -0.421840
  H      1.269120    2.692250    3.220100
  H      0.186130    0.767830    1.112970
  H      1.695220    0.403250    3.766590
  H      0.485400   -1.507880    1.712200
  H      0.936980   -3.234090    3.285580
  H      3.666910   -0.682240    3.383490
  H      4.678110   -1.783960    4.336900
  H      3.508680   -0.747750    5.142630
  H      3.729540   -4.263190    4.272800
  H      2.076920   -4.325620    4.911310
  H      4.417780   -3.882270    6.391390
  H      3.459750   -2.887830    8.082050
  H      1.143050   -2.209400    6.176350
  H      0.076200   -1.167590    8.004900
  H     -0.247120   -0.571920   10.481010
  H      0.747210   -1.065180   12.805990
  H      2.482430   -1.984980   14.753000
  H      4.476370   -3.194420   15.858180
  H      6.485170   -4.737950   15.250710
  H      9.735280   -7.558220   12.354750
  H      8.577990   -6.831680    9.280950

 Total Charge           Charge          ....    0
 Multiplicity           Mult            ....    1
 Number of Electrons    NEL             ....  412
 Basis Dimension        Dim             ....  942

ORBITAL ENERGIES
----------------

  NO   OCC          E(Eh)            E(eV)
   0   2.0000     -88.959601     -2420.7138
   1   2.0000     -88.952209     -2420.5127
   2   2.0000     -88.938835     -2420.1487
   3   2.0000     -88.923493     -2419.7313
   4   2.0000     -88.916214     -2419.5332
   5   2.0000     -19.297303      -525.1063
   6   2.0000     -19.252679      -523.8920
   7   2.0000     -19.248395      -523.7754
   8   2.0000     -14.660443      -398.9309
   9   2.0000     -14.431475      -392.7004
  10   2.0000     -10.383748      -282.5562
  11   2.0000     -10.333149      -281.1793
  12   2.0000     -10.309052      -280.5236
  13   2.0000     -10.306525      -280.4548
  14   2.0000     -10.305655      -280.4311
  15   2.0000     -10.305085      -280.4156
  16   2.0000     -10.294939      -280.1395
  17   2.0000     -10.293522      -280.1010
  18   2.0000     -10.291464      -280.0450
  19   2.0000     -10.290643      -280.0226
  20   2.0000     -10.288459      -279.9632
  21   2.0000     -10.288054      -279.9522
  22   2.0000     -10.283365      -279.8246
  23   2.0000     -10.276547      -279.6391
  24   2.0000     -10.275805      -279.6189
  25   2.0000     -10.275606      -279.6135
  26   2.0000     -10.273572      -279.5581
  27   2.0000     -10.272999      -279.5425
  28   2.0000     -10.271686      -279.5068
  29   2.0000     -10.270843      -279.4838
  30   2.0000     -10.269529      -279.4481
  31   2.0000     -10.269294      -279.4417
  32   2.0000     -10.269210      -279.4394
  33   2.0000     -10.267577      -279.3950
  34   2.0000     -10.267380      -279.3896
  35   2.0000     -10.267309      -279.3877
  36   2.0000     -10.266359      -279.3618
  37   2.0000     -10.265575      -279.3405
  38   2.0000     -10.265126      -279.3283
  39   2.0000     -10.263572      -279.2860
  40   2.0000     -10.262808      -279.2652
  41   2.0000     -10.261698      -279.2350
  42   2.0000     -10.261616      -279.2328
  43   2.0000     -10.261289      -279.2239
  44   2.0000     -10.259579      -279.1773
  45   2.0000     -10.258791      -279.1559
  46   2.0000     -10.258616      -279.1511
  47   2.0000     -10.257140      -279.1110
  48   2.0000     -10.256329      -279.0889
  49   2.0000     -10.255015      -279.0531
  50   2.0000     -10.253993      -279.0253
  51   2.0000     -10.253071      -279.0002
  52   2.0000     -10.242917      -278.7239
  53   2.0000      -8.054504      -219.1742
  54   2.0000      -8.047663      -218.9881
  55   2.0000      -8.034660      -218.6342
  56   2.0000      -8.019585      -218.2240
  57   2.0000      -8.012929      -218.0429
  58   2.0000      -6.023876      -163.9180
  59   2.0000      -6.019596      -163.8015
  60   2.0000      -6.016765      -163.7245
  61   2.0000      -6.016562      -163.7190
  62   2.0000      -6.012418      -163.6062
  63   2.0000      -6.010684      -163.5590
  64   2.0000      -6.003916      -163.3748
  65   2.0000      -5.999804      -163.2630
  66   2.0000      -5.996870      -163.1831
  67   2.0000      -5.989246      -162.9757
  68   2.0000      -5.985099      -162.8628
  69   2.0000      -5.982658      -162.7964
  70   2.0000      -5.980738      -162.7442
  71   2.0000      -5.978489      -162.6830
  72   2.0000      -5.973691      -162.5524
  73   2.0000      -1.326533       -36.0968
  74   2.0000      -1.219255       -33.1776
  75   2.0000      -1.139843       -31.0167
  76   2.0000      -1.031177       -28.0597
  77   2.0000      -0.981861       -26.7178
  78   2.0000      -0.981311       -26.7028
  79   2.0000      -0.973755       -26.4972
  80   2.0000      -0.971104       -26.4251
  81   2.0000      -0.950850       -25.8739
  82   2.0000      -0.934699       -25.4344
  83   2.0000      -0.921238       -25.0682
  84   2.0000      -0.911675       -24.8079
  85   2.0000      -0.892064       -24.2743
  86   2.0000      -0.891079       -24.2475
  87   2.0000      -0.888248       -24.1705
  88   2.0000      -0.878097       -23.8942
  89   2.0000      -0.872229       -23.7346
  90   2.0000      -0.859368       -23.3846
  91   2.0000      -0.850142       -23.1336
  92   2.0000      -0.837705       -22.7951
  93   2.0000      -0.834054       -22.6958
  94   2.0000      -0.814310       -22.1585
  95   2.0000      -0.812905       -22.1203
  96   2.0000      -0.807621       -21.9765
  97   2.0000      -0.800095       -21.7717
  98   2.0000      -0.798342       -21.7240
  99   2.0000      -0.796622       -21.6772
 100   2.0000      -0.786197       -21.3935
 101   2.0000      -0.784398       -21.3446
 102   2.0000      -0.774713       -21.0810
 103   2.0000      -0.756870       -20.5955
 104   2.0000      -0.743341       -20.2274
 105   2.0000      -0.741204       -20.1692
 106   2.0000      -0.725571       -19.7438
 107   2.0000      -0.713964       -19.4279
 108   2.0000      -0.700202       -19.0535
 109   2.0000      -0.698860       -19.0170
 110   2.0000      -0.684616       -18.6293
 111   2.0000      -0.674312       -18.3490
 112   2.0000      -0.672921       -18.3111
 113   2.0000      -0.656947       -17.8764
 114   2.0000      -0.655266       -17.8307
 115   2.0000      -0.651127       -17.7181
 116   2.0000      -0.646480       -17.5916
 117   2.0000      -0.641704       -17.4617
 118   2.0000      -0.640446       -17.4274
 119   2.0000      -0.628859       -17.1121
 120   2.0000      -0.623179       -16.9576
 121   2.0000      -0.617754       -16.8100
 122   2.0000      -0.614992       -16.7348
 123   2.0000      -0.609403       -16.5827
 124   2.0000      -0.598760       -16.2931
 125   2.0000      -0.596922       -16.2431
 126   2.0000      -0.594282       -16.1712
 127   2.0000      -0.589643       -16.0450
 128   2.0000      -0.583191       -15.8694
 129   2.0000      -0.582515       -15.8510
 130   2.0000      -0.573900       -15.6166
 131   2.0000      -0.564830       -15.3698
 132   2.0000      -0.560643       -15.2559
 133   2.0000      -0.556254       -15.1364
 134   2.0000      -0.550224       -14.9723
 135   2.0000      -0.543896       -14.8002
 136   2.0000      -0.537461       -14.6250
 137   2.0000      -0.536634       -14.6026
 138   2.0000      -0.529815       -14.4170
 139   2.0000      -0.526651       -14.3309
 140   2.0000      -0.515768       -14.0348
 141   2.0000      -0.512452       -13.9445
 142   2.0000      -0.510035       -13.8787
 143   2.0000      -0.507146       -13.8001
 144   2.0000      -0.506406       -13.7800
 145   2.0000      -0.504886       -13.7387
 146   2.0000      -0.501966       -13.6592
 147   2.0000      -0.499631       -13.5956
 148   2.0000      -0.496308       -13.5052
 149   2.0000      -0.494760       -13.4631
 150   2.0000      -0.489618       -13.3232
 151   2.0000      -0.484498       -13.1839
 152   2.0000      -0.481485       -13.1019
 153   2.0000      -0.476999       -12.9798
 154   2.0000      -0.475869       -12.9491
 155   2.0000      -0.470866       -12.8129
 156   2.0000      -0.469344       -12.7715
 157   2.0000      -0.467256       -12.7147
 158   2.0000      -0.463958       -12.6249
 159   2.0000      -0.463642       -12.6163
 160   2.0000      -0.462255       -12.5786
 161   2.0000      -0.460198       -12.5226
 162   2.0000      -0.458851       -12.4860
 163   2.0000      -0.457070       -12.4375
 164   2.0000      -0.452453       -12.3119
 165   2.0000      -0.449535       -12.2325
 166   2.0000      -0.448696       -12.2096
 167   2.0000      -0.442622       -12.0444
 168   2.0000      -0.440320       -11.9817
 169   2.0000      -0.438970       -11.9450
 170   2.0000      -0.435416       -11.8483
 171   2.0000      -0.428892       -11.6708
 172   2.0000      -0.427539       -11.6339
 173   2.0000      -0.424097       -11.5403
 174   2.0000      -0.419875       -11.4254
 175   2.0000      -0.413993       -11.2653
 176   2.0000      -0.410626       -11.1737
 177   2.0000      -0.407537       -11.0896
 178   2.0000      -0.404709       -11.0127
 179   2.0000      -0.404329       -11.0024
 180   2.0000      -0.402977       -10.9656
 181   2.0000      -0.401382       -10.9221
 182   2.0000      -0.398683       -10.8487
 183   2.0000      -0.398648       -10.8478
 184   2.0000      -0.397818       -10.8252
 185   2.0000      -0.393553       -10.7091
 186   2.0000      -0.388431       -10.5697
 187   2.0000      -0.386440       -10.5156
 188   2.0000      -0.375441       -10.2163
 189   2.0000      -0.375428       -10.2159
 190   2.0000      -0.367247        -9.9933
 191   2.0000      -0.362237        -9.8570
 192   2.0000      -0.352133        -9.5820
 193   2.0000      -0.336004        -9.1431
 194   2.0000      -0.328345        -8.9347
 195   2.0000      -0.318491        -8.6666
 196   2.0000      -0.310488        -8.4488
 197   2.0000      -0.306076        -8.3288
 198   2.0000      -0.301669        -8.2088
 199   2.0000      -0.298827        -8.1315
 200   2.0000      -0.291090        -7.9210
 201   2.0000      -0.282196        -7.6789
 202   2.0000      -0.253486        -6.8977
 203   2.0000      -0.246273        -6.7014
 204   2.0000      -0.215991        -5.8774
 205   2.0000      -0.183255        -4.9866
 206   0.0000      -0.071690        -1.9508
 207   0.0000      -0.052509        -1.4288
 208   0.0000      -0.047670        -1.2972
 209   0.0000      -0.009048        -0.2462
 210   0.0000       0.010300         0.2803

MULLIKEN ATOMIC CHARGES
-----------------------
   0 C :   -0.149136
   1 S :    0.125060
   2 C :   -0.163799
   3 C :    0.151063
   4 C :    0.067966
   5 C :   -0.053295
   6 C :    0.097264
   7 C :   -0.046165
   8 C :   -0.038502
   9 C :   -0.099046
  10 C :    0.109247
  11 C :   -0.014900
  12 C :   -0.003105
  13 C :   -0.119191
  14 S :    0.077852
  15 C :   -0.111589
  16 C :   -0.090221
  17 C :    0.113334
  18 C :    0.138687
  19 C :   -0.051155
  20 C :    0.002992
  21 C :    0.011961
  22 C :   -0.011895
  23 C :    0.024758
  24 C :   -0.224610
  25 C :    0.105458
  26 C :    0.196734
  27 N :   -0.125937
  28 C :    0.030232
  29 C :   -0.066672
  30 C :    0.041059
  31 C :   -0.056337
  32 C :    0.047414
  33 C :    0.004445
  34 C :   -0.012934
  35 S :    0.025175
  36 C :   -0.048825
  37 C :    0.042876
  38 C :    0.008377
  39 C :   -0.014211
  40 S :    0.050254
  41 C :    0.028289
  42 C :   -0.217498
  43 S :    0.131924
  44 C :   -0.155435
  45 C :    0.134548
  46 C :    0.181517
  47 O :   -0.193832
  48 C :    0.236574
  49 N :    0.294593
  50 O :   -0.258959
  51 O :   -0.251965
  52 C :   -0.076134
  53 H :    0.014987
  54 H :    0.023797
  55 H :    0.023986
  56 H :    0.005504
  57 H :   -0.038534
  58 H :   -0.037867
  59 H :   -0.002036
  60 H :    0.034961
  61 H :    0.033801
  62 H :   -0.021671
  63 H :   -0.009554
  64 H :    0.008889
  65 H :    0.003305
  66 H :    0.028608
  67 H :    0.035274
  68 H :   -0.015519
  69 H :   -0.026913
  70 H :   -0.013484
  71 H :   -0.014664
  72 H :   -0.021132
  73 H :    0.028206
  74 H :    0.002307
  75 H :    0.039205
  76 H :    0.030057
  77 H :    0.015275
  78 H :    0.123262
  79 H :    0.052848
  80 H :   -0.017021
  81 H :   -0.016693
  82 H :   -0.019466
  83 H :   -0.025147
  84 H :   -0.020812
  85 H :   -0.025334
  86 H :   -0.035567
  87 H :    0.023075
  88 H :    0.009767
Sum of atomic charges:    0.0000000

LOEWDIN ATOMIC CHARGES
----------------------
   0 C :   -0.199577
   1 S :    0.475056
   2 C :   -0.178894
   3 C :   -0.042580
   4 C :   -0.050972
   5 C :   -0.018894
   6 C :   -0.045009
   7 C :   -0.041703
   8 C :   -0.036253
   9 C :   -0.022044
  10 C :   -0.046689
  11 C :   -0.046541
  12 C :   -0.056755
  13 C :   -0.159725
  14 S :    0.417677
  15 C :   -0.194456
  16 C :   -0.055315
  17 C :   -0.045709
  18 C :   -0.064907
  19 C :   -0.022648
  20 C :   -0.029349
  21 C :   -0.022601
  22 C :   -0.035970
  23 C :   -0.057583
  24 C :   -0.028543
  25 C :   -0.052796
  26 C :    0.042100
  27 N :    0.027273
  28 C :    0.059950
  29 C :   -0.151093
  30 C :   -0.009592
  31 C :   -0.194474
  32 C :   -0.014496
  33 C :   -0.072662
  34 C :   -0.155846
  35 S :    0.391671
  36 C :   -0.215144
  37 C :   -0.024140
  38 C :   -0.064950
  39 C :   -0.132964
  40 S :    0.387526
  41 C :   -0.128681
  42 C :   -0.184338
  43 S :    0.461148
  44 C :   -0.209992
  45 C :   -0.081935
  46 C :   -0.002434
  47 O :   -0.004103
  48 C :    0.016227
  49 N :    0.285742
  50 O :   -0.221487
  51 O :   -0.210233
  52 C :    0.000224
  53 H :    0.020859
  54 H :    0.032819
  55 H :    0.032943
  56 H :    0.029906
  57 H :    0.023423
  58 H :    0.023151
  59 H :    0.029968
  60 H :    0.033376
  61 H :    0.033398
  62 H :    0.022893
  63 H :    0.019947
  64 H :    0.019206
  65 H :    0.031014
  66 H :    0.034500
  67 H :    0.032814
  68 H :    0.026281
  69 H :    0.025149
  70 H :    0.026909
  71 H :    0.025050
  72 H :    0.024802
  73 H :    0.033830
  74 H :    0.027170
  75 H :    0.038696
  76 H :    0.037713
  77 H :    0.025381
  78 H :    0.073629
  79 H :    0.012336
  80 H :    0.027183
  81 H :    0.034703
  82 H :    0.030228
  83 H :    0.027371
  84 H :    0.029780
  85 H :    0.026709
  86 H :    0.027187
  87 H :    0.024206
  88 H :    0.044958

  Mayer bond orders larger than 0.100000
B(  0-C ,  1-S ) :   1.1874 B(  0-C ,  2-C ) :   0.1067 B(  0-C ,  4-C ) :   1.4501
B(  0-C , 53-H ) :   0.9568 B(  1-S ,  2-C ) :   1.1526 B(  2-C ,  3-C ) :   1.3545
B(  2-C , 11-C ) :   1.1688 B(  3-C ,  4-C ) :   1.1910 B(  3-C ,  9-C ) :   1.1916
B(  4-C ,  5-C ) :   1.1757 B(  5-C ,  6-C ) :   1.0884 B(  5-C ,  7-C ) :   1.5827
B(  6-C , 54-H ) :   0.9448 B(  6-C , 55-H ) :   0.9449 B(  6-C , 56-H ) :   0.9535
B(  7-C ,  8-C ) :   1.1711 B(  7-C , 57-H ) :   0.9882 B(  8-C ,  9-C ) :   1.5777
B(  8-C , 58-H ) :   0.9827 B(  9-C , 10-C ) :   1.0991 B( 10-C , 59-H ) :   0.9399
B( 10-C , 60-H ) :   0.9385 B( 10-C , 61-H ) :   0.9392 B( 11-C , 12-C ) :   1.6424
B( 11-C , 62-H ) :   0.9648 B( 12-C , 13-C ) :   1.1793 B( 12-C , 63-H ) :   0.9609
B( 13-C , 14-S ) :   1.1274 B( 13-C , 18-C ) :   1.4166 B( 14-S , 15-C ) :   1.1236
B( 15-C , 16-C ) :   1.6179 B( 15-C , 64-H ) :   0.9663 B( 16-C , 17-C ) :   1.0947
B( 16-C , 18-C ) :   1.2167 B( 17-C , 65-H ) :   0.9456 B( 17-C , 66-H ) :   0.9456
B( 17-C , 67-H ) :   0.9399 B( 18-C , 19-C ) :   1.0866 B( 19-C , 20-C ) :   1.6868
B( 19-C , 68-H ) :   0.9637 B( 20-C , 21-C ) :   1.1088 B( 20-C , 69-H ) :   0.9855
B( 21-C , 22-C ) :   1.7114 B( 21-C , 70-H ) :   0.9861 B( 22-C , 23-C ) :   1.0782
B( 22-C , 71-H ) :   0.9600 B( 23-C , 24-C ) :   1.8348 B( 23-C , 72-H ) :   0.9450
B( 24-C , 25-C ) :   1.0809 B( 24-C , 26-C ) :   1.0170 B( 25-C , 73-H ) :   0.9462
B( 25-C , 74-H ) :   0.9457 B( 25-C , 75-H ) :   0.9338 B( 26-C , 27-N ) :   1.0210
B( 26-C , 76-H ) :   0.9331 B( 26-C , 77-H ) :   0.9410 B( 27-N , 28-C ) :   1.3259
B( 27-N , 78-H ) :   0.9116 B( 28-C , 29-C ) :   1.5033 B( 28-C , 79-H ) :   0.9437
B( 29-C , 30-C ) :   1.2593 B( 29-C , 80-H ) :   0.9546 B( 30-C , 31-C ) :   1.5300
B( 30-C , 81-H ) :   0.9633 B( 31-C , 32-C ) :   1.1863 B( 31-C , 35-S ) :   1.0087
B( 32-C , 33-C ) :   1.5463 B( 32-C , 82-H ) :   0.9964 B( 33-C , 34-C ) :   1.2142
B( 33-C , 83-H ) :   0.9962 B( 34-C , 35-S ) :   1.0738 B( 34-C , 36-C ) :   1.4478
B( 36-C , 37-C ) :   1.2260 B( 36-C , 40-S ) :   1.0201 B( 37-C , 38-C ) :   1.5527
B( 37-C , 84-H ) :   0.9944 B( 38-C , 39-C ) :   1.1656 B( 38-C , 85-H ) :   0.9984
B( 39-C , 40-S ) :   1.0686 B( 39-C , 41-C ) :   1.5582 B( 41-C , 42-C ) :   1.1664
B( 41-C , 86-H ) :   0.9439 B( 42-C , 43-S ) :   1.1352 B( 42-C , 44-C ) :   0.1048
B( 42-C , 46-C ) :   1.4158 B( 43-S , 44-C ) :   1.1591 B( 44-C , 45-C ) :   1.4282
B( 44-C , 87-H ) :   0.9784 B( 45-C , 46-C ) :   1.2246 B( 45-C , 52-C ) :   1.0816
B( 46-C , 47-O ) :   1.0694 B( 47-O , 48-C ) :   1.1317 B( 48-C , 49-N ) :   0.9461
B( 48-C , 52-C ) :   1.5327 B( 49-N , 50-O ) :   1.5216 B( 49-N , 51-O ) :   1.4479
B( 50-O , 51-O ) :   0.2575 B( 52-C , 88-H ) :   1.0237

-----------------------------------------------------------------------------
         ABSORPTION SPECTRUM VIA TRANSITION ELECTRIC DIPOLE MOMENTS
-----------------------------------------------------------------------------
State   Energy  Wavelength   fosc         T2         TX        TY        TZ
        (cm-1)    (nm)                  (au**2)     (au)      (au)      (au)
-----------------------------------------------------------------------------
   0    7098.5   1408.8   0.040767706   1.89072  -1.09774   0.78891  -0.25159
   1   14065.7    711.0   0.700898506  16.40476   2.37625  -1.70272   2.80338
   2   20248.3    493.9   0.024459699   0.39768  -0.39171  -0.48277  -0.10573
   3   20583.8    485.8   0.017779118   0.28435   0.48098  -0.22159  -0.06252
   4   21312.9    469.2   0.961779412  14.85623  -2.18416  -2.92554  -1.23567
   5   23204.3    431.0   0.000858002   0.01217   0.04918   0.03490   0.09239
   6   24212.8    413.0   0.005698464   0.07748  -0.22190   0.16461   0.03378
   7   26327.6    379.8   0.019109815   0.23896   0.11432  -0.04521  -0.47312
   8   26829.0    372.7   0.017983318   0.22067   0.17486  -0.05860  -0.43204
   9   28066.7    356.3   0.559590117   6.56379  -0.93294   0.65485   2.29447
  10   28226.7    354.3   0.346527786   4.04160  -0.87729   0.67857   1.67676
  11   29666.5    337.1   0.027464778   0.30478   0.38541  -0.28470  -0.27420
  12   30109.1    332.1   0.028709392   0.31391  -0.48217   0.27553   0.07421
  13   30600.0    326.8   0.690317815   7.42683   1.23183  -2.30423   0.77457
  14   31192.0    320.6   0.051096712   0.53929   0.48064  -0.49977  -0.24188
  15   31372.0    318.8   0.003606963   0.03785   0.08427  -0.04404   0.16973
  16   32025.3    312.3   0.004287567   0.04408   0.14189  -0.10626   0.11247
  17   32470.9    308.0   0.005119148   0.05190   0.09774  -0.08585  -0.18703
  18   32611.2    306.6   0.002011044   0.02030   0.04915  -0.12009   0.05885
  19   32767.2    305.2   0.005180894   0.05205  -0.11713   0.16192   0.11007
  20   33648.6    297.2   0.354164189   3.46508  -1.09973   0.74595  -1.30355
  21   33819.7    295.7   0.008057083   0.07843  -0.21466   0.05360  -0.17169
  22   34104.6    293.2   0.435923276   4.20797  -0.41207   0.20686  -1.99884
  23   34652.9    288.6   0.003765850   0.03578  -0.06412   0.02305   0.17645
  24   35280.6    283.4   0.032709475   0.30522   0.41588  -0.35397  -0.08345
  25   36086.6    277.1   0.128042855   1.16811  -0.84972   0.33882  -0.57558
  26   36336.4    275.2   0.025737378   0.23318   0.37412  -0.13726   0.27272
  27   37358.4    267.7   0.021792979   0.19205  -0.27741   0.13897  -0.30948
  28   38589.3    259.1   0.000078210   0.00067  -0.02379   0.00756   0.00665
  29   38799.9    257.7   0.081006638   0.68733   0.05489  -0.82659   0.03264
  30   38837.3    257.5   0.094635363   0.80219  -0.70628  -0.52358  -0.17095
  31   39284.3    254.6   0.502317708   4.20955  -0.52422   1.93589  -0.43253
  32   39872.7    250.8   0.032188908   0.26577  -0.37276   0.25581  -0.24774

FINAL SINGLE POINT ENERGY     -3982.995025094915

DIPOLE MOMENT
-------------
                                X             Y             Z
Electronic contribution:     25.50222     -47.52625      52.83104
Nuclear contribution   :    -25.22110      47.46038     -53.28648
                        -----------------------------------------
Total Dipole Moment    :      0.28112      -0.06587      -0.45545
                        -----------------------------------------
Magnitude (a.u.)       :      0.53926
Magnitude (Debye)      :      1.37069

Rotational constants in cm-1:     0.001854     0.000441     0.000399
Rotational constants in MHz :    55.569778    13.220783    11.974802

                             ****ORCA TERMINATED NORMALLY****
TOTAL RUN TIME: 0 days 0 hours 6 minutes 18 seconds 695 msec
