                         Program Version 4.2.0 -  RELEASE  -
|  1> # ORCA input file
|  2> # SCF done       -205.343655718601          0.000759140696
|  3> ! CAM-B3LYP def2-SVP def2/J RIJCOSX Grid4 TightSCF
|  4> %maxcore 5000
|  5> %tddft
|  6>     Mode sTDDFT
|  7>     Ethresh 5.0
|  8>     maxcore 5000
|  9> end
| 10>
| 11> %pal
| 12>   nprocs 6
| 13>   end
| 14> * xyz 0 1
| 15>    C       -7.62567        -1.59203        -0.68003
| 16>    C       -6.79515        -2.67770        -0.60150
| 17>    C       -7.19298        -4.00398        -0.87272
| 18>    N       -7.45440        -5.10132        -1.08453
| 19>    C       -5.43008        -2.62240        -0.25044
| 20>    N       -4.32052        -2.65061         0.04296
| 21>    C       -9.04526        -1.62246        -1.00398
| 22>    C       -9.55302        -0.29862        -1.00097
| 23>    C      -10.87331        -0.00902        -1.24358
| 24>    C      -11.73843        -1.07739        -1.50024
| 25>    C      -11.22226        -2.39623        -1.51191
| 26>    C       -9.88732        -2.68902        -1.26798
| 27>    S      -12.46242        -3.56434        -1.85527
| 28>    C      -13.64040        -2.28420        -1.97320
| 29>    C      -13.13390        -1.04498        -1.76771
| 30>   Br      -15.42625        -2.70470        -2.35894
| 31>    C       -8.45866         0.64464        -0.70690
| 32>    O       -8.48301         1.84850        -0.81101
| 33>    C       -7.26884        -0.20611        -0.41027
| 34>    C       -6.08017         0.30939        -0.02662
| 35>    C       -5.92815         1.70530         0.35713
| 36>    C       -5.06247         2.52568        -0.37702
| 37>    C       -4.95357         3.87688        -0.12675
| 38>    C       -5.68217         4.46798         0.90180
| 39>    C       -6.49017         3.66832         1.67469
| 40>    C       -6.61807         2.29517         1.41792
| 41>    N       -7.39363         1.71146         2.40462
| 42>    C       -7.70726         0.32183         2.57079
| 43>    C       -7.82559         2.64062         3.32061
| 44>    O       -8.45948         2.38757         4.31412
| 45>    C       -7.34550         4.00931         2.85507
| 46>    C       -8.57531         4.86058         2.46842
| 47>    C       -9.29550         4.19364         1.29096
| 48>    O       -9.83070         3.10997         1.29003
| 49>    N       -9.21867         5.04290         0.22576
| 50>    C       -9.71760         4.72405        -1.08310
| 51>    C       -8.57467         6.22431         0.55957
| 52>    C       -8.30432         7.31591        -0.23525
| 53>    C       -7.63924         8.41679         0.32959
| 54>    C       -7.27834         8.37568         1.68215
| 55>    C       -7.54958         7.26981         2.47124
| 56>    C       -8.19683         6.19148         1.90836
| 57>    C       -7.34645         9.54172        -0.52498
| 58>    C       -6.77963        10.70975        -0.15093
| 59>    C       -6.48940        11.77509        -1.03921
| 60>    S       -5.77261        13.25187        -0.42523
| 61>    C       -5.69312        14.01337        -1.99700
| 62>    C       -6.21328        13.13495        -2.95164
| 63>    C       -6.65373        11.89772        -2.40673
| 64>    S       -7.27188        10.89769        -3.68081
| 65>    C       -6.88907        12.20630        -4.80023
| 66>    N       -6.36879        13.25226        -4.29437
| 67>    C       -5.16877        15.30040        -2.16589
| 68>    C       -5.07239        15.91224        -3.39168
| 69>    C       -4.55000        17.18998        -3.58280
| 70>    C       -4.43643        17.79095        -4.82097
| 71>    C       -3.92356        19.07459        -5.10911
| 72>    C       -3.92926        19.39334        -6.43730
| 73>    C       -4.44723        18.37233        -7.25962
| 74>    S       -4.93315        16.99568        -6.30137
| 75>    C       -4.58768        18.35689        -8.63939
| 76>    C       -4.25436        19.35167        -9.58020
| 77>    C       -4.52036        18.99582       -10.86951
| 78>    C       -5.07955        17.70008       -11.01466
| 79>    S       -5.25398        16.95465        -9.43902
| 80>    C       -5.42344        17.11820       -12.21130
| 81>    C       -5.98053        15.84406       -12.42546
| 82>    S       -6.29851        15.30046       -14.07001
| 83>    C       -6.92405        13.77109       -13.59133
| 84>    C       -6.90183        13.65789       -12.22189
| 85>    C       -6.37415        14.82151       -11.57687
| 86>    O       -6.38063        14.66041       -10.23842
| 87>    C       -6.89356        13.42375       -10.01716
| 88>    N       -7.00362        13.01525        -8.67336
| 89>    O       -7.44131        11.89336        -8.46729
| 90>    O       -6.66063        13.79454        -7.80848
| 91>    C       -7.23082        12.76067       -11.16877
| 92>    H      -11.22940         1.00851        -1.21775
| 93>    H       -9.54396        -3.70986        -1.28457
| 94>    H      -13.71857        -0.14393        -1.80170
| 95>    H       -5.18180        -0.29448        -0.03479
| 96>    H       -4.50498         2.08214        -1.18863
| 97>    H       -4.29966         4.48216        -0.73506
| 98>    H       -5.60018         5.52607         1.09709
| 99>    H       -6.81511        -0.29254         2.43465
|100>    H       -8.48091         0.00601         1.86587
|101>    H       -8.08989         0.20357         3.58564
|102>    H       -6.79855         4.52020         3.65163
|103>    H       -9.23752         4.91728         3.33723
|104>    H      -10.01903         3.67888        -1.06578
|105>    H       -8.92882         4.85200        -1.82532
|106>    H      -10.56971         5.35775        -1.33990
|107>    H       -8.59262         7.33804        -1.27468
|108>    H       -6.76867         9.21613         2.12445
|109>    H       -7.25556         7.25599         3.51020
|110>    H       -7.61603         9.41411        -1.56544
|111>    H       -6.51229        10.89265         0.87977
|112>    H       -7.10030        12.08660        -5.84398
|113>    H       -4.82492        15.81369        -1.27733
|114>    H       -5.41941        15.36759        -4.26029
|115>    H       -4.20777        17.75151        -2.72244
|116>    H       -3.56527        19.72503        -4.33038
|117>    H       -3.57650        20.32639        -6.83898
|118>    H       -3.83047        20.29600        -9.28861
|119>    H       -4.33318        19.62142       -11.72440
|120>    H       -5.24290        17.70169       -13.10420
|121>    H       -7.25990        13.07262       -14.32811
|122>    H       -7.65161        11.77895       -11.23314
|123> *
|124>
|125>                          ****END OF INPUT****

CARTESIAN COORDINATES (ANGSTROEM)
---------------------------------
  C     -7.625670   -1.592030   -0.680030
  C     -6.795150   -2.677700   -0.601500
  C     -7.192980   -4.003980   -0.872720
  N     -7.454400   -5.101320   -1.084530
  C     -5.430080   -2.622400   -0.250440
  N     -4.320520   -2.650610    0.042960
  C     -9.045260   -1.622460   -1.003980
  C     -9.553020   -0.298620   -1.000970
  C    -10.873310   -0.009020   -1.243580
  C    -11.738430   -1.077390   -1.500240
  C    -11.222260   -2.396230   -1.511910
  C     -9.887320   -2.689020   -1.267980
  S    -12.462420   -3.564340   -1.855270
  C    -13.640400   -2.284200   -1.973200
  C    -13.133900   -1.044980   -1.767710
  Br   -15.426250   -2.704700   -2.358940
  C     -8.458660    0.644640   -0.706900
  O     -8.483010    1.848500   -0.811010
  C     -7.268840   -0.206110   -0.410270
  C     -6.080170    0.309390   -0.026620
  C     -5.928150    1.705300    0.357130
  C     -5.062470    2.525680   -0.377020
  C     -4.953570    3.876880   -0.126750
  C     -5.682170    4.467980    0.901800
  C     -6.490170    3.668320    1.674690
  C     -6.618070    2.295170    1.417920
  N     -7.393630    1.711460    2.404620
  C     -7.707260    0.321830    2.570790
  C     -7.825590    2.640620    3.320610
  O     -8.459480    2.387570    4.314120
  C     -7.345500    4.009310    2.855070
  C     -8.575310    4.860580    2.468420
  C     -9.295500    4.193640    1.290960
  O     -9.830700    3.109970    1.290030
  N     -9.218670    5.042900    0.225760
  C     -9.717600    4.724050   -1.083100
  C     -8.574670    6.224310    0.559570
  C     -8.304320    7.315910   -0.235250
  C     -7.639240    8.416790    0.329590
  C     -7.278340    8.375680    1.682150
  C     -7.549580    7.269810    2.471240
  C     -8.196830    6.191480    1.908360
  C     -7.346450    9.541720   -0.524980
  C     -6.779630   10.709750   -0.150930
  C     -6.489400   11.775090   -1.039210
  S     -5.772610   13.251870   -0.425230
  C     -5.693120   14.013370   -1.997000
  C     -6.213280   13.134950   -2.951640
  C     -6.653730   11.897720   -2.406730
  S     -7.271880   10.897690   -3.680810
  C     -6.889070   12.206300   -4.800230
  N     -6.368790   13.252260   -4.294370
  C     -5.168770   15.300400   -2.165890
  C     -5.072390   15.912240   -3.391680
  C     -4.550000   17.189980   -3.582800
  C     -4.436430   17.790950   -4.820970
  C     -3.923560   19.074590   -5.109110
  C     -3.929260   19.393340   -6.437300
  C     -4.447230   18.372330   -7.259620
  S     -4.933150   16.995680   -6.301370
  C     -4.587680   18.356890   -8.639390
  C     -4.254360   19.351670   -9.580200
  C     -4.520360   18.995820  -10.869510
  C     -5.079550   17.700080  -11.014660
  S     -5.253980   16.954650   -9.439020
  C     -5.423440   17.118200  -12.211300
  C     -5.980530   15.844060  -12.425460
  S     -6.298510   15.300460  -14.070010
  C     -6.924050   13.771090  -13.591330
  C     -6.901830   13.657890  -12.221890
  C     -6.374150   14.821510  -11.576870
  O     -6.380630   14.660410  -10.238420
  C     -6.893560   13.423750  -10.017160
  N     -7.003620   13.015250   -8.673360
  O     -7.441310   11.893360   -8.467290
  O     -6.660630   13.794540   -7.808480
  C     -7.230820   12.760670  -11.168770
  H    -11.229400    1.008510   -1.217750
  H     -9.543960   -3.709860   -1.284570
  H    -13.718570   -0.143930   -1.801700
  H     -5.181800   -0.294480   -0.034790
  H     -4.504980    2.082140   -1.188630
  H     -4.299660    4.482160   -0.735060
  H     -5.600180    5.526070    1.097090
  H     -6.815110   -0.292540    2.434650
  H     -8.480910    0.006010    1.865870
  H     -8.089890    0.203570    3.585640
  H     -6.798550    4.520200    3.651630
  H     -9.237520    4.917280    3.337230
  H    -10.019030    3.678880   -1.065780
  H     -8.928820    4.852000   -1.825320
  H    -10.569710    5.357750   -1.339900
  H     -8.592620    7.338040   -1.274680
  H     -6.768670    9.216130    2.124450
  H     -7.255560    7.255990    3.510200
  H     -7.616030    9.414110   -1.565440
  H     -6.512290   10.892650    0.879770
  H     -7.100300   12.086600   -5.843980
  H     -4.824920   15.813690   -1.277330
  H     -5.419410   15.367590   -4.260290
  H     -4.207770   17.751510   -2.722440
  H     -3.565270   19.725030   -4.330380
  H     -3.576500   20.326390   -6.838980
  H     -3.830470   20.296000   -9.288610
  H     -4.333180   19.621420  -11.724400
  H     -5.242900   17.701690  -13.104200
  H     -7.259900   13.072620  -14.328110
  H     -7.651610   11.778950  -11.233140

 Total Charge           Charge          ....    0
 Multiplicity           Mult            ....    1
 Number of Electrons    NEL             ....  600
 Basis Dimension        Dim             .... 1275

ORBITAL ENERGIES
----------------

  NO   OCC          E(Eh)            E(eV)
   0   2.0000    -482.886787    -13140.0175
   1   2.0000     -88.977090     -2421.1897
   2   2.0000     -88.973729     -2421.0983
   3   2.0000     -88.955523     -2420.6028
   4   2.0000     -88.952898     -2420.5314
   5   2.0000     -88.935569     -2420.0599
   6   2.0000     -88.935192     -2420.0496
   7   2.0000     -62.564494     -1702.4664
   8   2.0000     -56.398445     -1534.6797
   9   2.0000     -56.395725     -1534.6057
  10   2.0000     -56.395695     -1534.6049
  11   2.0000     -19.308461      -525.4099
  12   2.0000     -19.253405      -523.9118
  13   2.0000     -19.251182      -523.8513
  14   2.0000     -19.218399      -522.9592
  15   2.0000     -19.184540      -522.0379
  16   2.0000     -19.183492      -522.0093
  17   2.0000     -14.662379      -398.9836
  18   2.0000     -14.448008      -393.1503
  19   2.0000     -14.445321      -393.0772
  20   2.0000     -14.419612      -392.3776
  21   2.0000     -14.418819      -392.3560
  22   2.0000     -14.405548      -391.9949
  23   2.0000     -10.391062      -282.7552
  24   2.0000     -10.367884      -282.1245
  25   2.0000     -10.366936      -282.0987
  26   2.0000     -10.366240      -282.0797
  27   2.0000     -10.360787      -281.9313
  28   2.0000     -10.346927      -281.5542
  29   2.0000     -10.346201      -281.5344
  30   2.0000     -10.345173      -281.5065
  31   2.0000     -10.327648      -281.0296
  32   2.0000     -10.324937      -280.9558
  33   2.0000     -10.321872      -280.8724
  34   2.0000     -10.321236      -280.8551
  35   2.0000     -10.318708      -280.7863
  36   2.0000     -10.318054      -280.7685
  37   2.0000     -10.316105      -280.7155
  38   2.0000     -10.316062      -280.7143
  39   2.0000     -10.311121      -280.5799
  40   2.0000     -10.310176      -280.5542
  41   2.0000     -10.309764      -280.5429
  42   2.0000     -10.309706      -280.5414
  43   2.0000     -10.308077      -280.4970
  44   2.0000     -10.307151      -280.4718
  45   2.0000     -10.305154      -280.4175
  46   2.0000     -10.303110      -280.3619
  47   2.0000     -10.302188      -280.3368
  48   2.0000     -10.300882      -280.3012
  49   2.0000     -10.300158      -280.2816
  50   2.0000     -10.299501      -280.2637
  51   2.0000     -10.299410      -280.2612
  52   2.0000     -10.298352      -280.2324
  53   2.0000     -10.298276      -280.2303
  54   2.0000     -10.298191      -280.2280
  55   2.0000     -10.297834      -280.2183
  56   2.0000     -10.296186      -280.1735
  57   2.0000     -10.294496      -280.1275
  58   2.0000     -10.293727      -280.1066
  59   2.0000     -10.291684      -280.0510
  60   2.0000     -10.289767      -279.9988
  61   2.0000     -10.285828      -279.8916
  62   2.0000     -10.284692      -279.8607
  63   2.0000     -10.283423      -279.8262
  64   2.0000     -10.281770      -279.7812
  65   2.0000     -10.281291      -279.7682
  66   2.0000     -10.281063      -279.7619
  67   2.0000     -10.280032      -279.7339
  68   2.0000     -10.278620      -279.6955
  69   2.0000     -10.276420      -279.6356
  70   2.0000     -10.275835      -279.6197
  71   2.0000     -10.275730      -279.6168
  72   2.0000     -10.274066      -279.5715
  73   2.0000     -10.273474      -279.5554
  74   2.0000     -10.273048      -279.5438
  75   2.0000     -10.272309      -279.5237
  76   2.0000     -10.271797      -279.5098
  77   2.0000     -10.270449      -279.4731
  78   2.0000     -10.265853      -279.3481
  79   2.0000     -10.265106      -279.3277
  80   2.0000     -10.264258      -279.3046
  81   2.0000      -8.793926      -239.2949
  82   2.0000      -8.073056      -219.6790
  83   2.0000      -8.068583      -219.5573
  84   2.0000      -8.050658      -219.0695
  85   2.0000      -8.048569      -219.0127
  86   2.0000      -8.031824      -218.5570
  87   2.0000      -8.031525      -218.5489
  88   2.0000      -6.630225      -180.4176
  89   2.0000      -6.615669      -180.0215
  90   2.0000      -6.615447      -180.0155
  91   2.0000      -6.042757      -164.4318
  92   2.0000      -6.038472      -164.3152
  93   2.0000      -6.037943      -164.3008
  94   2.0000      -6.034275      -164.2010
  95   2.0000      -6.033637      -164.1836
  96   2.0000      -6.030891      -164.1089
  97   2.0000      -6.019975      -163.8119
  98   2.0000      -6.018118      -163.7613
  99   2.0000      -6.016023      -163.7043
 100   2.0000      -6.013954      -163.6480
 101   2.0000      -6.012647      -163.6125
 102   2.0000      -6.010115      -163.5435
 103   2.0000      -6.001535      -163.3101
 104   2.0000      -6.001258      -163.3025
 105   2.0000      -5.997417      -163.1980
 106   2.0000      -5.997117      -163.1899
 107   2.0000      -5.992788      -163.0721
 108   2.0000      -5.992291      -163.0585
 109   2.0000      -2.746136       -74.7262
 110   2.0000      -2.741997       -74.6135
 111   2.0000      -2.741840       -74.6092
 112   2.0000      -2.730268       -74.2944
 113   2.0000      -2.730262       -74.2942
 114   2.0000      -1.333473       -36.2856
 115   2.0000      -1.232136       -33.5281
 116   2.0000      -1.148344       -31.2480
 117   2.0000      -1.135256       -30.8919
 118   2.0000      -1.130799       -30.7706
 119   2.0000      -1.123744       -30.5786
 120   2.0000      -1.060288       -28.8519
 121   2.0000      -1.053826       -28.6761
 122   2.0000      -1.052016       -28.6268
 123   2.0000      -1.025253       -27.8985
 124   2.0000      -1.016123       -27.6501
 125   2.0000      -0.997714       -27.1492
 126   2.0000      -0.995562       -27.0906
 127   2.0000      -0.991932       -26.9919
 128   2.0000      -0.988193       -26.8901
 129   2.0000      -0.971079       -26.4244
 130   2.0000      -0.967062       -26.3151
 131   2.0000      -0.954614       -25.9764
 132   2.0000      -0.950093       -25.8533
 133   2.0000      -0.943383       -25.6707
 134   2.0000      -0.939368       -25.5615
 135   2.0000      -0.926200       -25.2032
 136   2.0000      -0.912497       -24.8303
 137   2.0000      -0.910870       -24.7860
 138   2.0000      -0.901621       -24.5344
 139   2.0000      -0.899787       -24.4845
 140   2.0000      -0.888788       -24.1852
 141   2.0000      -0.887919       -24.1615
 142   2.0000      -0.881760       -23.9939
 143   2.0000      -0.874387       -23.7933
 144   2.0000      -0.868451       -23.6318
 145   2.0000      -0.860253       -23.4087
 146   2.0000      -0.850220       -23.1357
 147   2.0000      -0.839613       -22.8470
 148   2.0000      -0.837504       -22.7897
 149   2.0000      -0.831857       -22.6360
 150   2.0000      -0.827297       -22.5119
 151   2.0000      -0.822928       -22.3930
 152   2.0000      -0.818119       -22.2621
 153   2.0000      -0.813462       -22.1354
 154   2.0000      -0.810316       -22.0498
 155   2.0000      -0.802735       -21.8435
 156   2.0000      -0.793906       -21.6033
 157   2.0000      -0.793079       -21.5808
 158   2.0000      -0.779182       -21.2026
 159   2.0000      -0.770687       -20.9715
 160   2.0000      -0.759890       -20.6777
 161   2.0000      -0.756823       -20.5942
 162   2.0000      -0.748183       -20.3591
 163   2.0000      -0.728360       -19.8197
 164   2.0000      -0.714180       -19.4338
 165   2.0000      -0.710411       -19.3313
 166   2.0000      -0.708857       -19.2890
 167   2.0000      -0.697717       -18.9858
 168   2.0000      -0.696599       -18.9554
 169   2.0000      -0.694749       -18.9051
 170   2.0000      -0.693080       -18.8597
 171   2.0000      -0.685437       -18.6517
 172   2.0000      -0.682094       -18.5607
 173   2.0000      -0.673094       -18.3158
 174   2.0000      -0.668473       -18.1901
 175   2.0000      -0.663373       -18.0513
 176   2.0000      -0.660874       -17.9833
 177   2.0000      -0.656434       -17.8625
 178   2.0000      -0.652816       -17.7640
 179   2.0000      -0.646965       -17.6048
 180   2.0000      -0.646517       -17.5926
 181   2.0000      -0.635241       -17.2858
 182   2.0000      -0.630004       -17.1433
 183   2.0000      -0.627691       -17.0803
 184   2.0000      -0.627300       -17.0697
 185   2.0000      -0.625807       -17.0291
 186   2.0000      -0.616086       -16.7645
 187   2.0000      -0.612209       -16.6590
 188   2.0000      -0.608858       -16.5679
 189   2.0000      -0.604783       -16.4570
 190   2.0000      -0.601534       -16.3686
 191   2.0000      -0.598652       -16.2901
 192   2.0000      -0.593208       -16.1420
 193   2.0000      -0.591998       -16.1091
 194   2.0000      -0.588550       -16.0153
 195   2.0000      -0.583896       -15.8886
 196   2.0000      -0.576501       -15.6874
 197   2.0000      -0.573579       -15.6079
 198   2.0000      -0.570069       -15.5124
 199   2.0000      -0.567926       -15.4540
 200   2.0000      -0.559694       -15.2300
 201   2.0000      -0.557490       -15.1701
 202   2.0000      -0.553312       -15.0564
 203   2.0000      -0.551836       -15.0162
 204   2.0000      -0.548513       -14.9258
 205   2.0000      -0.544447       -14.8152
 206   2.0000      -0.543486       -14.7890
 207   2.0000      -0.540205       -14.6997
 208   2.0000      -0.536929       -14.6106
 209   2.0000      -0.535119       -14.5613
 210   2.0000      -0.529948       -14.4206
 211   2.0000      -0.527106       -14.3433
 212   2.0000      -0.526379       -14.3235
 213   2.0000      -0.524085       -14.2611
 214   2.0000      -0.522863       -14.2278
 215   2.0000      -0.521217       -14.1830
 216   2.0000      -0.518125       -14.0989
 217   2.0000      -0.517789       -14.0898
 218   2.0000      -0.515266       -14.0211
 219   2.0000      -0.513824       -13.9819
 220   2.0000      -0.510779       -13.8990
 221   2.0000      -0.510028       -13.8786
 222   2.0000      -0.508829       -13.8459
 223   2.0000      -0.507124       -13.7996
 224   2.0000      -0.503202       -13.6928
 225   2.0000      -0.497505       -13.5378
 226   2.0000      -0.495831       -13.4922
 227   2.0000      -0.493350       -13.4247
 228   2.0000      -0.491344       -13.3701
 229   2.0000      -0.490528       -13.3480
 230   2.0000      -0.487182       -13.2569
 231   2.0000      -0.479244       -13.0409
 232   2.0000      -0.478132       -13.0106
 233   2.0000      -0.476422       -12.9641
 234   2.0000      -0.473899       -12.8955
 235   2.0000      -0.471578       -12.8323
 236   2.0000      -0.467741       -12.7279
 237   2.0000      -0.466933       -12.7059
 238   2.0000      -0.464381       -12.6365
 239   2.0000      -0.463354       -12.6085
 240   2.0000      -0.460016       -12.5177
 241   2.0000      -0.458733       -12.4828
 242   2.0000      -0.457348       -12.4451
 243   2.0000      -0.456885       -12.4325
 244   2.0000      -0.453557       -12.3419
 245   2.0000      -0.452077       -12.3017
 246   2.0000      -0.451565       -12.2877
 247   2.0000      -0.448595       -12.2069
 248   2.0000      -0.448449       -12.2029
 249   2.0000      -0.446896       -12.1607
 250   2.0000      -0.445658       -12.1270
 251   2.0000      -0.443667       -12.0728
 252   2.0000      -0.441048       -12.0015
 253   2.0000      -0.440886       -11.9971
 254   2.0000      -0.437523       -11.9056
 255   2.0000      -0.434197       -11.8151
 256   2.0000      -0.432226       -11.7615
 257   2.0000      -0.430578       -11.7166
 258   2.0000      -0.427926       -11.6444
 259   2.0000      -0.427005       -11.6194
 260   2.0000      -0.423225       -11.5165
 261   2.0000      -0.421690       -11.4748
 262   2.0000      -0.417605       -11.3636
 263   2.0000      -0.414282       -11.2732
 264   2.0000      -0.413053       -11.2398
 265   2.0000      -0.410642       -11.1741
 266   2.0000      -0.410463       -11.1693
 267   2.0000      -0.408613       -11.1189
 268   2.0000      -0.407814       -11.0972
 269   2.0000      -0.399255       -10.8643
 270   2.0000      -0.391193       -10.6449
 271   2.0000      -0.389230       -10.5915
 272   2.0000      -0.387520       -10.5450
 273   2.0000      -0.383655       -10.4398
 274   2.0000      -0.380325       -10.3492
 275   2.0000      -0.378563       -10.3012
 276   2.0000      -0.376014       -10.2319
 277   2.0000      -0.374140       -10.1809
 278   2.0000      -0.372553       -10.1377
 279   2.0000      -0.358390        -9.7523
 280   2.0000      -0.353194        -9.6109
 281   2.0000      -0.347093        -9.4449
 282   2.0000      -0.338304        -9.2057
 283   2.0000      -0.336938        -9.1686
 284   2.0000      -0.333407        -9.0725
 285   2.0000      -0.330975        -9.0063
 286   2.0000      -0.327812        -8.9202
 287   2.0000      -0.324657        -8.8344
 288   2.0000      -0.321303        -8.7431
 289   2.0000      -0.316494        -8.6123
 290   2.0000      -0.315883        -8.5956
 291   2.0000      -0.310422        -8.4470
 292   2.0000      -0.306114        -8.3298
 293   2.0000      -0.304252        -8.2791
 294   2.0000      -0.295028        -8.0281
 295   2.0000      -0.285769        -7.7762
 296   2.0000      -0.274510        -7.4698
 297   2.0000      -0.267975        -7.2920
 298   2.0000      -0.239968        -6.5299
 299   2.0000      -0.194646        -5.2966
 300   0.0000      -0.088361        -2.4044
 301   0.0000      -0.085500        -2.3266
 302   0.0000      -0.067726        -1.8429
 303   0.0000      -0.054759        -1.4901
 304   0.0000      -0.035858        -0.9758

MULLIKEN ATOMIC CHARGES
-----------------------
   0 C :    0.328482
   1 C :   -0.347154
   2 C :   -0.184183
   3 N :    0.154793
   4 C :   -0.196958
   5 N :    0.163786
   6 C :    0.015630
   7 C :   -0.006693
   8 C :   -0.061329
   9 C :    0.115581
  10 C :   -0.087893
  11 C :   -0.026674
  12 S :    0.188210
  13 C :   -0.122829
  14 C :    0.040574
  15 Br:    0.026963
  16 C :    0.151118
  17 O :   -0.126828
  18 C :   -0.108786
  19 C :   -0.077590
  20 C :   -0.016435
  21 C :   -0.002263
  22 C :    0.028190
  23 C :   -0.027981
  24 C :   -0.055487
  25 C :    0.197421
  26 N :   -0.230466
  27 C :    0.152490
  28 C :    0.136699
  29 O :   -0.189253
  30 C :    0.021820
  31 C :    0.048756
  32 C :    0.115243
  33 O :   -0.205713
  34 N :   -0.222690
  35 C :    0.129682
  36 C :    0.243486
  37 C :   -0.175141
  38 C :    0.141431
  39 C :   -0.034612
  40 C :   -0.033612
  41 C :   -0.035281
  42 C :   -0.031646
  43 C :    0.088947
  44 C :   -0.199669
  45 S :    0.135448
  46 C :   -0.126508
  47 C :    0.069496
  48 C :   -0.009342
  49 S :    0.069803
  50 C :    0.036482
  51 N :   -0.040930
  52 C :    0.003864
  53 C :    0.001859
  54 C :    0.000981
  55 C :   -0.028865
  56 C :    0.041513
  57 C :    0.018459
  58 C :   -0.042192
  59 S :    0.099810
  60 C :   -0.043074
  61 C :    0.037122
  62 C :    0.023428
  63 C :   -0.025424
  64 S :    0.091825
  65 C :    0.035638
  66 C :   -0.220112
  67 S :    0.145034
  68 C :   -0.142480
  69 C :    0.125661
  70 C :    0.184653
  71 O :   -0.190879
  72 C :    0.249946
  73 N :    0.280463
  74 O :   -0.251122
  75 O :   -0.210931
  76 C :   -0.078780
  77 H :   -0.009137
  78 H :   -0.004870
  79 H :   -0.001520
  80 H :    0.043483
  81 H :   -0.023812
  82 H :   -0.016851
  83 H :   -0.015894
  84 H :    0.031366
  85 H :    0.031632
  86 H :    0.054430
  87 H :    0.037307
  88 H :    0.049799
  89 H :    0.059329
  90 H :    0.031462
  91 H :    0.022539
  92 H :   -0.042306
  93 H :   -0.031195
  94 H :   -0.030342
  95 H :   -0.028232
  96 H :   -0.028781
  97 H :    0.023425
  98 H :   -0.031789
  99 H :    0.030553
 100 H :   -0.021289
 101 H :   -0.015112
 102 H :   -0.017166
 103 H :   -0.016618
 104 H :   -0.017334
 105 H :   -0.026695
 106 H :    0.029746
 107 H :    0.010888
Sum of atomic charges:   -0.0000000

LOEWDIN ATOMIC CHARGES
----------------------
   0 C :    0.074723
   1 C :   -0.135300
   2 C :   -0.018360
   3 N :   -0.048751
   4 C :   -0.020709
   5 N :   -0.046486
   6 C :   -0.023460
   7 C :   -0.049954
   8 C :    0.026946
   9 C :   -0.029756
  10 C :   -0.142991
  11 C :   -0.008896
  12 S :    0.433490
  13 C :   -0.269840
  14 C :   -0.069292
  15 Br:    0.139485
  16 C :    0.084010
  17 O :   -0.113613
  18 C :   -0.086419
  19 C :    0.077949
  20 C :   -0.062990
  21 C :    0.001143
  22 C :   -0.039122
  23 C :   -0.004469
  24 C :   -0.044416
  25 C :    0.055642
  26 N :   -0.002686
  27 C :    0.034845
  28 C :    0.084413
  29 O :   -0.182559
  30 C :   -0.020936
  31 C :   -0.019597
  32 C :    0.080220
  33 O :   -0.194724
  34 N :   -0.002302
  35 C :    0.032619
  36 C :    0.038142
  37 C :   -0.055383
  38 C :   -0.011824
  39 C :   -0.036342
  40 C :   -0.016759
  41 C :   -0.047184
  42 C :   -0.029120
  43 C :   -0.037753
  44 C :   -0.194621
  45 S :    0.439506
  46 C :   -0.172473
  47 C :   -0.064747
  48 C :   -0.201362
  49 S :    0.372064
  50 C :   -0.082469
  51 N :   -0.076142
  52 C :   -0.042209
  53 C :   -0.019775
  54 C :   -0.048382
  55 C :   -0.149095
  56 C :   -0.031185
  57 C :   -0.037920
  58 C :   -0.171707
  59 S :    0.398581
  60 C :   -0.190744
  61 C :   -0.028648
  62 C :   -0.043569
  63 C :   -0.139239
  64 S :    0.401539
  65 C :   -0.099211
  66 C :   -0.193750
  67 S :    0.470139
  68 C :   -0.196831
  69 C :   -0.081132
  70 C :    0.005875
  71 O :    0.000928
  72 C :    0.023568
  73 N :    0.276585
  74 O :   -0.219816
  75 O :   -0.175635
  76 C :   -0.005941
  77 H :    0.043531
  78 H :    0.041312
  79 H :    0.039719
  80 H :    0.045274
  81 H :    0.030295
  82 H :    0.029063
  83 H :    0.034705
  84 H :    0.026603
  85 H :    0.025652
  86 H :    0.039735
  87 H :    0.048462
  88 H :    0.053273
  89 H :    0.034242
  90 H :    0.028789
  91 H :    0.021666
  92 H :    0.027047
  93 H :    0.023594
  94 H :    0.029074
  95 H :    0.015587
  96 H :    0.025835
  97 H :    0.008789
  98 H :    0.025693
  99 H :    0.028103
 100 H :    0.030018
 101 H :    0.032494
 102 H :    0.030204
 103 H :    0.030757
 104 H :    0.030712
 105 H :    0.031931
 106 H :    0.027476
 107 H :    0.046551

  Mayer bond orders larger than 0.100000
B(  0-C ,  1-C ) :   1.6579 B(  0-C ,  6-C ) :   1.0150 B(  0-C , 18-C ) :   1.0322
B(  1-C ,  2-C ) :   1.1326 B(  1-C ,  4-C ) :   1.1518 B(  2-C ,  3-N ) :   2.9723
B(  4-C ,  5-N ) :   2.9732 B(  6-C ,  7-C ) :   1.2722 B(  6-C , 11-C ) :   1.3972
B(  7-C ,  8-C ) :   1.4259 B(  7-C , 16-C ) :   0.9265 B(  8-C ,  9-C ) :   1.2494
B(  8-C , 77-H ) :   1.0209 B(  9-C , 10-C ) :   1.2992 B(  9-C , 14-C ) :   1.1620
B( 10-C , 11-C ) :   1.3393 B( 10-C , 12-S ) :   1.0851 B( 11-C , 78-H ) :   0.9805
B( 12-S , 13-C ) :   1.0865 B( 13-C , 14-C ) :   1.6169 B( 13-C , 15-Br) :   1.0216
B( 14-C , 79-H ) :   1.0009 B( 16-C , 17-O ) :   2.1968 B( 16-C , 18-C ) :   0.9313
B( 18-C , 19-C ) :   1.7334 B( 19-C , 20-C ) :   1.0012 B( 19-C , 80-H ) :   0.9398
B( 20-C , 21-C ) :   1.3264 B( 20-C , 25-C ) :   1.3821 B( 21-C , 22-C ) :   1.4129
B( 21-C , 81-H ) :   0.9943 B( 22-C , 23-C ) :   1.2990 B( 22-C , 82-H ) :   0.9922
B( 23-C , 24-C ) :   1.4648 B( 23-C , 83-H ) :   1.0033 B( 24-C , 25-C ) :   1.3387
B( 24-C , 30-C ) :   0.9410 B( 25-C , 26-N ) :   1.0858 B( 26-N , 27-C ) :   0.9718
B( 26-N , 28-C ) :   1.0964 B( 27-C , 84-H ) :   0.9603 B( 27-C , 85-H ) :   0.9598
B( 27-C , 86-H ) :   0.9484 B( 28-C , 29-O ) :   2.1764 B( 28-C , 30-C ) :   0.9280
B( 30-C , 31-C ) :   1.0428 B( 30-C , 87-H ) :   0.8859 B( 31-C , 32-C ) :   0.9042
B( 31-C , 41-C ) :   0.9810 B( 31-C , 88-H ) :   0.8775 B( 32-C , 33-O ) :   2.1161
B( 32-C , 34-N ) :   1.1452 B( 34-N , 35-C ) :   0.9643 B( 34-N , 36-C ) :   1.0496
B( 35-C , 89-H ) :   0.9542 B( 35-C , 90-H ) :   0.9679 B( 35-C , 91-H ) :   0.9697
B( 36-C , 37-C ) :   1.3385 B( 36-C , 41-C ) :   1.3561 B( 37-C , 38-C ) :   1.2574
B( 37-C , 92-H ) :   1.0209 B( 38-C , 39-C ) :   1.3656 B( 38-C , 42-C ) :   1.0883
B( 39-C , 40-C ) :   1.3575 B( 39-C , 93-H ) :   0.9869 B( 40-C , 41-C ) :   1.4132
B( 40-C , 94-H ) :   1.0044 B( 42-C , 43-C ) :   1.6666 B( 42-C , 95-H ) :   0.9788
B( 43-C , 44-C ) :   1.1479 B( 43-C , 96-H ) :   0.9520 B( 44-C , 45-S ) :   1.1134
B( 44-C , 46-C ) :   0.1027 B( 44-C , 48-C ) :   1.4937 B( 45-S , 46-C ) :   1.1092
B( 46-C , 47-C ) :   1.3780 B( 46-C , 52-C ) :   1.1795 B( 47-C , 48-C ) :   1.2646
B( 47-C , 51-N ) :   1.3018 B( 48-C , 49-S ) :   1.0562 B( 49-S , 50-C ) :   1.0710
B( 50-C , 51-N ) :   1.7755 B( 50-C , 97-H ) :   0.9438 B( 52-C , 53-C ) :   1.5787
B( 52-C , 98-H ) :   0.9659 B( 53-C , 54-C ) :   1.1882 B( 53-C , 99-H ) :   0.9513
B( 54-C , 55-C ) :   1.5129 B( 54-C ,100-H ) :   0.9849 B( 55-C , 56-C ) :   1.1622
B( 55-C , 59-S ) :   1.0428 B( 56-C , 57-C ) :   1.5631 B( 56-C ,101-H ) :   0.9991
B( 57-C , 58-C ) :   1.2076 B( 57-C ,102-H ) :   0.9943 B( 58-C , 59-S ) :   1.0612
B( 58-C , 60-C ) :   1.4714 B( 60-C , 61-C ) :   1.2038 B( 60-C , 64-S ) :   1.0360
B( 61-C , 62-C ) :   1.5754 B( 61-C ,103-H ) :   0.9924 B( 62-C , 63-C ) :   1.1506
B( 62-C ,104-H ) :   1.0003 B( 63-C , 64-S ) :   1.0530 B( 63-C , 65-C ) :   1.5812
B( 65-C , 66-C ) :   1.1604 B( 65-C ,105-H ) :   0.9444 B( 66-C , 67-S ) :   1.1343
B( 66-C , 68-C ) :   0.1078 B( 66-C , 70-C ) :   1.4210 B( 67-S , 68-C ) :   1.1743
B( 68-C , 69-C ) :   1.4302 B( 68-C ,106-H ) :   0.9758 B( 69-C , 70-C ) :   1.2335
B( 69-C , 76-C ) :   1.0709 B( 70-C , 71-O ) :   1.0876 B( 71-O , 72-C ) :   1.1228
B( 72-C , 73-N ) :   0.9212 B( 72-C , 76-C ) :   1.5650 B( 73-N , 74-O ) :   1.5029
B( 73-N , 75-O ) :   1.5146 B( 74-O , 75-O ) :   0.2692 B( 76-C ,107-H ) :   1.0249

-----------------------------------------------------------------------------
         ABSORPTION SPECTRUM VIA TRANSITION ELECTRIC DIPOLE MOMENTS
-----------------------------------------------------------------------------
State   Energy  Wavelength   fosc         T2         TX        TY        TZ
        (cm-1)    (nm)                  (au**2)     (au)      (au)      (au)
-----------------------------------------------------------------------------
   0   10275.1    973.2   0.484359523  15.51871   0.03027  -0.92698   3.82864
   1   12496.1    800.2   0.713379569  18.79408   0.50848   2.22557  -3.68542
   2   16786.0    595.7   0.000231484   0.00454   0.00232   0.05875   0.03290
   3   19103.1    523.5   0.013858152   0.23882   0.17297   0.44895  -0.08570
   4   20878.8    479.0   0.261650992   4.12564  -0.52621  -1.75323  -0.88030
   5   21895.8    456.7   0.648858318   9.75582  -1.16882  -2.88772  -0.22534
   6   23066.5    433.5   0.910096565  12.98919   1.32992   3.34945  -0.04095
   7   23481.2    425.9   0.000408823   0.00573  -0.03205  -0.06148  -0.03040
   8   24880.5    401.9   0.004654357   0.06159   0.13677   0.16099   0.13023
   9   26138.4    382.6   0.005893520   0.07423   0.04150  -0.10712  -0.24704
  10   26256.8    380.9   0.029038217   0.36409  -0.16817  -0.53122   0.23153
  11   27915.5    358.2   0.051643976   0.60905  -0.43641  -0.64696  -0.00623
  12   28179.6    354.9   0.373717819   4.36600   2.04202  -0.20065   0.39482
  13   28454.4    351.4   0.083561213   0.96679   0.20500  -0.14698   0.95035
  14   28622.2    349.4   0.034194160   0.39330  -0.23358  -0.56342  -0.14594
  15   29850.0    335.0   0.027616747   0.30458  -0.26788  -0.48247  -0.00624
  16   30073.6    332.5   0.003089371   0.03382  -0.00943   0.14126   0.11737
  17   30253.0    330.5   0.041436919   0.45092   0.58890  -0.30449   0.10674
  18   30417.4    328.8   0.042532373   0.46033  -0.56031   0.36946  -0.09940
  19   30792.4    324.8   0.060251215   0.64417   0.08178  -0.16905   0.78032
  20   31433.7    318.1   0.055365313   0.57985   0.19658   0.68092  -0.27848
  21   31686.9    315.6   0.050654418   0.52628  -0.23444  -0.57378  -0.37695
  22   32408.9    308.6   0.020964214   0.21296   0.22966   0.36875   0.15567
  23   32729.3    305.5   0.158647607   1.59578   0.58607   1.06035   0.35769
  24   32793.7    304.9   0.001786971   0.01794  -0.00150  -0.03292   0.12982
  25   32914.6    303.8   0.017192948   0.17196   0.15334   0.38304   0.04161
  26   33289.0    300.4   0.030534038   0.30197  -0.03791  -0.26313   0.48093
  27   33468.9    298.8   0.001372964   0.01350  -0.02045  -0.06072   0.09695
  28   33899.9    295.0   0.144437729   1.40268   0.04008   0.30713  -1.14313
  29   33951.5    294.5   0.293894038   2.84975   1.58531  -0.55289   0.17563
  30   34005.2    294.1   0.210868136   2.04146  -1.29808   0.34196  -0.48939
  31   34315.0    291.4   0.002459991   0.02360  -0.08521   0.04113   0.12103
  32   34862.1    286.8   0.018273214   0.17256   0.11108   0.27359   0.29218
  33   34917.5    286.4   0.046821281   0.44144   0.47376  -0.46111   0.06614
  34   35038.2    285.4   0.025173991   0.23653  -0.41258   0.25630  -0.02488
  35   35126.9    284.7   0.046245746   0.43342   0.08987  -0.09629   0.64503
  36   35786.6    279.4   0.075152234   0.69135  -0.48610  -0.39847   0.54431
  37   35804.2    279.3   0.110193415   1.01320  -0.42254   0.07848  -0.91022
  38   35961.2    278.1   0.157099486   1.43819  -0.10156  -0.36658   1.13732
  39   36003.0    277.8   0.376502106   3.44274   0.10505   0.59809  -1.75328
  40   36216.3    276.1   0.000910913   0.00828   0.02002  -0.03791   0.08026
  41   36396.8    274.7   0.013426549   0.12144  -0.34289  -0.03375  -0.05226
  42   36489.4    274.1   0.060286190   0.54391   0.06108   0.04706   0.73346
  43   36569.2    273.5   0.022091620   0.19888  -0.12830  -0.17516   0.38954
  44   37067.6    269.8   0.000601656   0.00534   0.05929  -0.00412   0.04256
  45   37285.3    268.2   0.033395224   0.29486   0.05467   0.38126  -0.38278
  46   37404.2    267.3   0.009259190   0.08149   0.02864   0.23181  -0.16413
  47   37598.1    266.0   0.163912320   1.43523  -0.25108  -1.03539   0.54786
  48   38114.3    262.4   0.020756910   0.17929   0.03245  -0.05964  -0.41794
  49   38398.4    260.4   0.039691420   0.34030  -0.30117  -0.40768  -0.28877
  50   38467.8    260.0   0.027998594   0.23961  -0.13713  -0.29214   0.36806
  51   38905.0    257.0   0.005994611   0.05073  -0.11785  -0.01686  -0.19119
  52   38986.6    256.5   0.034525834   0.29154   0.22169   0.45462   0.18900
  53   39065.7    256.0   0.005493970   0.04630   0.04822  -0.20452   0.04632
  54   39646.8    252.2   0.000178381   0.00148  -0.01376   0.03007   0.01969
  55   39689.3    252.0   0.005067340   0.04203   0.12005  -0.13679  -0.09438
  56   39755.2    251.5   0.017416704   0.14423  -0.16952  -0.30792  -0.14378
  57   39847.2    251.0   0.006548275   0.05410  -0.00894   0.22477   0.05914
  58   39883.9    250.7   0.051712170   0.42685  -0.00381   0.56969   0.31981
  59   40293.4    248.2   0.104355437   0.85262  -0.10453  -0.88002  -0.25936

FINAL SINGLE POINT ENERGY     -7967.154631252604

DIPOLE MOMENT
-------------
                                X             Y             Z
Electronic contribution:    -92.85231    -118.47882     -18.99056
Nuclear contribution   :     92.27610     121.65142      16.25812
                        -----------------------------------------
Total Dipole Moment    :     -0.57622       3.17260      -2.73245
                        -----------------------------------------
Magnitude (a.u.)       :      4.22655
Magnitude (Debye)      :     10.74303

Rotational constants in cm-1:     0.000956     0.000184     0.000167
Rotational constants in MHz :    28.666694     5.530454     4.993423

                             ****ORCA TERMINATED NORMALLY****
TOTAL RUN TIME: 0 days 0 hours 13 minutes 27 seconds 719 msec
