                         Program Version 4.2.0 -  RELEASE  -
|  1> # ORCA input file
|  2> # SCF done       -201.862387460794          0.000936910824
|  3> ! CAM-B3LYP def2-SVP def2/J RIJCOSX Grid4 TightSCF
|  4> %maxcore 5000
|  5> %tddft
|  6>     Mode sTDDFT
|  7>     Ethresh 5.0
|  8>     maxcore 5000
|  9> end
| 10>
| 11> %pal
| 12>   nprocs 6
| 13>   end
| 14> * xyz 0 1
| 15>    C       -7.44162        -1.49932        -4.50837
| 16>    C       -6.90482        -2.05891        -5.64211
| 17>    C       -7.47452        -3.14630        -6.33504
| 18>    N       -7.88896        -4.02530        -6.94713
| 19>    C       -5.71980        -1.63244        -6.27461
| 20>    N       -4.76758        -1.34267        -6.84822
| 21>    C       -8.64490        -1.95518        -3.82437
| 22>    C       -8.85889        -1.14447        -2.68231
| 23>    C       -9.92043        -1.32794        -1.83084
| 24>    C      -10.81196        -2.36824        -2.11390
| 25>    C      -10.59150        -3.17286        -3.25731
| 26>    C       -9.52065        -2.98371        -4.12173
| 27>    S      -11.81592        -4.39431        -3.42467
| 28>    C      -12.59607        -3.81602        -1.97610
| 29>    C      -11.97309        -2.76354        -1.39499
| 30>   Br      -14.15979        -4.65474        -1.37063
| 31>    C       -7.80192        -0.11940        -2.59934
| 32>    O       -7.77070         0.82482        -1.84404
| 33>    C       -6.89079        -0.39770        -3.74669
| 34>    C       -5.82174         0.37803        -4.08339
| 35>    C       -5.18952         1.29110        -3.20405
| 36>    O       -4.49228         2.33808        -3.73414
| 37>    C       -5.03454         1.32267        -1.83090
| 38>    C       -5.29207         0.58642        -0.58350
| 39>    O       -5.82116        -0.47368        -0.38001
| 40>    N       -4.69918         1.38495         0.39055
| 41>    C       -4.03691         2.51725        -0.08198
| 42>    O       -3.45211         3.31523         0.60276
| 43>    C       -4.23899         2.45138        -1.53147
| 44>    C       -3.93016         3.06297        -2.73442
| 45>    C       -3.19278         4.24519        -3.01399
| 46>    C       -2.98025         4.67387        -4.27769
| 47>    C       -2.35265         5.91201        -4.64936
| 48>    C       -2.38199         6.98311        -3.79456
| 49>    S       -1.81750         8.44961        -4.46356
| 50>    C       -1.48596         7.63669        -5.96479
| 51>    C       -1.77831         6.26451        -5.93412
| 52>    C       -1.46497         5.47490        -7.07223
| 53>    C       -1.56901         3.97245        -6.98830
| 54>    C       -0.59348         3.40081        -5.95722
| 55>    C       -0.99980         6.08483        -8.23156
| 56>    C       -0.72475         5.30433        -9.49022
| 57>    C        0.70095         4.74944        -9.51178
| 58>    C       -0.77332         7.48121        -8.26820
| 59>    C       -0.36739         8.33414        -9.35876
| 60>    C       -0.34021         9.64465        -8.99480
| 61>    S       -0.73412         9.94046        -7.34504
| 62>    C       -1.01012         8.24303        -7.11465
| 63>    C       -0.01001         7.95760       -10.72072
| 64>    C       -0.65034         8.45768       -11.79806
| 65>    C       -0.30186         8.16663       -13.13980
| 66>    C       -1.08146         8.48641       -14.21523
| 67>    C       -0.79618         8.24711       -15.58617
| 68>    C       -1.78844         8.61981       -16.43708
| 69>    C       -2.92724         9.16196       -15.79492
| 70>    S       -2.67261         9.22798       -14.06448
| 71>    C       -4.12189         9.55175       -16.36351
| 72>    C       -4.47032         9.54292       -17.73426
| 73>    C       -5.75085         9.92887       -17.96303
| 74>    C       -6.49960        10.25974       -16.79405
| 75>    S       -5.47065        10.09800       -15.38341
| 76>    C       -7.82422        10.59550       -16.86046
| 77>    C       -8.79095        10.90478       -15.86301
| 78>    C      -10.13341        11.08632       -16.25586
| 79>    O      -10.35789        10.97485       -17.59354
| 80>    C      -11.61177        10.58550       -18.11407
| 81>    C      -11.15388        11.40414       -15.30782
| 82>    O      -12.40367        11.61590       -15.81521
| 83>    C      -13.45141        11.92298       -14.92710
| 84>    C      -10.87258        11.50598       -13.96454
| 85>    C       -9.55300        11.32526       -13.53622
| 86>    C       -8.50632        11.03829       -14.47813
| 87>    N       -7.32906        10.92817       -13.88033
| 88>    S       -7.51204        11.15210       -12.29161
| 89>    N       -9.10253        11.40744       -12.28550
| 90>    H      -10.05365        -0.69300        -0.96937
| 91>    H       -9.39978        -3.62073        -4.98183
| 92>    H      -12.31683        -2.28363        -0.49694
| 93>    H       -5.39888         0.32950        -5.07800
| 94>    H       -4.72427         1.14500         1.37156
| 95>    H       -2.81245         4.76508        -2.14847
| 96>    H       -3.37266         4.06158        -5.07418
| 97>    H       -2.78160         6.99278        -2.79954
| 98>    H       -1.33253         3.52119        -7.94759
| 99>    H       -2.58894         3.67113        -6.74944
|100>    H        0.42577         3.68596        -6.20971
|101>    H       -0.65688         2.31506        -5.94934
|102>    H       -0.80842         3.76380        -4.95591
|103>    H       -0.86548         5.96925       -10.34371
|104>    H       -1.43987         4.48970        -9.60751
|105>    H        1.42290         5.54918        -9.36126
|106>    H        0.90469         4.26973       -10.46667
|107>    H        0.84517         4.01715        -8.72155
|108>    H       -0.06518        10.47274        -9.61885
|109>    H        0.83408         7.29392       -10.85343
|110>    H       -1.51953         9.08626       -11.64834
|111>    H        0.62702         7.64365       -13.32595
|112>    H        0.13584         7.80473       -15.89151
|113>    H       -1.74290         8.50813       -17.50572
|114>    H       -3.77693         9.25380       -18.50400
|115>    H       -6.20301         9.98050       -18.93823
|116>    H       -8.22985        10.60058       -17.86408
|117>    H      -11.40226        10.24781       -19.12991
|118>    H      -12.31410        11.42011       -18.14736
|119>    H      -12.04936         9.76464       -17.54285
|120>    H      -13.61665        11.11614       -14.20670
|121>    H      -14.33592        12.03591       -15.55226
|122>    H      -13.26304        12.85840       -14.39200
|123>    H      -11.62354        11.74063       -13.23128
|124> *
|125>
|126>                          ****END OF INPUT****

CARTESIAN COORDINATES (ANGSTROEM)
---------------------------------
  C     -7.441620   -1.499320   -4.508370
  C     -6.904820   -2.058910   -5.642110
  C     -7.474520   -3.146300   -6.335040
  N     -7.888960   -4.025300   -6.947130
  C     -5.719800   -1.632440   -6.274610
  N     -4.767580   -1.342670   -6.848220
  C     -8.644900   -1.955180   -3.824370
  C     -8.858890   -1.144470   -2.682310
  C     -9.920430   -1.327940   -1.830840
  C    -10.811960   -2.368240   -2.113900
  C    -10.591500   -3.172860   -3.257310
  C     -9.520650   -2.983710   -4.121730
  S    -11.815920   -4.394310   -3.424670
  C    -12.596070   -3.816020   -1.976100
  C    -11.973090   -2.763540   -1.394990
  Br   -14.159790   -4.654740   -1.370630
  C     -7.801920   -0.119400   -2.599340
  O     -7.770700    0.824820   -1.844040
  C     -6.890790   -0.397700   -3.746690
  C     -5.821740    0.378030   -4.083390
  C     -5.189520    1.291100   -3.204050
  O     -4.492280    2.338080   -3.734140
  C     -5.034540    1.322670   -1.830900
  C     -5.292070    0.586420   -0.583500
  O     -5.821160   -0.473680   -0.380010
  N     -4.699180    1.384950    0.390550
  C     -4.036910    2.517250   -0.081980
  O     -3.452110    3.315230    0.602760
  C     -4.238990    2.451380   -1.531470
  C     -3.930160    3.062970   -2.734420
  C     -3.192780    4.245190   -3.013990
  C     -2.980250    4.673870   -4.277690
  C     -2.352650    5.912010   -4.649360
  C     -2.381990    6.983110   -3.794560
  S     -1.817500    8.449610   -4.463560
  C     -1.485960    7.636690   -5.964790
  C     -1.778310    6.264510   -5.934120
  C     -1.464970    5.474900   -7.072230
  C     -1.569010    3.972450   -6.988300
  C     -0.593480    3.400810   -5.957220
  C     -0.999800    6.084830   -8.231560
  C     -0.724750    5.304330   -9.490220
  C      0.700950    4.749440   -9.511780
  C     -0.773320    7.481210   -8.268200
  C     -0.367390    8.334140   -9.358760
  C     -0.340210    9.644650   -8.994800
  S     -0.734120    9.940460   -7.345040
  C     -1.010120    8.243030   -7.114650
  C     -0.010010    7.957600  -10.720720
  C     -0.650340    8.457680  -11.798060
  C     -0.301860    8.166630  -13.139800
  C     -1.081460    8.486410  -14.215230
  C     -0.796180    8.247110  -15.586170
  C     -1.788440    8.619810  -16.437080
  C     -2.927240    9.161960  -15.794920
  S     -2.672610    9.227980  -14.064480
  C     -4.121890    9.551750  -16.363510
  C     -4.470320    9.542920  -17.734260
  C     -5.750850    9.928870  -17.963030
  C     -6.499600   10.259740  -16.794050
  S     -5.470650   10.098000  -15.383410
  C     -7.824220   10.595500  -16.860460
  C     -8.790950   10.904780  -15.863010
  C    -10.133410   11.086320  -16.255860
  O    -10.357890   10.974850  -17.593540
  C    -11.611770   10.585500  -18.114070
  C    -11.153880   11.404140  -15.307820
  O    -12.403670   11.615900  -15.815210
  C    -13.451410   11.922980  -14.927100
  C    -10.872580   11.505980  -13.964540
  C     -9.553000   11.325260  -13.536220
  C     -8.506320   11.038290  -14.478130
  N     -7.329060   10.928170  -13.880330
  S     -7.512040   11.152100  -12.291610
  N     -9.102530   11.407440  -12.285500
  H    -10.053650   -0.693000   -0.969370
  H     -9.399780   -3.620730   -4.981830
  H    -12.316830   -2.283630   -0.496940
  H     -5.398880    0.329500   -5.078000
  H     -4.724270    1.145000    1.371560
  H     -2.812450    4.765080   -2.148470
  H     -3.372660    4.061580   -5.074180
  H     -2.781600    6.992780   -2.799540
  H     -1.332530    3.521190   -7.947590
  H     -2.588940    3.671130   -6.749440
  H      0.425770    3.685960   -6.209710
  H     -0.656880    2.315060   -5.949340
  H     -0.808420    3.763800   -4.955910
  H     -0.865480    5.969250  -10.343710
  H     -1.439870    4.489700   -9.607510
  H      1.422900    5.549180   -9.361260
  H      0.904690    4.269730  -10.466670
  H      0.845170    4.017150   -8.721550
  H     -0.065180   10.472740   -9.618850
  H      0.834080    7.293920  -10.853430
  H     -1.519530    9.086260  -11.648340
  H      0.627020    7.643650  -13.325950
  H      0.135840    7.804730  -15.891510
  H     -1.742900    8.508130  -17.505720
  H     -3.776930    9.253800  -18.504000
  H     -6.203010    9.980500  -18.938230
  H     -8.229850   10.600580  -17.864080
  H    -11.402260   10.247810  -19.129910
  H    -12.314100   11.420110  -18.147360
  H    -12.049360    9.764640  -17.542850
  H    -13.616650   11.116140  -14.206700
  H    -14.335920   12.035910  -15.552260
  H    -13.263040   12.858400  -14.392000
  H    -11.623540   11.740630  -13.231280

 Total Charge           Charge          ....    0
 Multiplicity           Mult            ....    1
 Number of Electrons    NEL             ....  590
 Basis Dimension        Dim             .... 1262

ORBITAL ENERGIES
----------------

  NO   OCC          E(Eh)            E(eV)
   0   2.0000    -482.885354    -13139.9785
   1   2.0000     -89.004186     -2421.9270
   2   2.0000     -88.975214     -2421.1387
   3   2.0000     -88.957584     -2420.6589
   4   2.0000     -88.946188     -2420.3488
   5   2.0000     -88.929319     -2419.8898
   6   2.0000     -88.924938     -2419.7706
   7   2.0000     -62.563069     -1702.4277
   8   2.0000     -56.397021     -1534.6410
   9   2.0000     -56.394303     -1534.5670
  10   2.0000     -56.394273     -1534.5662
  11   2.0000     -19.314225      -525.5668
  12   2.0000     -19.257755      -524.0302
  13   2.0000     -19.244801      -523.6777
  14   2.0000     -19.215546      -522.8816
  15   2.0000     -19.211825      -522.7803
  16   2.0000     -19.209898      -522.7279
  17   2.0000     -14.453698      -393.3051
  18   2.0000     -14.422439      -392.4545
  19   2.0000     -14.419516      -392.3750
  20   2.0000     -14.417489      -392.3198
  21   2.0000     -14.416055      -392.2808
  22   2.0000     -10.400165      -283.0029
  23   2.0000     -10.399429      -282.9828
  24   2.0000     -10.369442      -282.1668
  25   2.0000     -10.367584      -282.1163
  26   2.0000     -10.361064      -281.9389
  27   2.0000     -10.358746      -281.8758
  28   2.0000     -10.347919      -281.5812
  29   2.0000     -10.343962      -281.4735
  30   2.0000     -10.342906      -281.4448
  31   2.0000     -10.341261      -281.4000
  32   2.0000     -10.331753      -281.1413
  33   2.0000     -10.325341      -280.9668
  34   2.0000     -10.323572      -280.9187
  35   2.0000     -10.320035      -280.8224
  36   2.0000     -10.318716      -280.7865
  37   2.0000     -10.315455      -280.6978
  38   2.0000     -10.310426      -280.5610
  39   2.0000     -10.308261      -280.5021
  40   2.0000     -10.308245      -280.5016
  41   2.0000     -10.307321      -280.4765
  42   2.0000     -10.305328      -280.4222
  43   2.0000     -10.305261      -280.4204
  44   2.0000     -10.302963      -280.3579
  45   2.0000     -10.301750      -280.3249
  46   2.0000     -10.299920      -280.2751
  47   2.0000     -10.299773      -280.2711
  48   2.0000     -10.298667      -280.2410
  49   2.0000     -10.296225      -280.1745
  50   2.0000     -10.296120      -280.1717
  51   2.0000     -10.295519      -280.1553
  52   2.0000     -10.295007      -280.1414
  53   2.0000     -10.294799      -280.1357
  54   2.0000     -10.291666      -280.0505
  55   2.0000     -10.290839      -280.0280
  56   2.0000     -10.290003      -280.0052
  57   2.0000     -10.288413      -279.9620
  58   2.0000     -10.287576      -279.9392
  59   2.0000     -10.287117      -279.9267
  60   2.0000     -10.283795      -279.8363
  61   2.0000     -10.280823      -279.7554
  62   2.0000     -10.277846      -279.6744
  63   2.0000     -10.275056      -279.5985
  64   2.0000     -10.273640      -279.5600
  65   2.0000     -10.273318      -279.5512
  66   2.0000     -10.272787      -279.5367
  67   2.0000     -10.272717      -279.5348
  68   2.0000     -10.272176      -279.5201
  69   2.0000     -10.271292      -279.4961
  70   2.0000     -10.271036      -279.4891
  71   2.0000     -10.269487      -279.4470
  72   2.0000     -10.266575      -279.3677
  73   2.0000     -10.266114      -279.3552
  74   2.0000     -10.264766      -279.3185
  75   2.0000     -10.262991      -279.2702
  76   2.0000     -10.256781      -279.1012
  77   2.0000     -10.253479      -279.0114
  78   2.0000     -10.251649      -278.9616
  79   2.0000      -8.792497      -239.2560
  80   2.0000      -8.096095      -220.3059
  81   2.0000      -8.071145      -219.6270
  82   2.0000      -8.053668      -219.1515
  83   2.0000      -8.042363      -218.8438
  84   2.0000      -8.025731      -218.3912
  85   2.0000      -8.019521      -218.2223
  86   2.0000      -6.628797      -180.3787
  87   2.0000      -6.614233      -179.9824
  88   2.0000      -6.614030      -179.9769
  89   2.0000      -6.067456      -165.1039
  90   2.0000      -6.059854      -164.8970
  91   2.0000      -6.058032      -164.8474
  92   2.0000      -6.040851      -164.3799
  93   2.0000      -6.036551      -164.2629
  94   2.0000      -6.032381      -164.1494
  95   2.0000      -6.023071      -163.8961
  96   2.0000      -6.018837      -163.7809
  97   2.0000      -6.015570      -163.6920
  98   2.0000      -6.011862      -163.5911
  99   2.0000      -6.007708      -163.4780
 100   2.0000      -6.003987      -163.3768
 101   2.0000      -5.995464      -163.1449
 102   2.0000      -5.991538      -163.0380
 103   2.0000      -5.989525      -162.9833
 104   2.0000      -5.986514      -162.9013
 105   2.0000      -5.985110      -162.8631
 106   2.0000      -5.980240      -162.7306
 107   2.0000      -2.744671       -74.6863
 108   2.0000      -2.740585       -74.5751
 109   2.0000      -2.740432       -74.5709
 110   2.0000      -2.728858       -74.2560
 111   2.0000      -2.728833       -74.2553
 112   2.0000      -1.230509       -33.4838
 113   2.0000      -1.166902       -31.7530
 114   2.0000      -1.155587       -31.4451
 115   2.0000      -1.140841       -31.0439
 116   2.0000      -1.136333       -30.9212
 117   2.0000      -1.129718       -30.7412
 118   2.0000      -1.106845       -30.1188
 119   2.0000      -1.042621       -28.3712
 120   2.0000      -1.023160       -27.8416
 121   2.0000      -1.013940       -27.5907
 122   2.0000      -1.001657       -27.2565
 123   2.0000      -0.995052       -27.0767
 124   2.0000      -0.990374       -26.9494
 125   2.0000      -0.979767       -26.6608
 126   2.0000      -0.971495       -26.4357
 127   2.0000      -0.965613       -26.2757
 128   2.0000      -0.955415       -25.9982
 129   2.0000      -0.946641       -25.7594
 130   2.0000      -0.944668       -25.7057
 131   2.0000      -0.931462       -25.3464
 132   2.0000      -0.926279       -25.2053
 133   2.0000      -0.922663       -25.1069
 134   2.0000      -0.908705       -24.7271
 135   2.0000      -0.905266       -24.6335
 136   2.0000      -0.898330       -24.4448
 137   2.0000      -0.885546       -24.0969
 138   2.0000      -0.879499       -23.9324
 139   2.0000      -0.876201       -23.8427
 140   2.0000      -0.866039       -23.5661
 141   2.0000      -0.860258       -23.4088
 142   2.0000      -0.855294       -23.2737
 143   2.0000      -0.849300       -23.1106
 144   2.0000      -0.843835       -22.9619
 145   2.0000      -0.835061       -22.7232
 146   2.0000      -0.829065       -22.5600
 147   2.0000      -0.826520       -22.4908
 148   2.0000      -0.813925       -22.1480
 149   2.0000      -0.812369       -22.1057
 150   2.0000      -0.804737       -21.8980
 151   2.0000      -0.801694       -21.8152
 152   2.0000      -0.789982       -21.4965
 153   2.0000      -0.786081       -21.3904
 154   2.0000      -0.777648       -21.1609
 155   2.0000      -0.776052       -21.1174
 156   2.0000      -0.766584       -20.8598
 157   2.0000      -0.761768       -20.7288
 158   2.0000      -0.756652       -20.5896
 159   2.0000      -0.752153       -20.4671
 160   2.0000      -0.726808       -19.7774
 161   2.0000      -0.721817       -19.6416
 162   2.0000      -0.715902       -19.4807
 163   2.0000      -0.703751       -19.1500
 164   2.0000      -0.702754       -19.1229
 165   2.0000      -0.698919       -19.0186
 166   2.0000      -0.692453       -18.8426
 167   2.0000      -0.689653       -18.7664
 168   2.0000      -0.688065       -18.7232
 169   2.0000      -0.686723       -18.6867
 170   2.0000      -0.681650       -18.5486
 171   2.0000      -0.672973       -18.3125
 172   2.0000      -0.657638       -17.8953
 173   2.0000      -0.656727       -17.8704
 174   2.0000      -0.653346       -17.7784
 175   2.0000      -0.643786       -17.5183
 176   2.0000      -0.629829       -17.1385
 177   2.0000      -0.627651       -17.0792
 178   2.0000      -0.623487       -16.9659
 179   2.0000      -0.621242       -16.9049
 180   2.0000      -0.619249       -16.8506
 181   2.0000      -0.611252       -16.6330
 182   2.0000      -0.610469       -16.6117
 183   2.0000      -0.607705       -16.5365
 184   2.0000      -0.605161       -16.4673
 185   2.0000      -0.604492       -16.4491
 186   2.0000      -0.598475       -16.2853
 187   2.0000      -0.595814       -16.2129
 188   2.0000      -0.593833       -16.1590
 189   2.0000      -0.586451       -15.9581
 190   2.0000      -0.584955       -15.9174
 191   2.0000      -0.580240       -15.7891
 192   2.0000      -0.579122       -15.7587
 193   2.0000      -0.573469       -15.6049
 194   2.0000      -0.569959       -15.5094
 195   2.0000      -0.563415       -15.3313
 196   2.0000      -0.553138       -15.0516
 197   2.0000      -0.550481       -14.9794
 198   2.0000      -0.546546       -14.8723
 199   2.0000      -0.544848       -14.8261
 200   2.0000      -0.544250       -14.8098
 201   2.0000      -0.541540       -14.7360
 202   2.0000      -0.539929       -14.6922
 203   2.0000      -0.536285       -14.5931
 204   2.0000      -0.533591       -14.5197
 205   2.0000      -0.533243       -14.5103
 206   2.0000      -0.530296       -14.4301
 207   2.0000      -0.529758       -14.4155
 208   2.0000      -0.526058       -14.3148
 209   2.0000      -0.524628       -14.2758
 210   2.0000      -0.523404       -14.2425
 211   2.0000      -0.521470       -14.1899
 212   2.0000      -0.516628       -14.0582
 213   2.0000      -0.513803       -13.9813
 214   2.0000      -0.511535       -13.9196
 215   2.0000      -0.507917       -13.8211
 216   2.0000      -0.506954       -13.7949
 217   2.0000      -0.505894       -13.7661
 218   2.0000      -0.503771       -13.7083
 219   2.0000      -0.501961       -13.6591
 220   2.0000      -0.498908       -13.5760
 221   2.0000      -0.493872       -13.4389
 222   2.0000      -0.493384       -13.4256
 223   2.0000      -0.491898       -13.3852
 224   2.0000      -0.487572       -13.2675
 225   2.0000      -0.484750       -13.1907
 226   2.0000      -0.481455       -13.1011
 227   2.0000      -0.480766       -13.0823
 228   2.0000      -0.480173       -13.0662
 229   2.0000      -0.476602       -12.9690
 230   2.0000      -0.475721       -12.9450
 231   2.0000      -0.474346       -12.9076
 232   2.0000      -0.470380       -12.7997
 233   2.0000      -0.469093       -12.7647
 234   2.0000      -0.465346       -12.6627
 235   2.0000      -0.461716       -12.5639
 236   2.0000      -0.458346       -12.4722
 237   2.0000      -0.457539       -12.4503
 238   2.0000      -0.452322       -12.3083
 239   2.0000      -0.451196       -12.2777
 240   2.0000      -0.450291       -12.2531
 241   2.0000      -0.449966       -12.2442
 242   2.0000      -0.449328       -12.2268
 243   2.0000      -0.447519       -12.1776
 244   2.0000      -0.446084       -12.1386
 245   2.0000      -0.444844       -12.1048
 246   2.0000      -0.444479       -12.0949
 247   2.0000      -0.439123       -11.9491
 248   2.0000      -0.435317       -11.8456
 249   2.0000      -0.433977       -11.8091
 250   2.0000      -0.430643       -11.7184
 251   2.0000      -0.428429       -11.6581
 252   2.0000      -0.426745       -11.6123
 253   2.0000      -0.425669       -11.5830
 254   2.0000      -0.425384       -11.5753
 255   2.0000      -0.423164       -11.5149
 256   2.0000      -0.420226       -11.4349
 257   2.0000      -0.419392       -11.4122
 258   2.0000      -0.412851       -11.2342
 259   2.0000      -0.411090       -11.1863
 260   2.0000      -0.409957       -11.1555
 261   2.0000      -0.406433       -11.0596
 262   2.0000      -0.405680       -11.0391
 263   2.0000      -0.401198       -10.9172
 264   2.0000      -0.393074       -10.6961
 265   2.0000      -0.389460       -10.5978
 266   2.0000      -0.387712       -10.5502
 267   2.0000      -0.384494       -10.4626
 268   2.0000      -0.383935       -10.4474
 269   2.0000      -0.383312       -10.4305
 270   2.0000      -0.377050       -10.2601
 271   2.0000      -0.375251       -10.2111
 272   2.0000      -0.374619       -10.1939
 273   2.0000      -0.373185       -10.1549
 274   2.0000      -0.372074       -10.1246
 275   2.0000      -0.370320       -10.0769
 276   2.0000      -0.359704        -9.7880
 277   2.0000      -0.355951        -9.6859
 278   2.0000      -0.349722        -9.5164
 279   2.0000      -0.345069        -9.3898
 280   2.0000      -0.339025        -9.2253
 281   2.0000      -0.333025        -9.0621
 282   2.0000      -0.328830        -8.9479
 283   2.0000      -0.322894        -8.7864
 284   2.0000      -0.322224        -8.7682
 285   2.0000      -0.314450        -8.5566
 286   2.0000      -0.310263        -8.4427
 287   2.0000      -0.307895        -8.3783
 288   2.0000      -0.294191        -8.0054
 289   2.0000      -0.288273        -7.8443
 290   2.0000      -0.286050        -7.7838
 291   2.0000      -0.273101        -7.4315
 292   2.0000      -0.257760        -7.0140
 293   2.0000      -0.255555        -6.9540
 294   2.0000      -0.198360        -5.3977
 295   0.0000      -0.099893        -2.7182
 296   0.0000      -0.068629        -1.8675
 297   0.0000      -0.062063        -1.6888
 298   0.0000      -0.046918        -1.2767
 299   0.0000      -0.029125        -0.7925

MULLIKEN ATOMIC CHARGES
-----------------------
   0 C :    0.304858
   1 C :   -0.348517
   2 C :   -0.181997
   3 N :    0.150589
   4 C :   -0.192210
   5 N :    0.157230
   6 C :    0.023408
   7 C :   -0.017549
   8 C :   -0.062905
   9 C :    0.118638
  10 C :   -0.091760
  11 C :   -0.022883
  12 S :    0.186972
  13 C :   -0.123132
  14 C :    0.039474
  15 Br:    0.024616
  16 C :    0.157499
  17 O :   -0.144687
  18 C :   -0.075254
  19 C :   -0.035597
  20 C :    0.119294
  21 O :   -0.206011
  22 C :   -0.011628
  23 C :    0.179371
  24 O :   -0.140972
  25 N :   -0.162997
  26 C :    0.167643
  27 O :   -0.141201
  28 C :   -0.052821
  29 C :    0.097599
  30 C :   -0.036534
  31 C :    0.002417
  32 C :    0.059431
  33 C :   -0.103102
  34 S :    0.146729
  35 C :   -0.158827
  36 C :    0.129683
  37 C :   -0.117779
  38 C :    0.044322
  39 C :    0.009246
  40 C :   -0.119749
  41 C :    0.013308
  42 C :    0.037531
  43 C :    0.118527
  44 C :    0.050139
  45 C :   -0.108078
  46 S :    0.117001
  47 C :   -0.140308
  48 C :   -0.049000
  49 C :    0.013444
  50 C :   -0.032429
  51 C :   -0.009401
  52 C :    0.033909
  53 C :    0.028057
  54 C :   -0.063205
  55 S :    0.064100
  56 C :   -0.027872
  57 C :    0.033834
  58 C :    0.021982
  59 C :    0.028150
  60 S :    0.105355
  61 C :   -0.109662
  62 C :    0.033945
  63 C :    0.118330
  64 O :   -0.322290
  65 C :    0.210275
  66 C :    0.223846
  67 O :   -0.329639
  68 C :    0.181186
  69 C :   -0.202663
  70 C :    0.070227
  71 C :    0.043447
  72 N :   -0.320226
  73 S :    0.488023
  74 N :   -0.274393
  75 H :   -0.008733
  76 H :   -0.005685
  77 H :   -0.002595
  78 H :    0.031773
  79 H :    0.139121
  80 H :    0.009366
  81 H :    0.014417
  82 H :    0.027026
  83 H :   -0.003129
  84 H :    0.007748
  85 H :    0.014647
  86 H :    0.019287
  87 H :    0.024206
  88 H :    0.017452
  89 H :    0.010408
  90 H :    0.012039
  91 H :    0.015759
  92 H :    0.005833
  93 H :    0.019223
  94 H :    0.006492
  95 H :    0.003761
  96 H :   -0.021669
  97 H :   -0.017918
  98 H :   -0.016071
  99 H :   -0.021578
 100 H :   -0.016855
 101 H :   -0.009253
 102 H :    0.025128
 103 H :    0.029401
 104 H :    0.013960
 105 H :    0.029623
 106 H :    0.037745
 107 H :    0.029886
 108 H :   -0.037173
Sum of atomic charges:   -0.0000000

LOEWDIN ATOMIC CHARGES
----------------------
   0 C :    0.074939
   1 C :   -0.137143
   2 C :   -0.017784
   3 N :   -0.051487
   4 C :   -0.020965
   5 N :   -0.050716
   6 C :   -0.019950
   7 C :   -0.045185
   8 C :    0.025789
   9 C :   -0.030840
  10 C :   -0.143037
  11 C :   -0.009726
  12 S :    0.432607
  13 C :   -0.270762
  14 C :   -0.069605
  15 Br:    0.137713
  16 C :    0.088504
  17 O :   -0.130837
  18 C :   -0.072995
  19 C :    0.047583
  20 C :    0.043338
  21 O :    0.018149
  22 C :   -0.048015
  23 C :    0.089201
  24 O :   -0.148321
  25 N :   -0.001763
  26 C :    0.085899
  27 O :   -0.159203
  28 C :   -0.107060
  29 C :    0.091835
  30 C :   -0.057487
  31 C :    0.034268
  32 C :   -0.074715
  33 C :   -0.151889
  34 S :    0.434176
  35 C :   -0.176899
  36 C :   -0.039064
  37 C :   -0.022993
  38 C :   -0.029671
  39 C :   -0.050763
  40 C :   -0.015416
  41 C :   -0.032198
  42 C :   -0.050623
  43 C :   -0.040973
  44 C :   -0.060234
  45 C :   -0.166774
  46 S :    0.404065
  47 C :   -0.179487
  48 C :   -0.026809
  49 C :   -0.029371
  50 C :   -0.070849
  51 C :   -0.138547
  52 C :   -0.041553
  53 C :   -0.028293
  54 C :   -0.183673
  55 S :    0.358714
  56 C :   -0.186517
  57 C :   -0.036698
  58 C :   -0.030708
  59 C :   -0.136876
  60 S :    0.409840
  61 C :   -0.054877
  62 C :   -0.058707
  63 C :    0.047171
  64 O :   -0.099038
  65 C :    0.079220
  66 C :    0.042374
  67 O :   -0.096392
  68 C :    0.079026
  69 C :   -0.090229
  70 C :   -0.053520
  71 C :   -0.043968
  72 N :   -0.295846
  73 S :    0.616132
  74 N :   -0.295634
  75 H :    0.042103
  76 H :    0.041024
  77 H :    0.039239
  78 H :    0.051616
  79 H :    0.095479
  80 H :    0.042441
  81 H :    0.034537
  82 H :    0.025723
  83 H :    0.028033
  84 H :    0.024552
  85 H :    0.024644
  86 H :    0.027181
  87 H :    0.023114
  88 H :    0.033260
  89 H :    0.026642
  90 H :    0.021776
  91 H :    0.025088
  92 H :    0.022400
  93 H :    0.024660
  94 H :    0.027322
  95 H :    0.023816
  96 H :    0.029291
  97 H :    0.031039
  98 H :    0.030675
  99 H :    0.027570
 100 H :    0.030450
 101 H :    0.034884
 102 H :    0.020932
 103 H :    0.015007
 104 H :    0.014354
 105 H :    0.018561
 106 H :    0.029253
 107 H :    0.019354
 108 H :    0.036116

  Mayer bond orders larger than 0.100000
B(  0-C ,  1-C ) :   1.6341 B(  0-C ,  6-C ) :   1.0114 B(  0-C , 18-C ) :   1.0803
B(  1-C ,  2-C ) :   1.1432 B(  1-C ,  4-C ) :   1.1449 B(  2-C ,  3-N ) :   2.9667
B(  4-C ,  5-N ) :   2.9757 B(  6-C ,  7-C ) :   1.2707 B(  6-C , 11-C ) :   1.4029
B(  7-C ,  8-C ) :   1.4303 B(  7-C , 16-C ) :   0.9410 B(  8-C ,  9-C ) :   1.2461
B(  8-C , 75-H ) :   1.0160 B(  9-C , 10-C ) :   1.3021 B(  9-C , 14-C ) :   1.1639
B( 10-C , 11-C ) :   1.3374 B( 10-C , 12-S ) :   1.0863 B( 11-C , 76-H ) :   0.9791
B( 12-S , 13-C ) :   1.0854 B( 13-C , 14-C ) :   1.6186 B( 13-C , 15-Br) :   1.0192
B( 14-C , 77-H ) :   0.9998 B( 16-C , 17-O ) :   2.2220 B( 16-C , 18-C ) :   0.9297
B( 18-C , 19-C ) :   1.6005 B( 19-C , 20-C ) :   1.1680 B( 19-C , 78-H ) :   0.9327
B( 20-C , 21-O ) :   1.1111 B( 20-C , 22-C ) :   1.4357 B( 21-O , 29-C ) :   1.1752
B( 22-C , 23-C ) :   0.8635 B( 22-C , 28-C ) :   1.3131 B( 23-C , 24-O ) :   2.2439
B( 23-C , 25-N ) :   1.0898 B( 25-N , 26-C ) :   1.0744 B( 25-N , 79-H ) :   0.9149
B( 26-C , 27-O ) :   2.2706 B( 26-C , 28-C ) :   0.8800 B( 28-C , 29-C ) :   1.3499
B( 29-C , 30-C ) :   1.1770 B( 30-C , 31-C ) :   1.6571 B( 30-C , 80-H ) :   0.9624
B( 31-C , 32-C ) :   1.0273 B( 31-C , 81-H ) :   0.9774 B( 32-C , 33-C ) :   1.5822
B( 32-C , 36-C ) :   1.1324 B( 33-C , 34-S ) :   1.1473 B( 33-C , 82-H ) :   0.9596
B( 34-S , 35-C ) :   1.0721 B( 35-C , 36-C ) :   1.3809 B( 35-C , 47-C ) :   1.3770
B( 36-C , 37-C ) :   1.2422 B( 37-C , 38-C ) :   1.0693 B( 37-C , 40-C ) :   1.5196
B( 38-C , 39-C ) :   1.1023 B( 38-C , 83-H ) :   0.9101 B( 38-C , 84-H ) :   0.9246
B( 39-C , 85-H ) :   0.9588 B( 39-C , 86-H ) :   0.9661 B( 39-C , 87-H ) :   0.9651
B( 40-C , 41-C ) :   1.0583 B( 40-C , 43-C ) :   1.2633 B( 41-C , 42-C ) :   1.1042
B( 41-C , 88-H ) :   0.9109 B( 41-C , 89-H ) :   0.9180 B( 42-C , 90-H ) :   0.9598
B( 42-C , 91-H ) :   0.9658 B( 42-C , 92-H ) :   0.9642 B( 43-C , 44-C ) :   1.1654
B( 43-C , 47-C ) :   1.3669 B( 44-C , 45-C ) :   1.6404 B( 44-C , 48-C ) :   0.9801
B( 45-C , 46-S ) :   1.1013 B( 45-C , 93-H ) :   0.9655 B( 46-S , 47-C ) :   1.0816
B( 48-C , 49-C ) :   1.7485 B( 48-C , 94-H ) :   0.9540 B( 49-C , 50-C ) :   1.1137
B( 49-C , 95-H ) :   0.9723 B( 50-C , 51-C ) :   1.6092 B( 50-C , 96-H ) :   0.9801
B( 51-C , 52-C ) :   1.1254 B( 51-C , 55-S ) :   1.0280 B( 52-C , 53-C ) :   1.6029
B( 52-C , 97-H ) :   0.9981 B( 53-C , 54-C ) :   1.1804 B( 53-C , 98-H ) :   0.9934
B( 54-C , 55-S ) :   1.0346 B( 54-C , 56-C ) :   1.5277 B( 56-C , 57-C ) :   1.1690
B( 56-C , 60-S ) :   1.0076 B( 57-C , 58-C ) :   1.6030 B( 57-C , 99-H ) :   0.9923
B( 58-C , 59-C ) :   1.1262 B( 58-C ,100-H ) :   1.0014 B( 59-C , 60-S ) :   1.0414
B( 59-C , 61-C ) :   1.5654 B( 61-C , 62-C ) :   1.1597 B( 61-C ,101-H ) :   0.9505
B( 62-C , 63-C ) :   1.4311 B( 62-C , 69-C ) :   0.1112 B( 62-C , 71-C ) :   1.1505
B( 63-C , 64-O ) :   1.1854 B( 63-C , 66-C ) :   1.1737 B( 64-O , 65-C ) :   0.9324
B( 65-C ,102-H ) :   0.9768 B( 65-C ,103-H ) :   0.9745 B( 65-C ,104-H ) :   0.9739
B( 66-C , 67-O ) :   1.1313 B( 66-C , 69-C ) :   1.3718 B( 67-O , 68-C ) :   0.9582
B( 68-C ,105-H ) :   0.9690 B( 68-C ,106-H ) :   0.9773 B( 68-C ,107-H ) :   0.9691
B( 69-C , 70-C ) :   1.1436 B( 69-C ,108-H ) :   1.0369 B( 70-C , 71-C ) :   1.1633
B( 70-C , 74-N ) :   1.5426 B( 71-C , 72-N ) :   1.5124 B( 72-N , 73-S ) :   1.2262
B( 72-N , 74-N ) :   0.1420 B( 73-S , 74-N ) :   1.2493

-----------------------------------------------------------------------------
         ABSORPTION SPECTRUM VIA TRANSITION ELECTRIC DIPOLE MOMENTS
-----------------------------------------------------------------------------
State   Energy  Wavelength   fosc         T2         TX        TY        TZ
        (cm-1)    (nm)                  (au**2)     (au)      (au)      (au)
-----------------------------------------------------------------------------
   0   14188.6    704.8   0.004921524   0.11419  -0.28269   0.11972  -0.14122
   1   14512.9    689.0   0.959690619  21.76974   4.16080  -1.61288   1.36239
   2   18646.9    536.3   0.768784287  13.57295   2.25038   2.90261   0.28915
   3   20919.8    478.0   0.364614026   5.73788  -1.54184   0.42369  -1.78356
   4   22859.5    437.5   0.000604190   0.00870  -0.05103  -0.01425   0.07677
   5   24503.7    408.1   0.032766577   0.44023   0.16074   0.14579  -0.62700
   6   24966.7    400.5   0.039157338   0.51633   0.26909   0.20794  -0.63299
   7   25167.1    397.3   0.029604959   0.38726  -0.34293  -0.28144   0.43641
   8   25814.5    387.4   0.070242483   0.89580   0.91052   0.17496  -0.19009
   9   26081.8    383.4   0.148791183   1.87808  -0.21450  -0.03045   1.35320
  10   26728.4    374.1   0.129410545   1.59394  -0.65368  -0.01966   1.07993
  11   28394.6    352.2   0.032162958   0.37290   0.41184  -0.41379   0.17908
  12   28416.4    351.9   0.102061568   1.18241  -0.48601   0.01616  -0.97260
  13   28873.8    346.3   0.883660651  10.07527   1.80880   1.34653  -2.23392
  14   29132.2    343.3   0.359886415   4.06694   0.77430   1.82919   0.34854
  15   29270.3    341.6   0.018012046   0.20259  -0.03292   0.44887  -0.00380
  16   30197.1    331.2   0.018556395   0.20230  -0.00568   0.02823   0.44886
  17   30802.9    324.6   0.004676070   0.04998  -0.10917  -0.19495   0.00736
  18   31032.0    322.2   0.010324400   0.10953  -0.14723  -0.28743  -0.07237
  19   31347.9    319.0   0.005805537   0.06097   0.10699   0.10057  -0.19852
  20   31548.7    317.0   0.201051015   2.09797   0.73516  -0.04358   1.24725
  21   32506.0    307.6   0.418545037   4.23891   1.66304   0.20475  -1.19636
  22   32611.6    306.6   0.015595189   0.15743   0.35987   0.11120  -0.12474
  23   32777.1    305.1   0.183198688   1.84004   1.00851   0.27243  -0.86529
  24   32794.5    304.9   0.059959461   0.60191  -0.33482   0.03894   0.69878
  25   33604.0    297.6   0.000180889   0.00177  -0.01028  -0.04037   0.00608
  26   34296.9    291.6   0.034054235   0.32688   0.14108  -0.13722  -0.53680
  27   34415.4    290.6   0.000022012   0.00021   0.00074   0.00400  -0.01393
  28   34489.9    289.9   0.072984178   0.69665   0.04272   0.06237  -0.83122
  29   34693.7    288.2   0.109777957   1.04169  -0.13686  -0.50936   0.87380
  30   34962.3    286.0   0.001648031   0.01552   0.01167   0.06910   0.10299
  31   35357.9    282.8   0.078107259   0.72724   0.68916   0.46650  -0.18625
  32   35778.2    279.5   0.028950348   0.26639   0.11852  -0.01084   0.50222
  33   36012.3    277.7   0.038296696   0.35010   0.36366   0.05010   0.46404
  34   36175.9    276.4   0.088321432   0.80375   0.48800  -0.21747   0.71994
  35   36578.7    273.4   0.110239323   0.99216  -0.00403  -0.08034  -0.99282
  36   36871.3    271.2   0.155915044   1.39211  -0.35451  -0.78686  -0.80454
  37   37052.9    269.9   0.059214549   0.52612   0.25486  -0.29141  -0.61338
  38   37397.9    267.4   0.055324281   0.48702  -0.36608  -0.36232  -0.47088
  39   37621.8    265.8   0.091425693   0.80003  -0.28714   0.38606   0.75401
  40   38030.9    262.9   0.015939484   0.13798   0.22127  -0.04357  -0.29516
  41   38222.9    261.6   0.030239994   0.26046   0.00833  -0.46679  -0.20613
  42   38314.6    261.0   0.049944267   0.42914  -0.16089   0.36437   0.52008
  43   38438.2    260.2   0.023166734   0.19842   0.04681   0.30380   0.32238
  44   38599.5    259.1   0.033661283   0.28709   0.10692  -0.26758  -0.45173
  45   38732.7    258.2   0.001828938   0.01555   0.03582   0.00329  -0.11938
  46   39140.6    255.5   0.006422659   0.05402   0.07788   0.10076  -0.19443
  47   39546.5    252.9   0.047706771   0.39714  -0.16750   0.33564  -0.50639
  48   39720.9    251.8   0.022960490   0.19030   0.13816   0.41314   0.02291
  49   39882.7    250.7   0.031419835   0.25936   0.17175   0.07312  -0.47382
  50   40013.1    249.9   0.066815004   0.54973   0.12659   0.72566  -0.08441
  51   40120.0    249.3   0.094085553   0.77204  -0.18963  -0.09397   0.85279
  52   40207.7    248.7   0.122568590   1.00357   0.65808   0.45688  -0.60146

FINAL SINGLE POINT ENERGY     -7876.261203227007

DIPOLE MOMENT
-------------
                                X             Y             Z
Electronic contribution:   -117.44838    -135.50480     131.30527
Nuclear contribution   :    115.48134     136.86740    -132.26855
                        -----------------------------------------
Total Dipole Moment    :     -1.96703       1.36260      -0.96329
                        -----------------------------------------
Magnitude (a.u.)       :      2.57950
Magnitude (Debye)      :      6.55657

Rotational constants in cm-1:     0.000631     0.000226     0.000185
Rotational constants in MHz :    18.909207     6.782005     5.539138

                             ****ORCA TERMINATED NORMALLY****
TOTAL RUN TIME: 0 days 0 hours 11 minutes 1 seconds 620 msec
