                         Program Version 4.2.0 -  RELEASE  -
|  1> # ORCA input file
|  2> # SCF done       -155.065952215073          0.000586057921
|  3> ! CAM-B3LYP def2-SVP def2/J RIJCOSX Grid4 TightSCF
|  4> %maxcore 5000
|  5> %tddft
|  6>     Mode sTDDFT
|  7>     Ethresh 5.0
|  8>     maxcore 5000
|  9> end
| 10>
| 11> %pal
| 12>   nprocs 6
| 13>   end
| 14> * xyz 0 1
| 15>    C       -3.81196        -1.41551         2.13916
| 16>    C       -2.78680        -1.26932         3.04389
| 17>    C       -2.05769        -2.34248         3.59072
| 18>    N       -1.42458        -3.17783         4.06082
| 19>    C       -2.35380        -0.03453         3.56606
| 20>    N       -1.96566         0.93277         4.04997
| 21>    C       -4.35624        -2.68326         1.66456
| 22>    C       -5.46848        -2.41112         0.83145
| 23>    C       -6.20037        -3.40188         0.22617
| 24>    C       -5.81725        -4.72848         0.45623
| 25>    C       -4.70459        -4.99038         1.28845
| 26>    C       -3.96316        -3.98627         1.90091
| 27>    S       -4.39989        -6.69571         1.43007
| 28>    C       -5.75467        -7.02785         0.38397
| 29>    C       -6.40308        -5.92138        -0.04962
| 30>   Br       -6.18310        -8.80457        -0.03961
| 31>    C       -5.66397        -0.94893         0.73362
| 32>    O       -6.48123        -0.37806         0.03754
| 33>    C       -4.59371        -0.35255         1.55741
| 34>    C       -4.24913         0.98169         1.54372
| 35>    C       -5.05682         2.05048         1.13766
| 36>    S       -4.30410         3.46181         0.45871
| 37>    C       -5.81173         4.25033         0.13320
| 38>    C       -6.88646         3.45241         0.58206
| 39>    C       -6.45405         2.23116         1.18328
| 40>    C       -7.38027         1.38904         1.81956
| 41>    C       -8.71043         1.69379         1.74666
| 42>    F       -9.61424         0.90920         2.35322
| 43>    C       -9.15185         2.83214         1.04381
| 44>    F      -10.47068         3.07748         0.95105
| 45>    C       -8.26598         3.70987         0.48394
| 46>    C       -5.73938         5.51437        -0.49957
| 47>    C       -6.71445         6.44142        -0.67420
| 48>    C       -6.46497         7.67007        -1.35448
| 49>    C       -7.34720         8.67343        -1.52401
| 50>    C       -8.75835         8.63817        -1.02093
| 51>    C       -6.97157         9.88189        -2.34360
| 52>    N       -7.71849         9.91739        -3.58477
| 53>    C       -7.46215         9.06736        -4.60335
| 54>    C       -8.31038         8.84455        -5.64239
| 55>    C       -8.01059         7.99529        -6.72086
| 56>    C       -8.84887         7.76166        -7.78073
| 57>    C       -8.62792         6.89994        -8.88036
| 58>    C       -9.64576         6.87085        -9.78626
| 59>    C      -10.73009         7.71333        -9.45878
| 60>    S      -10.41985         8.54155        -7.95126
| 61>    C      -11.89676         7.91733       -10.17406
| 62>    C      -12.29012         7.31484       -11.38647
| 63>    C      -13.50441         7.73464       -11.84472
| 64>    C      -14.13802         8.69513       -11.02348
| 65>    S      -13.12541         9.03994        -9.62977
| 66>    C      -15.35336         9.30300       -11.23724
| 67>    C      -15.91765        10.26372       -10.38877
| 68>    C      -17.12127        10.87228       -10.60763
| 69>    C      -17.66916        11.84829        -9.74525
| 70>    C      -18.86030        12.46362        -9.95053
| 71>    C      -19.40275        13.45380        -9.07292
| 72>    C      -20.57501        14.06275        -9.27142
| 73>    H       -7.04302        -3.16296        -0.40344
| 74>    H       -3.11961        -4.23561         2.52272
| 75>    H       -7.25835        -5.94255        -0.70008
| 76>    H       -3.22708         1.24022         1.79532
| 77>    H       -7.05899         0.52429         2.37440
| 78>    H       -8.64915         4.57090        -0.03409
| 79>    H       -4.74744         5.76750        -0.85758
| 80>    H       -7.70509         6.28239        -0.28509
| 81>    H       -5.46598         7.78846        -1.75614
| 82>    H       -8.79574         8.28865         0.00806
| 83>    H       -9.36703         7.96397        -1.62471
| 84>    H       -9.20712         9.62790        -1.05939
| 85>    H       -5.90582         9.86172        -2.58484
| 86>    H       -7.18693        10.80318        -1.79475
| 87>    H       -8.66266        10.27307        -3.53264
| 88>    H       -6.49413         8.58639        -4.57091
| 89>    H       -9.27239         9.34073        -5.65421
| 90>    H       -7.05955         7.47891        -6.71587
| 91>    H       -7.72182         6.32590        -8.96597
| 92>    H       -9.64361         6.27157       -10.67900
| 93>    H      -11.67315         6.59009       -11.88710
| 94>    H      -13.96513         7.38470       -12.75190
| 95>    H      -15.89945         9.01652       -12.12679
| 96>    H      -15.34884        10.53522        -9.50737
| 97>    H      -17.69301        10.60272       -11.48656
| 98>    H      -17.08773        12.11169        -8.87015
| 99>    H      -19.44848        12.20514       -10.82166
|100>    H      -18.80663        13.70560        -8.20483
|101>    H      -21.19005        13.83286       -10.12574
|102>    H      -20.95441        14.80531        -8.59147
|103> *
|104>
|105>                          ****END OF INPUT****

CARTESIAN COORDINATES (ANGSTROEM)
---------------------------------
  C     -3.811960   -1.415510    2.139160
  C     -2.786800   -1.269320    3.043890
  C     -2.057690   -2.342480    3.590720
  N     -1.424580   -3.177830    4.060820
  C     -2.353800   -0.034530    3.566060
  N     -1.965660    0.932770    4.049970
  C     -4.356240   -2.683260    1.664560
  C     -5.468480   -2.411120    0.831450
  C     -6.200370   -3.401880    0.226170
  C     -5.817250   -4.728480    0.456230
  C     -4.704590   -4.990380    1.288450
  C     -3.963160   -3.986270    1.900910
  S     -4.399890   -6.695710    1.430070
  C     -5.754670   -7.027850    0.383970
  C     -6.403080   -5.921380   -0.049620
  Br    -6.183100   -8.804570   -0.039610
  C     -5.663970   -0.948930    0.733620
  O     -6.481230   -0.378060    0.037540
  C     -4.593710   -0.352550    1.557410
  C     -4.249130    0.981690    1.543720
  C     -5.056820    2.050480    1.137660
  S     -4.304100    3.461810    0.458710
  C     -5.811730    4.250330    0.133200
  C     -6.886460    3.452410    0.582060
  C     -6.454050    2.231160    1.183280
  C     -7.380270    1.389040    1.819560
  C     -8.710430    1.693790    1.746660
  F     -9.614240    0.909200    2.353220
  C     -9.151850    2.832140    1.043810
  F    -10.470680    3.077480    0.951050
  C     -8.265980    3.709870    0.483940
  C     -5.739380    5.514370   -0.499570
  C     -6.714450    6.441420   -0.674200
  C     -6.464970    7.670070   -1.354480
  C     -7.347200    8.673430   -1.524010
  C     -8.758350    8.638170   -1.020930
  C     -6.971570    9.881890   -2.343600
  N     -7.718490    9.917390   -3.584770
  C     -7.462150    9.067360   -4.603350
  C     -8.310380    8.844550   -5.642390
  C     -8.010590    7.995290   -6.720860
  C     -8.848870    7.761660   -7.780730
  C     -8.627920    6.899940   -8.880360
  C     -9.645760    6.870850   -9.786260
  C    -10.730090    7.713330   -9.458780
  S    -10.419850    8.541550   -7.951260
  C    -11.896760    7.917330  -10.174060
  C    -12.290120    7.314840  -11.386470
  C    -13.504410    7.734640  -11.844720
  C    -14.138020    8.695130  -11.023480
  S    -13.125410    9.039940   -9.629770
  C    -15.353360    9.303000  -11.237240
  C    -15.917650   10.263720  -10.388770
  C    -17.121270   10.872280  -10.607630
  C    -17.669160   11.848290   -9.745250
  C    -18.860300   12.463620   -9.950530
  C    -19.402750   13.453800   -9.072920
  C    -20.575010   14.062750   -9.271420
  H     -7.043020   -3.162960   -0.403440
  H     -3.119610   -4.235610    2.522720
  H     -7.258350   -5.942550   -0.700080
  H     -3.227080    1.240220    1.795320
  H     -7.058990    0.524290    2.374400
  H     -8.649150    4.570900   -0.034090
  H     -4.747440    5.767500   -0.857580
  H     -7.705090    6.282390   -0.285090
  H     -5.465980    7.788460   -1.756140
  H     -8.795740    8.288650    0.008060
  H     -9.367030    7.963970   -1.624710
  H     -9.207120    9.627900   -1.059390
  H     -5.905820    9.861720   -2.584840
  H     -7.186930   10.803180   -1.794750
  H     -8.662660   10.273070   -3.532640
  H     -6.494130    8.586390   -4.570910
  H     -9.272390    9.340730   -5.654210
  H     -7.059550    7.478910   -6.715870
  H     -7.721820    6.325900   -8.965970
  H     -9.643610    6.271570  -10.679000
  H    -11.673150    6.590090  -11.887100
  H    -13.965130    7.384700  -12.751900
  H    -15.899450    9.016520  -12.126790
  H    -15.348840   10.535220   -9.507370
  H    -17.693010   10.602720  -11.486560
  H    -17.087730   12.111690   -8.870150
  H    -19.448480   12.205140  -10.821660
  H    -18.806630   13.705600   -8.204830
  H    -21.190050   13.832860  -10.125740
  H    -20.954410   14.805310   -8.591470

 Total Charge           Charge          ....    0
 Multiplicity           Mult            ....    1
 Number of Electrons    NEL             ....  458
 Basis Dimension        Dim             ....  996

ORBITAL ENERGIES
----------------

  NO   OCC          E(Eh)            E(eV)
   0   2.0000    -482.884112    -13139.9447
   1   2.0000     -88.987187     -2421.4645
   2   2.0000     -88.973470     -2421.0912
   3   2.0000     -88.929415     -2419.8924
   4   2.0000     -88.926488     -2419.8128
   5   2.0000     -62.561797     -1702.3930
   6   2.0000     -56.395747     -1534.6063
   7   2.0000     -56.393032     -1534.5324
   8   2.0000     -56.393003     -1534.5316
   9   2.0000     -24.795037      -674.7073
  10   2.0000     -24.794889      -674.7032
  11   2.0000     -19.212197      -522.7905
  12   2.0000     -14.444487      -393.0545
  13   2.0000     -14.411862      -392.1667
  14   2.0000     -14.411540      -392.1579
  15   2.0000     -10.378367      -282.4097
  16   2.0000     -10.377765      -282.3933
  17   2.0000     -10.363325      -282.0004
  18   2.0000     -10.356979      -281.8277
  19   2.0000     -10.340870      -281.3894
  20   2.0000     -10.337798      -281.3058
  21   2.0000     -10.337219      -281.2900
  22   2.0000     -10.327165      -281.0164
  23   2.0000     -10.323437      -280.9150
  24   2.0000     -10.322890      -280.9001
  25   2.0000     -10.321376      -280.8589
  26   2.0000     -10.320126      -280.8249
  27   2.0000     -10.315122      -280.6887
  28   2.0000     -10.314751      -280.6786
  29   2.0000     -10.310633      -280.5666
  30   2.0000     -10.309899      -280.5466
  31   2.0000     -10.306356      -280.4502
  32   2.0000     -10.305080      -280.4155
  33   2.0000     -10.304849      -280.4092
  34   2.0000     -10.304664      -280.4042
  35   2.0000     -10.303108      -280.3618
  36   2.0000     -10.302542      -280.3464
  37   2.0000     -10.301955      -280.3304
  38   2.0000     -10.298194      -280.2281
  39   2.0000     -10.297432      -280.2074
  40   2.0000     -10.297150      -280.1997
  41   2.0000     -10.295331      -280.1502
  42   2.0000     -10.294781      -280.1352
  43   2.0000     -10.289992      -280.0049
  44   2.0000     -10.289651      -279.9956
  45   2.0000     -10.289581      -279.9937
  46   2.0000     -10.288089      -279.9531
  47   2.0000     -10.287937      -279.9490
  48   2.0000     -10.287055      -279.9250
  49   2.0000     -10.275798      -279.6187
  50   2.0000     -10.273487      -279.5558
  51   2.0000     -10.272681      -279.5339
  52   2.0000     -10.270956      -279.4869
  53   2.0000     -10.266077      -279.3542
  54   2.0000     -10.260674      -279.2071
  55   2.0000     -10.259295      -279.1696
  56   2.0000     -10.257484      -279.1203
  57   2.0000     -10.257287      -279.1150
  58   2.0000     -10.257189      -279.1123
  59   2.0000     -10.255242      -279.0593
  60   2.0000     -10.254110      -279.0285
  61   2.0000     -10.248510      -278.8761
  62   2.0000      -8.791203      -239.2208
  63   2.0000      -8.082636      -219.9397
  64   2.0000      -8.069467      -219.5814
  65   2.0000      -8.025755      -218.3919
  66   2.0000      -8.022807      -218.3117
  67   2.0000      -6.627478      -180.3428
  68   2.0000      -6.612953      -179.9476
  69   2.0000      -6.612743      -179.9419
  70   2.0000      -6.051528      -164.6705
  71   2.0000      -6.047511      -164.5611
  72   2.0000      -6.045422      -164.5043
  73   2.0000      -6.039144      -164.3334
  74   2.0000      -6.034887      -164.2176
  75   2.0000      -6.030691      -164.1034
  76   2.0000      -5.995490      -163.1456
  77   2.0000      -5.992535      -163.0652
  78   2.0000      -5.991559      -163.0386
  79   2.0000      -5.988610      -162.9584
  80   2.0000      -5.986602      -162.9037
  81   2.0000      -5.983662      -162.8237
  82   2.0000      -2.743392       -74.6515
  83   2.0000      -2.739236       -74.5384
  84   2.0000      -2.739135       -74.5357
  85   2.0000      -2.727565       -74.2208
  86   2.0000      -2.727557       -74.2206
  87   2.0000      -1.316616       -35.8269
  88   2.0000      -1.301805       -35.4239
  89   2.0000      -1.126789       -30.6615
  90   2.0000      -1.047024       -28.4910
  91   2.0000      -1.021654       -27.8006
  92   2.0000      -1.019494       -27.7418
  93   2.0000      -1.010101       -27.4863
  94   2.0000      -0.990331       -26.9483
  95   2.0000      -0.986883       -26.8545
  96   2.0000      -0.978716       -26.6322
  97   2.0000      -0.958306       -26.0768
  98   2.0000      -0.957011       -26.0416
  99   2.0000      -0.944588       -25.7035
 100   2.0000      -0.938144       -25.5282
 101   2.0000      -0.918450       -24.9923
 102   2.0000      -0.905688       -24.6450
 103   2.0000      -0.901075       -24.5195
 104   2.0000      -0.895086       -24.3565
 105   2.0000      -0.886376       -24.1195
 106   2.0000      -0.883220       -24.0336
 107   2.0000      -0.876100       -23.8399
 108   2.0000      -0.871539       -23.7158
 109   2.0000      -0.856892       -23.3172
 110   2.0000      -0.850977       -23.1563
 111   2.0000      -0.847905       -23.0727
 112   2.0000      -0.830639       -22.6028
 113   2.0000      -0.829150       -22.5623
 114   2.0000      -0.826677       -22.4950
 115   2.0000      -0.818826       -22.2814
 116   2.0000      -0.805295       -21.9132
 117   2.0000      -0.801395       -21.8071
 118   2.0000      -0.792077       -21.5535
 119   2.0000      -0.779743       -21.2179
 120   2.0000      -0.761658       -20.7258
 121   2.0000      -0.755342       -20.5539
 122   2.0000      -0.748596       -20.3703
 123   2.0000      -0.746979       -20.3263
 124   2.0000      -0.725500       -19.7419
 125   2.0000      -0.716430       -19.4951
 126   2.0000      -0.710872       -19.3438
 127   2.0000      -0.696639       -18.9565
 128   2.0000      -0.689825       -18.7711
 129   2.0000      -0.683450       -18.5976
 130   2.0000      -0.677584       -18.4380
 131   2.0000      -0.670825       -18.2541
 132   2.0000      -0.660749       -17.9799
 133   2.0000      -0.659487       -17.9455
 134   2.0000      -0.654568       -17.8117
 135   2.0000      -0.644865       -17.5477
 136   2.0000      -0.631633       -17.1876
 137   2.0000      -0.630129       -17.1467
 138   2.0000      -0.627008       -17.0618
 139   2.0000      -0.624757       -17.0005
 140   2.0000      -0.620026       -16.8718
 141   2.0000      -0.618328       -16.8256
 142   2.0000      -0.616261       -16.7693
 143   2.0000      -0.610640       -16.6163
 144   2.0000      -0.601739       -16.3741
 145   2.0000      -0.599017       -16.3001
 146   2.0000      -0.593053       -16.1378
 147   2.0000      -0.591292       -16.0899
 148   2.0000      -0.584017       -15.8919
 149   2.0000      -0.581990       -15.8368
 150   2.0000      -0.578886       -15.7523
 151   2.0000      -0.577209       -15.7066
 152   2.0000      -0.566535       -15.4162
 153   2.0000      -0.560359       -15.2482
 154   2.0000      -0.552973       -15.0472
 155   2.0000      -0.549878       -14.9629
 156   2.0000      -0.548185       -14.9169
 157   2.0000      -0.543549       -14.7907
 158   2.0000      -0.541958       -14.7474
 159   2.0000      -0.536351       -14.5949
 160   2.0000      -0.535797       -14.5798
 161   2.0000      -0.533679       -14.5222
 162   2.0000      -0.532127       -14.4799
 163   2.0000      -0.525961       -14.3121
 164   2.0000      -0.523428       -14.2432
 165   2.0000      -0.519210       -14.1284
 166   2.0000      -0.516690       -14.0599
 167   2.0000      -0.510888       -13.9020
 168   2.0000      -0.507787       -13.8176
 169   2.0000      -0.505490       -13.7551
 170   2.0000      -0.503759       -13.7080
 171   2.0000      -0.498239       -13.5578
 172   2.0000      -0.496566       -13.5123
 173   2.0000      -0.492512       -13.4019
 174   2.0000      -0.490268       -13.3409
 175   2.0000      -0.487755       -13.2725
 176   2.0000      -0.485750       -13.2179
 177   2.0000      -0.481961       -13.1148
 178   2.0000      -0.478901       -13.0316
 179   2.0000      -0.477916       -13.0048
 180   2.0000      -0.475094       -12.9280
 181   2.0000      -0.470653       -12.8071
 182   2.0000      -0.468456       -12.7473
 183   2.0000      -0.467423       -12.7192
 184   2.0000      -0.460823       -12.5396
 185   2.0000      -0.458567       -12.4782
 186   2.0000      -0.456341       -12.4177
 187   2.0000      -0.455134       -12.3848
 188   2.0000      -0.452784       -12.3209
 189   2.0000      -0.447730       -12.1833
 190   2.0000      -0.445948       -12.1349
 191   2.0000      -0.445640       -12.1265
 192   2.0000      -0.445359       -12.1188
 193   2.0000      -0.441177       -12.0050
 194   2.0000      -0.439744       -11.9661
 195   2.0000      -0.439201       -11.9513
 196   2.0000      -0.438003       -11.9187
 197   2.0000      -0.436346       -11.8736
 198   2.0000      -0.426658       -11.6099
 199   2.0000      -0.424439       -11.5496
 200   2.0000      -0.424273       -11.5450
 201   2.0000      -0.421482       -11.4691
 202   2.0000      -0.420186       -11.4338
 203   2.0000      -0.417821       -11.3695
 204   2.0000      -0.413027       -11.2390
 205   2.0000      -0.410094       -11.1592
 206   2.0000      -0.409054       -11.1309
 207   2.0000      -0.405380       -11.0309
 208   2.0000      -0.404506       -11.0072
 209   2.0000      -0.389084       -10.5875
 210   2.0000      -0.386171       -10.5082
 211   2.0000      -0.385112       -10.4794
 212   2.0000      -0.381220       -10.3735
 213   2.0000      -0.373429       -10.1615
 214   2.0000      -0.364524        -9.9192
 215   2.0000      -0.360991        -9.8231
 216   2.0000      -0.343169        -9.3381
 217   2.0000      -0.329288        -8.9604
 218   2.0000      -0.328271        -8.9327
 219   2.0000      -0.322930        -8.7874
 220   2.0000      -0.321215        -8.7407
 221   2.0000      -0.317456        -8.6384
 222   2.0000      -0.312476        -8.5029
 223   2.0000      -0.307673        -8.3722
 224   2.0000      -0.291626        -7.9355
 225   2.0000      -0.284246        -7.7347
 226   2.0000      -0.256554        -6.9812
 227   2.0000      -0.244693        -6.6584
 228   2.0000      -0.186100        -5.0640
 229   0.0000      -0.105545        -2.8720
 230   0.0000      -0.067814        -1.8453
 231   0.0000      -0.061564        -1.6752
 232   0.0000      -0.037409        -1.0180
 233   0.0000      -0.010019        -0.2726

MULLIKEN ATOMIC CHARGES
-----------------------
   0 C :    0.296991
   1 C :   -0.342554
   2 C :   -0.186768
   3 N :    0.147228
   4 C :   -0.209802
   5 N :    0.157293
   6 C :    0.020940
   7 C :   -0.013251
   8 C :   -0.073218
   9 C :    0.116576
  10 C :   -0.090495
  11 C :   -0.025092
  12 S :    0.184459
  13 C :   -0.123540
  14 C :    0.038218
  15 Br:    0.022056
  16 C :    0.120018
  17 O :   -0.152316
  18 C :   -0.124314
  19 C :    0.021595
  20 C :   -0.140860
  21 S :    0.191968
  22 C :   -0.101283
  23 C :    0.128945
  24 C :    0.153090
  25 C :   -0.066965
  26 C :    0.220424
  27 F :   -0.172142
  28 C :    0.233666
  29 F :   -0.177722
  30 C :   -0.128697
  31 C :    0.044075
  32 C :    0.005313
  33 C :    0.004199
  34 C :   -0.180984
  35 C :    0.077680
  36 C :    0.197337
  37 N :   -0.155938
  38 C :    0.062926
  39 C :   -0.024292
  40 C :   -0.008251
  41 C :   -0.037343
  42 C :    0.040226
  43 C :    0.011388
  44 C :   -0.039782
  45 S :    0.051358
  46 C :   -0.053885
  47 C :    0.020888
  48 C :    0.029536
  49 C :   -0.013085
  50 S :    0.055598
  51 C :   -0.024363
  52 C :    0.012942
  53 C :    0.009973
  54 C :    0.022659
  55 C :    0.001512
  56 C :    0.008423
  57 C :   -0.025359
  58 H :   -0.012183
  59 H :   -0.007002
  60 H :   -0.003593
  61 H :    0.028084
  62 H :   -0.003326
  63 H :   -0.016176
  64 H :   -0.010492
  65 H :   -0.009220
  66 H :   -0.025539
  67 H :    0.041413
  68 H :    0.048604
  69 H :    0.008787
  70 H :    0.013187
  71 H :    0.024049
  72 H :    0.121000
  73 H :   -0.003822
  74 H :   -0.015080
  75 H :   -0.024929
  76 H :   -0.021006
  77 H :   -0.021281
  78 H :   -0.018954
  79 H :   -0.021293
  80 H :   -0.025573
  81 H :   -0.008584
  82 H :   -0.022421
  83 H :   -0.020479
  84 H :   -0.021694
  85 H :   -0.015033
  86 H :    0.009205
  87 H :    0.016153
Sum of atomic charges:   -0.0000000

LOEWDIN ATOMIC CHARGES
----------------------
   0 C :    0.074405
   1 C :   -0.147374
   2 C :   -0.019129
   3 N :   -0.057382
   4 C :   -0.025830
   5 N :   -0.057262
   6 C :   -0.021913
   7 C :   -0.048846
   8 C :    0.019378
   9 C :   -0.033366
  10 C :   -0.145414
  11 C :   -0.010369
  12 S :    0.431346
  13 C :   -0.272107
  14 C :   -0.070598
  15 Br:    0.135231
  16 C :    0.072580
  17 O :   -0.146328
  18 C :   -0.113677
  19 C :    0.041696
  20 C :   -0.190502
  21 S :    0.505364
  22 C :   -0.135174
  23 C :   -0.047790
  24 C :   -0.010287
  25 C :   -0.017737
  26 C :    0.073580
  27 F :   -0.050216
  28 C :    0.067022
  29 F :   -0.056394
  30 C :   -0.040247
  31 C :   -0.052107
  32 C :    0.000471
  33 C :   -0.053885
  34 C :   -0.022401
  35 C :   -0.054396
  36 C :    0.044150
  37 N :   -0.005179
  38 C :    0.043640
  39 C :   -0.116523
  40 C :   -0.038551
  41 C :   -0.173512
  42 C :   -0.030727
  43 C :   -0.049887
  44 C :   -0.171377
  45 S :    0.352935
  46 C :   -0.195740
  47 C :   -0.031741
  48 C :   -0.047818
  49 C :   -0.140864
  50 S :    0.356355
  51 C :   -0.073022
  52 C :   -0.029388
  53 C :   -0.032895
  54 C :   -0.024558
  55 C :   -0.033992
  56 C :   -0.026707
  57 C :   -0.056661
  58 H :    0.040266
  59 H :    0.040814
  60 H :    0.038644
  61 H :    0.044521
  62 H :    0.043314
  63 H :    0.037979
  64 H :    0.030852
  65 H :    0.026280
  66 H :    0.025462
  67 H :    0.039832
  68 H :    0.045010
  69 H :    0.028338
  70 H :    0.029204
  71 H :    0.032194
  72 H :    0.077758
  73 H :    0.026228
  74 H :    0.017811
  75 H :    0.029383
  76 H :    0.030086
  77 H :    0.028545
  78 H :    0.029312
  79 H :    0.029882
  80 H :    0.029032
  81 H :    0.020531
  82 H :    0.024520
  83 H :    0.025434
  84 H :    0.023860
  85 H :    0.026160
  86 H :    0.019227
  87 H :    0.021235

  Mayer bond orders larger than 0.100000
B(  0-C ,  1-C ) :   1.6246 B(  0-C ,  6-C ) :   1.0038 B(  0-C , 18-C ) :   1.0886
B(  1-C ,  2-C ) :   1.1430 B(  1-C ,  4-C ) :   1.1441 B(  2-C ,  3-N ) :   2.9690
B(  4-C ,  5-N ) :   2.9954 B(  6-C ,  7-C ) :   1.2726 B(  6-C , 11-C ) :   1.4154
B(  7-C ,  8-C ) :   1.4306 B(  7-C , 16-C ) :   0.9342 B(  8-C ,  9-C ) :   1.2405
B(  8-C , 58-H ) :   1.0175 B(  9-C , 10-C ) :   1.3124 B(  9-C , 14-C ) :   1.1625
B( 10-C , 11-C ) :   1.3222 B( 10-C , 12-S ) :   1.0842 B( 11-C , 59-H ) :   0.9811
B( 12-S , 13-C ) :   1.0870 B( 13-C , 14-C ) :   1.6178 B( 13-C , 15-Br) :   1.0181
B( 14-C , 60-H ) :   1.0007 B( 16-C , 17-O ) :   2.2048 B( 16-C , 18-C ) :   0.9682
B( 18-C , 19-C ) :   1.5184 B( 19-C , 20-C ) :   1.2586 B( 19-C , 61-H ) :   0.9328
B( 20-C , 21-S ) :   1.1088 B( 20-C , 24-C ) :   1.2990 B( 21-S , 22-C ) :   1.2102
B( 22-C , 23-C ) :   1.3035 B( 22-C , 31-C ) :   1.1324 B( 23-C , 24-C ) :   1.2442
B( 23-C , 30-C ) :   1.1575 B( 24-C , 25-C ) :   1.1931 B( 25-C , 26-C ) :   1.4918
B( 25-C , 30-C ) :   0.1078 B( 25-C , 62-H ) :   0.9871 B( 26-C , 27-F ) :   1.1348
B( 26-C , 28-C ) :   1.1681 B( 28-C , 29-F ) :   1.1329 B( 28-C , 30-C ) :   1.4982
B( 30-C , 63-H ) :   0.9964 B( 31-C , 32-C ) :   1.6693 B( 31-C , 64-H ) :   0.9541
B( 32-C , 33-C ) :   1.1311 B( 32-C , 65-H ) :   0.9669 B( 33-C , 34-C ) :   1.7460
B( 33-C , 66-H ) :   0.9764 B( 34-C , 35-C ) :   1.0650 B( 34-C , 36-C ) :   1.0433
B( 35-C , 67-H ) :   0.9452 B( 35-C , 68-H ) :   0.9477 B( 35-C , 69-H ) :   0.9525
B( 36-C , 37-N ) :   1.0255 B( 36-C , 70-H ) :   0.9414 B( 36-C , 71-H ) :   0.9343
B( 37-N , 38-C ) :   1.2047 B( 37-N , 72-H ) :   0.9377 B( 38-C , 39-C ) :   1.6154
B( 38-C , 73-H ) :   0.9686 B( 39-C , 40-C ) :   1.1711 B( 39-C , 74-H ) :   0.9616
B( 40-C , 41-C ) :   1.5862 B( 40-C , 75-H ) :   0.9777 B( 41-C , 42-C ) :   1.1489
B( 41-C , 45-S ) :   1.0097 B( 42-C , 43-C ) :   1.5847 B( 42-C , 76-H ) :   0.9973
B( 43-C , 44-C ) :   1.1954 B( 43-C , 77-H ) :   0.9933 B( 44-C , 45-S ) :   1.0516
B( 44-C , 46-C ) :   1.4974 B( 46-C , 47-C ) :   1.2038 B( 46-C , 50-S ) :   1.0311
B( 47-C , 48-C ) :   1.5731 B( 47-C , 78-H ) :   0.9937 B( 48-C , 49-C ) :   1.1534
B( 48-C , 79-H ) :   0.9994 B( 49-C , 50-S ) :   1.0347 B( 49-C , 51-C ) :   1.5493
B( 51-C , 52-C ) :   1.1602 B( 51-C , 80-H ) :   0.9815 B( 52-C , 53-C ) :   1.6087
B( 52-C , 81-H ) :   0.9750 B( 53-C , 54-C ) :   1.1416 B( 53-C , 82-H ) :   0.9881
B( 54-C , 55-C ) :   1.6548 B( 54-C , 83-H ) :   0.9827 B( 55-C , 56-C ) :   1.1176
B( 55-C , 84-H ) :   0.9794 B( 56-C , 57-C ) :   1.8877 B( 56-C , 85-H ) :   0.9735
B( 57-C , 86-H ) :   0.9585 B( 57-C , 87-H ) :   0.9531

-----------------------------------------------------------------------------
         ABSORPTION SPECTRUM VIA TRANSITION ELECTRIC DIPOLE MOMENTS
-----------------------------------------------------------------------------
State   Energy  Wavelength   fosc         T2         TX        TY        TZ
        (cm-1)    (nm)                  (au**2)     (au)      (au)      (au)
-----------------------------------------------------------------------------
   0    8649.1   1156.2   0.059801026   2.27621  -0.82942   0.79741  -0.97591
   1   14776.4    676.8   1.948141520  43.40384   5.35623  -2.62468   2.79744
   2   17169.0    582.4   0.737958311  14.15021  -0.38733   3.63711  -0.87842
   3   18757.0    533.1   0.008365293   0.14682   0.30211  -0.22919  -0.05499
   4   21616.4    462.6   0.021958383   0.33442  -0.40960   0.32526   0.24669
   5   23311.0    429.0   0.007558088   0.10674  -0.21901  -0.00399  -0.24240
   6   23952.6    417.5   0.003092920   0.04251   0.15153   0.13976   0.00405
   7   24155.3    414.0   0.011295383   0.15394  -0.30902   0.17551   0.16628
   8   25371.4    394.1   0.078076997   1.01310  -0.45906  -0.89530  -0.02830
   9   26154.5    382.3   0.161188845   2.02892  -0.61650  -1.21170  -0.42500
  10   28221.9    354.3   0.835743313   9.74906  -1.00683   1.83505   2.31688
  11   28614.4    349.5   0.026104693   0.30034  -0.03099  -0.52397   0.15759
  12   28860.9    346.5   0.253876718   2.89593   0.65393  -1.14898  -1.07152
  13   29023.0    344.6   0.075605021   0.85760  -0.05405  -0.83303  -0.40092
  14   30110.7    332.1   0.055358763   0.60526   0.10378  -0.76559  -0.09147
  15   30653.9    326.2   0.067106591   0.72070   0.52251   0.54484  -0.38838
  16   31424.6    318.2   0.037273214   0.39048  -0.51212  -0.32822  -0.14315
  17   31552.7    316.9   0.156735076   1.63533  -1.10538  -0.45685  -0.45251
  18   31780.3    314.7   0.030005552   0.31083  -0.07203   0.35663   0.42244
  19   31792.4    314.5   0.033673948   0.34870   0.15599  -0.39456  -0.41071
  20   31978.0    312.7   0.362713354   3.73411   0.88968   1.49057   0.84899
  21   32094.2    311.6   0.012881244   0.13213   0.17308  -0.20501  -0.24524
  22   33213.3    301.1   0.010913558   0.10818  -0.28827  -0.00843  -0.15812
  23   33244.3    300.8   0.002690579   0.02664   0.14966  -0.00997   0.06440
  24   33430.0    299.1   0.132388099   1.30373   0.19664   0.97893   0.55387
  25   33748.8    296.3   0.067447887   0.65794   0.54742  -0.53266  -0.27302
  26   35369.1    282.7   0.020903688   0.19457  -0.28747   0.30156  -0.14489
  27   35818.1    279.2   0.391147421   3.59512   0.84602  -1.46341   0.85895
  28   36070.8    277.2   0.005147296   0.04698  -0.18459   0.08654  -0.07361
  29   36579.7    273.4   0.194626296   1.75161  -0.49101  -1.22822  -0.04452
  30   36960.0    270.6   0.011574761   0.10310   0.27018   0.17337  -0.00651
  31   38373.9    260.6   0.036370623   0.31203  -0.30862  -0.04321  -0.46359
  32   38580.6    259.2   0.010320437   0.08807  -0.14889   0.23038   0.11323
  33   38975.4    256.6   0.004060147   0.03429   0.06159  -0.02512  -0.17283
  34   39145.7    255.5   0.052387102   0.44057  -0.58318   0.31526   0.03289
  35   39451.0    253.5   0.034432773   0.28734  -0.11193  -0.48407  -0.20121
  36   39727.1    251.7   0.053259265   0.44135  -0.58530   0.17484  -0.26116
  37   39843.1    251.0   0.152770870   1.26230  -0.95393   0.38072  -0.45539
  38   39935.8    250.4   0.010232739   0.08435   0.21153  -0.18731   0.06725
  39   39989.2    250.1   0.057556569   0.47384  -0.59644   0.02489  -0.34275
  40   40023.7    249.9   0.055334166   0.45515   0.42033   0.48962  -0.19682
  41   40238.9    248.5   0.055165259   0.45133   0.62465   0.23491   0.07723

FINAL SINGLE POINT ENERGY     -6411.455950884651

DIPOLE MOMENT
-------------
                                X             Y             Z
Electronic contribution:     80.91708    -234.14737      98.65247
Nuclear contribution   :    -80.66499     235.18104     -99.37377
                        -----------------------------------------
Total Dipole Moment    :      0.25209       1.03367      -0.72130
                        -----------------------------------------
Magnitude (a.u.)       :      1.28541
Magnitude (Debye)      :      3.26726

Rotational constants in cm-1:     0.001346     0.000250     0.000229
Rotational constants in MHz :    40.366047     7.496730     6.860906

                             ****ORCA TERMINATED NORMALLY****
TOTAL RUN TIME: 0 days 0 hours 6 minutes 59 seconds 35 msec
