                         Program Version 4.2.0 -  RELEASE  -
|  1> # ORCA input file
|  2> # SCF done       -181.368253101418          0.000929366935
|  3> ! CAM-B3LYP def2-SVP def2/J RIJCOSX Grid4 TightSCF
|  4> %maxcore 5000
|  5> %tddft
|  6>     Mode sTDDFT
|  7>     Ethresh 5.0
|  8>     maxcore 5000
|  9> end
| 10>
| 11> %pal
| 12>   nprocs 6
| 13>   end
| 14> * xyz 0 1
| 15>    C       -8.31279         2.66868         0.24060
| 16>    C       -8.84051         2.21632        -0.94440
| 17>    C      -10.21278         2.08237        -1.18965
| 18>    N      -11.32499         1.90673        -1.43126
| 19>    C       -8.07902         1.71760        -2.02211
| 20>    N       -7.52714         1.30588        -2.94091
| 21>    C       -9.06470         3.16273         1.38923
| 22>    C       -8.16115         3.37803         2.45755
| 23>    C       -8.55075         3.91453         3.65877
| 24>    C       -9.89595         4.27127         3.80736
| 25>    C      -10.79251         4.04341         2.73890
| 26>    C      -10.40127         3.48133         1.52865
| 27>    S      -12.39408         4.61187         3.11638
| 28>    C      -11.83686         5.14300         4.68305
| 29>    C      -10.52744         4.89866         4.91850
| 30>   Br      -13.03361         5.99760         5.84544
| 31>    C       -6.79286         3.00307         2.03141
| 32>    O       -5.78364         3.07282         2.70045
| 33>    C       -6.91864         2.64803         0.60096
| 34>    C       -5.86149         2.56188        -0.27471
| 35>    C       -4.51526         2.32533         0.04515
| 36>    S       -3.29802         3.03405        -0.98751
| 37>    C       -2.05913         2.37449        -0.00970
| 38>    C       -2.51105         1.60100         1.01589
| 39>    C       -1.56249         0.94263         1.96192
| 40>    C       -3.93872         1.53169         1.05519
| 41>    C       -4.76382         0.68017         1.84494
| 42>    C       -4.41454        -0.20403         2.81042
| 43>    C       -5.38614        -1.02092         3.45043
| 44>    C       -5.07403        -2.08235         4.22490
| 45>    N       -6.02728        -2.85886         4.81627
| 46>    C       -5.85296        -4.09525         5.39451
| 47>    C       -4.65214        -4.69266         5.66337
| 48>    S       -4.82295        -6.21287         6.44417
| 49>    C       -6.52951        -6.07846         6.40920
| 50>    C       -6.95387        -4.92128         5.82106
| 51>    N       -8.30023        -4.59328         5.71785
| 52>    C       -8.88265        -3.82205         4.75684
| 53>    C      -10.11805        -3.29142         4.89609
| 54>    C      -10.74883        -2.38253         3.99497
| 55>    S      -11.94433        -1.29926         4.63641
| 56>    C      -12.08663        -0.44782         3.12409
| 57>    C      -11.27151        -1.02584         2.16255
| 58>    C      -10.50834        -2.10502         2.65384
| 59>    O       -9.69078        -2.81181         1.84555
| 60>    C      -11.06875        -0.42441         0.81708
| 61>    O       -9.98011        -0.24360         0.33648
| 62>    O      -12.20931        -0.06998         0.24283
| 63>    C      -12.96137         0.65718         2.98848
| 64>    C      -13.33427         1.52217         3.96953
| 65>    C      -12.74608         1.82277         5.25647
| 66>    C      -11.41406         1.74897         5.57980
| 67>    C      -10.87563         2.24908         6.78157
| 68>    N      -10.38016         2.65060         7.73655
| 69>    C      -10.40202         1.27289         4.72305
| 70>    N       -9.51672         0.93937         4.07107
| 71>    C      -13.75321         2.52928         6.03782
| 72>    C      -14.83068         2.87622         5.18323
| 73>    C      -14.57654         2.33310         3.83297
| 74>    O      -15.24572         2.47185         2.83702
| 75>    C      -15.90871         3.60622         5.61966
| 76>    C      -15.93036         3.99834         6.96251
| 77>    C      -14.86233         3.62295         7.81247
| 78>    C      -13.76704         2.89189         7.37044
| 79>    S      -15.09563         4.20857         9.42898
| 80>    C      -16.60007         4.94556         8.94938
| 81>    C      -16.91607         4.76052         7.64577
| 82>   Br      -17.61382         5.88309        10.21555
| 83>    H       -7.84074         4.07056         4.45551
| 84>    H      -11.11917         3.34234         0.73661
| 85>    H      -10.02165         5.15480         5.83187
| 86>    H       -6.05909         2.76570        -1.32125
| 87>    H       -1.03577         2.59595        -0.24583
| 88>    H       -0.54561         1.26219         1.74490
| 89>    H       -1.60910        -0.14114         1.86079
| 90>    H       -1.80094         1.21467         2.98835
| 91>    H       -5.81378         0.70815         1.58610
| 92>    H       -3.39297        -0.33817         3.12381
| 93>    H       -6.42742        -0.78364         3.27311
| 94>    H       -4.05028        -2.38525         4.38100
| 95>    H       -6.96804        -2.49144         4.78818
| 96>    H       -3.66833        -4.32169         5.46660
| 97>    H       -7.13781        -6.85603         6.82513
| 98>    H       -8.90068        -4.93781         6.45346
| 99>    H       -8.27967        -3.65124         3.87684
|100>    H      -10.64736        -3.45892         5.82504
|101>    H       -9.47471        -3.66311         2.24480
|102>    H      -12.05093         0.45993        -0.57684
|103>    H      -13.43847         0.78529         2.02320
|104>    H      -16.70676         3.87419         4.94561
|105>    H      -12.97505         2.62688         8.05131
|106>    H      -17.80519         5.14741         7.18268
|107> *
|108>
|109>                          ****END OF INPUT****

CARTESIAN COORDINATES (ANGSTROEM)
---------------------------------
  C     -8.312790    2.668680    0.240600
  C     -8.840510    2.216320   -0.944400
  C    -10.212780    2.082370   -1.189650
  N    -11.324990    1.906730   -1.431260
  C     -8.079020    1.717600   -2.022110
  N     -7.527140    1.305880   -2.940910
  C     -9.064700    3.162730    1.389230
  C     -8.161150    3.378030    2.457550
  C     -8.550750    3.914530    3.658770
  C     -9.895950    4.271270    3.807360
  C    -10.792510    4.043410    2.738900
  C    -10.401270    3.481330    1.528650
  S    -12.394080    4.611870    3.116380
  C    -11.836860    5.143000    4.683050
  C    -10.527440    4.898660    4.918500
  Br   -13.033610    5.997600    5.845440
  C     -6.792860    3.003070    2.031410
  O     -5.783640    3.072820    2.700450
  C     -6.918640    2.648030    0.600960
  C     -5.861490    2.561880   -0.274710
  C     -4.515260    2.325330    0.045150
  S     -3.298020    3.034050   -0.987510
  C     -2.059130    2.374490   -0.009700
  C     -2.511050    1.601000    1.015890
  C     -1.562490    0.942630    1.961920
  C     -3.938720    1.531690    1.055190
  C     -4.763820    0.680170    1.844940
  C     -4.414540   -0.204030    2.810420
  C     -5.386140   -1.020920    3.450430
  C     -5.074030   -2.082350    4.224900
  N     -6.027280   -2.858860    4.816270
  C     -5.852960   -4.095250    5.394510
  C     -4.652140   -4.692660    5.663370
  S     -4.822950   -6.212870    6.444170
  C     -6.529510   -6.078460    6.409200
  C     -6.953870   -4.921280    5.821060
  N     -8.300230   -4.593280    5.717850
  C     -8.882650   -3.822050    4.756840
  C    -10.118050   -3.291420    4.896090
  C    -10.748830   -2.382530    3.994970
  S    -11.944330   -1.299260    4.636410
  C    -12.086630   -0.447820    3.124090
  C    -11.271510   -1.025840    2.162550
  C    -10.508340   -2.105020    2.653840
  O     -9.690780   -2.811810    1.845550
  C    -11.068750   -0.424410    0.817080
  O     -9.980110   -0.243600    0.336480
  O    -12.209310   -0.069980    0.242830
  C    -12.961370    0.657180    2.988480
  C    -13.334270    1.522170    3.969530
  C    -12.746080    1.822770    5.256470
  C    -11.414060    1.748970    5.579800
  C    -10.875630    2.249080    6.781570
  N    -10.380160    2.650600    7.736550
  C    -10.402020    1.272890    4.723050
  N     -9.516720    0.939370    4.071070
  C    -13.753210    2.529280    6.037820
  C    -14.830680    2.876220    5.183230
  C    -14.576540    2.333100    3.832970
  O    -15.245720    2.471850    2.837020
  C    -15.908710    3.606220    5.619660
  C    -15.930360    3.998340    6.962510
  C    -14.862330    3.622950    7.812470
  C    -13.767040    2.891890    7.370440
  S    -15.095630    4.208570    9.428980
  C    -16.600070    4.945560    8.949380
  C    -16.916070    4.760520    7.645770
  Br   -17.613820    5.883090   10.215550
  H     -7.840740    4.070560    4.455510
  H    -11.119170    3.342340    0.736610
  H    -10.021650    5.154800    5.831870
  H     -6.059090    2.765700   -1.321250
  H     -1.035770    2.595950   -0.245830
  H     -0.545610    1.262190    1.744900
  H     -1.609100   -0.141140    1.860790
  H     -1.800940    1.214670    2.988350
  H     -5.813780    0.708150    1.586100
  H     -3.392970   -0.338170    3.123810
  H     -6.427420   -0.783640    3.273110
  H     -4.050280   -2.385250    4.381000
  H     -6.968040   -2.491440    4.788180
  H     -3.668330   -4.321690    5.466600
  H     -7.137810   -6.856030    6.825130
  H     -8.900680   -4.937810    6.453460
  H     -8.279670   -3.651240    3.876840
  H    -10.647360   -3.458920    5.825040
  H     -9.474710   -3.663110    2.244800
  H    -12.050930    0.459930   -0.576840
  H    -13.438470    0.785290    2.023200
  H    -16.706760    3.874190    4.945610
  H    -12.975050    2.626880    8.051310
  H    -17.805190    5.147410    7.182680

 Total Charge           Charge          ....    0
 Multiplicity           Mult            ....    1
 Number of Electrons    NEL             ....  556
 Basis Dimension        Dim             .... 1128

ORBITAL ENERGIES
----------------

  NO   OCC          E(Eh)            E(eV)
   0   2.0000    -482.885576    -13139.9845
   1   2.0000    -482.879885    -13139.8297
   2   2.0000     -88.975209     -2421.1385
   3   2.0000     -88.969844     -2420.9925
   4   2.0000     -88.964863     -2420.8570
   5   2.0000     -88.957912     -2420.6678
   6   2.0000     -88.950944     -2420.4782
   7   2.0000     -62.563288     -1702.4336
   8   2.0000     -62.557143     -1702.2664
   9   2.0000     -56.397230     -1534.6467
  10   2.0000     -56.394532     -1534.5732
  11   2.0000     -56.394492     -1534.5722
  12   2.0000     -56.391098     -1534.4798
  13   2.0000     -56.388418     -1534.4069
  14   2.0000     -56.388390     -1534.4061
  15   2.0000     -19.255018      -523.9557
  16   2.0000     -19.243838      -523.6514
  17   2.0000     -19.210385      -522.7411
  18   2.0000     -19.198811      -522.4262
  19   2.0000     -19.194492      -522.3087
  20   2.0000     -14.462996      -393.5581
  21   2.0000     -14.452753      -393.2794
  22   2.0000     -14.415646      -392.2697
  23   2.0000     -14.412874      -392.1942
  24   2.0000     -14.412549      -392.1854
  25   2.0000     -14.398718      -391.8090
  26   2.0000     -10.398052      -282.9454
  27   2.0000     -10.362328      -281.9733
  28   2.0000     -10.358184      -281.8605
  29   2.0000     -10.350323      -281.6466
  30   2.0000     -10.349472      -281.6235
  31   2.0000     -10.343113      -281.4504
  32   2.0000     -10.339904      -281.3631
  33   2.0000     -10.339284      -281.3462
  34   2.0000     -10.339125      -281.3419
  35   2.0000     -10.327964      -281.0382
  36   2.0000     -10.327711      -281.0313
  37   2.0000     -10.327098      -281.0146
  38   2.0000     -10.324306      -280.9387
  39   2.0000     -10.324167      -280.9349
  40   2.0000     -10.323592      -280.9192
  41   2.0000     -10.319007      -280.7944
  42   2.0000     -10.317514      -280.7538
  43   2.0000     -10.316141      -280.7165
  44   2.0000     -10.315743      -280.7056
  45   2.0000     -10.315186      -280.6905
  46   2.0000     -10.312479      -280.6168
  47   2.0000     -10.311390      -280.5872
  48   2.0000     -10.307156      -280.4720
  49   2.0000     -10.306491      -280.4539
  50   2.0000     -10.306022      -280.4411
  51   2.0000     -10.304317      -280.3947
  52   2.0000     -10.302478      -280.3447
  53   2.0000     -10.299337      -280.2592
  54   2.0000     -10.296407      -280.1795
  55   2.0000     -10.296294      -280.1764
  56   2.0000     -10.296236      -280.1748
  57   2.0000     -10.296040      -280.1695
  58   2.0000     -10.295981      -280.1679
  59   2.0000     -10.295694      -280.1601
  60   2.0000     -10.294970      -280.1404
  61   2.0000     -10.294062      -280.1157
  62   2.0000     -10.292887      -280.0837
  63   2.0000     -10.290616      -280.0219
  64   2.0000     -10.290140      -280.0090
  65   2.0000     -10.289798      -279.9996
  66   2.0000     -10.288634      -279.9680
  67   2.0000     -10.288161      -279.9551
  68   2.0000     -10.286568      -279.9117
  69   2.0000     -10.280479      -279.7460
  70   2.0000     -10.279861      -279.7292
  71   2.0000     -10.278171      -279.6833
  72   2.0000     -10.272586      -279.5313
  73   2.0000     -10.269013      -279.4341
  74   2.0000     -10.260581      -279.2046
  75   2.0000     -10.259909      -279.1863
  76   2.0000      -8.792722      -239.2621
  77   2.0000      -8.786396      -239.0900
  78   2.0000      -8.071249      -219.6298
  79   2.0000      -8.064562      -219.4479
  80   2.0000      -8.060050      -219.3251
  81   2.0000      -8.053895      -219.1576
  82   2.0000      -8.047277      -218.9775
  83   2.0000      -6.628986      -180.3839
  84   2.0000      -6.622604      -180.2102
  85   2.0000      -6.614476      -179.9890
  86   2.0000      -6.614274      -179.9836
  87   2.0000      -6.608165      -179.8173
  88   2.0000      -6.608003      -179.8129
  89   2.0000      -6.040926      -164.3820
  90   2.0000      -6.036643      -164.2654
  91   2.0000      -6.034338      -164.2027
  92   2.0000      -6.032510      -164.1529
  93   2.0000      -6.030049      -164.0860
  94   2.0000      -6.029429      -164.0691
  95   2.0000      -6.025886      -163.9727
  96   2.0000      -6.025417      -163.9599
  97   2.0000      -6.023351      -163.9037
  98   2.0000      -6.021837      -163.8625
  99   2.0000      -6.019072      -163.7873
 100   2.0000      -6.016542      -163.7184
 101   2.0000      -6.015817      -163.6987
 102   2.0000      -6.012399      -163.6057
 103   2.0000      -6.009324      -163.5220
 104   2.0000      -2.744891       -74.6923
 105   2.0000      -2.740760       -74.5799
 106   2.0000      -2.740662       -74.5772
 107   2.0000      -2.738518       -74.5189
 108   2.0000      -2.734446       -74.4081
 109   2.0000      -2.734307       -74.4043
 110   2.0000      -2.729101       -74.2626
 111   2.0000      -2.729084       -74.2621
 112   2.0000      -2.722846       -74.0924
 113   2.0000      -2.722820       -74.0917
 114   2.0000      -1.177449       -32.0400
 115   2.0000      -1.151858       -31.3437
 116   2.0000      -1.126206       -30.6456
 117   2.0000      -1.113273       -30.2937
 118   2.0000      -1.082768       -29.4636
 119   2.0000      -1.075861       -29.2757
 120   2.0000      -1.047008       -28.4905
 121   2.0000      -1.022983       -27.8368
 122   2.0000      -1.014417       -27.6037
 123   2.0000      -1.011894       -27.5350
 124   2.0000      -1.005596       -27.3636
 125   2.0000      -0.996871       -27.1262
 126   2.0000      -0.989660       -26.9300
 127   2.0000      -0.987694       -26.8765
 128   2.0000      -0.986240       -26.8370
 129   2.0000      -0.983161       -26.7532
 130   2.0000      -0.975648       -26.5487
 131   2.0000      -0.974952       -26.5298
 132   2.0000      -0.941373       -25.6161
 133   2.0000      -0.931921       -25.3589
 134   2.0000      -0.909194       -24.7404
 135   2.0000      -0.907271       -24.6881
 136   2.0000      -0.900483       -24.5034
 137   2.0000      -0.898242       -24.4424
 138   2.0000      -0.893132       -24.3033
 139   2.0000      -0.889166       -24.1954
 140   2.0000      -0.884815       -24.0770
 141   2.0000      -0.874875       -23.8066
 142   2.0000      -0.866403       -23.5760
 143   2.0000      -0.861086       -23.4313
 144   2.0000      -0.860274       -23.4093
 145   2.0000      -0.852128       -23.1876
 146   2.0000      -0.834629       -22.7114
 147   2.0000      -0.828676       -22.5494
 148   2.0000      -0.819596       -22.3024
 149   2.0000      -0.818667       -22.2771
 150   2.0000      -0.815142       -22.1812
 151   2.0000      -0.797856       -21.7108
 152   2.0000      -0.784542       -21.3485
 153   2.0000      -0.773975       -21.0609
 154   2.0000      -0.766641       -20.8614
 155   2.0000      -0.753854       -20.5134
 156   2.0000      -0.747970       -20.3533
 157   2.0000      -0.745279       -20.2801
 158   2.0000      -0.738862       -20.1055
 159   2.0000      -0.723507       -19.6876
 160   2.0000      -0.714419       -19.4403
 161   2.0000      -0.702993       -19.1294
 162   2.0000      -0.696493       -18.9525
 163   2.0000      -0.695518       -18.9260
 164   2.0000      -0.688726       -18.7412
 165   2.0000      -0.683315       -18.5939
 166   2.0000      -0.680177       -18.5086
 167   2.0000      -0.673768       -18.3341
 168   2.0000      -0.666707       -18.1420
 169   2.0000      -0.663414       -18.0524
 170   2.0000      -0.659231       -17.9386
 171   2.0000      -0.657695       -17.8968
 172   2.0000      -0.647806       -17.6277
 173   2.0000      -0.646631       -17.5957
 174   2.0000      -0.635896       -17.3036
 175   2.0000      -0.627018       -17.0620
 176   2.0000      -0.623050       -16.9540
 177   2.0000      -0.618667       -16.8348
 178   2.0000      -0.613122       -16.6839
 179   2.0000      -0.610964       -16.6252
 180   2.0000      -0.600267       -16.3341
 181   2.0000      -0.598214       -16.2782
 182   2.0000      -0.597045       -16.2464
 183   2.0000      -0.585333       -15.9277
 184   2.0000      -0.584873       -15.9152
 185   2.0000      -0.573769       -15.6131
 186   2.0000      -0.570568       -15.5259
 187   2.0000      -0.566069       -15.4035
 188   2.0000      -0.558322       -15.1927
 189   2.0000      -0.553923       -15.0730
 190   2.0000      -0.548847       -14.9349
 191   2.0000      -0.547875       -14.9084
 192   2.0000      -0.545338       -14.8394
 193   2.0000      -0.542044       -14.7498
 194   2.0000      -0.541426       -14.7330
 195   2.0000      -0.532196       -14.4818
 196   2.0000      -0.531663       -14.4673
 197   2.0000      -0.529111       -14.3978
 198   2.0000      -0.526458       -14.3257
 199   2.0000      -0.524206       -14.2644
 200   2.0000      -0.521315       -14.1857
 201   2.0000      -0.517494       -14.0817
 202   2.0000      -0.515606       -14.0304
 203   2.0000      -0.514486       -13.9999
 204   2.0000      -0.513072       -13.9614
 205   2.0000      -0.511021       -13.9056
 206   2.0000      -0.508835       -13.8461
 207   2.0000      -0.507565       -13.8115
 208   2.0000      -0.502175       -13.6649
 209   2.0000      -0.500225       -13.6118
 210   2.0000      -0.499875       -13.6023
 211   2.0000      -0.496340       -13.5061
 212   2.0000      -0.494318       -13.4511
 213   2.0000      -0.492771       -13.4090
 214   2.0000      -0.489427       -13.3180
 215   2.0000      -0.488175       -13.2839
 216   2.0000      -0.484456       -13.1827
 217   2.0000      -0.482816       -13.1381
 218   2.0000      -0.480941       -13.0871
 219   2.0000      -0.480458       -13.0739
 220   2.0000      -0.476139       -12.9564
 221   2.0000      -0.472704       -12.8629
 222   2.0000      -0.469171       -12.7668
 223   2.0000      -0.468722       -12.7546
 224   2.0000      -0.466040       -12.6816
 225   2.0000      -0.462411       -12.5828
 226   2.0000      -0.459680       -12.5085
 227   2.0000      -0.456620       -12.4252
 228   2.0000      -0.455248       -12.3879
 229   2.0000      -0.453379       -12.3371
 230   2.0000      -0.451480       -12.2854
 231   2.0000      -0.447664       -12.1816
 232   2.0000      -0.446433       -12.1481
 233   2.0000      -0.444563       -12.0972
 234   2.0000      -0.441042       -12.0014
 235   2.0000      -0.440105       -11.9759
 236   2.0000      -0.438516       -11.9326
 237   2.0000      -0.435663       -11.8550
 238   2.0000      -0.433389       -11.7931
 239   2.0000      -0.432080       -11.7575
 240   2.0000      -0.430021       -11.7015
 241   2.0000      -0.427395       -11.6300
 242   2.0000      -0.424591       -11.5537
 243   2.0000      -0.422458       -11.4957
 244   2.0000      -0.419746       -11.4219
 245   2.0000      -0.418591       -11.3904
 246   2.0000      -0.415234       -11.2991
 247   2.0000      -0.414672       -11.2838
 248   2.0000      -0.412068       -11.2129
 249   2.0000      -0.408821       -11.1246
 250   2.0000      -0.407271       -11.0824
 251   2.0000      -0.402220       -10.9450
 252   2.0000      -0.396372       -10.7858
 253   2.0000      -0.391209       -10.6453
 254   2.0000      -0.389943       -10.6109
 255   2.0000      -0.383052       -10.4234
 256   2.0000      -0.382151       -10.3989
 257   2.0000      -0.377691       -10.2775
 258   2.0000      -0.374960       -10.2032
 259   2.0000      -0.366420        -9.9708
 260   2.0000      -0.363546        -9.8926
 261   2.0000      -0.357688        -9.7332
 262   2.0000      -0.345480        -9.4010
 263   2.0000      -0.344770        -9.3817
 264   2.0000      -0.338603        -9.2139
 265   2.0000      -0.333722        -9.0810
 266   2.0000      -0.326267        -8.8782
 267   2.0000      -0.318649        -8.6709
 268   2.0000      -0.315980        -8.5983
 269   2.0000      -0.311690        -8.4815
 270   2.0000      -0.303840        -8.2679
 271   2.0000      -0.299174        -8.1409
 272   2.0000      -0.296082        -8.0568
 273   2.0000      -0.290684        -7.9099
 274   2.0000      -0.283907        -7.7255
 275   2.0000      -0.273537        -7.4433
 276   2.0000      -0.245802        -6.6886
 277   2.0000      -0.230209        -6.2643
 278   0.0000      -0.090693        -2.4679
 279   0.0000      -0.080805        -2.1988
 280   0.0000      -0.057392        -1.5617
 281   0.0000      -0.047200        -1.2844
 282   0.0000      -0.016626        -0.4524

MULLIKEN ATOMIC CHARGES
-----------------------
   0 C :    0.314159
   1 C :   -0.341180
   2 C :   -0.091032
   3 N :    0.053359
   4 C :   -0.219228
   5 N :    0.167778
   6 C :    0.039405
   7 C :    0.010109
   8 C :   -0.076217
   9 C :    0.103872
  10 C :   -0.089708
  11 C :   -0.041230
  12 S :    0.170718
  13 C :   -0.147071
  14 C :    0.063056
  15 Br:    0.023419
  16 C :    0.133567
  17 O :   -0.139717
  18 C :   -0.139686
  19 C :    0.024015
  20 C :   -0.166353
  21 S :    0.132261
  22 C :   -0.094299
  23 C :   -0.120551
  24 C :    0.118103
  25 C :    0.209254
  26 C :   -0.017120
  27 C :   -0.001925
  28 C :   -0.015123
  29 C :    0.064577
  30 N :   -0.051204
  31 C :    0.125390
  32 C :   -0.224981
  33 S :    0.124813
  34 C :   -0.175033
  35 C :    0.105873
  36 N :   -0.065675
  37 C :    0.004315
  38 C :    0.010568
  39 C :   -0.152137
  40 S :    0.146190
  41 C :   -0.190168
  42 C :    0.100319
  43 C :    0.112230
  44 O :   -0.163565
  45 C :    0.128681
  46 O :   -0.194455
  47 O :   -0.183249
  48 C :    0.037291
  49 C :   -0.127880
  50 C :    0.266886
  51 C :   -0.342987
  52 C :   -0.199707
  53 N :    0.159443
  54 C :   -0.180828
  55 N :    0.173445
  56 C :    0.005759
  57 C :   -0.006302
  58 C :    0.143338
  59 O :   -0.137816
  60 C :   -0.073662
  61 C :    0.113425
  62 C :   -0.086269
  63 C :   -0.020281
  64 S :    0.181014
  65 C :   -0.126706
  66 C :    0.038942
  67 Br:    0.022626
  68 H :   -0.011201
  69 H :   -0.012531
  70 H :    0.003965
  71 H :    0.032284
  72 H :    0.020196
  73 H :    0.003314
  74 H :    0.034766
  75 H :    0.042058
  76 H :   -0.001245
  77 H :   -0.031732
  78 H :    0.005294
  79 H :    0.001941
  80 H :    0.131004
  81 H :    0.013990
  82 H :    0.005433
  83 H :    0.130492
  84 H :    0.018928
  85 H :   -0.019751
  86 H :    0.179664
  87 H :    0.200809
  88 H :    0.045057
  89 H :   -0.009618
  90 H :   -0.005257
  91 H :   -0.002715
Sum of atomic charges:   -0.0000000

LOEWDIN ATOMIC CHARGES
----------------------
   0 C :    0.089328
   1 C :   -0.148429
   2 C :    0.037170
   3 N :   -0.094433
   4 C :   -0.020961
   5 N :   -0.056871
   6 C :   -0.011894
   7 C :   -0.035609
   8 C :    0.026359
   9 C :   -0.037062
  10 C :   -0.146535
  11 C :   -0.016260
  12 S :    0.444911
  13 C :   -0.281331
  14 C :   -0.064540
  15 Br:    0.147286
  16 C :    0.078620
  17 O :   -0.136402
  18 C :   -0.110503
  19 C :    0.051333
  20 C :   -0.183484
  21 S :    0.440580
  22 C :   -0.164651
  23 C :   -0.057283
  24 C :   -0.044543
  25 C :    0.000385
  26 C :   -0.031074
  27 C :   -0.000577
  28 C :   -0.079598
  29 C :    0.041256
  30 N :    0.024113
  31 C :   -0.023420
  32 C :   -0.241774
  33 S :    0.442387
  34 C :   -0.220840
  35 C :   -0.039336
  36 N :    0.020575
  37 C :    0.013909
  38 C :   -0.118663
  39 C :   -0.195862
  40 S :    0.465315
  41 C :   -0.172312
  42 C :   -0.072137
  43 C :    0.019896
  44 O :   -0.035898
  45 C :    0.081606
  46 O :   -0.162553
  47 O :   -0.027672
  48 C :    0.048680
  49 C :   -0.103600
  50 C :    0.061813
  51 C :   -0.147255
  52 C :   -0.019080
  53 N :   -0.063360
  54 C :   -0.026486
  55 N :   -0.057219
  56 C :   -0.020899
  57 C :   -0.056385
  58 C :    0.072203
  59 O :   -0.139693
  60 C :    0.022114
  61 C :   -0.035868
  62 C :   -0.147213
  63 C :   -0.013439
  64 S :    0.430613
  65 C :   -0.274474
  66 C :   -0.070292
  67 Br:    0.136277
  68 H :    0.041084
  69 H :    0.037018
  70 H :    0.041275
  71 H :    0.043772
  72 H :    0.024417
  73 H :    0.032506
  74 H :    0.034890
  75 H :    0.037461
  76 H :    0.034490
  77 H :    0.023099
  78 H :    0.033302
  79 H :    0.026573
  80 H :    0.085685
  81 H :    0.019385
  82 H :    0.021383
  83 H :    0.091353
  84 H :    0.023782
  85 H :    0.026692
  86 H :    0.086777
  87 H :    0.075773
  88 H :    0.050194
  89 H :    0.041437
  90 H :    0.039617
  91 H :    0.039074

  Mayer bond orders larger than 0.100000
B(  0-C ,  1-C ) :   1.6091 B(  0-C ,  6-C ) :   0.9989 B(  0-C , 18-C ) :   1.1016
B(  1-C ,  2-C ) :   1.1795 B(  1-C ,  4-C ) :   1.1448 B(  2-C ,  3-N ) :   2.8185
B(  3-N , 87-H ) :   0.1241 B(  4-C ,  5-N ) :   3.0044 B(  6-C ,  7-C ) :   1.2821
B(  6-C , 11-C ) :   1.4047 B(  7-C ,  8-C ) :   1.4245 B(  7-C , 16-C ) :   0.9281
B(  8-C ,  9-C ) :   1.2353 B(  8-C , 68-H ) :   1.0200 B(  9-C , 10-C ) :   1.3100
B(  9-C , 14-C ) :   1.1635 B( 10-C , 11-C ) :   1.3243 B( 10-C , 12-S ) :   1.0797
B( 11-C , 69-H ) :   0.9846 B( 12-S , 13-C ) :   1.0798 B( 13-C , 14-C ) :   1.6092
B( 13-C , 15-Br) :   1.0207 B( 14-C , 70-H ) :   0.9989 B( 16-C , 17-O ) :   2.2242
B( 16-C , 18-C ) :   0.9590 B( 18-C , 19-C ) :   1.5316 B( 19-C , 20-C ) :   1.2399
B( 19-C , 71-H ) :   0.9351 B( 20-C , 21-S ) :   1.0950 B( 20-C , 25-C ) :   1.3564
B( 21-S , 22-C ) :   1.1672 B( 22-C , 23-C ) :   1.5779 B( 22-C , 72-H ) :   0.9638
B( 23-C , 24-C ) :   1.0971 B( 23-C , 25-C ) :   1.2333 B( 24-C , 73-H ) :   0.9429
B( 24-C , 74-H ) :   0.9373 B( 24-C , 75-H ) :   0.9441 B( 25-C , 26-C ) :   1.1499
B( 26-C , 27-C ) :   1.6489 B( 26-C , 76-H ) :   0.9554 B( 27-C , 28-C ) :   1.1456
B( 27-C , 77-H ) :   0.9781 B( 28-C , 29-C ) :   1.6341 B( 28-C , 78-H ) :   0.9811
B( 29-C , 30-N ) :   1.1381 B( 29-C , 79-H ) :   0.9742 B( 30-N , 31-C ) :   1.1355
B( 30-N , 80-H ) :   0.9149 B( 31-C , 32-C ) :   1.5088 B( 31-C , 35-C ) :   1.2387
B( 32-C , 33-S ) :   1.1421 B( 32-C , 81-H ) :   0.9743 B( 33-S , 34-C ) :   1.1682
B( 34-C , 35-C ) :   1.5309 B( 34-C , 82-H ) :   0.9786 B( 35-C , 36-N ) :   1.0647
B( 36-N , 37-C ) :   1.1744 B( 36-N , 83-H ) :   0.9262 B( 37-C , 38-C ) :   1.6559
B( 37-C , 84-H ) :   0.9522 B( 38-C , 39-C ) :   1.1322 B( 38-C , 85-H ) :   0.9420
B( 39-C , 40-S ) :   1.1016 B( 39-C , 43-C ) :   1.4189 B( 40-S , 41-C ) :   1.1271
B( 41-C , 42-C ) :   1.4684 B( 41-C , 48-C ) :   1.1271 B( 42-C , 43-C ) :   1.2941
B( 42-C , 45-C ) :   0.8649 B( 43-C , 44-O ) :   1.2848 B( 44-O , 86-H ) :   0.9467
B( 45-C , 46-O ) :   2.1120 B( 45-C , 47-O ) :   1.2926 B( 47-O , 87-H ) :   0.8841
B( 48-C , 49-C ) :   1.6255 B( 48-C , 88-H ) :   0.9446 B( 49-C , 50-C ) :   1.0428
B( 49-C , 58-C ) :   0.9310 B( 50-C , 51-C ) :   1.6486 B( 50-C , 56-C ) :   1.0053
B( 51-C , 52-C ) :   1.1462 B( 51-C , 54-C ) :   1.1643 B( 52-C , 53-N ) :   2.9806
B( 54-C , 55-N ) :   2.9714 B( 56-C , 57-C ) :   1.2718 B( 56-C , 63-C ) :   1.4127
B( 57-C , 58-C ) :   0.9131 B( 57-C , 60-C ) :   1.4276 B( 58-C , 59-O ) :   2.2817
B( 60-C , 61-C ) :   1.2460 B( 60-C , 89-H ) :   1.0162 B( 61-C , 62-C ) :   1.3074
B( 61-C , 66-C ) :   1.1621 B( 62-C , 63-C ) :   1.3250 B( 62-C , 64-S ) :   1.0823
B( 63-C , 90-H ) :   0.9845 B( 64-S , 65-C ) :   1.0866 B( 65-C , 66-C ) :   1.6172
B( 65-C , 67-Br) :   1.0184 B( 66-C , 91-H ) :   1.0010

-----------------------------------------------------------------------------
         ABSORPTION SPECTRUM VIA TRANSITION ELECTRIC DIPOLE MOMENTS
-----------------------------------------------------------------------------
State   Energy  Wavelength   fosc         T2         TX        TY        TZ
        (cm-1)    (nm)                  (au**2)     (au)      (au)      (au)
-----------------------------------------------------------------------------
   0   15893.8    629.2   0.079009675   1.63655  -0.24790   0.66580   1.06386
   1   16472.6    607.1   0.509043444  10.17343  -1.77623   2.50385  -0.86553
   2   18024.3    554.8   0.106969844   1.95379   0.38103  -1.33118   0.19125
   3   21917.9    456.2   0.091156598   1.36919  -0.92251   0.67268  -0.25628
   4   22565.1    443.2   0.131791681   1.92277  -0.12470   1.31439  -0.42379
   5   23993.5    416.8   0.018300625   0.25110   0.49085   0.09283  -0.03940
   6   24260.4    412.2   0.314035425   4.26144   1.91535   0.61384  -0.46484
   7   24716.9    404.6   0.178384675   2.37596  -1.22504   0.78109  -0.51492
   8   26570.6    376.4   0.043619371   0.54045  -0.70684   0.17331   0.10388
   9   26904.2    371.7   0.035211890   0.43087  -0.51860   0.34960  -0.19926
  10   26971.0    370.8   0.374386600   4.56981   1.70203  -0.91366  -0.91549
  11   27661.9    361.5   0.127070398   1.51230  -0.87739   0.58379   0.63378
  12   28154.1    355.2   0.134615002   1.57408   0.67456  -0.57297  -0.88925
  13   28328.1    353.0   0.031160407   0.36213   0.00261   0.50322   0.32998
  14   28591.8    349.8   0.036928105   0.42520  -0.18498  -0.42221  -0.46122
  15   28720.4    348.2   0.177686068   2.03675   1.23737  -0.66480  -0.25239
  16   29320.7    341.1   0.052782698   0.59264  -0.15852  -0.06734  -0.75032
  17   29796.7    335.6   0.038829055   0.42901  -0.61896   0.18206   0.11292
  18   30207.8    331.0   0.012636676   0.13772   0.27001   0.25337   0.02477
  19   30494.8    327.9   0.171121683   1.84737  -1.00081   0.58428   0.71019
  20   30731.5    325.4   0.204203303   2.18753   0.24625  -0.59316  -1.33231
  21   31566.4    316.8   0.017564683   0.18319   0.26519  -0.25340   0.22056
  22   31947.4    313.0   0.059601667   0.61418  -0.15923  -0.76628   0.04063
  23   32277.7    309.8   0.320116281   3.26498  -1.53369   0.93903   0.17610
  24   32554.1    307.2   0.065164325   0.65899  -0.12371   0.01285   0.80220
  25   32886.3    304.1   0.124110803   1.24243  -0.65768   0.87433   0.21313
  26   33072.5    302.4   0.428630982   4.26670  -1.27765  -0.95139   1.31498
  27   33277.5    300.5   0.218836973   2.16494  -0.42999   1.07372   0.90950
  28   33540.8    298.1   0.032849651   0.32243   0.01768  -0.00607   0.56752
  29   33843.1    295.5   0.137807349   1.34053  -0.89277   0.55180   0.48889
  30   34252.0    292.0   0.192851110   1.85358   0.11439   0.22114  -1.33850
  31   34303.1    291.5   0.118847922   1.14060  -0.04709   0.50044  -0.94231
  32   34653.6    288.6   0.188547964   1.79122  -0.06992   0.55740  -1.21476
  33   35063.6    285.2   0.081380572   0.76408  -0.49697   0.09858  -0.71231
  34   35284.1    283.4   0.034560949   0.32246  -0.47512   0.05129   0.30674
  35   35622.9    280.7   0.039027572   0.36068   0.38079  -0.39848  -0.23852
  36   35713.3    280.0   0.036909829   0.34024   0.41322  -0.28502  -0.29707
  37   35989.9    277.9   0.027469325   0.25127   0.23342  -0.23818  -0.37424
  38   36515.2    273.9   0.185100312   1.66882   0.34702  -1.14770   0.48080
  39   37096.8    269.6   0.010117424   0.08979  -0.17835   0.08992   0.22336
  40   37266.9    268.3   0.185309427   1.63700   1.24250  -0.01712  -0.30479
  41   37374.7    267.6   0.121963710   1.07431   0.13913  -0.56893   0.85514
  42   37572.3    266.2   0.044650400   0.39123   0.09181  -0.61809   0.02762
  43   37940.1    263.6   0.103061854   0.89428  -0.16064   0.58032   0.72918
  44   38158.6    262.1   0.006701736   0.05782  -0.10053   0.06489   0.20857
  45   38200.8    261.8   0.097885081   0.84357   0.71424  -0.21357   0.53648
  46   38621.4    258.9   0.055585367   0.47381   0.09621  -0.67913   0.05783
  47   38824.9    257.6   0.035438055   0.30049   0.53096  -0.13476  -0.02036
  48   38935.9    256.8   0.016057264   0.13577  -0.09396   0.04877   0.35293
  49   39046.7    256.1   0.139237005   1.17394  -0.30202   0.00929  -1.04050
  50   39320.3    254.3   0.134069762   1.12251  -0.77503  -0.13592  -0.70948
  51   39644.6    252.2   0.014986720   0.12445   0.25068   0.24261  -0.05243
  52   39960.7    250.2   0.053706165   0.44245   0.46451  -0.34298  -0.33023

FINAL SINGLE POINT ENERGY     -9759.279176355441

DIPOLE MOMENT
-------------
                                X             Y             Z
Electronic contribution:   -148.67010     114.54400      88.53745
Nuclear contribution   :    149.13116    -116.09355     -85.43713
                        -----------------------------------------
Total Dipole Moment    :      0.46106      -1.54955       3.10031
                        -----------------------------------------
Magnitude (a.u.)       :      3.49651
Magnitude (Debye)      :      8.88743

Rotational constants in cm-1:     0.001222     0.000499     0.000428
Rotational constants in MHz :    36.633461    14.945570    12.835467

                             ****ORCA TERMINATED NORMALLY****
TOTAL RUN TIME: 0 days 0 hours 10 minutes 48 seconds 202 msec
