                         Program Version 4.2.0 -  RELEASE  -
|  1> # ORCA input file
|  2> # SCF done       -141.187016681700          0.000678310531
|  3> ! CAM-B3LYP def2-SVP def2/J RIJCOSX Grid4 TightSCF
|  4> %maxcore 5000
|  5> %tddft
|  6>     Mode sTDDFT
|  7>     Ethresh 5.0
|  8>     maxcore 5000
|  9> end
| 10>
| 11> %pal
| 12>   nprocs 6
| 13>   end
| 14> * xyz 0 1
| 15>    C       12.46834        -1.10852        -7.77764
| 16>    C       12.05232        -1.78478        -6.69813
| 17>    C       11.14152        -2.89293        -6.65327
| 18>    C       10.90929        -3.37484        -5.41246
| 19>    C       11.61148        -2.69617        -4.37727
| 20>    S       12.58667        -1.40570        -5.05265
| 21>    C       11.58027        -2.96499        -3.03001
| 22>    C       10.84586        -3.97443        -2.35874
| 23>    C       11.03761        -3.99063        -1.01467
| 24>    C       11.93558        -2.99943        -0.53439
| 25>    S       12.51839        -2.03153        -1.87658
| 26>    C       12.31782        -2.84787         0.77315
| 27>    C       13.18409        -1.88159         1.31009
| 28>    S       13.65139        -0.46994         0.39595
| 29>    C       14.43710         0.20401         1.77050
| 30>    C       14.37037        -0.58567         2.87153
| 31>    C       14.99535        -0.22740         4.17955
| 32>    C       13.67878        -1.81381         2.62352
| 33>    C       13.60293        -2.83041         3.62088
| 34>    C       13.47270        -4.16714         3.42198
| 35>    C       13.47100        -5.15176         4.44711
| 36>    C       13.40423        -4.92451         5.78526
| 37>    C       13.47795        -5.93134         6.78141
| 38>    S       12.63314        -5.68848         8.27663
| 39>    C       12.99881        -7.27719         8.87258
| 40>    C       13.76867        -7.97480         7.93378
| 41>    C       14.09265        -7.18961         6.77362
| 42>    C       15.05239        -7.68578         5.85186
| 43>    C       15.67726        -6.87931         4.87525
| 44>    N       16.29809        -6.29237         4.10881
| 45>    C       15.52376        -8.98092         5.97833
| 46>    C       15.09077        -9.79872         7.01963
| 47>    C       14.25410        -9.31122         8.00850
| 48>    C       13.92590       -10.21320         9.04106
| 49>    N       13.70366       -11.02092         9.82772
| 50>    C       12.62304        -7.73792        10.16571
| 51>    C       11.95131        -7.09240        11.13748
| 52>    C       11.37783        -5.71892        11.01377
| 53>    C       11.77296        -7.77274        12.47445
| 54>    N       10.39720        -7.82886        12.89332
| 55>    C        9.86277        -7.05080        13.85826
| 56>    C        8.54326        -6.99891        14.17470
| 57>    C        8.04362        -6.21842        15.23573
| 58>    C        6.73564        -6.17157        15.62880
| 59>    C        6.18986        -5.41259        16.69553
| 60>    C        4.85443        -5.57561        16.87951
| 61>    C        4.24971        -6.47797        15.96728
| 62>    S        5.45195        -7.10550        14.85633
| 63>    C        2.93102        -6.85678        15.91025
| 64>    C        1.87037        -6.42953        16.75392
| 65>    C        0.66929        -6.98090        16.46879
| 66>    C        0.68270        -7.89764        15.36590
| 67>    S        2.32826        -8.00214        14.72028
| 68>    C       -0.34766        -8.59117        14.86176
| 69>    H       12.11898        -1.37359        -8.75996
| 70>    H       13.15825        -0.28849        -7.69986
| 71>    H       10.70241        -3.27841        -7.55643
| 72>    H       10.25572        -4.20121        -5.19547
| 73>    H       10.20400        -4.65652        -2.88709
| 74>    H       10.56806        -4.68618        -0.34093
| 75>    H       11.88140        -3.54147         1.47925
| 76>    H       14.91527         1.15945         1.67769
| 77>    H       15.48109         0.74244         4.10969
| 78>    H       15.73892        -0.97167         4.46198
| 79>    H       14.24109        -0.18108         4.96489
| 80>    H       13.74970        -2.48006         4.63322
| 81>    H       13.45173        -4.55031         2.41236
| 82>    H       13.51263        -6.17725         4.10510
| 83>    H       13.20234        -3.92660         6.15068
| 84>    H       16.24908        -9.35250         5.27031
| 85>    H       15.44439       -10.81700         7.08298
| 86>    H       12.97537        -8.73471        10.38924
| 87>    H       10.80747        -5.45749        11.90183
| 88>    H       10.72030        -5.64583        10.14725
| 89>    H       12.17127        -4.98178        10.88146
| 90>    H       12.33159        -7.21924        13.23713
| 91>    H       12.17676        -8.79001        12.42772
| 92>    H        9.76265        -8.34486        12.30270
| 93>    H       10.57840        -6.47215        14.42875
| 94>    H        7.83359        -7.58797        13.60984
| 95>    H        8.74825        -5.61446        15.79382
| 96>    H        6.81246        -4.77074        17.29491
| 97>    H        4.28348        -5.07868        17.64342
| 98>    H        2.03853        -5.72410        17.54885
| 99>    H       -0.24340        -6.77718        17.00060
|100>    H       -1.33166        -8.49662        15.28589
|101>    H       -0.22775        -9.25646        14.02677
|102> *
|103>
|104>                          ****END OF INPUT****

CARTESIAN COORDINATES (ANGSTROEM)
---------------------------------
  C     12.468340   -1.108520   -7.777640
  C     12.052320   -1.784780   -6.698130
  C     11.141520   -2.892930   -6.653270
  C     10.909290   -3.374840   -5.412460
  C     11.611480   -2.696170   -4.377270
  S     12.586670   -1.405700   -5.052650
  C     11.580270   -2.964990   -3.030010
  C     10.845860   -3.974430   -2.358740
  C     11.037610   -3.990630   -1.014670
  C     11.935580   -2.999430   -0.534390
  S     12.518390   -2.031530   -1.876580
  C     12.317820   -2.847870    0.773150
  C     13.184090   -1.881590    1.310090
  S     13.651390   -0.469940    0.395950
  C     14.437100    0.204010    1.770500
  C     14.370370   -0.585670    2.871530
  C     14.995350   -0.227400    4.179550
  C     13.678780   -1.813810    2.623520
  C     13.602930   -2.830410    3.620880
  C     13.472700   -4.167140    3.421980
  C     13.471000   -5.151760    4.447110
  C     13.404230   -4.924510    5.785260
  C     13.477950   -5.931340    6.781410
  S     12.633140   -5.688480    8.276630
  C     12.998810   -7.277190    8.872580
  C     13.768670   -7.974800    7.933780
  C     14.092650   -7.189610    6.773620
  C     15.052390   -7.685780    5.851860
  C     15.677260   -6.879310    4.875250
  N     16.298090   -6.292370    4.108810
  C     15.523760   -8.980920    5.978330
  C     15.090770   -9.798720    7.019630
  C     14.254100   -9.311220    8.008500
  C     13.925900  -10.213200    9.041060
  N     13.703660  -11.020920    9.827720
  C     12.623040   -7.737920   10.165710
  C     11.951310   -7.092400   11.137480
  C     11.377830   -5.718920   11.013770
  C     11.772960   -7.772740   12.474450
  N     10.397200   -7.828860   12.893320
  C      9.862770   -7.050800   13.858260
  C      8.543260   -6.998910   14.174700
  C      8.043620   -6.218420   15.235730
  C      6.735640   -6.171570   15.628800
  C      6.189860   -5.412590   16.695530
  C      4.854430   -5.575610   16.879510
  C      4.249710   -6.477970   15.967280
  S      5.451950   -7.105500   14.856330
  C      2.931020   -6.856780   15.910250
  C      1.870370   -6.429530   16.753920
  C      0.669290   -6.980900   16.468790
  C      0.682700   -7.897640   15.365900
  S      2.328260   -8.002140   14.720280
  C     -0.347660   -8.591170   14.861760
  H     12.118980   -1.373590   -8.759960
  H     13.158250   -0.288490   -7.699860
  H     10.702410   -3.278410   -7.556430
  H     10.255720   -4.201210   -5.195470
  H     10.204000   -4.656520   -2.887090
  H     10.568060   -4.686180   -0.340930
  H     11.881400   -3.541470    1.479250
  H     14.915270    1.159450    1.677690
  H     15.481090    0.742440    4.109690
  H     15.738920   -0.971670    4.461980
  H     14.241090   -0.181080    4.964890
  H     13.749700   -2.480060    4.633220
  H     13.451730   -4.550310    2.412360
  H     13.512630   -6.177250    4.105100
  H     13.202340   -3.926600    6.150680
  H     16.249080   -9.352500    5.270310
  H     15.444390  -10.817000    7.082980
  H     12.975370   -8.734710   10.389240
  H     10.807470   -5.457490   11.901830
  H     10.720300   -5.645830   10.147250
  H     12.171270   -4.981780   10.881460
  H     12.331590   -7.219240   13.237130
  H     12.176760   -8.790010   12.427720
  H      9.762650   -8.344860   12.302700
  H     10.578400   -6.472150   14.428750
  H      7.833590   -7.587970   13.609840
  H      8.748250   -5.614460   15.793820
  H      6.812460   -4.770740   17.294910
  H      4.283480   -5.078680   17.643420
  H      2.038530   -5.724100   17.548850
  H     -0.243400   -6.777180   17.000600
  H     -1.331660   -8.496620   15.285890
  H     -0.227750   -9.256460   14.026770

 Total Charge           Charge          ....    0
 Multiplicity           Mult            ....    1
 Number of Electrons    NEL             ....  420
 Basis Dimension        Dim             ....  945

ORBITAL ENERGIES
----------------

  NO   OCC          E(Eh)            E(eV)
   0   2.0000     -88.979733     -2421.2616
   1   2.0000     -88.945644     -2420.3340
   2   2.0000     -88.940630     -2420.1976
   3   2.0000     -88.935853     -2420.0676
   4   2.0000     -88.919239     -2419.6155
   5   2.0000     -88.914002     -2419.4730
   6   2.0000     -14.435654      -392.8141
   7   2.0000     -14.418176      -392.3385
   8   2.0000     -14.410561      -392.1313
   9   2.0000     -10.332311      -281.1565
  10   2.0000     -10.331841      -281.1437
  11   2.0000     -10.319428      -280.8059
  12   2.0000     -10.318860      -280.7905
  13   2.0000     -10.318570      -280.7826
  14   2.0000     -10.316147      -280.7166
  15   2.0000     -10.313741      -280.6512
  16   2.0000     -10.310925      -280.5745
  17   2.0000     -10.310302      -280.5576
  18   2.0000     -10.309294      -280.5302
  19   2.0000     -10.308301      -280.5031
  20   2.0000     -10.307833      -280.4904
  21   2.0000     -10.307075      -280.4698
  22   2.0000     -10.304583      -280.4020
  23   2.0000     -10.304308      -280.3945
  24   2.0000     -10.303960      -280.3850
  25   2.0000     -10.298496      -280.2363
  26   2.0000     -10.289693      -279.9968
  27   2.0000     -10.288014      -279.9511
  28   2.0000     -10.287499      -279.9371
  29   2.0000     -10.283957      -279.8407
  30   2.0000     -10.283658      -279.8326
  31   2.0000     -10.283407      -279.8257
  32   2.0000     -10.282980      -279.8141
  33   2.0000     -10.282531      -279.8019
  34   2.0000     -10.281626      -279.7773
  35   2.0000     -10.281141      -279.7641
  36   2.0000     -10.280802      -279.7549
  37   2.0000     -10.280336      -279.7422
  38   2.0000     -10.278765      -279.6994
  39   2.0000     -10.278472      -279.6914
  40   2.0000     -10.277184      -279.6564
  41   2.0000     -10.274832      -279.5924
  42   2.0000     -10.272264      -279.5225
  43   2.0000     -10.272002      -279.5154
  44   2.0000     -10.270139      -279.4647
  45   2.0000     -10.268275      -279.4140
  46   2.0000     -10.267757      -279.3999
  47   2.0000     -10.266903      -279.3766
  48   2.0000     -10.265601      -279.3412
  49   2.0000     -10.265504      -279.3386
  50   2.0000     -10.262515      -279.2572
  51   2.0000     -10.259433      -279.1734
  52   2.0000     -10.249895      -278.9138
  53   2.0000     -10.244495      -278.7669
  54   2.0000      -8.074419      -219.7161
  55   2.0000      -8.041417      -218.8181
  56   2.0000      -8.036672      -218.6890
  57   2.0000      -8.032532      -218.5763
  58   2.0000      -8.015521      -218.1134
  59   2.0000      -8.010685      -217.9818
  60   2.0000      -6.043356      -164.4481
  61   2.0000      -6.039134      -164.3332
  62   2.0000      -6.037439      -164.2871
  63   2.0000      -6.010725      -163.5601
  64   2.0000      -6.006467      -163.4443
  65   2.0000      -6.006381      -163.4419
  66   2.0000      -6.003638      -163.3673
  67   2.0000      -6.002389      -163.3333
  68   2.0000      -6.002362      -163.3326
  69   2.0000      -5.998448      -163.2261
  70   2.0000      -5.997484      -163.1998
  71   2.0000      -5.993048      -163.0791
  72   2.0000      -5.985282      -162.8678
  73   2.0000      -5.981444      -162.7634
  74   2.0000      -5.980550      -162.7390
  75   2.0000      -5.976685      -162.6339
  76   2.0000      -5.976231      -162.6215
  77   2.0000      -5.971126      -162.4826
  78   2.0000      -1.037558       -28.2334
  79   2.0000      -1.023008       -27.8375
  80   2.0000      -1.002615       -27.2825
  81   2.0000      -0.994386       -27.0586
  82   2.0000      -0.990581       -26.9551
  83   2.0000      -0.977973       -26.6120
  84   2.0000      -0.967845       -26.3364
  85   2.0000      -0.964144       -26.2357
  86   2.0000      -0.959792       -26.1173
  87   2.0000      -0.945118       -25.7180
  88   2.0000      -0.929288       -25.2872
  89   2.0000      -0.909020       -24.7357
  90   2.0000      -0.902254       -24.5516
  91   2.0000      -0.890338       -24.2273
  92   2.0000      -0.881735       -23.9932
  93   2.0000      -0.869779       -23.6679
  94   2.0000      -0.864151       -23.5147
  95   2.0000      -0.854957       -23.2646
  96   2.0000      -0.849851       -23.1256
  97   2.0000      -0.842840       -22.9349
  98   2.0000      -0.839410       -22.8415
  99   2.0000      -0.830267       -22.5927
 100   2.0000      -0.821223       -22.3466
 101   2.0000      -0.817814       -22.2538
 102   2.0000      -0.815076       -22.1794
 103   2.0000      -0.803438       -21.8627
 104   2.0000      -0.795798       -21.6548
 105   2.0000      -0.786189       -21.3933
 106   2.0000      -0.782552       -21.2943
 107   2.0000      -0.775812       -21.1109
 108   2.0000      -0.761212       -20.7136
 109   2.0000      -0.749720       -20.4009
 110   2.0000      -0.742676       -20.2092
 111   2.0000      -0.731717       -19.9110
 112   2.0000      -0.713903       -19.4263
 113   2.0000      -0.706490       -19.2246
 114   2.0000      -0.701393       -19.0859
 115   2.0000      -0.688868       -18.7450
 116   2.0000      -0.679472       -18.4894
 117   2.0000      -0.676412       -18.4061
 118   2.0000      -0.663216       -18.0470
 119   2.0000      -0.655540       -17.8381
 120   2.0000      -0.647993       -17.6328
 121   2.0000      -0.644309       -17.5326
 122   2.0000      -0.629305       -17.1243
 123   2.0000      -0.626888       -17.0585
 124   2.0000      -0.620353       -16.8807
 125   2.0000      -0.616417       -16.7735
 126   2.0000      -0.604770       -16.4566
 127   2.0000      -0.603200       -16.4139
 128   2.0000      -0.597577       -16.2609
 129   2.0000      -0.597039       -16.2463
 130   2.0000      -0.592372       -16.1192
 131   2.0000      -0.590352       -16.0643
 132   2.0000      -0.587535       -15.9876
 133   2.0000      -0.581687       -15.8285
 134   2.0000      -0.576740       -15.6939
 135   2.0000      -0.570869       -15.5341
 136   2.0000      -0.566986       -15.4285
 137   2.0000      -0.562115       -15.2959
 138   2.0000      -0.552665       -15.0388
 139   2.0000      -0.545082       -14.8324
 140   2.0000      -0.540109       -14.6971
 141   2.0000      -0.535708       -14.5774
 142   2.0000      -0.530045       -14.4233
 143   2.0000      -0.525421       -14.2974
 144   2.0000      -0.517952       -14.0942
 145   2.0000      -0.514116       -13.9898
 146   2.0000      -0.510659       -13.8957
 147   2.0000      -0.510433       -13.8896
 148   2.0000      -0.506271       -13.7763
 149   2.0000      -0.503131       -13.6909
 150   2.0000      -0.500462       -13.6183
 151   2.0000      -0.494921       -13.4675
 152   2.0000      -0.492105       -13.3909
 153   2.0000      -0.489008       -13.3066
 154   2.0000      -0.488479       -13.2922
 155   2.0000      -0.485406       -13.2086
 156   2.0000      -0.482492       -13.1293
 157   2.0000      -0.480698       -13.0805
 158   2.0000      -0.479393       -13.0450
 159   2.0000      -0.475529       -12.9398
 160   2.0000      -0.472189       -12.8489
 161   2.0000      -0.471995       -12.8436
 162   2.0000      -0.469775       -12.7832
 163   2.0000      -0.467950       -12.7336
 164   2.0000      -0.466426       -12.6921
 165   2.0000      -0.465082       -12.6555
 166   2.0000      -0.463691       -12.6177
 167   2.0000      -0.458171       -12.4675
 168   2.0000      -0.455658       -12.3991
 169   2.0000      -0.453784       -12.3481
 170   2.0000      -0.450172       -12.2498
 171   2.0000      -0.448412       -12.2019
 172   2.0000      -0.446468       -12.1490
 173   2.0000      -0.445087       -12.1114
 174   2.0000      -0.441492       -12.0136
 175   2.0000      -0.438474       -11.9315
 176   2.0000      -0.435860       -11.8603
 177   2.0000      -0.432885       -11.7794
 178   2.0000      -0.432417       -11.7667
 179   2.0000      -0.430357       -11.7106
 180   2.0000      -0.428335       -11.6556
 181   2.0000      -0.425010       -11.5651
 182   2.0000      -0.417933       -11.3725
 183   2.0000      -0.415058       -11.2943
 184   2.0000      -0.410256       -11.1636
 185   2.0000      -0.404848       -11.0165
 186   2.0000      -0.404541       -11.0081
 187   2.0000      -0.404164       -10.9979
 188   2.0000      -0.400956       -10.9106
 189   2.0000      -0.397162       -10.8073
 190   2.0000      -0.387870       -10.5545
 191   2.0000      -0.383962       -10.4481
 192   2.0000      -0.382842       -10.4177
 193   2.0000      -0.374096       -10.1797
 194   2.0000      -0.370869       -10.0919
 195   2.0000      -0.343709        -9.3528
 196   2.0000      -0.340158        -9.2562
 197   2.0000      -0.338943        -9.2231
 198   2.0000      -0.336223        -9.1491
 199   2.0000      -0.333263        -9.0685
 200   2.0000      -0.325428        -8.8554
 201   2.0000      -0.317639        -8.6434
 202   2.0000      -0.315177        -8.5764
 203   2.0000      -0.299441        -8.1482
 204   2.0000      -0.291274        -7.9260
 205   2.0000      -0.282301        -7.6818
 206   2.0000      -0.261266        -7.1094
 207   2.0000      -0.243210        -6.6181
 208   2.0000      -0.209653        -5.7049
 209   2.0000      -0.189702        -5.1620
 210   0.0000      -0.086364        -2.3501
 211   0.0000      -0.065426        -1.7803
 212   0.0000      -0.037178        -1.0117
 213   0.0000      -0.030641        -0.8338
 214   0.0000      -0.004802        -0.1307

MULLIKEN ATOMIC CHARGES
-----------------------
   0 C :   -0.030193
   1 C :   -0.063804
   2 C :    0.053860
   3 C :    0.028117
   4 C :   -0.066388
   5 S :    0.081992
   6 C :   -0.044414
   7 C :    0.032812
   8 C :    0.028811
   9 C :   -0.036465
  10 S :    0.072878
  11 C :   -0.023502
  12 C :   -0.133193
  13 S :    0.101645
  14 C :   -0.114707
  15 C :   -0.078575
  16 C :    0.116833
  17 C :    0.132244
  18 C :   -0.019790
  19 C :   -0.010555
  20 C :    0.011649
  21 C :    0.039404
  22 C :   -0.148420
  23 S :    0.138641
  24 C :   -0.147255
  25 C :    0.168566
  26 C :    0.151376
  27 C :   -0.085206
  28 C :   -0.214293
  29 N :    0.128266
  30 C :    0.005221
  31 C :    0.024262
  32 C :   -0.099280
  33 C :   -0.167691
  34 N :    0.095291
  35 C :    0.011586
  36 C :   -0.248159
  37 C :    0.097375
  38 C :    0.219512
  39 N :   -0.152587
  40 C :    0.052105
  41 C :   -0.028622
  42 C :   -0.015767
  43 C :   -0.037767
  44 C :    0.042455
  45 C :    0.008898
  46 C :   -0.039159
  47 S :    0.048368
  48 C :   -0.078673
  49 C :    0.028665
  50 C :    0.039378
  51 C :   -0.054259
  52 S :    0.057554
  53 C :   -0.047271
  54 H :    0.019451
  55 H :    0.022817
  56 H :   -0.011948
  57 H :   -0.011282
  58 H :   -0.016334
  59 H :   -0.013988
  60 H :   -0.007431
  61 H :    0.012426
  62 H :    0.007299
  63 H :    0.035265
  64 H :    0.026997
  65 H :   -0.019191
  66 H :   -0.003644
  67 H :    0.004621
  68 H :   -0.013380
  69 H :    0.005483
  70 H :    0.004827
  71 H :   -0.020791
  72 H :    0.019110
  73 H :    0.039002
  74 H :    0.035644
  75 H :    0.023122
  76 H :    0.022546
  77 H :    0.121912
  78 H :   -0.001051
  79 H :   -0.016203
  80 H :   -0.028316
  81 H :   -0.023741
  82 H :   -0.024507
  83 H :   -0.018989
  84 H :   -0.022418
  85 H :    0.009093
  86 H :    0.011827
Sum of atomic charges:    0.0000000

LOEWDIN ATOMIC CHARGES
----------------------
   0 C :   -0.075801
   1 C :   -0.139618
   2 C :   -0.030246
   3 C :   -0.027098
   4 C :   -0.174896
   5 S :    0.352572
   6 C :   -0.182075
   7 C :   -0.035253
   8 C :   -0.033672
   9 C :   -0.150417
  10 S :    0.365841
  11 C :   -0.077705
  12 C :   -0.158308
  13 S :    0.428807
  14 C :   -0.195865
  15 C :   -0.054485
  16 C :   -0.045586
  17 C :   -0.067595
  18 C :    0.005566
  19 C :   -0.040319
  20 C :    0.001903
  21 C :   -0.064989
  22 C :   -0.168276
  23 S :    0.508613
  24 C :   -0.175616
  25 C :   -0.032865
  26 C :   -0.040314
  27 C :   -0.044330
  28 C :   -0.028963
  29 N :   -0.048868
  30 C :    0.004939
  31 C :    0.011959
  32 C :   -0.050096
  33 C :   -0.024206
  34 N :   -0.058627
  35 C :   -0.067572
  36 C :   -0.039777
  37 C :   -0.067720
  38 C :    0.046770
  39 N :    0.000790
  40 C :    0.039087
  41 C :   -0.125353
  42 C :   -0.040173
  43 C :   -0.177131
  44 C :   -0.030254
  45 C :   -0.053210
  46 C :   -0.171431
  47 S :    0.343913
  48 C :   -0.197930
  49 C :   -0.026096
  50 C :   -0.049169
  51 C :   -0.136643
  52 S :    0.332691
  53 C :   -0.101895
  54 H :    0.028476
  55 H :    0.026517
  56 H :    0.033258
  57 H :    0.032303
  58 H :    0.030660
  59 H :    0.032614
  60 H :    0.038267
  61 H :    0.020727
  62 H :    0.033196
  63 H :    0.037823
  64 H :    0.032961
  65 H :    0.025677
  66 H :    0.031426
  67 H :    0.032195
  68 H :    0.025354
  69 H :    0.044640
  70 H :    0.044751
  71 H :    0.037939
  72 H :    0.034469
  73 H :    0.032683
  74 H :    0.033356
  75 H :    0.034064
  76 H :    0.031584
  77 H :    0.081765
  78 H :    0.025268
  79 H :    0.018425
  80 H :    0.027846
  81 H :    0.028920
  82 H :    0.026834
  83 H :    0.029232
  84 H :    0.028663
  85 H :    0.023691
  86 H :    0.021408

  Mayer bond orders larger than 0.100000
B(  0-C ,  1-C ) :   1.8626 B(  0-C , 54-H ) :   0.9511 B(  0-C , 55-H ) :   0.9424
B(  1-C ,  2-C ) :   1.0788 B(  1-C ,  5-S ) :   1.0082 B(  2-C ,  3-C ) :   1.6618
B(  2-C , 56-H ) :   0.9933 B(  3-C ,  4-C ) :   1.1501 B(  3-C , 57-H ) :   0.9923
B(  4-C ,  5-S ) :   1.0451 B(  4-C ,  6-C ) :   1.5611 B(  6-C ,  7-C ) :   1.1671
B(  6-C , 10-S ) :   1.0324 B(  7-C ,  8-C ) :   1.6094 B(  7-C , 58-H ) :   0.9918
B(  8-C ,  9-C ) :   1.1358 B(  8-C , 59-H ) :   0.9990 B(  9-C , 10-S ) :   1.0358
B(  9-C , 11-C ) :   1.5775 B( 11-C , 12-C ) :   1.1941 B( 11-C , 60-H ) :   0.9579
B( 12-C , 13-S ) :   1.1262 B( 12-C , 17-C ) :   1.3878 B( 13-S , 14-C ) :   1.1240
B( 14-C , 15-C ) :   1.6048 B( 14-C , 61-H ) :   0.9650 B( 15-C , 16-C ) :   1.0944
B( 15-C , 17-C ) :   1.2275 B( 16-C , 62-H ) :   0.9493 B( 16-C , 63-H ) :   0.9440
B( 16-C , 64-H ) :   0.9407 B( 17-C , 18-C ) :   1.1444 B( 18-C , 19-C ) :   1.6647
B( 18-C , 65-H ) :   0.9425 B( 19-C , 20-C ) :   1.1727 B( 19-C , 66-H ) :   0.9735
B( 20-C , 21-C ) :   1.6576 B( 20-C , 67-H ) :   0.9680 B( 21-C , 22-C ) :   1.1303
B( 21-C , 68-H ) :   0.9408 B( 22-C , 23-S ) :   1.1511 B( 22-C , 24-C ) :   0.1072
B( 22-C , 26-C ) :   1.3499 B( 23-S , 24-C ) :   1.1311 B( 24-C , 25-C ) :   1.3724
B( 24-C , 35-C ) :   1.1354 B( 25-C , 26-C ) :   1.1738 B( 25-C , 32-C ) :   1.1942
B( 26-C , 27-C ) :   1.2108 B( 27-C , 28-C ) :   1.0866 B( 27-C , 30-C ) :   1.5281
B( 28-C , 29-N ) :   3.0270 B( 30-C , 31-C ) :   1.2024 B( 30-C , 69-H ) :   0.9952
B( 31-C , 32-C ) :   1.5384 B( 31-C , 70-H ) :   0.9921 B( 32-C , 33-C ) :   1.0868
B( 33-C , 34-N ) :   2.9675 B( 35-C , 36-C ) :   1.7678 B( 35-C , 71-H ) :   0.9372
B( 36-C , 37-C ) :   1.0875 B( 36-C , 38-C ) :   1.0501 B( 37-C , 72-H ) :   0.9399
B( 37-C , 73-H ) :   0.9374 B( 37-C , 74-H ) :   0.9346 B( 38-C , 39-N ) :   1.0012
B( 38-C , 75-H ) :   0.9254 B( 38-C , 76-H ) :   0.9377 B( 39-N , 40-C ) :   1.2201
B( 39-N , 77-H ) :   0.9400 B( 40-C , 41-C ) :   1.6053 B( 40-C , 78-H ) :   0.9631
B( 41-C , 42-C ) :   1.1599 B( 41-C , 79-H ) :   0.9657 B( 42-C , 43-C ) :   1.6052
B( 42-C , 80-H ) :   0.9771 B( 43-C , 44-C ) :   1.1349 B( 43-C , 47-S ) :   1.0041
B( 44-C , 45-C ) :   1.6093 B( 44-C , 81-H ) :   0.9970 B( 45-C , 46-C ) :   1.1691
B( 45-C , 82-H ) :   0.9924 B( 46-C , 47-S ) :   1.0422 B( 46-C , 48-C ) :   1.5609
B( 48-C , 49-C ) :   1.1602 B( 48-C , 52-S ) :   1.0243 B( 49-C , 50-C ) :   1.6530
B( 49-C , 83-H ) :   0.9914 B( 50-C , 51-C ) :   1.0841 B( 50-C , 84-H ) :   0.9924
B( 51-C , 52-S ) :   1.0113 B( 51-C , 53-C ) :   1.8579 B( 53-C , 85-H ) :   0.9499
B( 53-C , 86-H ) :   0.9421

-----------------------------------------------------------------------------
         ABSORPTION SPECTRUM VIA TRANSITION ELECTRIC DIPOLE MOMENTS
-----------------------------------------------------------------------------
State   Energy  Wavelength   fosc         T2         TX        TY        TZ
        (cm-1)    (nm)                  (au**2)     (au)      (au)      (au)
-----------------------------------------------------------------------------
   0   12772.1    783.0   0.389076895  10.02880   0.83546   0.94783  -2.90386
   1   13927.4    718.0   0.736902281  17.41870   0.47119  -1.46925   3.87788
   2   17960.9    556.8   0.528713465   9.69101   0.77825   0.17906   3.00887
   3   19551.2    511.5   0.521490728   8.78110  -1.65096  -0.81592   2.32157
   4   20284.4    493.0   1.140649217  18.51251  -4.29662  -0.19091  -0.12294
   5   20501.0    487.8   0.103721717   1.66560  -1.22553   0.08488   0.39556
   6   24764.1    403.8   0.044482597   0.59135  -0.23971   0.72808  -0.06151
   7   25101.0    398.4   0.078842218   1.03406  -0.14371   0.97977  -0.23119
   8   25867.8    386.6   0.037058919   0.47164   0.22015   0.57256   0.30879
   9   27717.5    360.8   0.022563286   0.26799  -0.19002   0.47721   0.06450
  10   28393.7    352.2   0.009769300   0.11327  -0.16520  -0.09117  -0.27869
  11   29411.6    340.0   0.041875312   0.46872   0.22532   0.60079  -0.23877
  12   29693.3    336.8   0.002270453   0.02517  -0.13855  -0.00841  -0.07685
  13   30668.0    326.1   0.099026816   1.06302   0.36788  -0.33273  -0.90387
  14   30975.2    322.8   0.109714269   1.16607  -0.45478  -0.41756   0.88594
  15   31400.1    318.5   0.216956031   2.27466  -0.38230  -0.78933   1.22697
  16   32210.0    310.5   0.039536295   0.40409  -0.40591  -0.37647   0.31241
  17   33071.4    302.4   0.004973198   0.04951   0.07382  -0.15935  -0.13662
  18   33142.2    301.7   0.012576895   0.12493  -0.28724   0.20507   0.01923
  19   33196.1    301.2   0.015463018   0.15335   0.02648  -0.26777  -0.28451
  20   33578.5    297.8   0.085971010   0.84288   0.28225  -0.52353  -0.69938
  21   34387.2    290.8   0.258641388   2.47615   0.30733   1.41331   0.61988
  22   34503.6    289.8   0.109724606   1.04692   0.60840  -0.15953  -0.80705
  23   35209.8    284.0   0.016459078   0.15389  -0.00556   0.14045  -0.36625
  24   35969.5    278.0   0.010880518   0.09958  -0.07564  -0.29117   0.09531
  25   36099.7    277.0   0.009111725   0.08309   0.06383   0.10501  -0.26076
  26   36735.1    272.2   0.130291699   1.16765  -0.44768   0.95944   0.21610
  27   37201.0    268.8   0.015331385   0.13568   0.12850  -0.06725  -0.33859
  28   37445.6    267.1   0.000807710   0.00710  -0.00184   0.01089   0.08354
  29   38066.1    262.7   0.052920753   0.45768   0.43440  -0.25479  -0.45173
  30   38171.6    262.0   0.016481539   0.14215   0.27051  -0.13718  -0.22395
  31   38555.2    259.4   0.014911945   0.12733  -0.35021   0.02339   0.06431
  32   38921.3    256.9   0.195549899   1.65404  -0.03313   0.94819   0.86826
  33   39039.7    256.1   0.140198857   1.18226  -0.63521   0.78601   0.40120
  34   39594.8    252.6   0.388119132   3.22703  -0.37581   1.74961  -0.15709

FINAL SINGLE POINT ENERGY     -4284.676974200012

DIPOLE MOMENT
-------------
                                X             Y             Z
Electronic contribution:      9.23116      -2.61314     -25.88919
Nuclear contribution   :     -8.23749       3.43063      24.81305
                        -----------------------------------------
Total Dipole Moment    :      0.99367       0.81749      -1.07614
                        -----------------------------------------
Magnitude (a.u.)       :      1.67742
Magnitude (Debye)      :      4.26366

Rotational constants in cm-1:     0.001508     0.000299     0.000270
Rotational constants in MHz :    45.201331     8.956640     8.090733

                             ****ORCA TERMINATED NORMALLY****
TOTAL RUN TIME: 0 days 0 hours 6 minutes 19 seconds 399 msec
