                         Program Version 4.2.0 -  RELEASE  -
|  1> # ORCA input file
|  2> # SCF done       -160.573593420588          0.000890765880
|  3> ! CAM-B3LYP def2-SVP def2/J RIJCOSX Grid4 TightSCF
|  4> %maxcore 5000
|  5> %tddft
|  6>     Mode sTDDFT
|  7>     Ethresh 5.0
|  8>     maxcore 5000
|  9> end
| 10>
| 11> %pal
| 12>   nprocs 6
| 13>   end
| 14> * xyz 0 1
| 15>    C        6.50506         2.68023        -5.22091
| 16>    C        7.23042         1.91843        -4.39095
| 17>    C        8.62539         2.04364        -4.07745
| 18>    C        9.08537         1.12631        -3.19878
| 19>    C        8.10260         0.20337        -2.74260
| 20>    S        6.55367         0.55215        -3.48936
| 21>    C        8.27492        -0.82680        -1.85177
| 22>    C        9.46532        -1.20512        -1.17946
| 23>    C        9.31491        -2.26987        -0.35257
| 24>    C        7.99860        -2.80700        -0.31363
| 25>    S        6.95517        -1.88909        -1.38842
| 26>    C        7.60317        -3.86036         0.46384
| 27>    C        6.33355        -4.46344         0.53103
| 28>    S        5.09015        -4.13605        -0.65007
| 29>    C        4.08959        -5.36752         0.01384
| 30>    C        4.64749        -6.00094         1.07842
| 31>    C        3.97448        -7.09579         1.83872
| 32>    C        5.93019        -5.47356         1.41306
| 33>    C        6.66683        -5.92905         2.55658
| 34>    C        7.50309        -5.18603         3.31379
| 35>    C        8.21697        -5.70167         4.43520
| 36>    C        9.04692        -4.94568         5.18354
| 37>    C        9.82757        -5.36577         6.32155
| 38>    C       10.73550        -4.45173         6.88164
| 39>    C       11.49917        -4.81655         7.96193
| 40>    C       11.37873        -6.10023         8.51809
| 41>    C       10.48532        -7.01432         7.97769
| 42>    C        9.72285        -6.64291         6.88965
| 43>    C       12.27544        -6.19612         9.64974
| 44>    C       12.95385        -4.97202         9.79090
| 45>    C       12.56537        -4.01898         8.68390
| 46>    C       12.03196        -2.68423         9.22230
| 47>    C       10.81184        -2.86848        10.11759
| 48>    C       13.72498        -3.80904         7.68155
| 49>    C       14.99856        -3.20089         8.25361
| 50>    C       13.81273        -4.77550        10.84444
| 51>    C       14.04216        -5.81463        11.75713
| 52>    C       13.40246        -7.04530        11.57302
| 53>    C       12.51004        -7.23582        10.53606
| 54>    C       14.96585        -5.61285        12.85233
| 55>    S       16.35079        -4.59092        12.62710
| 56>    C       16.91070        -4.94982        14.21179
| 57>    C       16.10252        -5.80610        14.88677
| 58>    C       16.36965        -6.22305        16.29530
| 59>    C       14.96214        -6.19443        14.10988
| 60>    C       13.85448        -6.98880        14.57416
| 61>    C       13.90539        -8.02668        15.43955
| 62>    C       12.75050        -8.74431        15.84199
| 63>    C       12.78206        -9.85261        16.63239
| 64>    C       11.63600       -10.57138        17.01520
| 65>    C       11.64639       -11.71538        17.76735
| 66>    C       10.52118       -12.47937        18.17187
| 67>    C       10.82315       -13.58640        18.89826
| 68>    C       12.21177       -13.77182        19.11834
| 69>    S       13.11854       -12.47233        18.36701
| 70>    C       12.82649       -14.79435        19.79877
| 71>    C       12.20567       -15.90412        20.43663
| 72>    C       13.06630       -16.76447        21.02439
| 73>    C       14.44890       -16.40031        20.89972
| 74>    S       14.56939       -14.89111        19.98090
| 75>    C       15.51686       -17.05593        21.37507
| 76>    H        6.95838         3.49874        -5.75178
| 77>    H        5.45962         2.49751        -5.38762
| 78>    H        9.22072         2.81839        -4.52751
| 79>    H       10.10323         1.07424        -2.85405
| 80>    H       10.39160        -0.67910        -1.32715
| 81>    H       10.10475        -2.69851         0.23979
| 82>    H        8.36789        -4.30570         1.08717
| 83>    H        3.12918        -5.55045        -0.42709
| 84>    H        2.99021        -7.29391         1.42259
| 85>    H        3.86399        -6.81919         2.88646
| 86>    H        4.56316        -8.01160         1.78885
| 87>    H        6.47966        -6.95367         2.85460
| 88>    H        7.63012        -4.13304         3.10187
| 89>    H        8.07551        -6.75066         4.65666
| 90>    H        9.16627        -3.90429         4.90605
| 91>    H       10.82235        -3.46379         6.45106
| 92>    H       10.38602        -8.00254         8.40230
| 93>    H        9.02482        -7.35257         6.47291
| 94>    H       11.77025        -2.04205         8.37843
| 95>    H       12.81882        -2.18742         9.79138
| 96>    H        9.99974        -3.34040         9.56884
| 97>    H       10.46550        -1.90524        10.48564
| 98>    H       11.05687        -3.49602        10.97172
| 99>    H       13.35435        -3.17081         6.87594
|100>    H       13.96776        -4.78166         7.24502
|101>    H       14.80637        -2.23492         8.71311
|102>    H       15.71856        -3.05458         7.45095
|103>    H       15.44660        -3.86025         8.99177
|104>    H       14.30394        -3.82680        11.00227
|105>    H       13.62803        -7.86180        12.24229
|106>    H       12.00994        -8.18553        10.41696
|107>    H       17.81608        -4.49207        14.55953
|108>    H       17.06184        -5.52780        16.76498
|109>    H       16.81766        -7.21620        16.32517
|110>    H       15.44440        -6.24665        16.86750
|111>    H       12.89112        -6.71871        14.15584
|112>    H       14.85344        -8.37670        15.82044
|113>    H       11.79425        -8.38568        15.48076
|114>    H       13.73620       -10.22306        16.98700
|115>    H       10.67175       -10.20306        16.68814
|116>    H        9.52237       -12.17931        17.90646
|117>    H       10.09276       -14.27591        19.28235
|118>    H       11.13625       -16.02462        20.43299
|119>    H       12.78054       -17.65845        21.55001
|120>    H       15.39767       -17.97212        21.92599
|121>    H       16.51705       -16.69381        21.22266
|122> *
|123>
|124>                          ****END OF INPUT****

CARTESIAN COORDINATES (ANGSTROEM)
---------------------------------
  C      6.505060    2.680230   -5.220910
  C      7.230420    1.918430   -4.390950
  C      8.625390    2.043640   -4.077450
  C      9.085370    1.126310   -3.198780
  C      8.102600    0.203370   -2.742600
  S      6.553670    0.552150   -3.489360
  C      8.274920   -0.826800   -1.851770
  C      9.465320   -1.205120   -1.179460
  C      9.314910   -2.269870   -0.352570
  C      7.998600   -2.807000   -0.313630
  S      6.955170   -1.889090   -1.388420
  C      7.603170   -3.860360    0.463840
  C      6.333550   -4.463440    0.531030
  S      5.090150   -4.136050   -0.650070
  C      4.089590   -5.367520    0.013840
  C      4.647490   -6.000940    1.078420
  C      3.974480   -7.095790    1.838720
  C      5.930190   -5.473560    1.413060
  C      6.666830   -5.929050    2.556580
  C      7.503090   -5.186030    3.313790
  C      8.216970   -5.701670    4.435200
  C      9.046920   -4.945680    5.183540
  C      9.827570   -5.365770    6.321550
  C     10.735500   -4.451730    6.881640
  C     11.499170   -4.816550    7.961930
  C     11.378730   -6.100230    8.518090
  C     10.485320   -7.014320    7.977690
  C      9.722850   -6.642910    6.889650
  C     12.275440   -6.196120    9.649740
  C     12.953850   -4.972020    9.790900
  C     12.565370   -4.018980    8.683900
  C     12.031960   -2.684230    9.222300
  C     10.811840   -2.868480   10.117590
  C     13.724980   -3.809040    7.681550
  C     14.998560   -3.200890    8.253610
  C     13.812730   -4.775500   10.844440
  C     14.042160   -5.814630   11.757130
  C     13.402460   -7.045300   11.573020
  C     12.510040   -7.235820   10.536060
  C     14.965850   -5.612850   12.852330
  S     16.350790   -4.590920   12.627100
  C     16.910700   -4.949820   14.211790
  C     16.102520   -5.806100   14.886770
  C     16.369650   -6.223050   16.295300
  C     14.962140   -6.194430   14.109880
  C     13.854480   -6.988800   14.574160
  C     13.905390   -8.026680   15.439550
  C     12.750500   -8.744310   15.841990
  C     12.782060   -9.852610   16.632390
  C     11.636000  -10.571380   17.015200
  C     11.646390  -11.715380   17.767350
  C     10.521180  -12.479370   18.171870
  C     10.823150  -13.586400   18.898260
  C     12.211770  -13.771820   19.118340
  S     13.118540  -12.472330   18.367010
  C     12.826490  -14.794350   19.798770
  C     12.205670  -15.904120   20.436630
  C     13.066300  -16.764470   21.024390
  C     14.448900  -16.400310   20.899720
  S     14.569390  -14.891110   19.980900
  C     15.516860  -17.055930   21.375070
  H      6.958380    3.498740   -5.751780
  H      5.459620    2.497510   -5.387620
  H      9.220720    2.818390   -4.527510
  H     10.103230    1.074240   -2.854050
  H     10.391600   -0.679100   -1.327150
  H     10.104750   -2.698510    0.239790
  H      8.367890   -4.305700    1.087170
  H      3.129180   -5.550450   -0.427090
  H      2.990210   -7.293910    1.422590
  H      3.863990   -6.819190    2.886460
  H      4.563160   -8.011600    1.788850
  H      6.479660   -6.953670    2.854600
  H      7.630120   -4.133040    3.101870
  H      8.075510   -6.750660    4.656660
  H      9.166270   -3.904290    4.906050
  H     10.822350   -3.463790    6.451060
  H     10.386020   -8.002540    8.402300
  H      9.024820   -7.352570    6.472910
  H     11.770250   -2.042050    8.378430
  H     12.818820   -2.187420    9.791380
  H      9.999740   -3.340400    9.568840
  H     10.465500   -1.905240   10.485640
  H     11.056870   -3.496020   10.971720
  H     13.354350   -3.170810    6.875940
  H     13.967760   -4.781660    7.245020
  H     14.806370   -2.234920    8.713110
  H     15.718560   -3.054580    7.450950
  H     15.446600   -3.860250    8.991770
  H     14.303940   -3.826800   11.002270
  H     13.628030   -7.861800   12.242290
  H     12.009940   -8.185530   10.416960
  H     17.816080   -4.492070   14.559530
  H     17.061840   -5.527800   16.764980
  H     16.817660   -7.216200   16.325170
  H     15.444400   -6.246650   16.867500
  H     12.891120   -6.718710   14.155840
  H     14.853440   -8.376700   15.820440
  H     11.794250   -8.385680   15.480760
  H     13.736200  -10.223060   16.987000
  H     10.671750  -10.203060   16.688140
  H      9.522370  -12.179310   17.906460
  H     10.092760  -14.275910   19.282350
  H     11.136250  -16.024620   20.432990
  H     12.780540  -17.658450   21.550010
  H     15.397670  -17.972120   21.925990
  H     16.517050  -16.693810   21.222660

 Total Charge           Charge          ....    0
 Multiplicity           Mult            ....    1
 Number of Electrons    NEL             ....  472
 Basis Dimension        Dim             .... 1108

ORBITAL ENERGIES
----------------

  NO   OCC          E(Eh)            E(eV)
   0   2.0000     -88.941424     -2420.2192
   1   2.0000     -88.939293     -2420.1612
   2   2.0000     -88.934001     -2420.0172
   3   2.0000     -88.933430     -2420.0017
   4   2.0000     -88.930074     -2419.9103
   5   2.0000     -88.929102     -2419.8839
   6   2.0000     -10.301062      -280.3062
   7   2.0000     -10.300493      -280.2907
   8   2.0000     -10.300035      -280.2782
   9   2.0000     -10.298996      -280.2499
  10   2.0000     -10.298927      -280.2480
  11   2.0000     -10.298183      -280.2278
  12   2.0000     -10.296549      -280.1833
  13   2.0000     -10.296325      -280.1773
  14   2.0000     -10.289936      -280.0034
  15   2.0000     -10.287006      -279.9237
  16   2.0000     -10.282393      -279.7981
  17   2.0000     -10.281751      -279.7807
  18   2.0000     -10.279742      -279.7260
  19   2.0000     -10.277046      -279.6527
  20   2.0000     -10.276860      -279.6476
  21   2.0000     -10.276637      -279.6415
  22   2.0000     -10.276311      -279.6326
  23   2.0000     -10.276223      -279.6303
  24   2.0000     -10.275753      -279.6175
  25   2.0000     -10.275742      -279.6172
  26   2.0000     -10.275215      -279.6028
  27   2.0000     -10.273159      -279.5469
  28   2.0000     -10.272951      -279.5412
  29   2.0000     -10.270315      -279.4695
  30   2.0000     -10.269161      -279.4381
  31   2.0000     -10.267683      -279.3979
  32   2.0000     -10.267332      -279.3883
  33   2.0000     -10.267152      -279.3834
  34   2.0000     -10.266191      -279.3572
  35   2.0000     -10.266176      -279.3568
  36   2.0000     -10.266127      -279.3555
  37   2.0000     -10.265812      -279.3469
  38   2.0000     -10.265428      -279.3365
  39   2.0000     -10.265380      -279.3352
  40   2.0000     -10.264901      -279.3222
  41   2.0000     -10.264851      -279.3208
  42   2.0000     -10.264587      -279.3136
  43   2.0000     -10.264330      -279.3066
  44   2.0000     -10.263984      -279.2972
  45   2.0000     -10.263482      -279.2836
  46   2.0000     -10.262954      -279.2692
  47   2.0000     -10.262872      -279.2669
  48   2.0000     -10.262648      -279.2609
  49   2.0000     -10.262631      -279.2604
  50   2.0000     -10.262228      -279.2494
  51   2.0000     -10.261952      -279.2419
  52   2.0000     -10.261819      -279.2383
  53   2.0000     -10.261164      -279.2205
  54   2.0000     -10.261010      -279.2163
  55   2.0000     -10.260563      -279.2041
  56   2.0000     -10.258623      -279.1513
  57   2.0000     -10.257880      -279.1311
  58   2.0000     -10.257853      -279.1304
  59   2.0000     -10.246651      -278.8255
  60   2.0000     -10.241702      -278.6909
  61   2.0000      -8.037286      -218.7057
  62   2.0000      -8.035082      -218.6457
  63   2.0000      -8.030033      -218.5083
  64   2.0000      -8.029703      -218.4993
  65   2.0000      -8.026760      -218.4192
  66   2.0000      -8.025840      -218.3942
  67   2.0000      -6.006477      -163.4445
  68   2.0000      -6.004413      -163.3884
  69   2.0000      -6.002322      -163.3315
  70   2.0000      -6.000083      -163.2706
  71   2.0000      -5.999868      -163.2647
  72   2.0000      -5.999653      -163.2589
  73   2.0000      -5.999447      -163.2533
  74   2.0000      -5.997251      -163.1935
  75   2.0000      -5.996593      -163.1756
  76   2.0000      -5.995774      -163.1533
  77   2.0000      -5.995684      -163.1509
  78   2.0000      -5.995578      -163.1480
  79   2.0000      -5.992714      -163.0700
  80   2.0000      -5.991778      -163.0446
  81   2.0000      -5.990793      -163.0178
  82   2.0000      -5.990447      -163.0084
  83   2.0000      -5.987248      -162.9213
  84   2.0000      -5.986309      -162.8957
  85   2.0000      -0.983887       -26.7729
  86   2.0000      -0.983425       -26.7604
  87   2.0000      -0.982612       -26.7382
  88   2.0000      -0.972524       -26.4637
  89   2.0000      -0.971802       -26.4441
  90   2.0000      -0.960619       -26.1398
  91   2.0000      -0.957645       -26.0588
  92   2.0000      -0.936785       -25.4912
  93   2.0000      -0.912530       -24.8312
  94   2.0000      -0.906442       -24.6655
  95   2.0000      -0.896701       -24.4005
  96   2.0000      -0.883951       -24.0535
  97   2.0000      -0.881010       -23.9735
  98   2.0000      -0.876666       -23.8553
  99   2.0000      -0.860738       -23.4219
 100   2.0000      -0.858950       -23.3732
 101   2.0000      -0.855968       -23.2921
 102   2.0000      -0.841865       -22.9083
 103   2.0000      -0.836473       -22.7616
 104   2.0000      -0.835960       -22.7476
 105   2.0000      -0.832661       -22.6579
 106   2.0000      -0.831552       -22.6277
 107   2.0000      -0.827744       -22.5241
 108   2.0000      -0.825445       -22.4615
 109   2.0000      -0.824619       -22.4390
 110   2.0000      -0.813037       -22.1239
 111   2.0000      -0.810191       -22.0464
 112   2.0000      -0.804845       -21.9009
 113   2.0000      -0.792819       -21.5737
 114   2.0000      -0.782230       -21.2856
 115   2.0000      -0.767437       -20.8830
 116   2.0000      -0.758824       -20.6487
 117   2.0000      -0.757314       -20.6076
 118   2.0000      -0.744430       -20.2570
 119   2.0000      -0.743706       -20.2373
 120   2.0000      -0.720983       -19.6190
 121   2.0000      -0.715842       -19.4790
 122   2.0000      -0.710777       -19.3412
 123   2.0000      -0.700609       -19.0645
 124   2.0000      -0.686393       -18.6777
 125   2.0000      -0.683261       -18.5925
 126   2.0000      -0.678003       -18.4494
 127   2.0000      -0.673980       -18.3399
 128   2.0000      -0.667515       -18.1640
 129   2.0000      -0.662303       -18.0222
 130   2.0000      -0.656070       -17.8526
 131   2.0000      -0.646415       -17.5898
 132   2.0000      -0.642314       -17.4783
 133   2.0000      -0.637092       -17.3362
 134   2.0000      -0.629094       -17.1185
 135   2.0000      -0.626349       -17.0438
 136   2.0000      -0.619647       -16.8615
 137   2.0000      -0.616697       -16.7812
 138   2.0000      -0.612287       -16.6612
 139   2.0000      -0.611014       -16.6265
 140   2.0000      -0.598748       -16.2928
 141   2.0000      -0.593426       -16.1480
 142   2.0000      -0.591523       -16.0962
 143   2.0000      -0.588944       -16.0260
 144   2.0000      -0.585645       -15.9362
 145   2.0000      -0.584527       -15.9058
 146   2.0000      -0.580874       -15.8064
 147   2.0000      -0.572793       -15.5865
 148   2.0000      -0.562007       -15.2930
 149   2.0000      -0.553457       -15.0603
 150   2.0000      -0.550120       -14.9695
 151   2.0000      -0.544018       -14.8035
 152   2.0000      -0.537279       -14.6201
 153   2.0000      -0.536514       -14.5993
 154   2.0000      -0.529584       -14.4107
 155   2.0000      -0.526644       -14.3307
 156   2.0000      -0.522179       -14.2092
 157   2.0000      -0.520831       -14.1725
 158   2.0000      -0.517404       -14.0793
 159   2.0000      -0.512949       -13.9580
 160   2.0000      -0.511443       -13.9171
 161   2.0000      -0.510210       -13.8835
 162   2.0000      -0.507651       -13.8139
 163   2.0000      -0.506601       -13.7853
 164   2.0000      -0.504938       -13.7401
 165   2.0000      -0.498566       -13.5667
 166   2.0000      -0.496761       -13.5175
 167   2.0000      -0.493655       -13.4330
 168   2.0000      -0.490942       -13.3592
 169   2.0000      -0.490154       -13.3378
 170   2.0000      -0.487585       -13.2679
 171   2.0000      -0.486440       -13.2367
 172   2.0000      -0.485790       -13.2190
 173   2.0000      -0.484082       -13.1725
 174   2.0000      -0.480532       -13.0760
 175   2.0000      -0.479414       -13.0455
 176   2.0000      -0.475584       -12.9413
 177   2.0000      -0.475385       -12.9359
 178   2.0000      -0.469729       -12.7820
 179   2.0000      -0.468452       -12.7472
 180   2.0000      -0.464051       -12.6275
 181   2.0000      -0.462931       -12.5970
 182   2.0000      -0.459647       -12.5076
 183   2.0000      -0.459240       -12.4966
 184   2.0000      -0.454700       -12.3730
 185   2.0000      -0.452500       -12.3131
 186   2.0000      -0.452248       -12.3063
 187   2.0000      -0.449036       -12.2189
 188   2.0000      -0.446605       -12.1527
 189   2.0000      -0.444321       -12.0906
 190   2.0000      -0.441742       -12.0204
 191   2.0000      -0.440866       -11.9966
 192   2.0000      -0.437802       -11.9132
 193   2.0000      -0.436775       -11.8853
 194   2.0000      -0.432856       -11.7786
 195   2.0000      -0.432573       -11.7709
 196   2.0000      -0.429424       -11.6852
 197   2.0000      -0.427093       -11.6218
 198   2.0000      -0.425074       -11.5669
 199   2.0000      -0.421532       -11.4705
 200   2.0000      -0.419213       -11.4074
 201   2.0000      -0.418569       -11.3898
 202   2.0000      -0.414659       -11.2834
 203   2.0000      -0.412481       -11.2242
 204   2.0000      -0.411320       -11.1926
 205   2.0000      -0.409338       -11.1387
 206   2.0000      -0.409251       -11.1363
 207   2.0000      -0.406461       -11.0604
 208   2.0000      -0.402397       -10.9498
 209   2.0000      -0.399728       -10.8772
 210   2.0000      -0.397465       -10.8156
 211   2.0000      -0.388041       -10.5591
 212   2.0000      -0.387634       -10.5481
 213   2.0000      -0.380983       -10.3671
 214   2.0000      -0.380883       -10.3644
 215   2.0000      -0.377912       -10.2835
 216   2.0000      -0.377227       -10.2649
 217   2.0000      -0.373803       -10.1717
 218   2.0000      -0.363016        -9.8782
 219   2.0000      -0.344402        -9.3716
 220   2.0000      -0.337420        -9.1817
 221   2.0000      -0.330683        -8.9983
 222   2.0000      -0.329480        -8.9656
 223   2.0000      -0.327625        -8.9151
 224   2.0000      -0.318055        -8.6547
 225   2.0000      -0.314823        -8.5668
 226   2.0000      -0.311737        -8.4828
 227   2.0000      -0.307730        -8.3737
 228   2.0000      -0.303075        -8.2471
 229   2.0000      -0.297326        -8.0907
 230   2.0000      -0.280804        -7.6411
 231   2.0000      -0.274410        -7.4671
 232   2.0000      -0.259911        -7.0725
 233   2.0000      -0.239305        -6.5118
 234   2.0000      -0.205434        -5.5902
 235   2.0000      -0.203415        -5.5352
 236   0.0000      -0.063404        -1.7253
 237   0.0000      -0.060285        -1.6404
 238   0.0000      -0.029143        -0.7930
 239   0.0000      -0.006926        -0.1885
 240   0.0000       0.009327         0.2538

MULLIKEN ATOMIC CHARGES
-----------------------
   0 C :   -0.033741
   1 C :   -0.061233
   2 C :    0.047349
   3 C :    0.031453
   4 C :   -0.073095
   5 S :    0.076354
   6 C :   -0.039034
   7 C :    0.026821
   8 C :    0.031061
   9 C :   -0.041274
  10 S :    0.070137
  11 C :   -0.027522
  12 C :   -0.134767
  13 S :    0.099090
  14 C :   -0.116422
  15 C :   -0.078791
  16 C :    0.120113
  17 C :    0.129441
  18 C :   -0.052674
  19 C :    0.006240
  20 C :    0.020853
  21 C :   -0.011102
  22 C :    0.132837
  23 C :   -0.112596
  24 C :    0.024503
  25 C :    0.100896
  26 C :   -0.042851
  27 C :   -0.017490
  28 C :    0.107263
  29 C :    0.026205
  30 C :   -0.133106
  31 C :    0.051741
  32 C :    0.027687
  33 C :    0.079291
  34 C :    0.029709
  35 C :   -0.115792
  36 C :    0.100791
  37 C :   -0.030040
  38 C :   -0.059752
  39 C :   -0.151671
  40 S :    0.109697
  41 C :   -0.131083
  42 C :   -0.080023
  43 C :    0.109815
  44 C :    0.140456
  45 C :   -0.084095
  46 C :    0.011292
  47 C :    0.013913
  48 C :    0.007968
  49 C :   -0.018211
  50 C :   -0.017767
  51 C :    0.037542
  52 C :    0.023854
  53 C :   -0.047170
  54 S :    0.065520
  55 C :   -0.070769
  56 C :    0.029123
  57 C :    0.048726
  58 C :   -0.061311
  59 S :    0.074257
  60 C :   -0.034664
  61 H :    0.016946
  62 H :    0.019744
  63 H :   -0.014229
  64 H :   -0.014482
  65 H :   -0.018600
  66 H :   -0.015612
  67 H :   -0.004263
  68 H :    0.010784
  69 H :    0.005489
  70 H :    0.027974
  71 H :    0.026921
  72 H :   -0.019236
  73 H :    0.000326
  74 H :   -0.016395
  75 H :   -0.029092
  76 H :   -0.044675
  77 H :   -0.040060
  78 H :   -0.034994
  79 H :   -0.003936
  80 H :    0.007417
  81 H :    0.020737
  82 H :    0.006688
  83 H :    0.019067
  84 H :   -0.005822
  85 H :    0.004287
  86 H :    0.002101
  87 H :    0.011389
  88 H :    0.021876
  89 H :   -0.029535
  90 H :   -0.007662
  91 H :   -0.036841
  92 H :    0.008513
  93 H :    0.006450
  94 H :    0.032623
  95 H :    0.030839
  96 H :    0.008849
  97 H :   -0.017482
  98 H :   -0.018582
  99 H :   -0.005711
 100 H :   -0.020541
 101 H :   -0.016341
 102 H :   -0.017052
 103 H :   -0.013213
 104 H :   -0.014790
 105 H :    0.016612
 106 H :    0.019556
Sum of atomic charges:   -0.0000000

LOEWDIN ATOMIC CHARGES
----------------------
   0 C :   -0.082711
   1 C :   -0.138736
   2 C :   -0.035160
   3 C :   -0.026521
   4 C :   -0.180344
   5 S :    0.347433
   6 C :   -0.179246
   7 C :   -0.040106
   8 C :   -0.031840
   9 C :   -0.156863
  10 S :    0.359999
  11 C :   -0.072512
  12 C :   -0.168270
  13 S :    0.423883
  14 C :   -0.196022
  15 C :   -0.058452
  16 C :   -0.044767
  17 C :   -0.063306
  18 C :   -0.025773
  19 C :   -0.023565
  20 C :   -0.024981
  21 C :   -0.022276
  22 C :   -0.024988
  23 C :   -0.022285
  24 C :    0.004536
  25 C :   -0.020077
  26 C :   -0.018275
  27 C :   -0.016395
  28 C :   -0.016637
  29 C :    0.004167
  30 C :   -0.034488
  31 C :   -0.015832
  32 C :   -0.056354
  33 C :   -0.009360
  34 C :   -0.059607
  35 C :   -0.029012
  36 C :   -0.040256
  37 C :   -0.016350
  38 C :   -0.021345
  39 C :   -0.160952
  40 S :    0.429890
  41 C :   -0.199596
  42 C :   -0.053555
  43 C :   -0.045936
  44 C :   -0.067331
  45 C :   -0.017441
  46 C :   -0.035539
  47 C :   -0.019118
  48 C :   -0.037903
  49 C :   -0.057403
  50 C :   -0.146960
  51 C :   -0.034104
  52 C :   -0.034963
  53 C :   -0.178717
  54 S :    0.358385
  55 C :   -0.181830
  56 C :   -0.026909
  57 C :   -0.036049
  58 C :   -0.138665
  59 S :    0.346134
  60 C :   -0.083150
  61 H :    0.027253
  62 H :    0.025237
  63 H :    0.032158
  64 H :    0.031321
  65 H :    0.029640
  66 H :    0.032112
  67 H :    0.039745
  68 H :    0.019719
  69 H :    0.031831
  70 H :    0.035346
  71 H :    0.033596
  72 H :    0.025650
  73 H :    0.028972
  74 H :    0.023975
  75 H :    0.024966
  76 H :    0.022001
  77 H :    0.025632
  78 H :    0.024051
  79 H :    0.019464
  80 H :    0.019964
  81 H :    0.025206
  82 H :    0.022940
  83 H :    0.025234
  84 H :    0.019088
  85 H :    0.026587
  86 H :    0.019530
  87 H :    0.027047
  88 H :    0.024254
  89 H :    0.018600
  90 H :    0.032615
  91 H :    0.026405
  92 H :    0.018926
  93 H :    0.031325
  94 H :    0.033708
  95 H :    0.035421
  96 H :    0.030997
  97 H :    0.026703
  98 H :    0.026171
  99 H :    0.021962
 100 H :    0.031052
 101 H :    0.032077
 102 H :    0.030087
 103 H :    0.031534
 104 H :    0.031979
 105 H :    0.027211
 106 H :    0.025118

  Mayer bond orders larger than 0.100000
B(  0-C ,  1-C ) :   1.8635 B(  0-C , 61-H ) :   0.9507 B(  0-C , 62-H ) :   0.9414
B(  1-C ,  2-C ) :   1.0801 B(  1-C ,  5-S ) :   1.0085 B(  2-C ,  3-C ) :   1.6613
B(  2-C , 63-H ) :   0.9927 B(  3-C ,  4-C ) :   1.1524 B(  3-C , 64-H ) :   0.9908
B(  4-C ,  5-S ) :   1.0390 B(  4-C ,  6-C ) :   1.5668 B(  6-C ,  7-C ) :   1.1636
B(  6-C , 10-S ) :   1.0322 B(  7-C ,  8-C ) :   1.6117 B(  7-C , 65-H ) :   0.9917
B(  8-C ,  9-C ) :   1.1321 B(  8-C , 66-H ) :   0.9994 B(  9-C , 10-S ) :   1.0272
B(  9-C , 11-C ) :   1.5925 B( 11-C , 12-C ) :   1.1836 B( 11-C , 67-H ) :   0.9591
B( 12-C , 13-S ) :   1.1174 B( 12-C , 17-C ) :   1.4161 B( 13-S , 14-C ) :   1.1317
B( 14-C , 15-C ) :   1.5936 B( 14-C , 68-H ) :   0.9651 B( 15-C , 16-C ) :   1.0968
B( 15-C , 17-C ) :   1.2412 B( 16-C , 69-H ) :   0.9502 B( 16-C , 70-H ) :   0.9441
B( 16-C , 71-H ) :   0.9419 B( 17-C , 18-C ) :   1.0841 B( 18-C , 19-C ) :   1.6738
B( 18-C , 72-H ) :   0.9580 B( 19-C , 20-C ) :   1.1199 B( 19-C , 73-H ) :   0.9890
B( 20-C , 21-C ) :   1.6705 B( 20-C , 74-H ) :   0.9791 B( 21-C , 22-C ) :   1.0573
B( 21-C , 75-H ) :   0.9849 B( 22-C , 23-C ) :   1.2880 B( 22-C , 27-C ) :   1.3445
B( 23-C , 24-C ) :   1.3746 B( 23-C , 76-H ) :   1.0105 B( 24-C , 25-C ) :   1.3788
B( 24-C , 30-C ) :   0.9237 B( 25-C , 26-C ) :   1.3297 B( 25-C , 28-C ) :   0.9946
B( 26-C , 27-C ) :   1.3995 B( 26-C , 77-H ) :   0.9888 B( 27-C , 78-H ) :   0.9847
B( 28-C , 29-C ) :   1.3762 B( 28-C , 38-C ) :   1.3408 B( 29-C , 30-C ) :   0.9175
B( 29-C , 35-C ) :   1.4025 B( 30-C , 31-C ) :   1.0342 B( 30-C , 33-C ) :   1.0135
B( 31-C , 32-C ) :   1.1047 B( 31-C , 79-H ) :   0.9385 B( 31-C , 80-H ) :   0.9382
B( 32-C , 81-H ) :   0.9633 B( 32-C , 82-H ) :   0.9644 B( 32-C , 83-H ) :   0.9646
B( 33-C , 34-C ) :   1.1159 B( 33-C , 84-H ) :   0.9366 B( 33-C , 85-H ) :   0.9382
B( 34-C , 86-H ) :   0.9628 B( 34-C , 87-H ) :   0.9590 B( 34-C , 88-H ) :   0.9599
B( 35-C , 36-C ) :   1.2896 B( 35-C , 89-H ) :   0.9933 B( 36-C , 37-C ) :   1.3707
B( 36-C , 39-C ) :   1.0280 B( 37-C , 38-C ) :   1.3706 B( 37-C , 90-H ) :   0.9863
B( 38-C , 91-H ) :   0.9922 B( 39-C , 40-S ) :   1.1519 B( 39-C , 44-C ) :   1.4836
B( 40-S , 41-C ) :   1.1302 B( 41-C , 42-C ) :   1.6044 B( 41-C , 92-H ) :   0.9685
B( 42-C , 43-C ) :   1.0924 B( 42-C , 44-C ) :   1.2255 B( 43-C , 93-H ) :   0.9474
B( 43-C , 94-H ) :   0.9432 B( 43-C , 95-H ) :   0.9451 B( 44-C , 45-C ) :   1.0607
B( 45-C , 46-C ) :   1.6670 B( 45-C , 96-H ) :   0.9654 B( 46-C , 47-C ) :   1.1275
B( 46-C , 97-H ) :   0.9851 B( 47-C , 48-C ) :   1.6239 B( 47-C , 98-H ) :   0.9915
B( 48-C , 49-C ) :   1.1393 B( 48-C , 99-H ) :   0.9757 B( 49-C , 50-C ) :   1.5836
B( 49-C ,100-H ) :   0.9810 B( 50-C , 51-C ) :   1.1318 B( 50-C , 54-S ) :   1.0243
B( 51-C , 52-C ) :   1.6092 B( 51-C ,101-H ) :   0.9992 B( 52-C , 53-C ) :   1.1700
B( 52-C ,102-H ) :   0.9926 B( 53-C , 54-S ) :   1.0369 B( 53-C , 55-C ) :   1.5602
B( 55-C , 56-C ) :   1.1542 B( 55-C , 59-S ) :   1.0388 B( 56-C , 57-C ) :   1.6603
B( 56-C ,103-H ) :   0.9916 B( 57-C , 58-C ) :   1.0808 B( 57-C ,104-H ) :   0.9924
B( 58-C , 59-S ) :   1.0082 B( 58-C , 60-C ) :   1.8613 B( 60-C ,105-H ) :   0.9507
B( 60-C ,106-H ) :   0.9424

-----------------------------------------------------------------------------
         ABSORPTION SPECTRUM VIA TRANSITION ELECTRIC DIPOLE MOMENTS
-----------------------------------------------------------------------------
State   Energy  Wavelength   fosc         T2         TX        TY        TZ
        (cm-1)    (nm)                  (au**2)     (au)      (au)      (au)
-----------------------------------------------------------------------------
   0   17698.5    565.0   3.118218562  58.00238   0.62146  -5.26992   5.46298
   1   18445.5    542.1   0.427552529   7.63088   0.56463  -2.33838   1.35796
   2   24158.4    413.9   0.019565421   0.26662   0.20447   0.47116  -0.05318
   3   24629.4    406.0   0.227201924   3.03692   0.87936   1.13302   0.98991
   4   25234.1    396.3   0.020034627   0.26138  -0.01432   0.25575  -0.44246
   5   26676.8    374.9   0.070194633   0.86625  -0.45779  -0.27525  -0.76218
   6   27027.1    370.0   0.422002004   5.14033   1.45801   0.99575   1.42232
   7   28047.2    356.5   0.117699765   1.38153   0.58673   0.36450  -0.95101
   8   29794.6    335.6   0.014064887   0.15541   0.25298   0.18175  -0.24161
   9   30165.5    331.5   0.006310979   0.06888  -0.16655   0.19146  -0.06694
  10   32426.9    308.4   1.265729409  12.85023   3.23207   0.52281   1.45967
  11   32818.3    304.7   0.163729259   1.64243   0.00564   0.51492  -1.17356
  12   33301.7    300.3   0.129293926   1.27817   0.80275  -0.22555   0.76347
  13   33654.9    297.1   0.047988568   0.46942   0.62609  -0.00071   0.27827
  14   34010.3    294.0   0.076748362   0.74291  -0.45085  -0.19107   0.70932
  15   34627.8    288.8   0.038849612   0.36935   0.53507   0.05556   0.28277
  16   34882.3    286.7   0.000326116   0.00308  -0.03676   0.03411  -0.02374
  17   35096.2    284.9   0.023242232   0.21802  -0.33459  -0.28355   0.16022
  18   35402.1    282.5   0.034117621   0.31727   0.29432  -0.20892   0.43243
  19   35623.2    280.7   0.012672091   0.11711   0.26258  -0.07512   0.20620
  20   35830.2    279.1   0.112297712   1.03180   0.71365   0.13262   0.71058
  21   36868.6    271.2   0.004275143   0.03817  -0.07850  -0.17324   0.04472
  22   37781.5    264.7   0.002222106   0.01936  -0.11893   0.05533  -0.04646
  23   38545.8    259.4   0.001794649   0.01533  -0.05174  -0.10774  -0.03229
  24   39006.6    256.4   0.138281809   1.16708   0.71327   0.79195  -0.17651
  25   39143.5    255.5   0.060077101   0.50527   0.69301   0.09926   0.12310
  26   39361.6    254.1   0.038141731   0.31901   0.16273  -0.47533   0.25805
  27   39709.6    251.8   0.007650200   0.06342   0.25136   0.00956  -0.01220
  28   39920.9    250.5   0.054056102   0.44578  -0.66496  -0.03716  -0.04714
  29   40033.9    249.8   0.034831862   0.28643   0.23655   0.39708  -0.26983

FINAL SINGLE POINT ENERGY     -4509.083360891943

DIPOLE MOMENT
-------------
                                X             Y             Z
Electronic contribution:    -12.35404      -9.49551     -20.07325
Nuclear contribution   :     12.34476       9.25962      20.55292
                        -----------------------------------------
Total Dipole Moment    :     -0.00927      -0.23588       0.47967
                        -----------------------------------------
Magnitude (a.u.)       :      0.53461
Magnitude (Debye)      :      1.35887

Rotational constants in cm-1:     0.001910     0.000201     0.000184
Rotational constants in MHz :    57.262624     6.013389     5.521912

                             ****ORCA TERMINATED NORMALLY****
TOTAL RUN TIME: 0 days 0 hours 8 minutes 4 seconds 481 msec
