                         Program Version 4.2.0 -  RELEASE  -
|  1> # ORCA input file
|  2> # SCF done       -142.544827083845          0.000845430813
|  3> ! CAM-B3LYP def2-SVP def2/J RIJCOSX Grid4 TightSCF
|  4> %maxcore 5000
|  5> %tddft
|  6>     Mode sTDDFT
|  7>     Ethresh 5.0
|  8>     maxcore 5000
|  9> end
| 10>
| 11> %pal
| 12>   nprocs 6
| 13>   end
| 14> * xyz 0 1
| 15>    C       16.07772        -5.63062         1.50210
| 16>    C       15.04660        -4.83586         1.18595
| 17>    C       14.85783        -3.45823         1.53857
| 18>    C       13.68522        -2.93010         1.12598
| 19>    C       12.84802        -3.84046         0.42115
| 20>    S       13.64875        -5.39094         0.25254
| 21>    C       11.56637        -3.62940        -0.02155
| 22>    C       10.75674        -2.47507         0.13998
| 23>    C        9.47137        -2.64934        -0.25905
| 24>    C        9.16815        -3.95914        -0.72981
| 25>    S       10.64196        -4.90865        -0.79074
| 26>    C        7.91091        -4.39721        -1.05176
| 27>    C        7.42917        -5.68815        -1.36945
| 28>    S        6.01149        -5.71771        -2.40721
| 29>    C        6.06624        -7.43260        -2.50711
| 30>    C        7.07425        -7.97407        -1.78041
| 31>    C        7.32017        -9.44338        -1.68176
| 32>    C        7.84681        -6.99173        -1.07815
| 33>    C        8.84700        -7.37919        -0.13293
| 34>    C        9.24658        -6.63767         0.92818
| 35>    C       10.38201        -6.93617         1.72555
| 36>    C       10.91715        -6.02495         2.57553
| 37>    C       12.16971        -6.14846         3.22485
| 38>    S       13.02105        -7.66346         3.22692
| 39>    C       14.32683        -6.96097         4.09312
| 40>    C       14.14523        -5.64687         4.38420
| 41>    C       15.19255        -4.85438         5.09358
| 42>    C       12.89880        -5.15001         3.88295
| 43>    C       12.43340        -3.79712         3.91097
| 44>    C       12.84803        -2.76881         4.68782
| 45>    C       12.32668        -1.45711         4.53677
| 46>    C       12.71174        -0.40171         5.29543
| 47>    C       12.20272         0.91498         5.16449
| 48>    S       10.79289         1.21748         4.17958
| 49>    C       10.73949         2.85982         4.69263
| 50>    C       11.72703         3.17847         5.56389
| 51>    C       11.90357         4.53947         6.15170
| 52>    C       12.60399         2.07511         5.82772
| 53>    C       13.75956         2.21834         6.65878
| 54>    C       14.91348         1.50856         6.57298
| 55>    C       16.01187         1.69946         7.44140
| 56>    C       17.16792         0.97891         7.35611
| 57>    C       18.26757         1.14397         8.21134
| 58>    C       19.41568         0.39639         8.15013
| 59>    C       20.56122         0.51875         8.97607
| 60>    C       21.55588        -0.36405         8.69487
| 61>    C       21.25947        -1.24592         7.62586
| 62>    S       19.66296        -0.90192         6.98790
| 63>    C       22.05031        -2.24580         7.11312
| 64>    C       23.35353        -2.62273         7.53915
| 65>    C       23.89313        -3.65052         6.84675
| 66>    C       23.05261        -4.17360         5.80840
| 67>    S       21.53331        -3.26390         5.78047
| 68>    C       23.31798        -5.18249         4.96664
| 69>    H       16.90415        -5.25415         2.07843
| 70>    H       16.11305        -6.65879         1.19275
| 71>    H       15.60965        -2.92599         2.09411
| 72>    H       13.37682        -1.91717         1.31587
| 73>    H       11.14140        -1.56662         0.56812
| 74>    H        8.70512        -1.89728        -0.18456
| 75>    H        7.16420        -3.61370        -1.13384
| 76>    H        5.33504        -7.94468        -3.10172
| 77>    H        6.60001        -9.98711        -2.28794
| 78>    H        7.23035        -9.77583        -0.64833
| 79>    H        8.32324        -9.68548        -2.03150
| 80>    H        9.31329        -8.34140        -0.29737
| 81>    H        8.71791        -5.72168         1.15791
| 82>    H       10.90027        -7.86863         1.54498
| 83>    H       10.38654        -5.09271         2.71907
| 84>    H       15.17469        -7.56992         4.33922
| 85>    H       16.11264        -5.43133         5.15468
| 86>    H       14.87628        -4.61304         6.10804
| 87>    H       15.39422        -3.92758         4.56041
| 88>    H       11.64565        -3.57181         3.20276
| 89>    H       13.58361        -2.90750         5.46333
| 90>    H       11.59432        -1.29985         3.75358
| 91>    H       13.43657        -0.55872         6.08234
| 92>    H        9.96866         3.49902         4.30862
| 93>    H       11.14252         5.21578         5.77076
| 94>    H       12.88563         4.93883         5.90097
| 95>    H       11.81906         4.49919         7.23771
| 96>    H       13.71009         3.01370         7.39240
| 97>    H       15.03892         0.77644         5.78745
| 98>    H       15.91565         2.44760         8.21869
| 99>    H       17.25611         0.22131         6.58651
|100>    H       18.21386         1.90893         8.97583
|101>    H       20.60971         1.26262         9.75329
|102>    H       22.49220        -0.40820         9.22223
|103>    H       23.84542        -2.11425         8.34941
|104>    H       24.86667        -4.07085         7.02722
|105>    H       24.25488        -5.70846         5.01906
|106>    H       22.61272        -5.49680         4.21919
|107> *
|108>
|109>                          ****END OF INPUT****

CARTESIAN COORDINATES (ANGSTROEM)
---------------------------------
  C     16.077720   -5.630620    1.502100
  C     15.046600   -4.835860    1.185950
  C     14.857830   -3.458230    1.538570
  C     13.685220   -2.930100    1.125980
  C     12.848020   -3.840460    0.421150
  S     13.648750   -5.390940    0.252540
  C     11.566370   -3.629400   -0.021550
  C     10.756740   -2.475070    0.139980
  C      9.471370   -2.649340   -0.259050
  C      9.168150   -3.959140   -0.729810
  S     10.641960   -4.908650   -0.790740
  C      7.910910   -4.397210   -1.051760
  C      7.429170   -5.688150   -1.369450
  S      6.011490   -5.717710   -2.407210
  C      6.066240   -7.432600   -2.507110
  C      7.074250   -7.974070   -1.780410
  C      7.320170   -9.443380   -1.681760
  C      7.846810   -6.991730   -1.078150
  C      8.847000   -7.379190   -0.132930
  C      9.246580   -6.637670    0.928180
  C     10.382010   -6.936170    1.725550
  C     10.917150   -6.024950    2.575530
  C     12.169710   -6.148460    3.224850
  S     13.021050   -7.663460    3.226920
  C     14.326830   -6.960970    4.093120
  C     14.145230   -5.646870    4.384200
  C     15.192550   -4.854380    5.093580
  C     12.898800   -5.150010    3.882950
  C     12.433400   -3.797120    3.910970
  C     12.848030   -2.768810    4.687820
  C     12.326680   -1.457110    4.536770
  C     12.711740   -0.401710    5.295430
  C     12.202720    0.914980    5.164490
  S     10.792890    1.217480    4.179580
  C     10.739490    2.859820    4.692630
  C     11.727030    3.178470    5.563890
  C     11.903570    4.539470    6.151700
  C     12.603990    2.075110    5.827720
  C     13.759560    2.218340    6.658780
  C     14.913480    1.508560    6.572980
  C     16.011870    1.699460    7.441400
  C     17.167920    0.978910    7.356110
  C     18.267570    1.143970    8.211340
  C     19.415680    0.396390    8.150130
  C     20.561220    0.518750    8.976070
  C     21.555880   -0.364050    8.694870
  C     21.259470   -1.245920    7.625860
  S     19.662960   -0.901920    6.987900
  C     22.050310   -2.245800    7.113120
  C     23.353530   -2.622730    7.539150
  C     23.893130   -3.650520    6.846750
  C     23.052610   -4.173600    5.808400
  S     21.533310   -3.263900    5.780470
  C     23.317980   -5.182490    4.966640
  H     16.904150   -5.254150    2.078430
  H     16.113050   -6.658790    1.192750
  H     15.609650   -2.925990    2.094110
  H     13.376820   -1.917170    1.315870
  H     11.141400   -1.566620    0.568120
  H      8.705120   -1.897280   -0.184560
  H      7.164200   -3.613700   -1.133840
  H      5.335040   -7.944680   -3.101720
  H      6.600010   -9.987110   -2.287940
  H      7.230350   -9.775830   -0.648330
  H      8.323240   -9.685480   -2.031500
  H      9.313290   -8.341400   -0.297370
  H      8.717910   -5.721680    1.157910
  H     10.900270   -7.868630    1.544980
  H     10.386540   -5.092710    2.719070
  H     15.174690   -7.569920    4.339220
  H     16.112640   -5.431330    5.154680
  H     14.876280   -4.613040    6.108040
  H     15.394220   -3.927580    4.560410
  H     11.645650   -3.571810    3.202760
  H     13.583610   -2.907500    5.463330
  H     11.594320   -1.299850    3.753580
  H     13.436570   -0.558720    6.082340
  H      9.968660    3.499020    4.308620
  H     11.142520    5.215780    5.770760
  H     12.885630    4.938830    5.900970
  H     11.819060    4.499190    7.237710
  H     13.710090    3.013700    7.392400
  H     15.038920    0.776440    5.787450
  H     15.915650    2.447600    8.218690
  H     17.256110    0.221310    6.586510
  H     18.213860    1.908930    8.975830
  H     20.609710    1.262620    9.753290
  H     22.492200   -0.408200    9.222230
  H     23.845420   -2.114250    8.349410
  H     24.866670   -4.070850    7.027220
  H     24.254880   -5.708460    5.019060
  H     22.612720   -5.496800    4.219190

 Total Charge           Charge          ....    0
 Multiplicity           Mult            ....    1
 Number of Electrons    NEL             ....  432
 Basis Dimension        Dim             ....  974

ORBITAL ENERGIES
----------------

  NO   OCC          E(Eh)            E(eV)
   0   2.0000     -88.939323     -2420.1620
   1   2.0000     -88.936903     -2420.0962
   2   2.0000     -88.935871     -2420.0681
   3   2.0000     -88.933567     -2420.0054
   4   2.0000     -88.932319     -2419.9714
   5   2.0000     -88.931971     -2419.9620
   6   2.0000     -88.928642     -2419.8714
   7   2.0000     -10.304313      -280.3946
   8   2.0000     -10.303894      -280.3832
   9   2.0000     -10.302189      -280.3368
  10   2.0000     -10.301358      -280.3142
  11   2.0000     -10.300054      -280.2787
  12   2.0000     -10.295973      -280.1677
  13   2.0000     -10.295851      -280.1643
  14   2.0000     -10.293637      -280.1041
  15   2.0000     -10.289761      -279.9986
  16   2.0000     -10.287456      -279.9359
  17   2.0000     -10.285193      -279.8743
  18   2.0000     -10.284498      -279.8554
  19   2.0000     -10.282859      -279.8108
  20   2.0000     -10.279789      -279.7273
  21   2.0000     -10.279685      -279.7245
  22   2.0000     -10.278734      -279.6986
  23   2.0000     -10.277733      -279.6713
  24   2.0000     -10.274921      -279.5948
  25   2.0000     -10.273836      -279.5653
  26   2.0000     -10.273638      -279.5599
  27   2.0000     -10.273337      -279.5517
  28   2.0000     -10.273114      -279.5456
  29   2.0000     -10.272893      -279.5396
  30   2.0000     -10.272079      -279.5175
  31   2.0000     -10.269926      -279.4589
  32   2.0000     -10.269228      -279.4399
  33   2.0000     -10.268709      -279.4258
  34   2.0000     -10.267930      -279.4046
  35   2.0000     -10.267668      -279.3974
  36   2.0000     -10.267222      -279.3853
  37   2.0000     -10.266296      -279.3601
  38   2.0000     -10.265172      -279.3295
  39   2.0000     -10.264984      -279.3244
  40   2.0000     -10.264476      -279.3106
  41   2.0000     -10.264370      -279.3077
  42   2.0000     -10.264176      -279.3024
  43   2.0000     -10.264128      -279.3011
  44   2.0000     -10.262756      -279.2638
  45   2.0000     -10.262641      -279.2607
  46   2.0000     -10.262188      -279.2483
  47   2.0000     -10.261282      -279.2237
  48   2.0000     -10.259742      -279.1818
  49   2.0000     -10.259172      -279.1663
  50   2.0000     -10.258909      -279.1591
  51   2.0000     -10.258275      -279.1419
  52   2.0000     -10.256777      -279.1011
  53   2.0000     -10.255458      -279.0652
  54   2.0000      -8.035327      -218.6524
  55   2.0000      -8.033158      -218.5933
  56   2.0000      -8.031839      -218.5574
  57   2.0000      -8.030277      -218.5149
  58   2.0000      -8.028631      -218.4701
  59   2.0000      -8.027182      -218.4307
  60   2.0000      -8.024636      -218.3615
  61   2.0000      -6.004616      -163.3939
  62   2.0000      -6.002900      -163.3472
  63   2.0000      -6.001051      -163.2969
  64   2.0000      -6.000440      -163.2803
  65   2.0000      -6.000113      -163.2714
  66   2.0000      -5.999003      -163.2412
  67   2.0000      -5.998003      -163.2140
  68   2.0000      -5.997463      -163.1993
  69   2.0000      -5.996950      -163.1853
  70   2.0000      -5.996904      -163.1841
  71   2.0000      -5.996217      -163.1654
  72   2.0000      -5.994503      -163.1187
  73   2.0000      -5.994103      -163.1078
  74   2.0000      -5.993951      -163.1037
  75   2.0000      -5.993816      -163.1000
  76   2.0000      -5.992770      -163.0716
  77   2.0000      -5.990770      -163.0172
  78   2.0000      -5.990605      -163.0126
  79   2.0000      -5.990572      -163.0117
  80   2.0000      -5.988230      -162.9480
  81   2.0000      -5.985166      -162.8646
  82   2.0000      -0.986757       -26.8510
  83   2.0000      -0.981903       -26.7189
  84   2.0000      -0.972417       -26.4608
  85   2.0000      -0.968600       -26.3569
  86   2.0000      -0.966727       -26.3060
  87   2.0000      -0.963956       -26.2306
  88   2.0000      -0.955219       -25.9928
  89   2.0000      -0.909263       -24.7423
  90   2.0000      -0.901024       -24.5181
  91   2.0000      -0.896473       -24.3943
  92   2.0000      -0.883386       -24.0382
  93   2.0000      -0.880456       -23.9584
  94   2.0000      -0.866884       -23.5891
  95   2.0000      -0.863482       -23.4965
  96   2.0000      -0.862713       -23.4756
  97   2.0000      -0.854817       -23.2608
  98   2.0000      -0.842054       -22.9135
  99   2.0000      -0.839422       -22.8418
 100   2.0000      -0.836995       -22.7758
 101   2.0000      -0.833155       -22.6713
 102   2.0000      -0.829218       -22.5642
 103   2.0000      -0.820070       -22.3152
 104   2.0000      -0.813293       -22.1308
 105   2.0000      -0.808756       -22.0074
 106   2.0000      -0.801158       -21.8006
 107   2.0000      -0.790904       -21.5216
 108   2.0000      -0.783230       -21.3128
 109   2.0000      -0.770143       -20.9567
 110   2.0000      -0.759139       -20.6572
 111   2.0000      -0.742203       -20.1964
 112   2.0000      -0.741872       -20.1874
 113   2.0000      -0.737610       -20.0714
 114   2.0000      -0.721791       -19.6409
 115   2.0000      -0.707306       -19.2468
 116   2.0000      -0.700968       -19.0743
 117   2.0000      -0.688991       -18.7484
 118   2.0000      -0.682938       -18.5837
 119   2.0000      -0.673042       -18.3144
 120   2.0000      -0.666021       -18.1234
 121   2.0000      -0.656268       -17.8580
 122   2.0000      -0.648270       -17.6403
 123   2.0000      -0.637965       -17.3599
 124   2.0000      -0.634173       -17.2567
 125   2.0000      -0.629940       -17.1415
 126   2.0000      -0.623311       -16.9612
 127   2.0000      -0.617454       -16.8018
 128   2.0000      -0.614364       -16.7177
 129   2.0000      -0.612871       -16.6771
 130   2.0000      -0.604905       -16.4603
 131   2.0000      -0.602868       -16.4049
 132   2.0000      -0.600578       -16.3426
 133   2.0000      -0.598006       -16.2726
 134   2.0000      -0.593472       -16.1492
 135   2.0000      -0.587942       -15.9987
 136   2.0000      -0.584954       -15.9174
 137   2.0000      -0.571914       -15.5626
 138   2.0000      -0.564216       -15.3531
 139   2.0000      -0.560609       -15.2550
 140   2.0000      -0.552288       -15.0285
 141   2.0000      -0.550493       -14.9797
 142   2.0000      -0.531810       -14.4713
 143   2.0000      -0.526729       -14.3330
 144   2.0000      -0.525372       -14.2961
 145   2.0000      -0.523844       -14.2545
 146   2.0000      -0.513697       -13.9784
 147   2.0000      -0.511713       -13.9244
 148   2.0000      -0.508830       -13.8460
 149   2.0000      -0.507574       -13.8118
 150   2.0000      -0.505284       -13.7495
 151   2.0000      -0.500910       -13.6304
 152   2.0000      -0.499862       -13.6019
 153   2.0000      -0.499391       -13.5891
 154   2.0000      -0.496814       -13.5190
 155   2.0000      -0.493480       -13.4283
 156   2.0000      -0.489805       -13.3283
 157   2.0000      -0.489649       -13.3240
 158   2.0000      -0.488422       -13.2906
 159   2.0000      -0.486274       -13.2322
 160   2.0000      -0.481361       -13.0985
 161   2.0000      -0.480821       -13.0838
 162   2.0000      -0.475826       -12.9479
 163   2.0000      -0.473294       -12.8790
 164   2.0000      -0.472920       -12.8688
 165   2.0000      -0.466213       -12.6863
 166   2.0000      -0.464916       -12.6510
 167   2.0000      -0.462527       -12.5860
 168   2.0000      -0.458252       -12.4697
 169   2.0000      -0.457286       -12.4434
 170   2.0000      -0.456544       -12.4232
 171   2.0000      -0.452087       -12.3019
 172   2.0000      -0.449647       -12.2355
 173   2.0000      -0.447922       -12.1886
 174   2.0000      -0.445144       -12.1130
 175   2.0000      -0.444987       -12.1087
 176   2.0000      -0.441393       -12.0109
 177   2.0000      -0.440221       -11.9790
 178   2.0000      -0.437770       -11.9123
 179   2.0000      -0.431333       -11.7372
 180   2.0000      -0.429845       -11.6967
 181   2.0000      -0.425499       -11.5784
 182   2.0000      -0.422269       -11.4905
 183   2.0000      -0.421548       -11.4709
 184   2.0000      -0.419219       -11.4075
 185   2.0000      -0.416567       -11.3354
 186   2.0000      -0.414155       -11.2697
 187   2.0000      -0.413392       -11.2490
 188   2.0000      -0.410490       -11.1700
 189   2.0000      -0.406820       -11.0701
 190   2.0000      -0.401628       -10.9289
 191   2.0000      -0.397404       -10.8139
 192   2.0000      -0.396748       -10.7960
 193   2.0000      -0.393190       -10.6992
 194   2.0000      -0.391625       -10.6567
 195   2.0000      -0.390899       -10.6369
 196   2.0000      -0.382694       -10.4136
 197   2.0000      -0.380622       -10.3572
 198   2.0000      -0.374928       -10.2023
 199   2.0000      -0.351813        -9.5733
 200   2.0000      -0.347300        -9.4505
 201   2.0000      -0.342012        -9.3066
 202   2.0000      -0.332557        -9.0493
 203   2.0000      -0.327274        -8.9056
 204   2.0000      -0.321214        -8.7407
 205   2.0000      -0.317793        -8.6476
 206   2.0000      -0.309660        -8.4263
 207   2.0000      -0.305604        -8.3159
 208   2.0000      -0.295755        -8.0479
 209   2.0000      -0.283203        -7.7063
 210   2.0000      -0.277217        -7.5435
 211   2.0000      -0.270677        -7.3655
 212   2.0000      -0.244203        -6.6451
 213   2.0000      -0.222976        -6.0675
 214   2.0000      -0.209235        -5.6936
 215   2.0000      -0.202821        -5.5190
 216   0.0000      -0.069484        -1.8908
 217   0.0000      -0.057101        -1.5538
 218   0.0000      -0.036438        -0.9915
 219   0.0000      -0.012906        -0.3512
 220   0.0000       0.006502         0.1769

MULLIKEN ATOMIC CHARGES
-----------------------
   0 C :   -0.009137
   1 C :   -0.066961
   2 C :    0.045741
   3 C :    0.050556
   4 C :   -0.071264
   5 S :    0.084147
   6 C :   -0.072185
   7 C :    0.023663
   8 C :    0.037758
   9 C :   -0.058051
  10 S :    0.106847
  11 C :    0.001922
  12 C :   -0.183948
  13 S :    0.087584
  14 C :   -0.121005
  15 C :   -0.090125
  16 C :    0.120581
  17 C :    0.151537
  18 C :   -0.071376
  19 C :    0.034595
  20 C :    0.004249
  21 C :   -0.004145
  22 C :   -0.101758
  23 S :    0.096431
  24 C :   -0.117638
  25 C :   -0.079488
  26 C :    0.122182
  27 C :    0.141014
  28 C :   -0.023770
  29 C :   -0.007014
  30 C :   -0.002377
  31 C :   -0.011870
  32 C :   -0.122177
  33 S :    0.082864
  34 C :   -0.123587
  35 C :   -0.072902
  36 C :    0.117009
  37 C :    0.132871
  38 C :   -0.054731
  39 C :    0.013478
  40 C :    0.009043
  41 C :    0.005485
  42 C :   -0.016506
  43 C :   -0.017149
  44 C :    0.034133
  45 C :    0.026348
  46 C :   -0.047530
  47 S :    0.062841
  48 C :   -0.068852
  49 C :    0.029743
  50 C :    0.049557
  51 C :   -0.062348
  52 S :    0.072212
  53 C :   -0.033849
  54 H :    0.015086
  55 H :    0.014052
  56 H :   -0.010510
  57 H :   -0.012012
  58 H :   -0.017796
  59 H :   -0.016185
  60 H :   -0.009543
  61 H :    0.011011
  62 H :    0.004569
  63 H :    0.027500
  64 H :    0.027144
  65 H :   -0.025068
  66 H :    0.007748
  67 H :   -0.011098
  68 H :   -0.011684
  69 H :    0.004688
  70 H :    0.001816
  71 H :    0.037049
  72 H :    0.014587
  73 H :   -0.021262
  74 H :   -0.029128
  75 H :   -0.015117
  76 H :   -0.006964
  77 H :    0.009893
  78 H :    0.006367
  79 H :    0.026819
  80 H :    0.028878
  81 H :   -0.019043
  82 H :   -0.004403
  83 H :   -0.016940
  84 H :   -0.005815
  85 H :   -0.018181
  86 H :   -0.013375
  87 H :   -0.016672
  88 H :   -0.012845
  89 H :   -0.014155
  90 H :    0.018368
  91 H :    0.019572
Sum of atomic charges:   -0.0000000

LOEWDIN ATOMIC CHARGES
----------------------
   0 C :   -0.072756
   1 C :   -0.138289
   2 C :   -0.026303
   3 C :   -0.022505
   4 C :   -0.171725
   5 S :    0.364564
   6 C :   -0.186604
   7 C :   -0.050742
   8 C :   -0.033346
   9 C :   -0.158426
  10 S :    0.430262
  11 C :   -0.086556
  12 C :   -0.169606
  13 S :    0.406888
  14 C :   -0.194427
  15 C :   -0.058377
  16 C :   -0.045017
  17 C :   -0.064131
  18 C :   -0.049530
  19 C :   -0.024731
  20 C :   -0.028629
  21 C :   -0.048052
  22 C :   -0.159196
  23 S :    0.426353
  24 C :   -0.191856
  25 C :   -0.051321
  26 C :   -0.044565
  27 C :   -0.065394
  28 C :   -0.011442
  29 C :   -0.037834
  30 C :   -0.030357
  31 C :   -0.052434
  32 C :   -0.159556
  33 S :    0.413361
  34 C :   -0.194209
  35 C :   -0.057732
  36 C :   -0.045424
  37 C :   -0.066094
  38 C :   -0.021671
  39 C :   -0.028037
  40 C :   -0.020719
  41 C :   -0.036450
  42 C :   -0.058336
  43 C :   -0.145441
  44 C :   -0.034762
  45 C :   -0.033956
  46 C :   -0.179133
  47 S :    0.358735
  48 C :   -0.180566
  49 C :   -0.026576
  50 C :   -0.034918
  51 C :   -0.138787
  52 S :    0.345012
  53 C :   -0.081808
  54 H :    0.026379
  55 H :    0.023925
  56 H :    0.031440
  57 H :    0.032092
  58 H :    0.029012
  59 H :    0.031574
  60 H :    0.031730
  61 H :    0.019255
  62 H :    0.031173
  63 H :    0.035162
  64 H :    0.033685
  65 H :    0.023727
  66 H :    0.028734
  67 H :    0.018793
  68 H :    0.030262
  69 H :    0.017503
  70 H :    0.030856
  71 H :    0.034418
  72 H :    0.029094
  73 H :    0.026015
  74 H :    0.024549
  75 H :    0.016646
  76 H :    0.032555
  77 H :    0.019404
  78 H :    0.032148
  79 H :    0.034806
  80 H :    0.033922
  81 H :    0.026186
  82 H :    0.028543
  83 H :    0.026058
  84 H :    0.021329
  85 H :    0.031633
  86 H :    0.032952
  87 H :    0.030376
  88 H :    0.031790
  89 H :    0.032397
  90 H :    0.027861
  91 H :    0.025166

  Mayer bond orders larger than 0.100000
B(  0-C ,  1-C ) :   1.8642 B(  0-C , 54-H ) :   0.9480 B(  0-C , 55-H ) :   0.9341
B(  1-C ,  2-C ) :   1.0834 B(  1-C ,  5-S ) :   1.0099 B(  2-C ,  3-C ) :   1.6469
B(  2-C , 56-H ) :   0.9911 B(  3-C ,  4-C ) :   1.1532 B(  3-C , 57-H ) :   0.9936
B(  4-C ,  5-S ) :   1.0577 B(  4-C ,  6-C ) :   1.5452 B(  6-C ,  7-C ) :   1.1599
B(  6-C , 10-S ) :   1.0416 B(  7-C ,  8-C ) :   1.6066 B(  7-C , 58-H ) :   0.9925
B(  8-C ,  9-C ) :   1.1239 B(  8-C , 59-H ) :   0.9986 B(  9-C , 10-S ) :   1.0625
B(  9-C , 11-C ) :   1.6052 B( 11-C , 12-C ) :   1.1560 B( 11-C , 60-H ) :   0.9406
B( 12-C , 13-S ) :   1.1173 B( 12-C , 17-C ) :   1.4086 B( 13-S , 14-C ) :   1.1242
B( 14-C , 15-C ) :   1.6150 B( 14-C , 61-H ) :   0.9657 B( 15-C , 16-C ) :   1.0973
B( 15-C , 17-C ) :   1.2114 B( 16-C , 62-H ) :   0.9511 B( 16-C , 63-H ) :   0.9422
B( 16-C , 64-H ) :   0.9424 B( 17-C , 18-C ) :   1.1252 B( 18-C , 19-C ) :   1.6416
B( 18-C , 65-H ) :   0.9611 B( 19-C , 20-C ) :   1.1338 B( 19-C , 66-H ) :   0.9827
B( 20-C , 21-C ) :   1.6303 B( 20-C , 67-H ) :   0.9860 B( 21-C , 22-C ) :   1.1633
B( 21-C , 68-H ) :   0.9672 B( 22-C , 23-S ) :   1.1259 B( 22-C , 27-C ) :   1.4018
B( 23-S , 24-C ) :   1.1266 B( 24-C , 25-C ) :   1.6061 B( 24-C , 69-H ) :   0.9639
B( 25-C , 26-C ) :   1.1006 B( 25-C , 27-C ) :   1.2193 B( 26-C , 70-H ) :   0.9420
B( 26-C , 71-H ) :   0.9380 B( 26-C , 72-H ) :   0.9405 B( 27-C , 28-C ) :   1.1108
B( 28-C , 29-C ) :   1.6493 B( 28-C , 73-H ) :   0.9542 B( 29-C , 30-C ) :   1.1272
B( 29-C , 74-H ) :   0.9905 B( 30-C , 31-C ) :   1.6268 B( 30-C , 75-H ) :   0.9864
B( 31-C , 32-C ) :   1.1466 B( 31-C , 76-H ) :   0.9723 B( 32-C , 33-S ) :   1.1223
B( 32-C , 37-C ) :   1.4348 B( 33-S , 34-C ) :   1.1225 B( 34-C , 35-C ) :   1.6181
B( 34-C , 77-H ) :   0.9653 B( 35-C , 36-C ) :   1.0975 B( 35-C , 37-C ) :   1.2095
B( 36-C , 78-H ) :   0.9506 B( 36-C , 79-H ) :   0.9443 B( 36-C , 80-H ) :   0.9417
B( 37-C , 38-C ) :   1.0976 B( 38-C , 39-C ) :   1.6466 B( 38-C , 81-H ) :   0.9591
B( 39-C , 40-C ) :   1.1432 B( 39-C , 82-H ) :   0.9825 B( 40-C , 41-C ) :   1.6084
B( 40-C , 83-H ) :   0.9921 B( 41-C , 42-C ) :   1.1483 B( 41-C , 84-H ) :   0.9751
B( 42-C , 43-C ) :   1.5736 B( 42-C , 85-H ) :   0.9813 B( 43-C , 44-C ) :   1.1374
B( 43-C , 47-S ) :   1.0259 B( 44-C , 45-C ) :   1.6044 B( 44-C , 86-H ) :   0.9990
B( 45-C , 46-C ) :   1.1722 B( 45-C , 87-H ) :   0.9926 B( 46-C , 47-S ) :   1.0370
B( 46-C , 48-C ) :   1.5572 B( 48-C , 49-C ) :   1.1543 B( 48-C , 52-S ) :   1.0399
B( 49-C , 50-C ) :   1.6588 B( 49-C , 88-H ) :   0.9921 B( 50-C , 51-C ) :   1.0826
B( 50-C , 89-H ) :   0.9924 B( 51-C , 52-S ) :   1.0077 B( 51-C , 53-C ) :   1.8610
B( 53-C , 90-H ) :   0.9508 B( 53-C , 91-H ) :   0.9421

-----------------------------------------------------------------------------
         ABSORPTION SPECTRUM VIA TRANSITION ELECTRIC DIPOLE MOMENTS
-----------------------------------------------------------------------------
State   Energy  Wavelength   fosc         T2         TX        TY        TZ
        (cm-1)    (nm)                  (au**2)     (au)      (au)      (au)
-----------------------------------------------------------------------------
   0   15540.9    643.5   0.433135676   9.17537   2.71535  -0.48255   1.25274
   1   17068.2    585.9   0.704710790  13.59246  -3.63575   0.51762   0.32530
   2   17683.8    565.5   0.392402256   7.30520   2.67609  -0.37872   0.01857
   3   20277.1    493.2   0.323408606   5.25076  -0.92744  -1.78569  -1.09632
   4   21008.6    476.0   0.041062987   0.64347  -0.69415  -0.26901  -0.29876
   5   22355.1    447.3   0.498192862   7.33662  -0.57680   2.45502   0.98833
   6   23333.9    428.6   0.834853609  11.77875  -2.00443  -1.85415  -2.07922
   7   23697.9    422.0   0.294457920   4.09061   1.05431  -1.70731  -0.25325
   8   25636.5    390.1   0.295699053   3.79722  -0.76232   1.77437   0.26018
   9   26273.3    380.6   0.091687295   1.14887   0.27574  -0.89956  -0.51345
  10   26852.1    372.4   0.399485264   4.89777   1.90070   0.54167   0.99584
  11   27840.8    359.2   0.209653219   2.47911   0.80664  -1.31203   0.32716
  12   28400.2    352.1   0.029895529   0.34655  -0.40661   0.32833  -0.27095
  13   29278.4    341.5   0.015806955   0.17774  -0.06241   0.26299  -0.32354
  14   29834.6    335.2   0.082414004   0.90940  -0.32035  -0.55412  -0.70692
  15   31137.8    321.2   0.039375180   0.41630  -0.48265   0.17714  -0.38984
  16   31415.9    318.3   0.387610358   4.06183  -1.11927   1.65908  -0.23771
  17   31939.6    313.1   0.719502552   7.41615  -2.19830   0.68271  -1.45517
  18   33029.7    302.8   0.012344066   0.12304  -0.09768   0.32862   0.07420
  19   33546.7    298.1   0.171372155   1.68177   0.72882   0.87821   0.61590
  20   33770.8    296.1   0.004013502   0.03913  -0.09408   0.14663   0.09368
  21   34101.4    293.2   0.000737118   0.00712   0.02584  -0.06851  -0.04188
  22   34311.0    291.5   0.052105658   0.49995   0.08685   0.57337   0.40454
  23   34478.4    290.0   0.022438009   0.21425  -0.37346   0.03159  -0.27162
  24   34694.4    288.2   0.027743653   0.26326  -0.28873  -0.25481  -0.33907
  25   35636.5    280.6   0.059979904   0.55410  -0.62852   0.33172  -0.22142
  26   35689.0    280.2   0.045013081   0.41522  -0.53234   0.04862  -0.35982
  27   35987.1    277.9   0.025211222   0.23063   0.20015  -0.37221   0.22811
  28   36259.8    275.8   0.099011083   0.89895  -0.73299   0.18904  -0.57091
  29   36361.7    275.0   0.005055500   0.04577  -0.11571  -0.03626   0.17626
  30   36648.2    272.9   0.030932602   0.27787  -0.04849  -0.49789  -0.16619
  31   37056.6    269.9   0.020225716   0.17969  -0.23347   0.35337   0.01750
  32   37519.8    266.5   0.081551563   0.71556   0.69469  -0.33366   0.34877
  33   37734.5    265.0   0.054275182   0.47352  -0.08797  -0.64500  -0.22306
  34   37885.1    264.0   0.071656520   0.62268   0.66511  -0.09240   0.41445
  35   38144.6    262.2   0.010313730   0.08901  -0.07123  -0.28901  -0.02036
  36   38341.2    260.8   0.155000468   1.33089  -1.06213   0.15451  -0.42297
  37   38667.6    258.6   0.045523544   0.38758   0.33406  -0.52366   0.04200
  38   39077.2    255.9   0.134254815   1.13105  -0.56868   0.87646   0.19867
  39   39360.9    254.1   0.081440253   0.68116  -0.57682   0.17111  -0.56494
  40   39999.5    250.0   0.073617786   0.60590   0.61634  -0.23674   0.41229

FINAL SINGLE POINT ENERGY     -4597.810751227144

DIPOLE MOMENT
-------------
                                X             Y             Z
Electronic contribution:     -5.15624     -10.25065     -17.78656
Nuclear contribution   :      6.41711      11.05174      18.99668
                        -----------------------------------------
Total Dipole Moment    :      1.26087       0.80109       1.21011
                        -----------------------------------------
Magnitude (a.u.)       :      1.92248
Magnitude (Debye)      :      4.88656

Rotational constants in cm-1:     0.001795     0.000568     0.000457
Rotational constants in MHz :    53.806373    17.030606    13.707023

                             ****ORCA TERMINATED NORMALLY****
TOTAL RUN TIME: 0 days 0 hours 10 minutes 5 seconds 516 msec
