                         Program Version 4.2.0 -  RELEASE  -
|  1> # ORCA input file
|  2> # SCF done       -183.078558877121          0.000444716124
|  3> ! CAM-B3LYP def2-SVP def2/J RIJCOSX Grid4 TightSCF
|  4> %maxcore 5000
|  5> %tddft
|  6>     Mode sTDDFT
|  7>     Ethresh 5.0
|  8>     maxcore 5000
|  9> end
| 10>
| 11> %pal
| 12>   nprocs 6
| 13>   end
| 14> * xyz 0 1
| 15>    C       13.57578       -14.50732        -9.49110
| 16>    C       13.74766       -13.70131        -8.43515
| 17>    C       14.96359       -13.07533        -7.99786
| 18>    C       14.83159       -12.31491        -6.89001
| 19>    C       13.50941       -12.27308        -6.35979
| 20>    S       12.43283       -13.24775        -7.33802
| 21>    C       13.08308       -11.59706        -5.24269
| 22>    C       13.86005       -10.78891        -4.37216
| 23>    C       13.15888       -10.27878        -3.33126
| 24>    C       11.77875       -10.64140        -3.30860
| 25>    S       11.41937       -11.65160        -4.69501
| 26>    C       10.93662       -10.31733        -2.28109
| 27>    C        9.56554       -10.62350        -2.06889
| 28>    C        8.58006       -10.91662        -3.01358
| 29>    F        8.85809       -10.82496        -4.32931
| 30>    C        7.26621       -11.25548        -2.67651
| 31>    F        6.42268       -11.51938        -3.69455
| 32>    C        6.78710       -11.35031        -1.37089
| 33>    C        7.74822       -10.99599        -0.38944
| 34>    C        9.08036       -10.63152        -0.73268
| 35>    N        9.72923       -10.36021         0.40838
| 36>    N        8.83461       -10.54451         1.33964
| 37>    C        9.13005       -10.35867         2.73271
| 38>    C        8.81743       -11.62644         3.51879
| 39>    N        7.65095       -10.91815         0.94335
| 40>    C        5.46217       -11.79093        -1.06548
| 41>    C        5.06522       -12.05688         0.20107
| 42>    C        3.80296       -12.55905         0.59901
| 43>    O        2.74265       -12.70327        -0.24326
| 44>    C        3.42621       -13.00967         1.85062
| 45>    C        3.89259       -13.21189         3.22044
| 46>    O        4.95327       -12.97722         3.74525
| 47>    N        2.78832       -13.77118         3.85907
| 48>    C        1.65766       -13.95042         3.05611
| 49>    O        0.61333       -14.41110         3.43709
| 50>    C        2.08618       -13.45505         1.74767
| 51>    C        1.69194       -13.24309         0.43881
| 52>    C        0.43729       -13.48527        -0.17919
| 53>    C        0.12975       -13.06267        -1.42819
| 54>    C       -1.11592       -13.23489        -2.10808
| 55>    C       -2.17017       -14.06942        -1.73870
| 56>    F       -2.06107       -14.85000        -0.64818
| 57>    C       -3.36823       -14.18084        -2.45219
| 58>    F       -4.27159       -15.04573        -1.94938
| 59>    C       -3.66013       -13.45734        -3.61152
| 60>    C       -2.60087       -12.59753        -4.00778
| 61>    C       -1.37376       -12.50067        -3.29332
| 62>    N       -0.60852       -11.60726        -3.93365
| 63>    N       -1.34062       -11.21854        -4.94147
| 64>    C       -0.85136       -10.27484        -5.90523
| 65>    C       -0.28054       -10.99986        -7.12027
| 66>    N       -2.52354       -11.75893        -5.04918
| 67>    C       -4.85120       -13.49828        -4.38662
| 68>    C       -5.94114       -14.29664        -4.19497
| 69>    C       -7.07165       -14.25016        -5.02527
| 70>    C       -8.17258       -15.05660        -4.87592
| 71>    C       -9.34498       -15.05145        -5.67514
| 72>    C      -10.28059       -15.96496        -5.30479
| 73>    C       -9.90373       -16.75215        -4.18827
| 74>    S       -8.31190       -16.28055        -3.62557
| 75>    C      -10.62246       -17.75595        -3.58163
| 76>    C      -11.91725       -18.22905        -3.93722
| 77>    C      -12.37701       -19.23215        -3.15742
| 78>    C      -11.47433       -19.63483        -2.11682
| 79>    S      -10.00768       -18.64625        -2.20516
| 80>    C      -11.65471       -20.59416        -1.19882
| 81>    H       14.40269       -14.75784       -10.13198
| 82>    H       12.61627       -14.92719        -9.73114
| 83>    H       15.88247       -13.22614        -8.53624
| 84>    H       15.63822       -11.77665        -6.42472
| 85>    H       14.90778       -10.61542        -4.54021
| 86>    H       13.57603        -9.65096        -2.56370
| 87>    H       11.39717        -9.81988        -1.43623
| 88>    H        8.52243        -9.52968         3.10815
| 89>    H       10.18692       -10.09329         2.79531
| 90>    H        7.76613       -11.88369         3.41621
| 91>    H        9.03798       -11.46896         4.57047
| 92>    H        9.41888       -12.45651         3.15618
| 93>    H        4.79059       -11.95099        -1.89759
| 94>    H        5.76200       -11.92124         1.01528
| 95>    H        2.79865       -14.02830         4.83554
| 96>    H       -0.27101       -14.00576         0.44642
| 97>    H        0.86337       -12.49485        -1.98498
| 98>    H       -0.07918        -9.68193        -5.41239
| 99>    H       -1.68648        -9.63631        -6.20092
|100>    H        0.54502       -11.64128        -6.82198
|101>    H        0.08252       -10.27623        -7.84429
|102>    H       -1.05029       -11.60957        -7.58687
|103>    H       -4.85358       -12.80829        -5.22082
|104>    H       -5.96786       -15.00877        -3.38312
|105>    H       -7.08498       -13.53580        -5.83863
|106>    H       -9.45437       -14.36765        -6.49875
|107>    H      -11.22635       -16.09698        -5.79926
|108>    H      -12.46155       -17.80422        -4.76201
|109>    H      -13.33135       -19.71466        -3.27287
|110>    H      -12.56144       -21.17265        -1.17892
|111>    H      -10.90740       -20.81555        -0.45916
|112> *
|113>
|114>                          ****END OF INPUT****

CARTESIAN COORDINATES (ANGSTROEM)
---------------------------------
  C     13.575780  -14.507320   -9.491100
  C     13.747660  -13.701310   -8.435150
  C     14.963590  -13.075330   -7.997860
  C     14.831590  -12.314910   -6.890010
  C     13.509410  -12.273080   -6.359790
  S     12.432830  -13.247750   -7.338020
  C     13.083080  -11.597060   -5.242690
  C     13.860050  -10.788910   -4.372160
  C     13.158880  -10.278780   -3.331260
  C     11.778750  -10.641400   -3.308600
  S     11.419370  -11.651600   -4.695010
  C     10.936620  -10.317330   -2.281090
  C      9.565540  -10.623500   -2.068890
  C      8.580060  -10.916620   -3.013580
  F      8.858090  -10.824960   -4.329310
  C      7.266210  -11.255480   -2.676510
  F      6.422680  -11.519380   -3.694550
  C      6.787100  -11.350310   -1.370890
  C      7.748220  -10.995990   -0.389440
  C      9.080360  -10.631520   -0.732680
  N      9.729230  -10.360210    0.408380
  N      8.834610  -10.544510    1.339640
  C      9.130050  -10.358670    2.732710
  C      8.817430  -11.626440    3.518790
  N      7.650950  -10.918150    0.943350
  C      5.462170  -11.790930   -1.065480
  C      5.065220  -12.056880    0.201070
  C      3.802960  -12.559050    0.599010
  O      2.742650  -12.703270   -0.243260
  C      3.426210  -13.009670    1.850620
  C      3.892590  -13.211890    3.220440
  O      4.953270  -12.977220    3.745250
  N      2.788320  -13.771180    3.859070
  C      1.657660  -13.950420    3.056110
  O      0.613330  -14.411100    3.437090
  C      2.086180  -13.455050    1.747670
  C      1.691940  -13.243090    0.438810
  C      0.437290  -13.485270   -0.179190
  C      0.129750  -13.062670   -1.428190
  C     -1.115920  -13.234890   -2.108080
  C     -2.170170  -14.069420   -1.738700
  F     -2.061070  -14.850000   -0.648180
  C     -3.368230  -14.180840   -2.452190
  F     -4.271590  -15.045730   -1.949380
  C     -3.660130  -13.457340   -3.611520
  C     -2.600870  -12.597530   -4.007780
  C     -1.373760  -12.500670   -3.293320
  N     -0.608520  -11.607260   -3.933650
  N     -1.340620  -11.218540   -4.941470
  C     -0.851360  -10.274840   -5.905230
  C     -0.280540  -10.999860   -7.120270
  N     -2.523540  -11.758930   -5.049180
  C     -4.851200  -13.498280   -4.386620
  C     -5.941140  -14.296640   -4.194970
  C     -7.071650  -14.250160   -5.025270
  C     -8.172580  -15.056600   -4.875920
  C     -9.344980  -15.051450   -5.675140
  C    -10.280590  -15.964960   -5.304790
  C     -9.903730  -16.752150   -4.188270
  S     -8.311900  -16.280550   -3.625570
  C    -10.622460  -17.755950   -3.581630
  C    -11.917250  -18.229050   -3.937220
  C    -12.377010  -19.232150   -3.157420
  C    -11.474330  -19.634830   -2.116820
  S    -10.007680  -18.646250   -2.205160
  C    -11.654710  -20.594160   -1.198820
  H     14.402690  -14.757840  -10.131980
  H     12.616270  -14.927190   -9.731140
  H     15.882470  -13.226140   -8.536240
  H     15.638220  -11.776650   -6.424720
  H     14.907780  -10.615420   -4.540210
  H     13.576030   -9.650960   -2.563700
  H     11.397170   -9.819880   -1.436230
  H      8.522430   -9.529680    3.108150
  H     10.186920  -10.093290    2.795310
  H      7.766130  -11.883690    3.416210
  H      9.037980  -11.468960    4.570470
  H      9.418880  -12.456510    3.156180
  H      4.790590  -11.950990   -1.897590
  H      5.762000  -11.921240    1.015280
  H      2.798650  -14.028300    4.835540
  H     -0.271010  -14.005760    0.446420
  H      0.863370  -12.494850   -1.984980
  H     -0.079180   -9.681930   -5.412390
  H     -1.686480   -9.636310   -6.200920
  H      0.545020  -11.641280   -6.821980
  H      0.082520  -10.276230   -7.844290
  H     -1.050290  -11.609570   -7.586870
  H     -4.853580  -12.808290   -5.220820
  H     -5.967860  -15.008770   -3.383120
  H     -7.084980  -13.535800   -5.838630
  H     -9.454370  -14.367650   -6.498750
  H    -11.226350  -16.096980   -5.799260
  H    -12.461550  -17.804220   -4.762010
  H    -13.331350  -19.714660   -3.272870
  H    -12.561440  -21.172650   -1.178920
  H    -10.907400  -20.815550   -0.459160

 Total Charge           Charge          ....    0
 Multiplicity           Mult            ....    1
 Number of Electrons    NEL             ....  492
 Basis Dimension        Dim             .... 1095

ORBITAL ENERGIES
----------------

  NO   OCC          E(Eh)            E(eV)
   0   2.0000     -88.937909     -2420.1235
   1   2.0000     -88.937107     -2420.1017
   2   2.0000     -88.936130     -2420.0751
   3   2.0000     -88.935083     -2420.0466
   4   2.0000     -24.784435      -674.4188
   5   2.0000     -24.783122      -674.3830
   6   2.0000     -24.782802      -674.3743
   7   2.0000     -24.782664      -674.3706
   8   2.0000     -19.296133      -525.0745
   9   2.0000     -19.197758      -522.3976
  10   2.0000     -19.196037      -522.3507
  11   2.0000     -14.533565      -395.4784
  12   2.0000     -14.533273      -395.4705
  13   2.0000     -14.440360      -392.9422
  14   2.0000     -14.439916      -392.9301
  15   2.0000     -14.438161      -392.8823
  16   2.0000     -14.437503      -392.8644
  17   2.0000     -14.436725      -392.8433
  18   2.0000     -10.386202      -282.6229
  19   2.0000     -10.385393      -282.6009
  20   2.0000     -10.363643      -282.0091
  21   2.0000     -10.363432      -282.0033
  22   2.0000     -10.360394      -281.9207
  23   2.0000     -10.359701      -281.9018
  24   2.0000     -10.346721      -281.5486
  25   2.0000     -10.345510      -281.5156
  26   2.0000     -10.319013      -280.7946
  27   2.0000     -10.315326      -280.6943
  28   2.0000     -10.308952      -280.5208
  29   2.0000     -10.307461      -280.4803
  30   2.0000     -10.306994      -280.4676
  31   2.0000     -10.304602      -280.4025
  32   2.0000     -10.304553      -280.4011
  33   2.0000     -10.303431      -280.3706
  34   2.0000     -10.303081      -280.3611
  35   2.0000     -10.302823      -280.3541
  36   2.0000     -10.301974      -280.3310
  37   2.0000     -10.300779      -280.2985
  38   2.0000     -10.300698      -280.2962
  39   2.0000     -10.300291      -280.2852
  40   2.0000     -10.297129      -280.1991
  41   2.0000     -10.294278      -280.1215
  42   2.0000     -10.291748      -280.0527
  43   2.0000     -10.291423      -280.0438
  44   2.0000     -10.288023      -279.9513
  45   2.0000     -10.286882      -279.9203
  46   2.0000     -10.285397      -279.8799
  47   2.0000     -10.284402      -279.8528
  48   2.0000     -10.283800      -279.8364
  49   2.0000     -10.282482      -279.8006
  50   2.0000     -10.282382      -279.7978
  51   2.0000     -10.281096      -279.7629
  52   2.0000     -10.280187      -279.7381
  53   2.0000     -10.279421      -279.7173
  54   2.0000     -10.277940      -279.6770
  55   2.0000     -10.275669      -279.6152
  56   2.0000     -10.274451      -279.5820
  57   2.0000     -10.273454      -279.5549
  58   2.0000     -10.272128      -279.5188
  59   2.0000     -10.271897      -279.5125
  60   2.0000     -10.271105      -279.4910
  61   2.0000     -10.270306      -279.4692
  62   2.0000     -10.269553      -279.4487
  63   2.0000     -10.268955      -279.4325
  64   2.0000     -10.267567      -279.3947
  65   2.0000     -10.259557      -279.1767
  66   2.0000      -8.034148      -218.6203
  67   2.0000      -8.033318      -218.5977
  68   2.0000      -8.032843      -218.5848
  69   2.0000      -8.031859      -218.5580
  70   2.0000      -6.003866      -163.3735
  71   2.0000      -6.003109      -163.3529
  72   2.0000      -6.002670      -163.3410
  73   2.0000      -6.001677      -163.3139
  74   2.0000      -5.999952      -163.2670
  75   2.0000      -5.999004      -163.2412
  76   2.0000      -5.998747      -163.2342
  77   2.0000      -5.997758      -163.2073
  78   2.0000      -5.994984      -163.1318
  79   2.0000      -5.994038      -163.1061
  80   2.0000      -5.993367      -163.0878
  81   2.0000      -5.992366      -163.0606
  82   2.0000      -1.306504       -35.5518
  83   2.0000      -1.305079       -35.5130
  84   2.0000      -1.287404       -35.0320
  85   2.0000      -1.287325       -35.0299
  86   2.0000      -1.215098       -33.0645
  87   2.0000      -1.214246       -33.0413
  88   2.0000      -1.209875       -32.9224
  89   2.0000      -1.140558       -31.0361
  90   2.0000      -1.119967       -30.4758
  91   2.0000      -1.027719       -27.9657
  92   2.0000      -0.990255       -26.9462
  93   2.0000      -0.988733       -26.9048
  94   2.0000      -0.988136       -26.8885
  95   2.0000      -0.987832       -26.8803
  96   2.0000      -0.982689       -26.7403
  97   2.0000      -0.982591       -26.7377
  98   2.0000      -0.965865       -26.2825
  99   2.0000      -0.965587       -26.2750
 100   2.0000      -0.929096       -25.2820
 101   2.0000      -0.926903       -25.2223
 102   2.0000      -0.917827       -24.9754
 103   2.0000      -0.909807       -24.7571
 104   2.0000      -0.905723       -24.6460
 105   2.0000      -0.897109       -24.4116
 106   2.0000      -0.884852       -24.0780
 107   2.0000      -0.875163       -23.8144
 108   2.0000      -0.865372       -23.5480
 109   2.0000      -0.854566       -23.2539
 110   2.0000      -0.842302       -22.9202
 111   2.0000      -0.841402       -22.8957
 112   2.0000      -0.838699       -22.8222
 113   2.0000      -0.834306       -22.7026
 114   2.0000      -0.831588       -22.6287
 115   2.0000      -0.823882       -22.4190
 116   2.0000      -0.816279       -22.2121
 117   2.0000      -0.812891       -22.1199
 118   2.0000      -0.802546       -21.8384
 119   2.0000      -0.785912       -21.3858
 120   2.0000      -0.772889       -21.0314
 121   2.0000      -0.762422       -20.7465
 122   2.0000      -0.761469       -20.7206
 123   2.0000      -0.755547       -20.5595
 124   2.0000      -0.748656       -20.3720
 125   2.0000      -0.737544       -20.0696
 126   2.0000      -0.729820       -19.8594
 127   2.0000      -0.727672       -19.8010
 128   2.0000      -0.720581       -19.6080
 129   2.0000      -0.710569       -19.3356
 130   2.0000      -0.703062       -19.1313
 131   2.0000      -0.697804       -18.9882
 132   2.0000      -0.687296       -18.7023
 133   2.0000      -0.685670       -18.6580
 134   2.0000      -0.679943       -18.5022
 135   2.0000      -0.674194       -18.3458
 136   2.0000      -0.661704       -18.0059
 137   2.0000      -0.653666       -17.7872
 138   2.0000      -0.650183       -17.6924
 139   2.0000      -0.643526       -17.5112
 140   2.0000      -0.637834       -17.3564
 141   2.0000      -0.634269       -17.2593
 142   2.0000      -0.630865       -17.1667
 143   2.0000      -0.627262       -17.0687
 144   2.0000      -0.622125       -16.9289
 145   2.0000      -0.615266       -16.7422
 146   2.0000      -0.613235       -16.6870
 147   2.0000      -0.612645       -16.6709
 148   2.0000      -0.609679       -16.5902
 149   2.0000      -0.603611       -16.4251
 150   2.0000      -0.601778       -16.3752
 151   2.0000      -0.596137       -16.2217
 152   2.0000      -0.595051       -16.1922
 153   2.0000      -0.594036       -16.1645
 154   2.0000      -0.589593       -16.0436
 155   2.0000      -0.582739       -15.8571
 156   2.0000      -0.579100       -15.7581
 157   2.0000      -0.576555       -15.6889
 158   2.0000      -0.570720       -15.5301
 159   2.0000      -0.569561       -15.4985
 160   2.0000      -0.567991       -15.4558
 161   2.0000      -0.564570       -15.3627
 162   2.0000      -0.562102       -15.2956
 163   2.0000      -0.558696       -15.2029
 164   2.0000      -0.555240       -15.1089
 165   2.0000      -0.550637       -14.9836
 166   2.0000      -0.545400       -14.8411
 167   2.0000      -0.542466       -14.7612
 168   2.0000      -0.533587       -14.5196
 169   2.0000      -0.532354       -14.4861
 170   2.0000      -0.530551       -14.4370
 171   2.0000      -0.530119       -14.4253
 172   2.0000      -0.528357       -14.3773
 173   2.0000      -0.527531       -14.3548
 174   2.0000      -0.526081       -14.3154
 175   2.0000      -0.522789       -14.2258
 176   2.0000      -0.520473       -14.1628
 177   2.0000      -0.515947       -14.0396
 178   2.0000      -0.506685       -13.7876
 179   2.0000      -0.504190       -13.7197
 180   2.0000      -0.503068       -13.6892
 181   2.0000      -0.501574       -13.6485
 182   2.0000      -0.499355       -13.5881
 183   2.0000      -0.496586       -13.5128
 184   2.0000      -0.491249       -13.3676
 185   2.0000      -0.491157       -13.3651
 186   2.0000      -0.489892       -13.3306
 187   2.0000      -0.486462       -13.2373
 188   2.0000      -0.485037       -13.1985
 189   2.0000      -0.484527       -13.1847
 190   2.0000      -0.482628       -13.1330
 191   2.0000      -0.481303       -13.0969
 192   2.0000      -0.478562       -13.0223
 193   2.0000      -0.478313       -13.0155
 194   2.0000      -0.470865       -12.8129
 195   2.0000      -0.468297       -12.7430
 196   2.0000      -0.467517       -12.7218
 197   2.0000      -0.464793       -12.6477
 198   2.0000      -0.462029       -12.5725
 199   2.0000      -0.459738       -12.5101
 200   2.0000      -0.458970       -12.4892
 201   2.0000      -0.457608       -12.4522
 202   2.0000      -0.454165       -12.3585
 203   2.0000      -0.452123       -12.3029
 204   2.0000      -0.447211       -12.1692
 205   2.0000      -0.443516       -12.0687
 206   2.0000      -0.442430       -12.0391
 207   2.0000      -0.439530       -11.9602
 208   2.0000      -0.436556       -11.8793
 209   2.0000      -0.432426       -11.7669
 210   2.0000      -0.430371       -11.7110
 211   2.0000      -0.428405       -11.6575
 212   2.0000      -0.424443       -11.5497
 213   2.0000      -0.423742       -11.5306
 214   2.0000      -0.422783       -11.5045
 215   2.0000      -0.416562       -11.3352
 216   2.0000      -0.414345       -11.2749
 217   2.0000      -0.413731       -11.2582
 218   2.0000      -0.395943       -10.7742
 219   2.0000      -0.393074       -10.6961
 220   2.0000      -0.392312       -10.6754
 221   2.0000      -0.388907       -10.5827
 222   2.0000      -0.386909       -10.5283
 223   2.0000      -0.385388       -10.4870
 224   2.0000      -0.377273       -10.2661
 225   2.0000      -0.370697       -10.0872
 226   2.0000      -0.368269       -10.0211
 227   2.0000      -0.367665       -10.0047
 228   2.0000      -0.358861        -9.7651
 229   2.0000      -0.355676        -9.6784
 230   2.0000      -0.351787        -9.5726
 231   2.0000      -0.345225        -9.3941
 232   2.0000      -0.334427        -9.1002
 233   2.0000      -0.333843        -9.0843
 234   2.0000      -0.333180        -9.0663
 235   2.0000      -0.331423        -9.0185
 236   2.0000      -0.324890        -8.8407
 237   2.0000      -0.317436        -8.6379
 238   2.0000      -0.311525        -8.4770
 239   2.0000      -0.311435        -8.4746
 240   2.0000      -0.309695        -8.4272
 241   2.0000      -0.295045        -8.0286
 242   2.0000      -0.272814        -7.4236
 243   2.0000      -0.247847        -6.7443
 244   2.0000      -0.215928        -5.8757
 245   2.0000      -0.207289        -5.6406
 246   0.0000      -0.081155        -2.2083
 247   0.0000      -0.072206        -1.9648
 248   0.0000      -0.042319        -1.1516
 249   0.0000      -0.034373        -0.9353
 250   0.0000      -0.007000        -0.1905

MULLIKEN ATOMIC CHARGES
-----------------------
   0 C :   -0.026988
   1 C :   -0.065431
   2 C :    0.052807
   3 C :    0.032590
   4 C :   -0.071317
   5 S :    0.087350
   6 C :   -0.055672
   7 C :    0.035913
   8 C :    0.027175
   9 C :    0.000874
  10 S :    0.108959
  11 C :   -0.093059
  12 C :    0.021358
  13 C :    0.133351
  14 F :   -0.178901
  15 C :    0.181751
  16 F :   -0.180731
  17 C :   -0.006433
  18 C :   -0.004975
  19 C :   -0.036069
  20 N :   -0.051643
  21 N :   -0.074851
  22 C :    0.147903
  23 C :   -0.036753
  24 N :   -0.071857
  25 C :   -0.037075
  26 C :   -0.026818
  27 C :    0.117968
  28 O :   -0.213498
  29 C :   -0.042132
  30 C :    0.164484
  31 O :   -0.153028
  32 N :   -0.168574
  33 C :    0.156376
  34 O :   -0.141569
  35 C :   -0.029453
  36 C :    0.090739
  37 C :   -0.016308
  38 C :   -0.032502
  39 C :    0.002998
  40 C :    0.172712
  41 F :   -0.175542
  42 C :    0.154607
  43 F :   -0.180042
  44 C :    0.039647
  45 C :   -0.032988
  46 C :   -0.018337
  47 N :   -0.052261
  48 N :   -0.086853
  49 C :    0.144533
  50 C :   -0.011676
  51 N :   -0.057157
  52 C :   -0.070534
  53 C :    0.029491
  54 C :   -0.023903
  55 C :   -0.012966
  56 C :    0.033551
  57 C :    0.030415
  58 C :   -0.049908
  59 S :    0.079175
  60 C :   -0.065677
  61 C :    0.029512
  62 C :    0.053270
  63 C :   -0.066046
  64 S :    0.086518
  65 C :   -0.029102
  66 H :    0.020555
  67 H :    0.023131
  68 H :   -0.011225
  69 H :   -0.011928
  70 H :   -0.014053
  71 H :   -0.010996
  72 H :    0.001407
  73 H :    0.040655
  74 H :    0.033757
  75 H :    0.067140
  76 H :    0.024649
  77 H :    0.025638
  78 H :   -0.005129
  79 H :    0.030035
  80 H :    0.134007
  81 H :    0.024127
  82 H :    0.009400
  83 H :    0.038894
  84 H :    0.036096
  85 H :    0.033402
  86 H :    0.028969
  87 H :    0.034249
  88 H :   -0.010776
  89 H :    0.015171
  90 H :   -0.017041
  91 H :   -0.013260
  92 H :   -0.015172
  93 H :   -0.012042
  94 H :   -0.012369
  95 H :    0.020504
  96 H :    0.024813
Sum of atomic charges:   -0.0000000

LOEWDIN ATOMIC CHARGES
----------------------
   0 C :   -0.073270
   1 C :   -0.139811
   2 C :   -0.028806
   3 C :   -0.026551
   4 C :   -0.172193
   5 S :    0.356564
   6 C :   -0.186217
   7 C :   -0.029049
   8 C :   -0.033276
   9 C :   -0.132239
  10 S :    0.387291
  11 C :   -0.065746
  12 C :   -0.051022
  13 C :    0.046908
  14 F :   -0.055634
  15 C :    0.072122
  16 F :   -0.057385
  17 C :   -0.064339
  18 C :   -0.042889
  19 C :   -0.050524
  20 N :   -0.087175
  21 N :    0.158738
  22 C :    0.037276
  23 C :   -0.057270
  24 N :   -0.084395
  25 C :   -0.000013
  26 C :   -0.035273
  27 C :    0.069561
  28 O :    0.011282
  29 C :   -0.099310
  30 C :    0.086412
  31 O :   -0.172514
  32 N :   -0.008915
  33 C :    0.084614
  34 O :   -0.160593
  35 C :   -0.100908
  36 C :    0.072299
  37 C :   -0.035286
  38 C :    0.005737
  39 C :   -0.066147
  40 C :    0.072548
  41 F :   -0.046477
  42 C :    0.060498
  43 F :   -0.051332
  44 C :   -0.047839
  45 C :   -0.051837
  46 C :   -0.050207
  47 N :   -0.093255
  48 N :    0.157721
  49 C :    0.037344
  50 C :   -0.055326
  51 N :   -0.093385
  52 C :   -0.029097
  53 C :   -0.010540
  54 C :   -0.062652
  55 C :   -0.136925
  56 C :   -0.036788
  57 C :   -0.027605
  58 C :   -0.182706
  59 S :    0.372838
  60 C :   -0.174685
  61 C :   -0.027269
  62 C :   -0.029967
  63 C :   -0.139959
  64 S :    0.356693
  65 C :   -0.073904
  66 H :    0.028926
  67 H :    0.027009
  68 H :    0.033609
  69 H :    0.032226
  70 H :    0.031006
  71 H :    0.033380
  72 H :    0.040060
  73 H :    0.036643
  74 H :    0.035496
  75 H :    0.038421
  76 H :    0.032331
  77 H :    0.029277
  78 H :    0.034008
  79 H :    0.042362
  80 H :    0.091871
  81 H :    0.043336
  82 H :    0.038685
  83 H :    0.037900
  84 H :    0.036421
  85 H :    0.032195
  86 H :    0.032971
  87 H :    0.031466
  88 H :    0.033367
  89 H :    0.021808
  90 H :    0.031562
  91 H :    0.033109
  92 H :    0.031063
  93 H :    0.032107
  94 H :    0.033251
  95 H :    0.028795
  96 H :    0.027396

  Mayer bond orders larger than 0.100000
B(  0-C ,  1-C ) :   1.8665 B(  0-C , 66-H ) :   0.9506 B(  0-C , 67-H ) :   0.9415
B(  1-C ,  2-C ) :   1.0778 B(  1-C ,  5-S ) :   1.0062 B(  2-C ,  3-C ) :   1.6652
B(  2-C , 68-H ) :   0.9929 B(  3-C ,  4-C ) :   1.1487 B(  3-C , 69-H ) :   0.9916
B(  4-C ,  5-S ) :   1.0496 B(  4-C ,  6-C ) :   1.5641 B(  6-C ,  7-C ) :   1.1584
B(  6-C , 10-S ) :   1.0299 B(  7-C ,  8-C ) :   1.6199 B(  7-C , 70-H ) :   0.9928
B(  8-C ,  9-C ) :   1.1217 B(  8-C , 71-H ) :   0.9996 B(  9-C , 10-S ) :   1.0524
B(  9-C , 11-C ) :   1.5881 B( 11-C , 12-C ) :   1.1461 B( 11-C , 72-H ) :   0.9577
B( 12-C , 13-C ) :   1.3291 B( 12-C , 17-C ) :   0.1236 B( 12-C , 19-C ) :   1.1623
B( 13-C , 14-F ) :   1.1388 B( 13-C , 15-C ) :   1.1882 B( 15-C , 16-F ) :   1.1543
B( 15-C , 17-C ) :   1.3533 B( 17-C , 18-C ) :   1.1505 B( 17-C , 25-C ) :   1.1106
B( 18-C , 19-C ) :   1.2287 B( 18-C , 24-N ) :   1.4598 B( 19-C , 20-N ) :   1.4968
B( 20-N , 21-N ) :   1.2368 B( 20-N , 24-N ) :   0.1572 B( 21-N , 22-C ) :   0.9281
B( 21-N , 24-N ) :   1.2204 B( 22-C , 23-C ) :   1.1054 B( 22-C , 73-H ) :   0.9472
B( 22-C , 74-H ) :   0.9459 B( 23-C , 75-H ) :   0.9644 B( 23-C , 76-H ) :   0.9654
B( 23-C , 77-H ) :   0.9683 B( 25-C , 26-C ) :   1.6002 B( 25-C , 78-H ) :   0.9951
B( 26-C , 27-C ) :   1.1639 B( 26-C , 79-H ) :   0.9342 B( 27-C , 28-O ) :   1.1540
B( 27-C , 29-C ) :   1.4053 B( 28-O , 36-C ) :   1.1456 B( 29-C , 30-C ) :   0.8865
B( 29-C , 35-C ) :   1.2600 B( 30-C , 31-O ) :   2.2305 B( 30-C , 32-N ) :   1.0857
B( 32-N , 33-C ) :   1.0710 B( 32-N , 80-H ) :   0.9148 B( 33-C , 34-O ) :   2.2693
B( 33-C , 35-C ) :   0.8818 B( 35-C , 36-C ) :   1.3976 B( 36-C , 37-C ) :   1.1745
B( 37-C , 38-C ) :   1.5972 B( 37-C , 81-H ) :   0.9559 B( 38-C , 39-C ) :   1.1245
B( 38-C , 82-H ) :   0.9878 B( 39-C , 40-C ) :   1.3430 B( 39-C , 44-C ) :   0.1291
B( 39-C , 46-C ) :   1.1552 B( 40-C , 41-F ) :   1.1253 B( 40-C , 42-C ) :   1.2159
B( 42-C , 43-F ) :   1.1132 B( 42-C , 44-C ) :   1.3250 B( 44-C , 45-C ) :   1.1463
B( 44-C , 52-C ) :   1.1598 B( 45-C , 46-C ) :   1.2182 B( 45-C , 51-N ) :   1.4918
B( 46-C , 47-N ) :   1.4976 B( 47-N , 48-N ) :   1.2238 B( 47-N , 51-N ) :   0.1603
B( 48-N , 49-C ) :   0.9332 B( 48-N , 51-N ) :   1.2220 B( 49-C , 50-C ) :   1.1136
B( 49-C , 83-H ) :   0.9447 B( 49-C , 84-H ) :   0.9457 B( 50-C , 85-H ) :   0.9677
B( 50-C , 86-H ) :   0.9689 B( 50-C , 87-H ) :   0.9693 B( 52-C , 53-C ) :   1.5798
B( 52-C , 88-H ) :   0.9850 B( 53-C , 54-C ) :   1.1581 B( 53-C , 89-H ) :   0.9672
B( 54-C , 55-C ) :   1.5516 B( 54-C , 90-H ) :   0.9855 B( 55-C , 56-C ) :   1.1362
B( 55-C , 59-S ) :   1.0397 B( 56-C , 57-C ) :   1.6022 B( 56-C , 91-H ) :   0.9997
B( 57-C , 58-C ) :   1.1743 B( 57-C , 92-H ) :   0.9929 B( 58-C , 59-S ) :   1.0363
B( 58-C , 60-C ) :   1.5497 B( 60-C , 61-C ) :   1.1520 B( 60-C , 64-S ) :   1.0494
B( 61-C , 62-C ) :   1.6607 B( 61-C , 93-H ) :   0.9922 B( 62-C , 63-C ) :   1.0813
B( 62-C , 94-H ) :   0.9925 B( 63-C , 64-S ) :   1.0077 B( 63-C , 65-C ) :   1.8626
B( 65-C , 95-H ) :   0.9512 B( 65-C , 96-H ) :   0.9414

-----------------------------------------------------------------------------
         ABSORPTION SPECTRUM VIA TRANSITION ELECTRIC DIPOLE MOMENTS
-----------------------------------------------------------------------------
State   Energy  Wavelength   fosc         T2         TX        TY        TZ
        (cm-1)    (nm)                  (au**2)     (au)      (au)      (au)
-----------------------------------------------------------------------------
   0   14689.6    680.8   2.460059264  55.13283  -7.00693  -2.22264   1.04670
   1   16952.2    589.9   0.822224771  15.96757  -1.10798   2.09617   3.21652
   2   20934.0    477.7   0.026801702   0.42149   0.29430   0.32661   0.47771
   3   21937.2    455.8   0.352863545   5.29544  -0.37088  -0.00453  -2.27109
   4   23434.7    426.7   0.241230162   3.38882   1.12878   0.91218  -1.13252
   5   24833.6    402.7   0.246021639   3.26144   1.07717  -0.88487   1.14810
   6   25652.5    389.8   0.345292473   4.43132   0.91214   0.66534   1.77670
   7   26940.2    371.2   0.439444404   5.37006   0.38653   1.89895  -1.27069
   8   29116.5    343.4   0.055970756   0.63285  -0.01050   0.69865  -0.38029
   9   29495.0    339.0   0.020749154   0.23159  -0.17752  -0.37109  -0.24974
  10   30185.6    331.3   0.054890463   0.59865  -0.24948  -0.28818  -0.67332
  11   30589.0    326.9   0.081678259   0.87906   0.79318   0.48231  -0.13153
  12   31636.3    316.1   0.023786508   0.24753  -0.21934   0.37086  -0.24875
  13   32498.8    307.7   0.005917991   0.05995  -0.12434  -0.12215  -0.17195
  14   32901.4    303.9   0.082853861   0.82904   0.52784   0.25665   0.69610
  15   33379.1    299.6   0.019567557   0.19299   0.21893   0.09447   0.36897
  16   33467.8    298.8   0.045329248   0.44589  -0.00674   0.40094  -0.53394
  17   33700.6    296.7   0.122606700   1.19771   0.08702  -0.15954   1.07921
  18   33786.3    296.0   0.045696430   0.44526  -0.31260  -0.55144   0.20848
  19   34251.3    292.0   0.034159688   0.32833  -0.48554  -0.24885  -0.17509
  20   34670.4    288.4   0.000074507   0.00071   0.00996  -0.02419  -0.00482
  21   34878.4    286.7   0.089986400   0.84937   0.38150   0.08201  -0.83492
  22   35373.7    282.7   0.019901449   0.18522   0.10253   0.00874   0.41788
  23   35939.8    278.2   0.026590525   0.24357   0.32570   0.18773  -0.31976
  24   36863.2    271.3   0.000936946   0.00837  -0.07544  -0.01581   0.04926
  25   37052.6    269.9   0.005894782   0.05238   0.00365   0.07078   0.21761
  26   37356.1    267.7   0.015249211   0.13439  -0.17824  -0.17989   0.26507
  27   37944.3    263.5   0.041524755   0.36028   0.40371   0.44387  -0.01677
  28   38667.0    258.6   0.044661071   0.38025  -0.57206  -0.03289   0.22784
  29   39006.0    256.4   0.062335342   0.52611   0.46989   0.02764  -0.55187
  30   39390.3    253.9   0.071513320   0.59769   0.13841   0.61562   0.44670
  31   39922.2    250.5   0.021864570   0.18030   0.28172  -0.23152   0.21757
  32   40309.7    248.1   0.028204547   0.23035   0.31450  -0.34552  -0.10978

FINAL SINGLE POINT ENERGY     -4444.735037062213

DIPOLE MOMENT
-------------
                                X             Y             Z
Electronic contribution:      0.73584      -2.14655      11.59903
Nuclear contribution   :     -0.15005       3.11102     -13.47327
                        -----------------------------------------
Total Dipole Moment    :      0.58580       0.96448      -1.87424
                        -----------------------------------------
Magnitude (a.u.)       :      2.18773
Magnitude (Debye)      :      5.56076

Rotational constants in cm-1:     0.001412     0.000243     0.000220
Rotational constants in MHz :    42.325720     7.282685     6.581414

                             ****ORCA TERMINATED NORMALLY****
TOTAL RUN TIME: 0 days 0 hours 7 minutes 23 seconds 703 msec
