                         Program Version 4.2.0 -  RELEASE  -
|  1> # ORCA input file
|  2> # SCF done       -156.682153297243          0.000246351452
|  3> ! CAM-B3LYP def2-SVP def2/J RIJCOSX Grid4 TightSCF
|  4> %maxcore 5000
|  5> %tddft
|  6>     Mode sTDDFT
|  7>     Ethresh 5.0
|  8>     maxcore 5000
|  9> end
| 10>
| 11> %pal
| 12>   nprocs 6
| 13>   end
| 14> * xyz 0 1
| 15>    C       10.27344         1.22189         4.00944
| 16>    C        9.14719         1.09782         3.29425
| 17>    C        8.40085         2.13611         2.64264
| 18>    C        7.29697         1.70596         1.99323
| 19>    C        7.07779         0.30175         2.07682
| 20>    S        8.34376        -0.45624         3.01816
| 21>    C        6.03854        -0.41250         1.52753
| 22>    C        4.95535         0.07588         0.75748
| 23>    C        4.07669        -0.88609         0.37156
| 24>    C        4.40423        -2.19638         0.80980
| 25>    S        5.89628        -2.14896         1.72974
| 26>    C        3.64541        -3.31329         0.56233
| 27>    C        3.88262        -4.63562         0.96476
| 28>    S        2.65549        -5.84572         0.57638
| 29>    C        4.95468        -5.20056         1.65559
| 30>    C        4.78627        -6.55941         1.86568
| 31>    C        5.51924        -7.65049         2.50164
| 32>    S        6.97290        -7.55632         3.24086
| 33>    C        3.57812        -7.06473         1.34391
| 34>    C        3.50619        -8.44178         1.63501
| 35>    S        2.42978        -9.74798         1.40990
| 36>    C        4.67564        -8.81733         2.33604
| 37>    C        4.69085       -10.16495         2.68362
| 38>    C        3.54310       -10.81296         2.25986
| 39>    C        3.21144       -12.16980         2.46811
| 40>    O        2.01814       -12.66240         2.03759
| 41>    C        3.90564       -13.18703         3.09367
| 42>    C        5.14577       -13.52403         3.78504
| 43>    O        6.11305       -12.85698         4.05606
| 44>    N        4.98831       -14.87310         4.09986
| 45>    C        3.78404       -15.44174         3.69246
| 46>    O        3.46456       -16.59113         3.87867
| 47>    C        3.08288       -14.34197         3.03595
| 48>    C        1.92045       -13.98122         2.37721
| 49>    C        0.74743       -14.69867         2.04389
| 50>    C        0.58375       -16.00477         2.38103
| 51>    C       -0.56154       -16.78371         2.10077
| 52>    S       -0.58483       -18.45780         2.66031
| 53>    C       -1.73257       -16.44891         1.43693
| 54>    C       -2.63020       -17.50917         1.37704
| 55>    C       -3.95213       -17.77312         0.84633
| 56>    S       -4.92890       -16.74467         0.03358
| 57>    C       -2.14378       -18.67865         2.00627
| 58>    C       -3.12268       -19.68665         1.89355
| 59>    S       -3.36497       -21.31823         2.34274
| 60>    C       -4.22912       -19.16370         1.19262
| 61>    C       -5.25689       -20.07664         1.02023
| 62>    C       -4.96168       -21.31718         1.58579
| 63>    C       -5.70618       -22.50432         1.63701
| 64>    C       -6.94567       -22.76132         1.10598
| 65>    C       -7.62134       -24.00616         1.20464
| 66>    C       -8.83489       -24.04134         0.59443
| 67>    C       -9.19928       -22.82294        -0.02803
| 68>    S       -7.93335       -21.63046         0.20010
| 69>    C      -10.34982       -22.54024        -0.72666
| 70>    C      -11.44145       -23.41833        -0.97926
| 71>    C      -12.44267       -22.86808        -1.70048
| 72>    C      -12.21962       -21.50146        -2.07732
| 73>    S      -10.65076       -20.97364        -1.44722
| 74>    C      -13.02772       -20.70397        -2.78893
| 75>    H       10.72900         2.18572         4.15344
| 76>    H       10.75480         0.37244         4.45813
| 77>    H        8.72701         3.15978         2.69237
| 78>    H        6.62252         2.34649         1.45320
| 79>    H        4.85526         1.11832         0.51456
| 80>    H        3.19363        -0.70251        -0.21496
| 81>    H        2.73730        -3.14979        -0.00442
| 82>    H        5.81242        -4.64281         1.98143
| 83>    H        5.47846       -10.66643         3.21800
| 84>    H        5.69529       -15.39951         4.59266
| 85>    H       -0.01483       -14.14683         1.51521
| 86>    H        1.38266       -16.50416         2.91376
| 87>    H       -1.91859       -15.47765         1.01732
| 88>    H       -6.17827       -19.85918         0.51327
| 89>    H       -5.23848       -23.32921         2.15998
| 90>    H       -7.17922       -24.83664         1.72653
| 91>    H       -9.47526       -24.90457         0.57212
| 92>    H      -11.44192       -24.42995        -0.61412
| 93>    H      -13.34588       -23.37601        -1.98852
| 94>    H      -13.97317       -21.06507        -3.15351
| 95>    H      -12.76180       -19.68828        -3.01738
| 96> *
| 97>
| 98>                          ****END OF INPUT****

CARTESIAN COORDINATES (ANGSTROEM)
---------------------------------
  C     10.273440    1.221890    4.009440
  C      9.147190    1.097820    3.294250
  C      8.400850    2.136110    2.642640
  C      7.296970    1.705960    1.993230
  C      7.077790    0.301750    2.076820
  S      8.343760   -0.456240    3.018160
  C      6.038540   -0.412500    1.527530
  C      4.955350    0.075880    0.757480
  C      4.076690   -0.886090    0.371560
  C      4.404230   -2.196380    0.809800
  S      5.896280   -2.148960    1.729740
  C      3.645410   -3.313290    0.562330
  C      3.882620   -4.635620    0.964760
  S      2.655490   -5.845720    0.576380
  C      4.954680   -5.200560    1.655590
  C      4.786270   -6.559410    1.865680
  C      5.519240   -7.650490    2.501640
  S      6.972900   -7.556320    3.240860
  C      3.578120   -7.064730    1.343910
  C      3.506190   -8.441780    1.635010
  S      2.429780   -9.747980    1.409900
  C      4.675640   -8.817330    2.336040
  C      4.690850  -10.164950    2.683620
  C      3.543100  -10.812960    2.259860
  C      3.211440  -12.169800    2.468110
  O      2.018140  -12.662400    2.037590
  C      3.905640  -13.187030    3.093670
  C      5.145770  -13.524030    3.785040
  O      6.113050  -12.856980    4.056060
  N      4.988310  -14.873100    4.099860
  C      3.784040  -15.441740    3.692460
  O      3.464560  -16.591130    3.878670
  C      3.082880  -14.341970    3.035950
  C      1.920450  -13.981220    2.377210
  C      0.747430  -14.698670    2.043890
  C      0.583750  -16.004770    2.381030
  C     -0.561540  -16.783710    2.100770
  S     -0.584830  -18.457800    2.660310
  C     -1.732570  -16.448910    1.436930
  C     -2.630200  -17.509170    1.377040
  C     -3.952130  -17.773120    0.846330
  S     -4.928900  -16.744670    0.033580
  C     -2.143780  -18.678650    2.006270
  C     -3.122680  -19.686650    1.893550
  S     -3.364970  -21.318230    2.342740
  C     -4.229120  -19.163700    1.192620
  C     -5.256890  -20.076640    1.020230
  C     -4.961680  -21.317180    1.585790
  C     -5.706180  -22.504320    1.637010
  C     -6.945670  -22.761320    1.105980
  C     -7.621340  -24.006160    1.204640
  C     -8.834890  -24.041340    0.594430
  C     -9.199280  -22.822940   -0.028030
  S     -7.933350  -21.630460    0.200100
  C    -10.349820  -22.540240   -0.726660
  C    -11.441450  -23.418330   -0.979260
  C    -12.442670  -22.868080   -1.700480
  C    -12.219620  -21.501460   -2.077320
  S    -10.650760  -20.973640   -1.447220
  C    -13.027720  -20.703970   -2.788930
  H     10.729000    2.185720    4.153440
  H     10.754800    0.372440    4.458130
  H      8.727010    3.159780    2.692370
  H      6.622520    2.346490    1.453200
  H      4.855260    1.118320    0.514560
  H      3.193630   -0.702510   -0.214960
  H      2.737300   -3.149790   -0.004420
  H      5.812420   -4.642810    1.981430
  H      5.478460  -10.666430    3.218000
  H      5.695290  -15.399510    4.592660
  H     -0.014830  -14.146830    1.515210
  H      1.382660  -16.504160    2.913760
  H     -1.918590  -15.477650    1.017320
  H     -6.178270  -19.859180    0.513270
  H     -5.238480  -23.329210    2.159980
  H     -7.179220  -24.836640    1.726530
  H     -9.475260  -24.904570    0.572120
  H    -11.441920  -24.429950   -0.614120
  H    -13.345880  -23.376010   -1.988520
  H    -13.973170  -21.065070   -3.153510
  H    -12.761800  -19.688280   -3.017380

 Total Charge           Charge          ....    0
 Multiplicity           Mult            ....    1
 Number of Electrons    NEL             ....  488
 Basis Dimension        Dim             ....  985

ORBITAL ENERGIES
----------------

  NO   OCC          E(Eh)            E(eV)
   0   2.0000     -88.975633     -2421.1501
   1   2.0000     -88.972299     -2421.0594
   2   2.0000     -88.970116     -2420.9999
   3   2.0000     -88.969105     -2420.9724
   4   2.0000     -88.944973     -2420.3158
   5   2.0000     -88.943865     -2420.2856
   6   2.0000     -88.938165     -2420.1305
   7   2.0000     -88.937308     -2420.1072
   8   2.0000     -88.906973     -2419.2817
   9   2.0000     -88.904134     -2419.2045
  10   2.0000     -19.303870      -525.2850
  11   2.0000     -19.203535      -522.5548
  12   2.0000     -19.201767      -522.5066
  13   2.0000     -14.445792      -393.0900
  14   2.0000     -10.391174      -282.7582
  15   2.0000     -10.389954      -282.7250
  16   2.0000     -10.358237      -281.8620
  17   2.0000     -10.352615      -281.7090
  18   2.0000     -10.335268      -281.2369
  19   2.0000     -10.332132      -281.1516
  20   2.0000     -10.317312      -280.7483
  21   2.0000     -10.316841      -280.7355
  22   2.0000     -10.311203      -280.5821
  23   2.0000     -10.310523      -280.5636
  24   2.0000     -10.310357      -280.5591
  25   2.0000     -10.309978      -280.5488
  26   2.0000     -10.309574      -280.5378
  27   2.0000     -10.309003      -280.5222
  28   2.0000     -10.308271      -280.5023
  29   2.0000     -10.307909      -280.4925
  30   2.0000     -10.307409      -280.4789
  31   2.0000     -10.307179      -280.4726
  32   2.0000     -10.306601      -280.4569
  33   2.0000     -10.306200      -280.4459
  34   2.0000     -10.305411      -280.4245
  35   2.0000     -10.305339      -280.4225
  36   2.0000     -10.289405      -279.9890
  37   2.0000     -10.289294      -279.9859
  38   2.0000     -10.288797      -279.9724
  39   2.0000     -10.286667      -279.9144
  40   2.0000     -10.285819      -279.8914
  41   2.0000     -10.285245      -279.8758
  42   2.0000     -10.285146      -279.8731
  43   2.0000     -10.284863      -279.8654
  44   2.0000     -10.284804      -279.8638
  45   2.0000     -10.284472      -279.8547
  46   2.0000     -10.283981      -279.8414
  47   2.0000     -10.283276      -279.8222
  48   2.0000     -10.282515      -279.8015
  49   2.0000     -10.282243      -279.7941
  50   2.0000     -10.281172      -279.7649
  51   2.0000     -10.280321      -279.7417
  52   2.0000     -10.279825      -279.7283
  53   2.0000     -10.279515      -279.7198
  54   2.0000     -10.279051      -279.7072
  55   2.0000     -10.277849      -279.6745
  56   2.0000     -10.277552      -279.6664
  57   2.0000     -10.276955      -279.6502
  58   2.0000     -10.270305      -279.4692
  59   2.0000     -10.269652      -279.4514
  60   2.0000      -8.069977      -219.5952
  61   2.0000      -8.067063      -219.5159
  62   2.0000      -8.064940      -219.4582
  63   2.0000      -8.063882      -219.4294
  64   2.0000      -8.040735      -218.7995
  65   2.0000      -8.039764      -218.7731
  66   2.0000      -8.034900      -218.6407
  67   2.0000      -8.034086      -218.6186
  68   2.0000      -8.002531      -217.7599
  69   2.0000      -7.999863      -217.6873
  70   2.0000      -6.039257      -164.3365
  71   2.0000      -6.036239      -164.2544
  72   2.0000      -6.035086      -164.2230
  73   2.0000      -6.034190      -164.1987
  74   2.0000      -6.033121      -164.1696
  75   2.0000      -6.032341      -164.1483
  76   2.0000      -6.032074      -164.1411
  77   2.0000      -6.030128      -164.0881
  78   2.0000      -6.029554      -164.0725
  79   2.0000      -6.029101      -164.0602
  80   2.0000      -6.027201      -164.0085
  81   2.0000      -6.026138      -163.9796
  82   2.0000      -6.010525      -163.5547
  83   2.0000      -6.009556      -163.5283
  84   2.0000      -6.006457      -163.4440
  85   2.0000      -6.005483      -163.4175
  86   2.0000      -6.004734      -163.3971
  87   2.0000      -6.003904      -163.3745
  88   2.0000      -6.001663      -163.3136
  89   2.0000      -6.000775      -163.2894
  90   2.0000      -6.000643      -163.2858
  91   2.0000      -5.999977      -163.2677
  92   2.0000      -5.995436      -163.1441
  93   2.0000      -5.994601      -163.1214
  94   2.0000      -5.972057      -162.5079
  95   2.0000      -5.970772      -162.4730
  96   2.0000      -5.969470      -162.4375
  97   2.0000      -5.968095      -162.4001
  98   2.0000      -5.961457      -162.2195
  99   2.0000      -5.958610      -162.1420
 100   2.0000      -1.218722       -33.1631
 101   2.0000      -1.146171       -31.1889
 102   2.0000      -1.125577       -30.6285
 103   2.0000      -1.033369       -28.1194
 104   2.0000      -1.020642       -27.7731
 105   2.0000      -1.019899       -27.7529
 106   2.0000      -0.992556       -27.0088
 107   2.0000      -0.991857       -26.9898
 108   2.0000      -0.979797       -26.6616
 109   2.0000      -0.979207       -26.6456
 110   2.0000      -0.968142       -26.3445
 111   2.0000      -0.967497       -26.3269
 112   2.0000      -0.935026       -25.4433
 113   2.0000      -0.930908       -25.3313
 114   2.0000      -0.915288       -24.9062
 115   2.0000      -0.905599       -24.6426
 116   2.0000      -0.889681       -24.2094
 117   2.0000      -0.888651       -24.1814
 118   2.0000      -0.876711       -23.8565
 119   2.0000      -0.867953       -23.6182
 120   2.0000      -0.859758       -23.3952
 121   2.0000      -0.848008       -23.0755
 122   2.0000      -0.844453       -22.9787
 123   2.0000      -0.843570       -22.9547
 124   2.0000      -0.836431       -22.7604
 125   2.0000      -0.835464       -22.7341
 126   2.0000      -0.832583       -22.6557
 127   2.0000      -0.825551       -22.4644
 128   2.0000      -0.824715       -22.4416
 129   2.0000      -0.819431       -22.2979
 130   2.0000      -0.818403       -22.2699
 131   2.0000      -0.802767       -21.8444
 132   2.0000      -0.794085       -21.6081
 133   2.0000      -0.778755       -21.1910
 134   2.0000      -0.763333       -20.7714
 135   2.0000      -0.753598       -20.5064
 136   2.0000      -0.751889       -20.4600
 137   2.0000      -0.739989       -20.1361
 138   2.0000      -0.723467       -19.6865
 139   2.0000      -0.711067       -19.3491
 140   2.0000      -0.710119       -19.3233
 141   2.0000      -0.703008       -19.1298
 142   2.0000      -0.689729       -18.7685
 143   2.0000      -0.688035       -18.7224
 144   2.0000      -0.678449       -18.4615
 145   2.0000      -0.667920       -18.1750
 146   2.0000      -0.656800       -17.8724
 147   2.0000      -0.647663       -17.6238
 148   2.0000      -0.629917       -17.1409
 149   2.0000      -0.629255       -17.1229
 150   2.0000      -0.627706       -17.0807
 151   2.0000      -0.626492       -17.0477
 152   2.0000      -0.624880       -17.0038
 153   2.0000      -0.623712       -16.9721
 154   2.0000      -0.617300       -16.7976
 155   2.0000      -0.614473       -16.7207
 156   2.0000      -0.613600       -16.6969
 157   2.0000      -0.601255       -16.3610
 158   2.0000      -0.598434       -16.2842
 159   2.0000      -0.597121       -16.2485
 160   2.0000      -0.589530       -16.0419
 161   2.0000      -0.586510       -15.9597
 162   2.0000      -0.584686       -15.9101
 163   2.0000      -0.581112       -15.8129
 164   2.0000      -0.576854       -15.6970
 165   2.0000      -0.563340       -15.3293
 166   2.0000      -0.554977       -15.1017
 167   2.0000      -0.552209       -15.0264
 168   2.0000      -0.549958       -14.9651
 169   2.0000      -0.545021       -14.8308
 170   2.0000      -0.535520       -14.5722
 171   2.0000      -0.531467       -14.4619
 172   2.0000      -0.528092       -14.3701
 173   2.0000      -0.527257       -14.3474
 174   2.0000      -0.520120       -14.1532
 175   2.0000      -0.518926       -14.1207
 176   2.0000      -0.517803       -14.0901
 177   2.0000      -0.512979       -13.9589
 178   2.0000      -0.510151       -13.8819
 179   2.0000      -0.508996       -13.8505
 180   2.0000      -0.508170       -13.8280
 181   2.0000      -0.506854       -13.7922
 182   2.0000      -0.498098       -13.5539
 183   2.0000      -0.495011       -13.4699
 184   2.0000      -0.494572       -13.4580
 185   2.0000      -0.494211       -13.4482
 186   2.0000      -0.492496       -13.4015
 187   2.0000      -0.490223       -13.3397
 188   2.0000      -0.485628       -13.2146
 189   2.0000      -0.482328       -13.1248
 190   2.0000      -0.479133       -13.0379
 191   2.0000      -0.477352       -12.9894
 192   2.0000      -0.476575       -12.9683
 193   2.0000      -0.475339       -12.9346
 194   2.0000      -0.472854       -12.8670
 195   2.0000      -0.469588       -12.7781
 196   2.0000      -0.467127       -12.7112
 197   2.0000      -0.458271       -12.4702
 198   2.0000      -0.457668       -12.4538
 199   2.0000      -0.457158       -12.4399
 200   2.0000      -0.455477       -12.3942
 201   2.0000      -0.454647       -12.3716
 202   2.0000      -0.449092       -12.2204
 203   2.0000      -0.444730       -12.1017
 204   2.0000      -0.442501       -12.0411
 205   2.0000      -0.441905       -12.0249
 206   2.0000      -0.428420       -11.6579
 207   2.0000      -0.427711       -11.6386
 208   2.0000      -0.426564       -11.6074
 209   2.0000      -0.425534       -11.5794
 210   2.0000      -0.425039       -11.5659
 211   2.0000      -0.422601       -11.4996
 212   2.0000      -0.421668       -11.4742
 213   2.0000      -0.418959       -11.4004
 214   2.0000      -0.418119       -11.3776
 215   2.0000      -0.417220       -11.3531
 216   2.0000      -0.397444       -10.8150
 217   2.0000      -0.396206       -10.7813
 218   2.0000      -0.395296       -10.7566
 219   2.0000      -0.392328       -10.6758
 220   2.0000      -0.391016       -10.6401
 221   2.0000      -0.374361       -10.1869
 222   2.0000      -0.366821        -9.9817
 223   2.0000      -0.360346        -9.8055
 224   2.0000      -0.356762        -9.7080
 225   2.0000      -0.351583        -9.5671
 226   2.0000      -0.338792        -9.2190
 227   2.0000      -0.338179        -9.2023
 228   2.0000      -0.337343        -9.1796
 229   2.0000      -0.336599        -9.1593
 230   2.0000      -0.331509        -9.0208
 231   2.0000      -0.329392        -8.9632
 232   2.0000      -0.325209        -8.8494
 233   2.0000      -0.321068        -8.7367
 234   2.0000      -0.313551        -8.5321
 235   2.0000      -0.309891        -8.4326
 236   2.0000      -0.307503        -8.3676
 237   2.0000      -0.291408        -7.9296
 238   2.0000      -0.290340        -7.9005
 239   2.0000      -0.286872        -7.8062
 240   2.0000      -0.266676        -7.2566
 241   2.0000      -0.242677        -6.6036
 242   2.0000      -0.212770        -5.7898
 243   2.0000      -0.204955        -5.5771
 244   0.0000      -0.092490        -2.5168
 245   0.0000      -0.088659        -2.4125
 246   0.0000      -0.065255        -1.7757
 247   0.0000      -0.062490        -1.7004
 248   0.0000      -0.044640        -1.2147

MULLIKEN ATOMIC CHARGES
-----------------------
   0 C :   -0.027862
   1 C :   -0.063846
   2 C :    0.052529
   3 C :    0.029300
   4 C :   -0.064261
   5 S :    0.086972
   6 C :   -0.041971
   7 C :    0.030929
   8 C :    0.032796
   9 C :   -0.030960
  10 S :    0.061701
  11 C :    0.025708
  12 C :   -0.100752
  13 S :    0.163563
  14 C :   -0.016448
  15 C :    0.054441
  16 C :    0.004448
  17 S :   -0.075642
  18 C :   -0.096372
  19 C :   -0.083063
  20 S :    0.201581
  21 C :    0.060634
  22 C :   -0.029488
  23 C :   -0.138317
  24 C :    0.158083
  25 O :   -0.216149
  26 C :   -0.080578
  27 C :    0.168794
  28 O :   -0.154023
  29 N :   -0.159100
  30 C :    0.181353
  31 O :   -0.165785
  32 C :   -0.079619
  33 C :    0.134424
  34 C :   -0.017418
  35 C :    0.049547
  36 C :   -0.097208
  37 S :    0.194479
  38 C :   -0.004387
  39 C :    0.056531
  40 C :    0.007544
  41 S :   -0.089969
  42 C :   -0.091085
  43 C :   -0.097939
  44 S :    0.167130
  45 C :    0.051377
  46 C :   -0.012696
  47 C :   -0.102595
  48 C :    0.024564
  49 C :   -0.032283
  50 C :    0.034822
  51 C :    0.027059
  52 C :   -0.040768
  53 S :    0.060874
  54 C :   -0.062451
  55 C :    0.029500
  56 C :    0.054065
  57 C :   -0.064439
  58 S :    0.085353
  59 C :   -0.027269
  60 H :    0.020583
  61 H :    0.024365
  62 H :   -0.010642
  63 H :   -0.011003
  64 H :   -0.015114
  65 H :   -0.014058
  66 H :   -0.019108
  67 H :    0.003329
  68 H :    0.009117
  69 H :    0.135358
  70 H :   -0.017085
  71 H :    0.002685
  72 H :   -0.010864
  73 H :    0.002900
  74 H :   -0.018881
  75 H :   -0.013913
  76 H :   -0.014157
  77 H :   -0.011952
  78 H :   -0.011020
  79 H :    0.020276
  80 H :    0.023824
Sum of atomic charges:   -0.0000000

LOEWDIN ATOMIC CHARGES
----------------------
   0 C :   -0.072377
   1 C :   -0.139893
   2 C :   -0.028852
   3 C :   -0.027010
   4 C :   -0.173739
   5 S :    0.356321
   6 C :   -0.183023
   7 C :   -0.034920
   8 C :   -0.034213
   9 C :   -0.143576
  10 S :    0.382768
  11 C :   -0.086776
  12 C :   -0.160554
  13 S :    0.453563
  14 C :   -0.036175
  15 C :   -0.074856
  16 C :   -0.126797
  17 S :    0.112005
  18 C :   -0.198432
  19 C :   -0.172296
  20 S :    0.473187
  21 C :   -0.091594
  22 C :    0.004882
  23 C :   -0.199937
  24 C :    0.052583
  25 O :    0.002329
  26 C :   -0.108002
  27 C :    0.086343
  28 O :   -0.165313
  29 N :   -0.003070
  30 C :    0.087224
  31 O :   -0.172367
  32 C :   -0.109753
  33 C :    0.072054
  34 C :   -0.057524
  35 C :   -0.006586
  36 C :   -0.176884
  37 S :    0.477348
  38 C :   -0.010474
  39 C :   -0.090094
  40 C :   -0.124682
  41 S :    0.098884
  42 C :   -0.177047
  43 C :   -0.195399
  44 S :    0.456891
  45 C :   -0.077422
  46 C :   -0.035799
  47 C :   -0.161078
  48 C :   -0.086592
  49 C :   -0.144168
  50 C :   -0.033736
  51 C :   -0.035423
  52 C :   -0.182572
  53 S :    0.381841
  54 C :   -0.174055
  55 C :   -0.026781
  56 C :   -0.029075
  57 C :   -0.139618
  58 S :    0.355308
  59 C :   -0.073039
  60 H :    0.029075
  61 H :    0.027443
  62 H :    0.033785
  63 H :    0.032453
  64 H :    0.031154
  65 H :    0.032790
  66 H :    0.032007
  67 H :    0.024693
  68 H :    0.043172
  69 H :    0.093559
  70 H :    0.034148
  71 H :    0.034064
  72 H :    0.036321
  73 H :    0.024787
  74 H :    0.032080
  75 H :    0.032866
  76 H :    0.031308
  77 H :    0.032420
  78 H :    0.033728
  79 H :    0.028977
  80 H :    0.027209

  Mayer bond orders larger than 0.100000
B(  0-C ,  1-C ) :   1.8635 B(  0-C , 60-H ) :   0.9511 B(  0-C , 61-H ) :   0.9420
B(  1-C ,  2-C ) :   1.0785 B(  1-C ,  5-S ) :   1.0074 B(  2-C ,  3-C ) :   1.6614
B(  2-C , 62-H ) :   0.9935 B(  3-C ,  4-C ) :   1.1515 B(  3-C , 63-H ) :   0.9922
B(  4-C ,  5-S ) :   1.0500 B(  4-C ,  6-C ) :   1.5515 B(  6-C ,  7-C ) :   1.1740
B(  6-C , 10-S ) :   1.0310 B(  7-C ,  8-C ) :   1.6033 B(  7-C , 64-H ) :   0.9918
B(  8-C ,  9-C ) :   1.1401 B(  8-C , 65-H ) :   0.9987 B(  9-C , 10-S ) :   1.0426
B(  9-C , 11-C ) :   1.6061 B( 11-C , 12-C ) :   1.1733 B( 11-C , 66-H ) :   0.9485
B( 12-C , 13-S ) :   1.0904 B( 12-C , 14-C ) :   1.4111 B( 13-S , 18-C ) :   1.1073
B( 14-C , 15-C ) :   1.3412 B( 14-C , 67-H ) :   0.9761 B( 15-C , 16-C ) :   1.0080
B( 15-C , 18-C ) :   1.4351 B( 16-C , 17-S ) :   1.7618 B( 16-C , 21-C ) :   1.0242
B( 18-C , 19-C ) :   1.1836 B( 19-C , 20-S ) :   1.1266 B( 19-C , 21-C ) :   1.4264
B( 20-S , 23-C ) :   1.0588 B( 21-C , 22-C ) :   1.2857 B( 22-C , 23-C ) :   1.4774
B( 22-C , 68-H ) :   0.9838 B( 23-C , 24-C ) :   1.1542 B( 24-C , 25-O ) :   1.1776
B( 24-C , 26-C ) :   1.4484 B( 25-O , 33-C ) :   1.1154 B( 26-C , 27-C ) :   0.8924
B( 26-C , 32-C ) :   1.2570 B( 27-C , 28-O ) :   2.1960 B( 27-C , 29-N ) :   1.0866
B( 29-N , 30-C ) :   1.1004 B( 29-N , 69-H ) :   0.9163 B( 30-C , 31-O ) :   2.1557
B( 30-C , 32-C ) :   0.8948 B( 32-C , 33-C ) :   1.4190 B( 33-C , 34-C ) :   1.1815
B( 34-C , 35-C ) :   1.6286 B( 34-C , 70-H ) :   0.9639 B( 35-C , 36-C ) :   1.1519
B( 35-C , 71-H ) :   0.9384 B( 36-C , 37-S ) :   1.0898 B( 36-C , 38-C ) :   1.4353
B( 37-S , 42-C ) :   1.1385 B( 38-C , 39-C ) :   1.3136 B( 38-C , 72-H ) :   0.9956
B( 39-C , 40-C ) :   1.0273 B( 39-C , 42-C ) :   1.4149 B( 40-C , 41-S ) :   1.7510
B( 40-C , 45-C ) :   1.0131 B( 42-C , 43-C ) :   1.1837 B( 43-C , 44-S ) :   1.1125
B( 43-C , 45-C ) :   1.4357 B( 44-S , 47-C ) :   1.0907 B( 45-C , 46-C ) :   1.3390
B( 46-C , 47-C ) :   1.4120 B( 46-C , 73-H ) :   0.9762 B( 47-C , 48-C ) :   1.1758
B( 48-C , 49-C ) :   1.6042 B( 48-C , 74-H ) :   0.9487 B( 49-C , 50-C ) :   1.1415
B( 49-C , 53-S ) :   1.0427 B( 50-C , 51-C ) :   1.6028 B( 50-C , 75-H ) :   0.9988
B( 51-C , 52-C ) :   1.1739 B( 51-C , 76-H ) :   0.9918 B( 52-C , 53-S ) :   1.0304
B( 52-C , 54-C ) :   1.5525 B( 54-C , 55-C ) :   1.1512 B( 54-C , 58-S ) :   1.0488
B( 55-C , 56-C ) :   1.6621 B( 55-C , 77-H ) :   0.9916 B( 56-C , 57-C ) :   1.0802
B( 56-C , 78-H ) :   0.9927 B( 57-C , 58-S ) :   1.0077 B( 57-C , 59-C ) :   1.8637
B( 59-C , 79-H ) :   0.9509 B( 59-C , 80-H ) :   0.9417

-----------------------------------------------------------------------------
         ABSORPTION SPECTRUM VIA TRANSITION ELECTRIC DIPOLE MOMENTS
-----------------------------------------------------------------------------
State   Energy  Wavelength   fosc         T2         TX        TY        TZ
        (cm-1)    (nm)                  (au**2)     (au)      (au)      (au)
-----------------------------------------------------------------------------
   0    9067.9   1102.8   0.462145220  16.77826  -2.75705  -2.97258  -0.58368
   1    9555.6   1046.5   0.101073867   3.48222   0.00723   1.84668  -0.26823
   2   16448.5    608.0   2.511242832  50.26175   5.10174   4.73511   1.34637
   3   16924.4    590.9   0.055971981   1.08876  -0.18315   1.00370  -0.21866
   4   17447.1    573.2   0.003893193   0.07346   0.22564   0.11772   0.09322
   5   17629.7    567.2   0.515585889   9.62793  -2.50363  -1.49768  -1.05675
   6   17834.7    560.7   0.000035273   0.00065  -0.02301   0.00422  -0.01019
   7   18136.2    551.4   0.486254401   8.82661   0.80110  -2.79917   0.59118
   8   20274.6    493.2   0.043991383   0.71432  -0.65617  -0.46829  -0.25390
   9   20825.9    480.2   0.003833717   0.06060   0.09341   0.22600   0.02829
  10   22497.9    444.5   0.169676470   2.48288   0.02397   1.43572  -0.64885
  11   24031.2    416.1   0.005399067   0.07396  -0.23583  -0.12657  -0.04825
  12   24715.4    404.6   0.331382809   4.41405  -1.11508   1.35609  -1.15398
  13   25297.9    395.3   0.032116662   0.41795  -0.21630  -0.60871   0.02509
  14   25896.6    386.2   0.014626597   0.18594   0.32079   0.27842   0.07429
  15   26072.3    383.5   0.022998652   0.29040  -0.43463  -0.30264  -0.09954
  16   27108.2    368.9   0.108975838   1.32344  -0.04971  -1.08116   0.38995
  17   27721.5    360.7   0.009518770   0.11304  -0.29056  -0.14683  -0.08402
  18   28163.3    355.1   0.075419515   0.88161  -0.62905   0.47768  -0.50766
  19   29710.0    336.6   0.042127991   0.46681   0.58706   0.17830   0.30064
  20   30828.6    324.4   0.016493561   0.17613  -0.03473   0.37798  -0.17904
  21   31106.7    321.5   0.092223637   0.97603  -0.88050  -0.17543  -0.41228
  22   31264.3    319.9   0.001626758   0.01713  -0.03190  -0.11743   0.04818
  23   31584.5    316.6   0.000023069   0.00024   0.01547   0.00045   0.00098
  24   31684.5    315.6   0.000008281   0.00009   0.00848  -0.00215   0.00307
  25   31865.7    313.8   0.133589896   1.38015  -1.04783   0.02271  -0.53075
  26   32142.1    311.1   0.113998969   1.16762  -0.95802  -0.10278  -0.48914
  27   32839.5    304.5   0.083086440   0.83293  -0.84606   0.09652  -0.32832
  28   32992.9    303.1   0.488028141   4.86968  -0.00642  -2.10371   0.66636
  29   33203.2    301.2   0.016293426   0.16155  -0.34826  -0.16609  -0.11261
  30   33408.1    299.3   0.130604590   1.28701   0.34841  -0.95651   0.50070
  31   33695.1    296.8   0.095449682   0.93257   0.26083  -0.84837   0.38053
  32   34071.9    293.5   0.418085504   4.03966  -1.69693   0.36355  -1.01386
  33   34675.1    288.4   0.046715820   0.44353  -0.59450  -0.13389  -0.26864
  34   34833.9    287.1   0.055424909   0.52382  -0.66788  -0.09443  -0.26237
  35   35228.5    283.9   0.000027740   0.00026  -0.00032   0.01191  -0.01083
  36   35261.2    283.6   0.112665682   1.05189  -0.16281  -0.99652   0.17980
  37   35650.4    280.5   0.000015345   0.00014  -0.00521   0.00260   0.01038
  38   36206.1    276.2   0.061523817   0.55942  -0.17391   0.66000  -0.30591
  39   36645.8    272.9   0.025096363   0.22546   0.03912  -0.44190   0.16928
  40   36921.4    270.8   0.020445469   0.18230  -0.22849   0.31091  -0.18283
  41   37735.5    265.0   0.004812026   0.04198   0.15920   0.12863  -0.00957
  42   37861.8    264.1   0.000074159   0.00064  -0.01282   0.00696   0.02078
  43   38052.1    262.8   0.018960017   0.16403   0.34643   0.03846   0.20625
  44   38228.4    261.6   0.000064332   0.00055  -0.01360   0.00070   0.01920
  45   38325.7    260.9   0.012112244   0.10404   0.00240   0.29023  -0.14072
  46   38587.0    259.2   0.067133997   0.57277  -0.60380   0.23273  -0.39246
  47   38677.6    258.5   0.139407817   1.18660  -0.73373   0.59632  -0.54097
  48   38879.8    257.2   0.086871246   0.73558   0.45180  -0.57508   0.44804
  49   39096.8    255.8   0.138566743   1.16679   0.94279   0.05206   0.52461
  50   39224.5    254.9   0.082051409   0.68866  -0.70973   0.01088  -0.42990
  51   39517.0    253.1   0.002945035   0.02453  -0.09338  -0.06002  -0.11051
  52   39728.7    251.7   0.044706727   0.37046  -0.10597   0.57738  -0.16083
  53   39887.3    250.7   0.038270058   0.31586  -0.06967   0.52152  -0.19756
  54   40117.5    249.3   0.072916053   0.59836   0.21020   0.73543  -0.11539
  55   40193.8    248.8   0.000379075   0.00310   0.01156  -0.03448   0.04222

FINAL SINGLE POINT ENERGY     -6023.959574573184

DIPOLE MOMENT
-------------
                                X             Y             Z
Electronic contribution:     16.54238     -11.09868       6.95943
Nuclear contribution   :    -18.57607      11.36498      -7.74317
                        -----------------------------------------
Total Dipole Moment    :     -2.03368       0.26629      -0.78373
                        -----------------------------------------
Magnitude (a.u.)       :      2.19568
Magnitude (Debye)      :      5.58098

Rotational constants in cm-1:     0.002204     0.000181     0.000168
Rotational constants in MHz :    66.088059     5.429402     5.027066

                             ****ORCA TERMINATED NORMALLY****
TOTAL RUN TIME: 0 days 0 hours 8 minutes 50 seconds 528 msec
