                         Program Version 4.2.0 -  RELEASE  -
|  1> # ORCA input file
|  2> # SCF done       -194.468146373676          0.000736118098
|  3> ! CAM-B3LYP def2-SVP def2/J RIJCOSX Grid4 TightSCF
|  4> %maxcore 5000
|  5> %tddft
|  6>     Mode sTDDFT
|  7>     Ethresh 5.0
|  8>     maxcore 5000
|  9> end
| 10>
| 11> %pal
| 12>   nprocs 6
| 13>   end
| 14> * xyz 0 1
| 15>    C      -11.83766         6.30213         1.03333
| 16>    C      -12.25609         5.84865         2.25635
| 17>    C      -12.99806         6.61832         3.17689
| 18>    N      -13.60689         7.19563         3.95979
| 19>    C      -12.00835         4.54724         2.73981
| 20>    N      -11.82839         3.49645         3.16530
| 21>    C      -12.07896         7.63492         0.48465
| 22>    C      -11.51606         7.70568        -0.81573
| 23>    C      -11.57167         8.83834        -1.59081
| 24>    C      -12.23251         9.95238        -1.06616
| 25>    C      -12.80079         9.87220         0.22733
| 26>    C      -12.72888         8.73089         1.01857
| 27>    S      -13.59268        11.35448         0.66934
| 28>    C      -13.14320        12.05723        -0.85950
| 29>    C      -12.44509        11.22238        -1.66582
| 30>   Br      -13.64250        13.82133        -1.25734
| 31>    C      -10.90533         6.41598        -1.13891
| 32>    O      -10.35127         6.09827        -2.18894
| 33>    C      -11.09506         5.55920         0.03744
| 34>    C      -10.59146         4.28176         0.08831
| 35>    N       -9.90551         3.80208        -0.95642
| 36>    C       -9.30116         2.59584        -1.10283
| 37>    S       -9.61163         1.26224        -0.03994
| 38>    C       -8.62639         0.25520        -1.05333
| 39>    N       -8.46585        -1.08602        -0.66905
| 40>    O       -7.78191        -1.79772        -1.37593
| 41>    O       -9.03349        -1.42899         0.35171
| 42>    C       -8.10428         0.90362        -2.13967
| 43>    C       -8.45899         2.26486        -2.17529
| 44>    C       -8.03719         3.19727        -3.19218
| 45>    C       -7.85453         4.51003        -2.93888
| 46>    C       -7.68137         5.55075        -3.89221
| 47>    S       -7.90333         7.17319        -3.30732
| 48>    C       -7.73283         7.87823        -4.89755
| 49>    C       -7.47881         6.87086        -5.82465
| 50>    C       -7.46966         5.57140        -5.26190
| 51>    C       -7.23243         4.56457        -6.29683
| 52>    O       -7.19639         3.36322        -6.17718
| 53>    C       -7.04791         5.33436        -7.59485
| 54>    C       -7.22004         6.80903        -7.26118
| 55>    O       -7.13813         7.72099        -8.05099
| 56>    C       -7.90335         9.27013        -4.99478
| 57>    C       -7.67364        10.05969        -6.09117
| 58>    C       -7.81074        11.44920        -6.01051
| 59>    C       -7.14801        12.43197        -6.76624
| 60>    C       -6.35165        12.31705        -7.91871
| 61>    C       -5.74118        13.43875        -8.40916
| 62>    C       -5.89606        14.68990        -7.77605
| 63>    C       -6.65868        14.83393        -6.64667
| 64>    C       -7.30423        13.70761        -6.11731
| 65>    C       -8.08606        13.55124        -4.94584
| 66>    C       -8.57899        12.17291        -4.98543
| 67>    C       -9.75834        11.76384        -4.50285
| 68>    C       -8.34883        14.52746        -3.99319
| 69>    C       -8.86309        14.40855        -2.71192
| 70>    C       -9.46065        15.60707        -2.07914
| 71>    O       -9.42914        16.74356        -2.50100
| 72>    C      -10.12677        15.11851        -0.85320
| 73>    C      -10.86743        15.80734         0.06101
| 74>    C      -11.37779        15.12584         1.19021
| 75>    C      -11.08588        13.74190         1.35984
| 76>    C      -11.57049        13.07527         2.50171
| 77>    C      -12.32727        13.76237         3.40989
| 78>    C      -12.64110        15.11823         3.25124
| 79>    C      -12.16334        15.78471         2.15664
| 80>    F      -12.79444        13.12335         4.49727
| 81>    C      -10.32467        13.05104         0.38757
| 82>    C       -9.86129        13.72726        -0.70790
| 83>    C       -9.00815        13.30049        -1.81576
| 84>    C       -8.32315        12.10008        -1.84513
| 85>    C       -7.19693        11.86681        -2.65281
| 86>    N       -6.23022        11.63428        -3.22987
| 87>    C       -8.65962        10.98395        -1.06614
| 88>    N       -8.95711        10.00512        -0.53747
| 89>    H      -11.12523         8.86007        -2.57216
| 90>    H      -13.17143         8.72402         2.00087
| 91>    H      -12.10424        11.48716        -2.64911
| 92>    H      -10.69955         3.64110         0.95427
| 93>    H       -9.85104         4.46263        -1.75550
| 94>    H       -7.47266         0.42095        -2.86330
| 95>    H       -7.87719         2.80376        -4.18688
| 96>    H       -7.88248         4.86856        -1.91780
| 97>    H       -7.77377         5.01534        -8.34587
| 98>    H       -6.05945         5.14641        -8.02003
| 99>    H       -8.17905         9.74893        -4.06464
|100>    H       -7.27586         9.61756        -6.99386
|101>    H       -6.23871        11.35937        -8.40283
|102>    H       -5.12876        13.37819        -9.29609
|103>    H       -5.39649        15.54887        -8.19903
|104>    H       -6.76693        15.79712        -6.17218
|105>    H      -10.16098        10.79245        -4.73628
|106>    H      -10.36911        12.42006        -3.90478
|107>    H       -8.15862        15.55581        -4.28635
|108>    H      -11.05893        16.86141        -0.06963
|109>    H      -11.34196        12.03254         2.66070
|110>    H      -13.24737        15.60721         3.99691
|111>    H      -12.38649        16.83131         2.01579
|112>    H      -10.12836        12.00010         0.53616
|113> *
|114>
|115>                          ****END OF INPUT****

CARTESIAN COORDINATES (ANGSTROEM)
---------------------------------
  C    -11.837660    6.302130    1.033330
  C    -12.256090    5.848650    2.256350
  C    -12.998060    6.618320    3.176890
  N    -13.606890    7.195630    3.959790
  C    -12.008350    4.547240    2.739810
  N    -11.828390    3.496450    3.165300
  C    -12.078960    7.634920    0.484650
  C    -11.516060    7.705680   -0.815730
  C    -11.571670    8.838340   -1.590810
  C    -12.232510    9.952380   -1.066160
  C    -12.800790    9.872200    0.227330
  C    -12.728880    8.730890    1.018570
  S    -13.592680   11.354480    0.669340
  C    -13.143200   12.057230   -0.859500
  C    -12.445090   11.222380   -1.665820
  Br   -13.642500   13.821330   -1.257340
  C    -10.905330    6.415980   -1.138910
  O    -10.351270    6.098270   -2.188940
  C    -11.095060    5.559200    0.037440
  C    -10.591460    4.281760    0.088310
  N     -9.905510    3.802080   -0.956420
  C     -9.301160    2.595840   -1.102830
  S     -9.611630    1.262240   -0.039940
  C     -8.626390    0.255200   -1.053330
  N     -8.465850   -1.086020   -0.669050
  O     -7.781910   -1.797720   -1.375930
  O     -9.033490   -1.428990    0.351710
  C     -8.104280    0.903620   -2.139670
  C     -8.458990    2.264860   -2.175290
  C     -8.037190    3.197270   -3.192180
  C     -7.854530    4.510030   -2.938880
  C     -7.681370    5.550750   -3.892210
  S     -7.903330    7.173190   -3.307320
  C     -7.732830    7.878230   -4.897550
  C     -7.478810    6.870860   -5.824650
  C     -7.469660    5.571400   -5.261900
  C     -7.232430    4.564570   -6.296830
  O     -7.196390    3.363220   -6.177180
  C     -7.047910    5.334360   -7.594850
  C     -7.220040    6.809030   -7.261180
  O     -7.138130    7.720990   -8.050990
  C     -7.903350    9.270130   -4.994780
  C     -7.673640   10.059690   -6.091170
  C     -7.810740   11.449200   -6.010510
  C     -7.148010   12.431970   -6.766240
  C     -6.351650   12.317050   -7.918710
  C     -5.741180   13.438750   -8.409160
  C     -5.896060   14.689900   -7.776050
  C     -6.658680   14.833930   -6.646670
  C     -7.304230   13.707610   -6.117310
  C     -8.086060   13.551240   -4.945840
  C     -8.578990   12.172910   -4.985430
  C     -9.758340   11.763840   -4.502850
  C     -8.348830   14.527460   -3.993190
  C     -8.863090   14.408550   -2.711920
  C     -9.460650   15.607070   -2.079140
  O     -9.429140   16.743560   -2.501000
  C    -10.126770   15.118510   -0.853200
  C    -10.867430   15.807340    0.061010
  C    -11.377790   15.125840    1.190210
  C    -11.085880   13.741900    1.359840
  C    -11.570490   13.075270    2.501710
  C    -12.327270   13.762370    3.409890
  C    -12.641100   15.118230    3.251240
  C    -12.163340   15.784710    2.156640
  F    -12.794440   13.123350    4.497270
  C    -10.324670   13.051040    0.387570
  C     -9.861290   13.727260   -0.707900
  C     -9.008150   13.300490   -1.815760
  C     -8.323150   12.100080   -1.845130
  C     -7.196930   11.866810   -2.652810
  N     -6.230220   11.634280   -3.229870
  C     -8.659620   10.983950   -1.066140
  N     -8.957110   10.005120   -0.537470
  H    -11.125230    8.860070   -2.572160
  H    -13.171430    8.724020    2.000870
  H    -12.104240   11.487160   -2.649110
  H    -10.699550    3.641100    0.954270
  H     -9.851040    4.462630   -1.755500
  H     -7.472660    0.420950   -2.863300
  H     -7.877190    2.803760   -4.186880
  H     -7.882480    4.868560   -1.917800
  H     -7.773770    5.015340   -8.345870
  H     -6.059450    5.146410   -8.020030
  H     -8.179050    9.748930   -4.064640
  H     -7.275860    9.617560   -6.993860
  H     -6.238710   11.359370   -8.402830
  H     -5.128760   13.378190   -9.296090
  H     -5.396490   15.548870   -8.199030
  H     -6.766930   15.797120   -6.172180
  H    -10.160980   10.792450   -4.736280
  H    -10.369110   12.420060   -3.904780
  H     -8.158620   15.555810   -4.286350
  H    -11.058930   16.861410   -0.069630
  H    -11.341960   12.032540    2.660700
  H    -13.247370   15.607210    3.996910
  H    -12.386490   16.831310    2.015790
  H    -10.128360   12.000100    0.536160

 Total Charge           Charge          ....    0
 Multiplicity           Mult            ....    1
 Number of Electrons    NEL             ....  548
 Basis Dimension        Dim             .... 1186

ORBITAL ENERGIES
----------------

  NO   OCC          E(Eh)            E(eV)
   0   2.0000    -482.891041    -13140.1333
   1   2.0000     -88.999319     -2421.7946
   2   2.0000     -88.993970     -2421.6490
   3   2.0000     -88.982783     -2421.3446
   4   2.0000     -62.568328     -1702.5708
   5   2.0000     -56.402310     -1534.7849
   6   2.0000     -56.399585     -1534.7107
   7   2.0000     -56.399546     -1534.7097
   8   2.0000     -24.779957      -674.2969
   9   2.0000     -19.244977      -523.6824
  10   2.0000     -19.244782      -523.6771
  11   2.0000     -19.240492      -523.5604
  12   2.0000     -19.235039      -523.4120
  13   2.0000     -19.232422      -523.3408
  14   2.0000     -19.198571      -522.4197
  15   2.0000     -14.656904      -398.8346
  16   2.0000     -14.501656      -394.6101
  17   2.0000     -14.424425      -392.5086
  18   2.0000     -14.419175      -392.3657
  19   2.0000     -14.410650      -392.1337
  20   2.0000     -14.406257      -392.0142
  21   2.0000     -10.387876      -282.6685
  22   2.0000     -10.386159      -282.6218
  23   2.0000     -10.385812      -282.6123
  24   2.0000     -10.383040      -282.5369
  25   2.0000     -10.377141      -282.3764
  26   2.0000     -10.365351      -282.0555
  27   2.0000     -10.362029      -281.9651
  28   2.0000     -10.355073      -281.7758
  29   2.0000     -10.351372      -281.6751
  30   2.0000     -10.349586      -281.6266
  31   2.0000     -10.347806      -281.5781
  32   2.0000     -10.347549      -281.5711
  33   2.0000     -10.343210      -281.4530
  34   2.0000     -10.331644      -281.1383
  35   2.0000     -10.328311      -281.0476
  36   2.0000     -10.326797      -281.0064
  37   2.0000     -10.326690      -281.0035
  38   2.0000     -10.324387      -280.9409
  39   2.0000     -10.322282      -280.8836
  40   2.0000     -10.322068      -280.8777
  41   2.0000     -10.319979      -280.8209
  42   2.0000     -10.317177      -280.7447
  43   2.0000     -10.316137      -280.7164
  44   2.0000     -10.315028      -280.6862
  45   2.0000     -10.313736      -280.6510
  46   2.0000     -10.312510      -280.6177
  47   2.0000     -10.312095      -280.6064
  48   2.0000     -10.311669      -280.5948
  49   2.0000     -10.311561      -280.5918
  50   2.0000     -10.311016      -280.5770
  51   2.0000     -10.310962      -280.5755
  52   2.0000     -10.309642      -280.5396
  53   2.0000     -10.308745      -280.5152
  54   2.0000     -10.307598      -280.4840
  55   2.0000     -10.307240      -280.4743
  56   2.0000     -10.306538      -280.4552
  57   2.0000     -10.304600      -280.4024
  58   2.0000     -10.304184      -280.3911
  59   2.0000     -10.302841      -280.3546
  60   2.0000     -10.300156      -280.2815
  61   2.0000     -10.299685      -280.2687
  62   2.0000     -10.297577      -280.2113
  63   2.0000     -10.297557      -280.2108
  64   2.0000     -10.297300      -280.2038
  65   2.0000     -10.297170      -280.2002
  66   2.0000     -10.295549      -280.1561
  67   2.0000     -10.292655      -280.0774
  68   2.0000     -10.290414      -280.0164
  69   2.0000     -10.289812      -280.0000
  70   2.0000     -10.289680      -279.9964
  71   2.0000     -10.289563      -279.9932
  72   2.0000     -10.289393      -279.9886
  73   2.0000     -10.287795      -279.9451
  74   2.0000     -10.286573      -279.9119
  75   2.0000     -10.283380      -279.8250
  76   2.0000     -10.278890      -279.7028
  77   2.0000     -10.276296      -279.6322
  78   2.0000      -8.797573      -239.3941
  79   2.0000      -8.094497      -220.2625
  80   2.0000      -8.088999      -220.1129
  81   2.0000      -8.077963      -219.8126
  82   2.0000      -6.633872      -180.5168
  83   2.0000      -6.619281      -180.1198
  84   2.0000      -6.619115      -180.1153
  85   2.0000      -6.064084      -165.0121
  86   2.0000      -6.059684      -164.8924
  87   2.0000      -6.057989      -164.8463
  88   2.0000      -6.056128      -164.7956
  89   2.0000      -6.053718      -164.7300
  90   2.0000      -6.051716      -164.6756
  91   2.0000      -6.047649      -164.5649
  92   2.0000      -6.043387      -164.4489
  93   2.0000      -6.039296      -164.3376
  94   2.0000      -2.749775       -74.8252
  95   2.0000      -2.745637       -74.7126
  96   2.0000      -2.745502       -74.7089
  97   2.0000      -2.733914       -74.3936
  98   2.0000      -2.733900       -74.3932
  99   2.0000      -1.327501       -36.1231
 100   2.0000      -1.295094       -35.2413
 101   2.0000      -1.155818       -31.4514
 102   2.0000      -1.151650       -31.3380
 103   2.0000      -1.146901       -31.2088
 104   2.0000      -1.146579       -31.2000
 105   2.0000      -1.113346       -30.2957
 106   2.0000      -1.110757       -30.2252
 107   2.0000      -1.030152       -28.0318
 108   2.0000      -1.026842       -27.9418
 109   2.0000      -1.020862       -27.7791
 110   2.0000      -1.018029       -27.7020
 111   2.0000      -1.014870       -27.6160
 112   2.0000      -1.007059       -27.4035
 113   2.0000      -1.001206       -27.2442
 114   2.0000      -0.996775       -27.1236
 115   2.0000      -0.992164       -26.9981
 116   2.0000      -0.988305       -26.8931
 117   2.0000      -0.966501       -26.2998
 118   2.0000      -0.950907       -25.8755
 119   2.0000      -0.949672       -25.8419
 120   2.0000      -0.945806       -25.7367
 121   2.0000      -0.938760       -25.5450
 122   2.0000      -0.925011       -25.1708
 123   2.0000      -0.917022       -24.9534
 124   2.0000      -0.914833       -24.8939
 125   2.0000      -0.907979       -24.7074
 126   2.0000      -0.896078       -24.3835
 127   2.0000      -0.892477       -24.2855
 128   2.0000      -0.888212       -24.1695
 129   2.0000      -0.882844       -24.0234
 130   2.0000      -0.877177       -23.8692
 131   2.0000      -0.870316       -23.6825
 132   2.0000      -0.865141       -23.5417
 133   2.0000      -0.857342       -23.3295
 134   2.0000      -0.853207       -23.2169
 135   2.0000      -0.840483       -22.8707
 136   2.0000      -0.837133       -22.7795
 137   2.0000      -0.835714       -22.7409
 138   2.0000      -0.826287       -22.4844
 139   2.0000      -0.807779       -21.9808
 140   2.0000      -0.799733       -21.7618
 141   2.0000      -0.786321       -21.3969
 142   2.0000      -0.772013       -21.0075
 143   2.0000      -0.770613       -20.9694
 144   2.0000      -0.767951       -20.8970
 145   2.0000      -0.753259       -20.4972
 146   2.0000      -0.746771       -20.3207
 147   2.0000      -0.739487       -20.1225
 148   2.0000      -0.734686       -19.9918
 149   2.0000      -0.717685       -19.5292
 150   2.0000      -0.715372       -19.4663
 151   2.0000      -0.709989       -19.3198
 152   2.0000      -0.701106       -19.0781
 153   2.0000      -0.700307       -19.0563
 154   2.0000      -0.696655       -18.9569
 155   2.0000      -0.688263       -18.7286
 156   2.0000      -0.684073       -18.6146
 157   2.0000      -0.682749       -18.5785
 158   2.0000      -0.672064       -18.2878
 159   2.0000      -0.666987       -18.1496
 160   2.0000      -0.665040       -18.0967
 161   2.0000      -0.656001       -17.8507
 162   2.0000      -0.652803       -17.7637
 163   2.0000      -0.643492       -17.5103
 164   2.0000      -0.639967       -17.4144
 165   2.0000      -0.638533       -17.3754
 166   2.0000      -0.634557       -17.2672
 167   2.0000      -0.627766       -17.0824
 168   2.0000      -0.627228       -17.0677
 169   2.0000      -0.623694       -16.9716
 170   2.0000      -0.618560       -16.8319
 171   2.0000      -0.613106       -16.6835
 172   2.0000      -0.610453       -16.6113
 173   2.0000      -0.602556       -16.3964
 174   2.0000      -0.596330       -16.2270
 175   2.0000      -0.592671       -16.1274
 176   2.0000      -0.588899       -16.0248
 177   2.0000      -0.583167       -15.8688
 178   2.0000      -0.582570       -15.8525
 179   2.0000      -0.579596       -15.7716
 180   2.0000      -0.576773       -15.6948
 181   2.0000      -0.574850       -15.6425
 182   2.0000      -0.568472       -15.4689
 183   2.0000      -0.568145       -15.4600
 184   2.0000      -0.564416       -15.3585
 185   2.0000      -0.561278       -15.2731
 186   2.0000      -0.556392       -15.1402
 187   2.0000      -0.554653       -15.0929
 188   2.0000      -0.553409       -15.0590
 189   2.0000      -0.548833       -14.9345
 190   2.0000      -0.545825       -14.8526
 191   2.0000      -0.544751       -14.8234
 192   2.0000      -0.542652       -14.7663
 193   2.0000      -0.537965       -14.6388
 194   2.0000      -0.536238       -14.5918
 195   2.0000      -0.532728       -14.4963
 196   2.0000      -0.532126       -14.4799
 197   2.0000      -0.530073       -14.4240
 198   2.0000      -0.529128       -14.3983
 199   2.0000      -0.527705       -14.3596
 200   2.0000      -0.526607       -14.3297
 201   2.0000      -0.523659       -14.2495
 202   2.0000      -0.519725       -14.1424
 203   2.0000      -0.517545       -14.0831
 204   2.0000      -0.515398       -14.0247
 205   2.0000      -0.512394       -13.9429
 206   2.0000      -0.511475       -13.9180
 207   2.0000      -0.508619       -13.8402
 208   2.0000      -0.506998       -13.7961
 209   2.0000      -0.504593       -13.7307
 210   2.0000      -0.502913       -13.6849
 211   2.0000      -0.499268       -13.5858
 212   2.0000      -0.496594       -13.5130
 213   2.0000      -0.495788       -13.4911
 214   2.0000      -0.491172       -13.3655
 215   2.0000      -0.488889       -13.3033
 216   2.0000      -0.484782       -13.1916
 217   2.0000      -0.484290       -13.1782
 218   2.0000      -0.482867       -13.1395
 219   2.0000      -0.476114       -12.9557
 220   2.0000      -0.473626       -12.8880
 221   2.0000      -0.470320       -12.7981
 222   2.0000      -0.467300       -12.7159
 223   2.0000      -0.465655       -12.6711
 224   2.0000      -0.460140       -12.5210
 225   2.0000      -0.457814       -12.4578
 226   2.0000      -0.456794       -12.4300
 227   2.0000      -0.455152       -12.3853
 228   2.0000      -0.452727       -12.3193
 229   2.0000      -0.450334       -12.2542
 230   2.0000      -0.449481       -12.2310
 231   2.0000      -0.449117       -12.2211
 232   2.0000      -0.447600       -12.1798
 233   2.0000      -0.445635       -12.1263
 234   2.0000      -0.443915       -12.0795
 235   2.0000      -0.439929       -11.9711
 236   2.0000      -0.436275       -11.8716
 237   2.0000      -0.433675       -11.8009
 238   2.0000      -0.433575       -11.7982
 239   2.0000      -0.432719       -11.7749
 240   2.0000      -0.431213       -11.7339
 241   2.0000      -0.429069       -11.6756
 242   2.0000      -0.424295       -11.5457
 243   2.0000      -0.420908       -11.4535
 244   2.0000      -0.416448       -11.3321
 245   2.0000      -0.413925       -11.2635
 246   2.0000      -0.409766       -11.1503
 247   2.0000      -0.408811       -11.1243
 248   2.0000      -0.400514       -10.8986
 249   2.0000      -0.394760       -10.7420
 250   2.0000      -0.391911       -10.6644
 251   2.0000      -0.386991       -10.5306
 252   2.0000      -0.383621       -10.4389
 253   2.0000      -0.379831       -10.3357
 254   2.0000      -0.377464       -10.2713
 255   2.0000      -0.374111       -10.1801
 256   2.0000      -0.372261       -10.1297
 257   2.0000      -0.369192       -10.0462
 258   2.0000      -0.367261        -9.9937
 259   2.0000      -0.364481        -9.9180
 260   2.0000      -0.356096        -9.6899
 261   2.0000      -0.350455        -9.5364
 262   2.0000      -0.344394        -9.3714
 263   2.0000      -0.341301        -9.2873
 264   2.0000      -0.338404        -9.2084
 265   2.0000      -0.332034        -9.0351
 266   2.0000      -0.323333        -8.7983
 267   2.0000      -0.320870        -8.7313
 268   2.0000      -0.309424        -8.4199
 269   2.0000      -0.304917        -8.2972
 270   2.0000      -0.297077        -8.0839
 271   2.0000      -0.286243        -7.7891
 272   2.0000      -0.279053        -7.5934
 273   2.0000      -0.243321        -6.6211
 274   0.0000      -0.127799        -3.4776
 275   0.0000      -0.094581        -2.5737
 276   0.0000      -0.076484        -2.0812
 277   0.0000      -0.069279        -1.8852
 278   0.0000      -0.063174        -1.7190

MULLIKEN ATOMIC CHARGES
-----------------------
   0 C :    0.328141
   1 C :   -0.343470
   2 C :   -0.184746
   3 N :    0.154933
   4 C :   -0.196674
   5 N :    0.147156
   6 C :    0.015325
   7 C :    0.017985
   8 C :   -0.041254
   9 C :    0.132975
  10 C :   -0.102944
  11 C :   -0.019692
  12 S :    0.196894
  13 C :   -0.128299
  14 C :    0.049626
  15 Br:    0.038410
  16 C :    0.171113
  17 O :   -0.235559
  18 C :   -0.128307
  19 C :    0.029946
  20 N :   -0.025084
  21 C :   -0.108051
  22 S :    0.196386
  23 C :    0.000611
  24 N :    0.273778
  25 O :   -0.241128
  26 O :   -0.254433
  27 C :    0.021128
  28 C :    0.089954
  29 C :   -0.004655
  30 C :    0.023833
  31 C :   -0.134566
  32 S :    0.236675
  33 C :   -0.158398
  34 C :    0.035700
  35 C :    0.023300
  36 C :    0.032056
  37 O :   -0.153909
  38 C :    0.064756
  39 C :    0.026828
  40 O :   -0.151589
  41 C :    0.079063
  42 C :   -0.021874
  43 C :    0.118733
  44 C :    0.036588
  45 C :    0.001098
  46 C :    0.018673
  47 C :    0.055436
  48 C :   -0.030710
  49 C :    0.097062
  50 C :    0.073059
  51 C :   -0.111302
  52 C :    0.023583
  53 C :   -0.016467
  54 C :   -0.150621
  55 C :    0.130698
  56 O :   -0.160702
  57 C :    0.027126
  58 C :   -0.107368
  59 C :    0.124365
  60 C :    0.076309
  61 C :   -0.080034
  62 C :    0.291362
  63 C :   -0.030548
  64 C :   -0.020716
  65 F :   -0.191379
  66 C :   -0.089570
  67 C :    0.045275
  68 C :    0.265020
  69 C :   -0.395983
  70 C :   -0.210403
  71 N :    0.150210
  72 C :   -0.164431
  73 N :    0.101522
  74 H :   -0.036571
  75 H :   -0.006368
  76 H :   -0.035486
  77 H :    0.043545
  78 H :    0.184838
  79 H :    0.020805
  80 H :    0.031474
  81 H :   -0.001564
  82 H :    0.070954
  83 H :    0.072656
  84 H :   -0.005694
  85 H :    0.009173
  86 H :   -0.006170
  87 H :   -0.002976
  88 H :    0.002424
  89 H :   -0.011654
  90 H :    0.038954
  91 H :    0.061073
  92 H :    0.003713
  93 H :   -0.018692
  94 H :   -0.012327
  95 H :    0.000221
  96 H :   -0.013287
  97 H :   -0.016864
Sum of atomic charges:   -0.0000000

LOEWDIN ATOMIC CHARGES
----------------------
   0 C :    0.080493
   1 C :   -0.145467
   2 C :   -0.019896
   3 N :   -0.050075
   4 C :   -0.019771
   5 N :   -0.052722
   6 C :   -0.014293
   7 C :   -0.046397
   8 C :    0.035676
   9 C :   -0.030865
  10 C :   -0.143970
  11 C :   -0.007922
  12 S :    0.461708
  13 C :   -0.267809
  14 C :   -0.074485
  15 Br:    0.155266
  16 C :    0.100729
  17 O :   -0.186541
  18 C :   -0.141361
  19 C :    0.110959
  20 N :    0.075317
  21 C :   -0.107166
  22 S :    0.481569
  23 C :   -0.200994
  24 N :    0.272287
  25 O :   -0.207044
  26 O :   -0.221399
  27 C :    0.006759
  28 C :   -0.091228
  29 C :    0.016835
  30 C :   -0.057428
  31 C :   -0.118956
  32 S :    0.540641
  33 C :   -0.149870
  34 C :   -0.078594
  35 C :   -0.095445
  36 C :    0.082866
  37 O :   -0.134516
  38 C :   -0.065201
  39 C :    0.082849
  40 O :   -0.134059
  41 C :    0.009254
  42 C :   -0.006401
  43 C :    0.073400
  44 C :   -0.027486
  45 C :    0.011795
  46 C :   -0.027720
  47 C :    0.020467
  48 C :   -0.023282
  49 C :    0.047082
  50 C :   -0.067883
  51 C :   -0.013503
  52 C :    0.036546
  53 C :    0.061810
  54 C :   -0.133639
  55 C :    0.076657
  56 O :   -0.163111
  57 C :   -0.056060
  58 C :    0.023831
  59 C :   -0.022292
  60 C :   -0.007607
  61 C :   -0.052725
  62 C :    0.085844
  63 C :   -0.040696
  64 C :    0.000641
  65 F :   -0.066529
  66 C :    0.001196
  67 C :   -0.017370
  68 C :    0.063736
  69 C :   -0.184435
  70 C :   -0.018289
  71 N :   -0.077217
  72 C :   -0.019946
  73 N :   -0.097105
  74 H :    0.033329
  75 H :    0.041798
  76 H :    0.031963
  77 H :    0.038088
  78 H :    0.084415
  79 H :    0.051682
  80 H :    0.038313
  81 H :    0.027105
  82 H :    0.064306
  83 H :    0.065420
  84 H :    0.033283
  85 H :    0.035559
  86 H :    0.037472
  87 H :    0.033145
  88 H :    0.036113
  89 H :    0.034516
  90 H :    0.028676
  91 H :    0.033793
  92 H :    0.040867
  93 H :    0.036677
  94 H :    0.034941
  95 H :    0.040567
  96 H :    0.034008
  97 H :    0.034521

  Mayer bond orders larger than 0.100000
B(  0-C ,  1-C ) :   1.6356 B(  0-C ,  6-C ) :   1.0050 B(  0-C , 18-C ) :   1.0881
B(  1-C ,  2-C ) :   1.1405 B(  1-C ,  4-C ) :   1.1482 B(  2-C ,  3-N ) :   2.9717
B(  4-C ,  5-N ) :   2.9572 B(  6-C ,  7-C ) :   1.2760 B(  6-C , 11-C ) :   1.4211
B(  7-C ,  8-C ) :   1.4235 B(  7-C , 16-C ) :   0.9942 B(  8-C ,  9-C ) :   1.2348
B(  8-C , 74-H ) :   1.0137 B(  9-C , 10-C ) :   1.3128 B(  9-C , 14-C ) :   1.1654
B( 10-C , 11-C ) :   1.3162 B( 10-C , 12-S ) :   1.0912 B( 11-C , 75-H ) :   0.9784
B( 12-S , 13-C ) :   1.0977 B( 13-C , 14-C ) :   1.6003 B( 13-C , 15-Br) :   1.0311
B( 14-C , 76-H ) :   0.9997 B( 16-C , 17-O ) :   1.9828 B( 16-C , 18-C ) :   1.0055
B( 17-O , 78-H ) :   0.1431 B( 18-C , 19-C ) :   1.4647 B( 19-C , 20-N ) :   1.3253
B( 19-C , 77-H ) :   0.9323 B( 20-N , 21-C ) :   1.1788 B( 20-N , 78-H ) :   0.8219
B( 21-C , 22-S ) :   1.1502 B( 21-C , 28-C ) :   1.3883 B( 22-S , 23-C ) :   1.0861
B( 23-C , 24-N ) :   0.9589 B( 23-C , 27-C ) :   1.4959 B( 24-N , 25-O ) :   1.5453
B( 24-N , 26-O ) :   1.5185 B( 25-O , 26-O ) :   0.2640 B( 27-C , 28-C ) :   1.2197
B( 27-C , 79-H ) :   1.0098 B( 28-C , 29-C ) :   1.0640 B( 29-C , 30-C ) :   1.7170
B( 29-C , 80-H ) :   0.9420 B( 30-C , 31-C ) :   1.1497 B( 30-C , 81-H ) :   0.9409
B( 31-C , 32-S ) :   1.1967 B( 31-C , 35-C ) :   1.4188 B( 32-S , 33-C ) :   1.1594
B( 33-C , 34-C ) :   1.3976 B( 33-C , 41-C ) :   1.2035 B( 34-C , 35-C ) :   1.2434
B( 34-C , 39-C ) :   0.9491 B( 35-C , 36-C ) :   0.9487 B( 36-C , 37-O ) :   2.1644
B( 36-C , 38-C ) :   1.0008 B( 38-C , 39-C ) :   1.0020 B( 38-C , 82-H ) :   0.8962
B( 38-C , 83-H ) :   0.8949 B( 39-C , 40-O ) :   2.1628 B( 41-C , 42-C ) :   1.5513
B( 41-C , 84-H ) :   0.9388 B( 42-C , 43-C ) :   1.2549 B( 42-C , 85-H ) :   0.9435
B( 43-C , 44-C ) :   1.2988 B( 43-C , 51-C ) :   1.0074 B( 44-C , 45-C ) :   1.2210
B( 44-C , 49-C ) :   1.1873 B( 45-C , 46-C ) :   1.5259 B( 45-C , 86-H ) :   0.9940
B( 46-C , 47-C ) :   1.2289 B( 46-C , 87-H ) :   0.9850 B( 47-C , 48-C ) :   1.5048
B( 47-C , 88-H ) :   0.9839 B( 48-C , 49-C ) :   1.2543 B( 48-C , 89-H ) :   0.9919
B( 49-C , 50-C ) :   1.2388 B( 50-C , 51-C ) :   1.0217 B( 50-C , 53-C ) :   1.3249
B( 51-C , 52-C ) :   1.8572 B( 52-C , 90-H ) :   0.9445 B( 52-C , 91-H ) :   0.9143
B( 53-C , 54-C ) :   1.4146 B( 53-C , 92-H ) :   0.9393 B( 54-C , 55-C ) :   0.9663
B( 54-C , 68-C ) :   1.1389 B( 55-C , 56-O ) :   2.2438 B( 55-C , 57-C ) :   0.9139
B( 57-C , 58-C ) :   1.4751 B( 57-C , 67-C ) :   1.2219 B( 58-C , 59-C ) :   1.1669
B( 58-C , 93-H ) :   1.0159 B( 59-C , 60-C ) :   1.2693 B( 59-C , 64-C ) :   1.2354
B( 60-C , 61-C ) :   1.2055 B( 60-C , 66-C ) :   1.1931 B( 61-C , 62-C ) :   1.4355
B( 61-C , 94-H ) :   1.0013 B( 62-C , 63-C ) :   1.2609 B( 62-C , 65-F ) :   1.0902
B( 63-C , 64-C ) :   1.4486 B( 63-C , 95-H ) :   0.9941 B( 64-C , 96-H ) :   0.9972
B( 66-C , 67-C ) :   1.4645 B( 66-C , 97-H ) :   0.9933 B( 67-C , 68-C ) :   1.0079
B( 68-C , 69-C ) :   1.5135 B( 69-C , 70-C ) :   1.2017 B( 69-C , 72-C ) :   1.1500
B( 70-C , 71-N ) :   2.9570 B( 72-C , 73-N ) :   2.9020

-----------------------------------------------------------------------------
         ABSORPTION SPECTRUM VIA TRANSITION ELECTRIC DIPOLE MOMENTS
-----------------------------------------------------------------------------
State   Energy  Wavelength   fosc         T2         TX        TY        TZ
        (cm-1)    (nm)                  (au**2)     (au)      (au)      (au)
-----------------------------------------------------------------------------
   0    7719.8   1295.4   0.161738501   6.89738  -0.39721   2.25095   1.29337
   1   17661.3    566.2   0.237286999   4.42310   0.23449   2.05048  -0.40455
   2   20059.9    498.5   0.325755249   5.34611   1.26965  -0.13878  -1.92739
   3   20304.6    492.5   0.027537513   0.44648   0.34476   0.38645  -0.42223
   4   21311.2    469.2   0.267231884   4.12816  -0.19027  -1.14045   1.67073
   5   21885.1    456.9   0.098910109   1.48788   0.27213  -1.17427   0.18686
   6   22799.7    438.6   0.029484089   0.42573   0.00296   0.64879   0.06921
   7   23058.9    433.7   0.185493722   2.64829   0.59050  -1.35845  -0.67395
   8   23930.8    417.9   0.693186432   9.53603   1.27579  -2.70760  -0.75978
   9   24870.1    402.1   0.029123114   0.38551   0.23603   0.53669  -0.20437
  10   24944.3    400.9   0.297272262   3.92337   0.12302   1.92508  -0.44976
  11   25589.1    390.8   0.034865971   0.44856  -0.30502  -0.33688   0.49197
  12   26175.4    382.0   0.224657087   2.82555  -0.42043  -0.55734   1.52910
  13   26369.5    379.2   0.036894057   0.46061   0.45316  -0.32665  -0.38542
  14   26747.4    373.9   0.019264403   0.23711  -0.22127  -0.09599   0.42301
  15   26831.7    372.7   0.005038958   0.06183  -0.02469   0.01567   0.24692
  16   27537.8    363.1   0.375731969   4.49184  -0.01849   1.95948  -0.80741
  17   27869.7    358.8   0.209203915   2.47123  -0.67505  -0.38898   1.36537
  18   28479.2    351.1   0.057193731   0.66114  -0.48891   0.36397   0.53818
  19   29167.1    342.9   0.213569365   2.41058  -0.75065  -0.82895   1.07701
  20   29425.5    339.8   0.037327058   0.41761  -0.56871   0.22235   0.21152
  21   29601.2    337.8   0.072281784   0.80389  -0.21976  -0.70674   0.50608
  22   29869.9    334.8   0.021102742   0.23258  -0.14821   0.43328   0.15129
  23   30345.1    329.5   0.195815758   2.12439  -0.88658   0.53782   1.02427
  24   30978.8    322.8   0.056180306   0.59703  -0.32952   0.23162   0.65939
  25   31547.2    317.0   0.464319531   4.84543   0.43351  -2.05537   0.65801
  26   31712.7    315.3   0.004444082   0.04613  -0.11885   0.13518   0.11719
  27   31951.2    313.0   0.259068094   2.66933  -0.06329  -1.24386   1.05742
  28   32061.0    311.9   0.168870374   1.73401   0.30819  -1.25058   0.27400
  29   32606.6    306.7   0.003144559   0.03175  -0.05345  -0.02798   0.16766
  30   32967.3    303.3   0.193589303   1.93319   0.54338  -1.27920   0.03959
  31   33083.4    302.3   0.054354324   0.54088  -0.03109  -0.35546   0.64309
  32   33280.5    300.5   0.127272807   1.25899  -0.02401  -1.07659   0.31522
  33   33610.6    297.5   0.139602262   1.36739  -0.13337  -0.86669   0.77360
  34   33864.0    295.3   0.013218653   0.12851   0.00269  -0.22865   0.27607
  35   33994.6    294.2   0.036485445   0.35333   0.04564   0.28592  -0.51913
  36   34086.1    293.4   0.031570254   0.30491   0.09639  -0.52387  -0.14553
  37   34351.5    291.1   0.150065613   1.43817  -0.52825   0.18112   1.06128
  38   34500.0    289.9   0.038767591   0.36993   0.25403  -0.54669  -0.08085
  39   34679.0    288.4   0.009671400   0.09181  -0.21680  -0.07449  -0.19814
  40   35131.9    284.6   0.013204829   0.12374  -0.16066   0.20828   0.23355
  41   35215.5    284.0   0.144766848   1.35335  -0.46230  -0.11750   1.06105
  42   35348.4    282.9   0.014790494   0.13775  -0.08091   0.03412   0.36061
  43   35695.6    280.1   0.155237592   1.43172  -0.54762   0.28082   1.02614
  44   35918.8    278.4   0.018017820   0.16514  -0.26657   0.19673   0.23533
  45   36094.2    277.1   0.056582994   0.51609  -0.22477   0.65198  -0.20123
  46   36362.0    275.0   0.183898931   1.66497  -0.70931   0.63020   0.87447
  47   36452.7    274.3   0.013065161   0.11799  -0.15315   0.05355   0.30277
  48   36687.1    272.6   0.045172111   0.40535   0.30358  -0.54463   0.12873
  49   36721.9    272.3   0.026408266   0.23675   0.26854  -0.38256  -0.13522
  50   36848.8    271.4   0.023457780   0.20958   0.11359  -0.39836   0.19489
  51   36984.5    270.4   0.006888547   0.06132   0.02357  -0.11776  -0.21655
  52   37426.1    267.2   0.152320136   1.33986   0.40329   0.88305  -0.63042
  53   37630.4    265.7   0.007591210   0.06641   0.00210  -0.04766   0.25325
  54   37980.0    263.3   0.166380282   1.44219   0.60153  -0.75487  -0.71451
  55   38025.0    263.0   0.008997289   0.07790   0.21841   0.08428  -0.15196
  56   38318.5    261.0   0.064917373   0.55773  -0.34286   0.65994   0.06825
  57   38653.8    258.7   0.049645465   0.42283  -0.17993   0.51998   0.34651
  58   38869.9    257.3   0.016054868   0.13598   0.03615   0.28218  -0.23462
  59   39112.1    255.7   0.049136990   0.41359   0.28703  -0.56720  -0.09741
  60   39480.9    253.3   0.026378691   0.21996  -0.23247   0.01478   0.40706
  61   39662.1    252.1   0.058330078   0.48416   0.11235   0.54341  -0.41981
  62   39928.4    250.4   0.038129528   0.31438  -0.08319   0.55235   0.04868
  63   40053.1    249.7   0.047970982   0.39429   0.32976   0.12635  -0.51922
  64   40128.6    249.2   0.064724570   0.53100   0.08138   0.53438  -0.48868
  65   40245.3    248.5   0.159179047   1.30211   0.35278   0.80727  -0.72524
  66   40295.9    248.2   0.025785425   0.21066   0.23390  -0.10491  -0.38072

FINAL SINGLE POINT ENERGY     -6830.349287153124

DIPOLE MOMENT
-------------
                                X             Y             Z
Electronic contribution:    -54.16600      27.83080      37.85293
Nuclear contribution   :     54.14611     -25.45014     -41.33702
                        -----------------------------------------
Total Dipole Moment    :     -0.01989       2.38066      -3.48409
                        -----------------------------------------
Magnitude (a.u.)       :      4.21982
Magnitude (Debye)      :     10.72592

Rotational constants in cm-1:     0.001033     0.000618     0.000413
Rotational constants in MHz :    30.956660    18.517966    12.366535

                             ****ORCA TERMINATED NORMALLY****
TOTAL RUN TIME: 0 days 0 hours 18 minutes 49 seconds 46 msec
