                         Program Version 4.2.0 -  RELEASE  -
|  1> # ORCA input file
|  2> # SCF done       -208.757388652894          0.000482820178
|  3> ! CAM-B3LYP def2-SVP def2/J RIJCOSX Grid4 TightSCF
|  4> %maxcore 5000
|  5> %tddft
|  6>     Mode sTDDFT
|  7>     Ethresh 5.0
|  8>     maxcore 5000
|  9> end
| 10>
| 11> %pal
| 12>   nprocs 6
| 13>   end
| 14> * xyz 0 1
| 15>    C       -0.68827         4.87323        -4.76122
| 16>    C       -0.10772         6.10651        -4.58970
| 17>    C        1.20569         6.42629        -4.98955
| 18>    N        2.26585         6.75191        -5.28828
| 19>    C       -0.71415         7.22741        -3.98750
| 20>    N       -1.12476         8.18836        -3.50954
| 21>    C       -0.03534         3.71854        -5.37299
| 22>    C       -0.92939         2.62157        -5.34242
| 23>    C       -0.60541         1.38580        -5.84549
| 24>    C        0.66517         1.22210        -6.40753
| 25>    C        1.55221         2.32341        -6.43454
| 26>    C        1.22362         3.57398        -5.92572
| 27>    S        3.06917         1.90431        -7.17322
| 28>    C        2.49722         0.27754        -7.43115
| 29>    C        1.23695         0.05686        -6.98867
| 30>   Br        3.61891        -0.97716        -8.26024
| 31>    C       -2.19761         3.03971        -4.70676
| 32>    O       -3.16842         2.33550        -4.52221
| 33>    C       -2.01942         4.46863        -4.36468
| 34>    C       -2.97608         5.26117        -3.78079
| 35>    C       -4.25300         4.83351        -3.37959
| 36>    C       -5.13909         5.70534        -2.81149
| 37>    C       -6.42272         5.35462        -2.36038
| 38>    O       -7.22725         6.30847        -1.81749
| 39>    C       -8.39406         5.73045        -1.44584
| 40>    C       -8.34854         4.37072        -1.75674
| 41>    C       -7.09525         4.12494        -2.34107
| 42>    O       -6.62636         2.95213        -2.78882
| 43>    O       -9.28978         3.40977        -1.56826
| 44>    C       -9.43464         6.48760        -0.86136
| 45>    C       -9.39192         7.83880        -0.71072
| 46>    C      -10.46290         8.59868        -0.19351
| 47>    C      -10.45410         9.95997        -0.20723
| 48>    C      -11.48014        10.84317         0.19585
| 49>    S      -11.13128        12.54271         0.11149
| 50>    C      -12.69564        12.96242         0.74429
| 51>    C      -13.45321        11.79951         0.99359
| 52>    C      -12.76797        10.60990         0.69107
| 53>    C      -13.28715         9.24634         0.87955
| 54>    C      -13.50331         8.70782         2.06877
| 55>    O      -14.71680        11.96892         1.43937
| 56>    C      -15.66900        10.93409         1.31769
| 57>    C      -13.01163        14.31998         0.87723
| 58>    C      -14.13374        14.87620         1.44116
| 59>    C      -14.43585        16.24417         1.43692
| 60>    C      -13.85908        17.24652         0.67956
| 61>    C      -14.20988        18.61648         0.70119
| 62>    C      -13.55220        19.39169        -0.21393
| 63>    C      -12.65149        18.66702        -1.01639
| 64>    S      -12.64139        16.98911        -0.55321
| 65>    C      -11.86278        19.05941        -2.08925
| 66>    C      -11.70781        20.29586        -2.73726
| 67>    C      -10.93766        20.22432        -3.86697
| 68>    C      -10.48035        18.92518        -4.18138
| 69>    S      -10.96148        17.82047        -2.93231
| 70>    C       -9.71701        18.55818        -5.28537
| 71>    C       -9.35038        17.29123        -5.71284
| 72>    C       -9.81298        16.01533        -5.39615
| 73>    C       -8.90789        14.86920        -5.63491
| 74>    O       -7.83141        14.88700        -6.19341
| 75>    C       -9.57688        13.69394        -5.02276
| 76>    C       -9.14898        12.40328        -4.92675
| 77>    C       -9.98405        11.44737        -4.29909
| 78>    C      -11.22880        11.86502        -3.74849
| 79>    C      -12.05860        10.91024        -3.12938
| 80>    C      -11.68425         9.59744        -3.08731
| 81>    C      -10.46524         9.18078        -3.64925
| 82>    C       -9.62394        10.08776        -4.23047
| 83>    F      -10.13830         7.87494        -3.61818
| 84>    F      -12.48942         8.68541        -2.50613
| 85>    C      -11.64147        13.21369        -3.85886
| 86>    C      -10.83825        14.10651        -4.51192
| 87>    C      -11.03471        15.51398        -4.86069
| 88>    C      -12.26199        16.15281        -4.83137
| 89>    C      -12.51208        17.37040        -5.48654
| 90>    N      -12.75877        18.35223        -6.03004
| 91>    C      -13.41430        15.62599        -4.22533
| 92>    N      -14.37834        15.26984        -3.70930
| 93>    H       -1.31048         0.57024        -5.80655
| 94>    H        1.93594         4.38039        -5.97262
| 95>    H        0.72946        -0.88722        -7.06769
| 96>    H       -2.74093         6.30325        -3.60473
| 97>    H       -4.52801         3.79980        -3.52023
| 98>    H       -4.86643         6.74501        -2.68027
| 99>    H       -7.30365         2.27353        -2.66236
|100>    H      -10.09637         3.80531        -1.22107
|101>    H      -10.31911         5.94427        -0.55577
|102>    H       -8.51017         8.36518        -1.04879
|103>    H      -11.31894         8.06288         0.18641
|104>    H       -9.56585        10.45347        -0.58473
|105>    H      -13.46888         8.68431        -0.02923
|106>    H      -13.30260         9.24825         2.97980
|107>    H      -13.88005         7.70508         2.17789
|108>    H      -16.64009        11.42799         1.35740
|109>    H      -15.59027        10.21965         2.14146
|110>    H      -15.56945        10.40287         0.36928
|111>    H      -12.23695        14.97808         0.51015
|112>    H      -14.83244        14.22295         1.94190
|113>    H      -15.25876        16.56098         2.06604
|114>    H      -14.94793        18.99324         1.38786
|115>    H      -13.70962        20.44750        -0.34199
|116>    H      -12.17615        21.19415        -2.37703
|117>    H      -10.72750        21.06025        -4.50972
|118>    H       -9.31281        19.38884        -5.85079
|119>    H       -8.50169        17.26213        -6.39141
|120>    H       -8.19570        12.10660        -5.33708
|121>    H      -13.00260        11.21388        -2.70417
|122>    H       -8.68980         9.75267        -4.65347
|123>    H      -12.58951        13.50135        -3.43400
|124> *
|125>
|126>                          ****END OF INPUT****

CARTESIAN COORDINATES (ANGSTROEM)
---------------------------------
  C     -0.688270    4.873230   -4.761220
  C     -0.107720    6.106510   -4.589700
  C      1.205690    6.426290   -4.989550
  N      2.265850    6.751910   -5.288280
  C     -0.714150    7.227410   -3.987500
  N     -1.124760    8.188360   -3.509540
  C     -0.035340    3.718540   -5.372990
  C     -0.929390    2.621570   -5.342420
  C     -0.605410    1.385800   -5.845490
  C      0.665170    1.222100   -6.407530
  C      1.552210    2.323410   -6.434540
  C      1.223620    3.573980   -5.925720
  S      3.069170    1.904310   -7.173220
  C      2.497220    0.277540   -7.431150
  C      1.236950    0.056860   -6.988670
  Br     3.618910   -0.977160   -8.260240
  C     -2.197610    3.039710   -4.706760
  O     -3.168420    2.335500   -4.522210
  C     -2.019420    4.468630   -4.364680
  C     -2.976080    5.261170   -3.780790
  C     -4.253000    4.833510   -3.379590
  C     -5.139090    5.705340   -2.811490
  C     -6.422720    5.354620   -2.360380
  O     -7.227250    6.308470   -1.817490
  C     -8.394060    5.730450   -1.445840
  C     -8.348540    4.370720   -1.756740
  C     -7.095250    4.124940   -2.341070
  O     -6.626360    2.952130   -2.788820
  O     -9.289780    3.409770   -1.568260
  C     -9.434640    6.487600   -0.861360
  C     -9.391920    7.838800   -0.710720
  C    -10.462900    8.598680   -0.193510
  C    -10.454100    9.959970   -0.207230
  C    -11.480140   10.843170    0.195850
  S    -11.131280   12.542710    0.111490
  C    -12.695640   12.962420    0.744290
  C    -13.453210   11.799510    0.993590
  C    -12.767970   10.609900    0.691070
  C    -13.287150    9.246340    0.879550
  C    -13.503310    8.707820    2.068770
  O    -14.716800   11.968920    1.439370
  C    -15.669000   10.934090    1.317690
  C    -13.011630   14.319980    0.877230
  C    -14.133740   14.876200    1.441160
  C    -14.435850   16.244170    1.436920
  C    -13.859080   17.246520    0.679560
  C    -14.209880   18.616480    0.701190
  C    -13.552200   19.391690   -0.213930
  C    -12.651490   18.667020   -1.016390
  S    -12.641390   16.989110   -0.553210
  C    -11.862780   19.059410   -2.089250
  C    -11.707810   20.295860   -2.737260
  C    -10.937660   20.224320   -3.866970
  C    -10.480350   18.925180   -4.181380
  S    -10.961480   17.820470   -2.932310
  C     -9.717010   18.558180   -5.285370
  C     -9.350380   17.291230   -5.712840
  C     -9.812980   16.015330   -5.396150
  C     -8.907890   14.869200   -5.634910
  O     -7.831410   14.887000   -6.193410
  C     -9.576880   13.693940   -5.022760
  C     -9.148980   12.403280   -4.926750
  C     -9.984050   11.447370   -4.299090
  C    -11.228800   11.865020   -3.748490
  C    -12.058600   10.910240   -3.129380
  C    -11.684250    9.597440   -3.087310
  C    -10.465240    9.180780   -3.649250
  C     -9.623940   10.087760   -4.230470
  F    -10.138300    7.874940   -3.618180
  F    -12.489420    8.685410   -2.506130
  C    -11.641470   13.213690   -3.858860
  C    -10.838250   14.106510   -4.511920
  C    -11.034710   15.513980   -4.860690
  C    -12.261990   16.152810   -4.831370
  C    -12.512080   17.370400   -5.486540
  N    -12.758770   18.352230   -6.030040
  C    -13.414300   15.625990   -4.225330
  N    -14.378340   15.269840   -3.709300
  H     -1.310480    0.570240   -5.806550
  H      1.935940    4.380390   -5.972620
  H      0.729460   -0.887220   -7.067690
  H     -2.740930    6.303250   -3.604730
  H     -4.528010    3.799800   -3.520230
  H     -4.866430    6.745010   -2.680270
  H     -7.303650    2.273530   -2.662360
  H    -10.096370    3.805310   -1.221070
  H    -10.319110    5.944270   -0.555770
  H     -8.510170    8.365180   -1.048790
  H    -11.318940    8.062880    0.186410
  H     -9.565850   10.453470   -0.584730
  H    -13.468880    8.684310   -0.029230
  H    -13.302600    9.248250    2.979800
  H    -13.880050    7.705080    2.177890
  H    -16.640090   11.427990    1.357400
  H    -15.590270   10.219650    2.141460
  H    -15.569450   10.402870    0.369280
  H    -12.236950   14.978080    0.510150
  H    -14.832440   14.222950    1.941900
  H    -15.258760   16.560980    2.066040
  H    -14.947930   18.993240    1.387860
  H    -13.709620   20.447500   -0.341990
  H    -12.176150   21.194150   -2.377030
  H    -10.727500   21.060250   -4.509720
  H     -9.312810   19.388840   -5.850790
  H     -8.501690   17.262130   -6.391410
  H     -8.195700   12.106600   -5.337080
  H    -13.002600   11.213880   -2.704170
  H     -8.689800    9.752670   -4.653470
  H    -12.589510   13.501350   -3.434000

 Total Charge           Charge          ....    0
 Multiplicity           Mult            ....    1
 Number of Electrons    NEL             ....  590
 Basis Dimension        Dim             .... 1281

ORBITAL ENERGIES
----------------

  NO   OCC          E(Eh)            E(eV)
   0   2.0000    -482.879306    -13139.8139
   1   2.0000     -88.968688     -2420.9611
   2   2.0000     -88.967349     -2420.9247
   3   2.0000     -88.960762     -2420.7454
   4   2.0000     -88.957795     -2420.6647
   5   2.0000     -62.556997     -1702.2624
   6   2.0000     -56.390940     -1534.4755
   7   2.0000     -56.388242     -1534.4021
   8   2.0000     -56.388204     -1534.4010
   9   2.0000     -24.799891      -674.8394
  10   2.0000     -24.793825      -674.6743
  11   2.0000     -19.299604      -525.1689
  12   2.0000     -19.280296      -524.6435
  13   2.0000     -19.274309      -524.4806
  14   2.0000     -19.269300      -524.3443
  15   2.0000     -19.203256      -522.5472
  16   2.0000     -19.190710      -522.2058
  17   2.0000     -14.404493      -391.9662
  18   2.0000     -14.402487      -391.9116
  19   2.0000     -14.393048      -391.6547
  20   2.0000     -14.389800      -391.5664
  21   2.0000     -10.372086      -282.2388
  22   2.0000     -10.371047      -282.2105
  23   2.0000     -10.359135      -281.8864
  24   2.0000     -10.355792      -281.7954
  25   2.0000     -10.353835      -281.7422
  26   2.0000     -10.352029      -281.6930
  27   2.0000     -10.351193      -281.6703
  28   2.0000     -10.349633      -281.6278
  29   2.0000     -10.341475      -281.4058
  30   2.0000     -10.340560      -281.3809
  31   2.0000     -10.335693      -281.2485
  32   2.0000     -10.332487      -281.1613
  33   2.0000     -10.328738      -281.0593
  34   2.0000     -10.327450      -281.0242
  35   2.0000     -10.324300      -280.9385
  36   2.0000     -10.317389      -280.7504
  37   2.0000     -10.316131      -280.7162
  38   2.0000     -10.315089      -280.6879
  39   2.0000     -10.314036      -280.6592
  40   2.0000     -10.310413      -280.5606
  41   2.0000     -10.310012      -280.5497
  42   2.0000     -10.308782      -280.5162
  43   2.0000     -10.308053      -280.4964
  44   2.0000     -10.306279      -280.4481
  45   2.0000     -10.304249      -280.3929
  46   2.0000     -10.304131      -280.3897
  47   2.0000     -10.302823      -280.3541
  48   2.0000     -10.301459      -280.3169
  49   2.0000     -10.301067      -280.3063
  50   2.0000     -10.301031      -280.3053
  51   2.0000     -10.300780      -280.2985
  52   2.0000     -10.298390      -280.2334
  53   2.0000     -10.298287      -280.2306
  54   2.0000     -10.297706      -280.2148
  55   2.0000     -10.297252      -280.2025
  56   2.0000     -10.296670      -280.1866
  57   2.0000     -10.295745      -280.1615
  58   2.0000     -10.295423      -280.1527
  59   2.0000     -10.295251      -280.1480
  60   2.0000     -10.294621      -280.1309
  61   2.0000     -10.292579      -280.0753
  62   2.0000     -10.291831      -280.0550
  63   2.0000     -10.291281      -280.0400
  64   2.0000     -10.291165      -280.0368
  65   2.0000     -10.290992      -280.0321
  66   2.0000     -10.290957      -280.0312
  67   2.0000     -10.290955      -280.0311
  68   2.0000     -10.289193      -279.9832
  69   2.0000     -10.287017      -279.9240
  70   2.0000     -10.286373      -279.9064
  71   2.0000     -10.284953      -279.8678
  72   2.0000     -10.284436      -279.8537
  73   2.0000     -10.281151      -279.7643
  74   2.0000     -10.280946      -279.7588
  75   2.0000     -10.280862      -279.7565
  76   2.0000     -10.280612      -279.7497
  77   2.0000     -10.280173      -279.7377
  78   2.0000     -10.273926      -279.5677
  79   2.0000     -10.273237      -279.5490
  80   2.0000     -10.271940      -279.5137
  81   2.0000     -10.267538      -279.3939
  82   2.0000      -8.786404      -239.0902
  83   2.0000      -8.064223      -219.4387
  84   2.0000      -8.063313      -219.4139
  85   2.0000      -8.056716      -219.2344
  86   2.0000      -8.052849      -219.1292
  87   2.0000      -6.622660      -180.2117
  88   2.0000      -6.608150      -179.8169
  89   2.0000      -6.607981      -179.8123
  90   2.0000      -6.033391      -164.1769
  91   2.0000      -6.033029      -164.1671
  92   2.0000      -6.029539      -164.0721
  93   2.0000      -6.028730      -164.0501
  94   2.0000      -6.026354      -163.9854
  95   2.0000      -6.026260      -163.9829
  96   2.0000      -6.024528      -163.9357
  97   2.0000      -6.022240      -163.8735
  98   2.0000      -6.022132      -163.8705
  99   2.0000      -6.017963      -163.7571
 100   2.0000      -6.017961      -163.7571
 101   2.0000      -6.014777      -163.6704
 102   2.0000      -2.738545       -74.5196
 103   2.0000      -2.734458       -74.4084
 104   2.0000      -2.734333       -74.4050
 105   2.0000      -2.722800       -74.0912
 106   2.0000      -2.722785       -74.0908
 107   2.0000      -1.316197       -35.8156
 108   2.0000      -1.301017       -35.4025
 109   2.0000      -1.221103       -33.2279
 110   2.0000      -1.176558       -32.0158
 111   2.0000      -1.172014       -31.8921
 112   2.0000      -1.160343       -31.5745
 113   2.0000      -1.117648       -30.4128
 114   2.0000      -1.104821       -30.0637
 115   2.0000      -1.012638       -27.5553
 116   2.0000      -1.008676       -27.4475
 117   2.0000      -1.002720       -27.2854
 118   2.0000      -1.000849       -27.2345
 119   2.0000      -0.997463       -27.1424
 120   2.0000      -0.986958       -26.8565
 121   2.0000      -0.982514       -26.7356
 122   2.0000      -0.981303       -26.7026
 123   2.0000      -0.977975       -26.6120
 124   2.0000      -0.969861       -26.3913
 125   2.0000      -0.961789       -26.1716
 126   2.0000      -0.938570       -25.5398
 127   2.0000      -0.933947       -25.4140
 128   2.0000      -0.926802       -25.2196
 129   2.0000      -0.917825       -24.9753
 130   2.0000      -0.914132       -24.8748
 131   2.0000      -0.904831       -24.6217
 132   2.0000      -0.901889       -24.5416
 133   2.0000      -0.898461       -24.4484
 134   2.0000      -0.893588       -24.3158
 135   2.0000      -0.890765       -24.2389
 136   2.0000      -0.881519       -23.9874
 137   2.0000      -0.877029       -23.8652
 138   2.0000      -0.875809       -23.8320
 139   2.0000      -0.871961       -23.7273
 140   2.0000      -0.865015       -23.5383
 141   2.0000      -0.858811       -23.3694
 142   2.0000      -0.849471       -23.1153
 143   2.0000      -0.843308       -22.9476
 144   2.0000      -0.836186       -22.7538
 145   2.0000      -0.829547       -22.5731
 146   2.0000      -0.824895       -22.4465
 147   2.0000      -0.820175       -22.3181
 148   2.0000      -0.817654       -22.2495
 149   2.0000      -0.807062       -21.9613
 150   2.0000      -0.798496       -21.7282
 151   2.0000      -0.786121       -21.3914
 152   2.0000      -0.774027       -21.0623
 153   2.0000      -0.757462       -20.6116
 154   2.0000      -0.748442       -20.3661
 155   2.0000      -0.745564       -20.2878
 156   2.0000      -0.744127       -20.2487
 157   2.0000      -0.736099       -20.0303
 158   2.0000      -0.729702       -19.8562
 159   2.0000      -0.720616       -19.6090
 160   2.0000      -0.711980       -19.3740
 161   2.0000      -0.705191       -19.1892
 162   2.0000      -0.700330       -19.0569
 163   2.0000      -0.699850       -19.0439
 164   2.0000      -0.688899       -18.7459
 165   2.0000      -0.681560       -18.5462
 166   2.0000      -0.680224       -18.5098
 167   2.0000      -0.675229       -18.3739
 168   2.0000      -0.670493       -18.2451
 169   2.0000      -0.668866       -18.2008
 170   2.0000      -0.662622       -18.0309
 171   2.0000      -0.660909       -17.9842
 172   2.0000      -0.649819       -17.6825
 173   2.0000      -0.648239       -17.6395
 174   2.0000      -0.646639       -17.5960
 175   2.0000      -0.644859       -17.5475
 176   2.0000      -0.637505       -17.3474
 177   2.0000      -0.635762       -17.3000
 178   2.0000      -0.630663       -17.1612
 179   2.0000      -0.626995       -17.0614
 180   2.0000      -0.625051       -17.0085
 181   2.0000      -0.623235       -16.9591
 182   2.0000      -0.615070       -16.7369
 183   2.0000      -0.612452       -16.6657
 184   2.0000      -0.601955       -16.3800
 185   2.0000      -0.593718       -16.1559
 186   2.0000      -0.593130       -16.1399
 187   2.0000      -0.590835       -16.0774
 188   2.0000      -0.589691       -16.0463
 189   2.0000      -0.583866       -15.8878
 190   2.0000      -0.583035       -15.8652
 191   2.0000      -0.579941       -15.7810
 192   2.0000      -0.574352       -15.6289
 193   2.0000      -0.570012       -15.5108
 194   2.0000      -0.567179       -15.4337
 195   2.0000      -0.564004       -15.3473
 196   2.0000      -0.562705       -15.3120
 197   2.0000      -0.558968       -15.2103
 198   2.0000      -0.557217       -15.1627
 199   2.0000      -0.554200       -15.0806
 200   2.0000      -0.545782       -14.8515
 201   2.0000      -0.544656       -14.8208
 202   2.0000      -0.542425       -14.7601
 203   2.0000      -0.539114       -14.6700
 204   2.0000      -0.537925       -14.6377
 205   2.0000      -0.537165       -14.6170
 206   2.0000      -0.530049       -14.4234
 207   2.0000      -0.529180       -14.3997
 208   2.0000      -0.528293       -14.3756
 209   2.0000      -0.527436       -14.3523
 210   2.0000      -0.520787       -14.1713
 211   2.0000      -0.519112       -14.1257
 212   2.0000      -0.518232       -14.1018
 213   2.0000      -0.517060       -14.0699
 214   2.0000      -0.511585       -13.9209
 215   2.0000      -0.511008       -13.9052
 216   2.0000      -0.507837       -13.8189
 217   2.0000      -0.507032       -13.7971
 218   2.0000      -0.503415       -13.6986
 219   2.0000      -0.503017       -13.6878
 220   2.0000      -0.499575       -13.5941
 221   2.0000      -0.499221       -13.5845
 222   2.0000      -0.498265       -13.5585
 223   2.0000      -0.497928       -13.5493
 224   2.0000      -0.497059       -13.5257
 225   2.0000      -0.492878       -13.4119
 226   2.0000      -0.491120       -13.3641
 227   2.0000      -0.488668       -13.2973
 228   2.0000      -0.487235       -13.2583
 229   2.0000      -0.485050       -13.1989
 230   2.0000      -0.483488       -13.1564
 231   2.0000      -0.483073       -13.1451
 232   2.0000      -0.481718       -13.1082
 233   2.0000      -0.474621       -12.9151
 234   2.0000      -0.472354       -12.8534
 235   2.0000      -0.470834       -12.8120
 236   2.0000      -0.466114       -12.6836
 237   2.0000      -0.463086       -12.6012
 238   2.0000      -0.462508       -12.5855
 239   2.0000      -0.460746       -12.5375
 240   2.0000      -0.459751       -12.5105
 241   2.0000      -0.456367       -12.4184
 242   2.0000      -0.455658       -12.3991
 243   2.0000      -0.450091       -12.2476
 244   2.0000      -0.448652       -12.2084
 245   2.0000      -0.443973       -12.0811
 246   2.0000      -0.442432       -12.0392
 247   2.0000      -0.439059       -11.9474
 248   2.0000      -0.438317       -11.9272
 249   2.0000      -0.436584       -11.8801
 250   2.0000      -0.435558       -11.8521
 251   2.0000      -0.433236       -11.7890
 252   2.0000      -0.432729       -11.7752
 253   2.0000      -0.432168       -11.7599
 254   2.0000      -0.431303       -11.7364
 255   2.0000      -0.428724       -11.6662
 256   2.0000      -0.427524       -11.6335
 257   2.0000      -0.426743       -11.6123
 258   2.0000      -0.425574       -11.5805
 259   2.0000      -0.421550       -11.4710
 260   2.0000      -0.421219       -11.4619
 261   2.0000      -0.415706       -11.3119
 262   2.0000      -0.413626       -11.2553
 263   2.0000      -0.411938       -11.2094
 264   2.0000      -0.410083       -11.1589
 265   2.0000      -0.406894       -11.0721
 266   2.0000      -0.406213       -11.0536
 267   2.0000      -0.398816       -10.8523
 268   2.0000      -0.396424       -10.7872
 269   2.0000      -0.395908       -10.7732
 270   2.0000      -0.394823       -10.7437
 271   2.0000      -0.382263       -10.4019
 272   2.0000      -0.380370       -10.3504
 273   2.0000      -0.377935       -10.2841
 274   2.0000      -0.370822       -10.0906
 275   2.0000      -0.368803       -10.0356
 276   2.0000      -0.361243        -9.8299
 277   2.0000      -0.355226        -9.6662
 278   2.0000      -0.350550        -9.5390
 279   2.0000      -0.347038        -9.4434
 280   2.0000      -0.341097        -9.2817
 281   2.0000      -0.327055        -8.8996
 282   2.0000      -0.325932        -8.8691
 283   2.0000      -0.322968        -8.7884
 284   2.0000      -0.320186        -8.7127
 285   2.0000      -0.315348        -8.5811
 286   2.0000      -0.310115        -8.4387
 287   2.0000      -0.306249        -8.3335
 288   2.0000      -0.297925        -8.1070
 289   2.0000      -0.294171        -8.0048
 290   2.0000      -0.284965        -7.7543
 291   2.0000      -0.279395        -7.6027
 292   2.0000      -0.267414        -7.2767
 293   2.0000      -0.242019        -6.5857
 294   2.0000      -0.216877        -5.9015
 295   0.0000      -0.110466        -3.0059
 296   0.0000      -0.088818        -2.4169
 297   0.0000      -0.060508        -1.6465
 298   0.0000      -0.049030        -1.3342
 299   0.0000      -0.043953        -1.1960

MULLIKEN ATOMIC CHARGES
-----------------------
   0 C :    0.337289
   1 C :   -0.368196
   2 C :   -0.186452
   3 N :    0.143530
   4 C :   -0.189854
   5 N :    0.139001
   6 C :    0.014009
   7 C :   -0.007816
   8 C :   -0.080465
   9 C :    0.121373
  10 C :   -0.089156
  11 C :   -0.029294
  12 S :    0.181772
  13 C :   -0.122372
  14 C :    0.035728
  15 Br:    0.016659
  16 C :    0.137620
  17 O :   -0.153549
  18 C :   -0.071773
  19 C :   -0.035777
  20 C :   -0.030864
  21 C :    0.008469
  22 C :    0.123858
  23 O :   -0.211968
  24 C :    0.124865
  25 C :    0.084690
  26 C :    0.074561
  27 O :   -0.140174
  28 O :   -0.193533
  29 C :   -0.065161
  30 C :    0.036516
  31 C :    0.005962
  32 C :    0.051418
  33 C :   -0.113288
  34 S :    0.157309
  35 C :   -0.144032
  36 C :    0.184457
  37 C :   -0.014124
  38 C :   -0.100337
  39 C :    0.011338
  40 O :   -0.309557
  41 C :    0.203377
  42 C :    0.051889
  43 C :   -0.014485
  44 C :    0.043683
  45 C :   -0.048197
  46 C :    0.058889
  47 C :    0.015660
  48 C :    0.002042
  49 S :    0.084355
  50 C :   -0.065510
  51 C :    0.042987
  52 C :    0.060710
  53 C :   -0.054785
  54 S :    0.116506
  55 C :    0.013849
  56 C :    0.017958
  57 C :   -0.153677
  58 C :    0.134439
  59 O :   -0.154456
  60 C :    0.022149
  61 C :   -0.098978
  62 C :    0.116266
  63 C :    0.107498
  64 C :   -0.096676
  65 C :    0.252704
  66 C :    0.233215
  67 C :   -0.115512
  68 F :   -0.184669
  69 F :   -0.190918
  70 C :   -0.103917
  71 C :    0.043290
  72 C :    0.286515
  73 C :   -0.366617
  74 C :   -0.209548
  75 N :    0.152686
  76 C :   -0.170020
  77 N :    0.122755
  78 H :   -0.014162
  79 H :   -0.008025
  80 H :   -0.005717
  81 H :    0.004330
  82 H :    0.039343
  83 H :    0.009734
  84 H :    0.199243
  85 H :    0.194842
  86 H :   -0.029477
  87 H :    0.005912
  88 H :   -0.007867
  89 H :   -0.011303
  90 H :    0.035730
  91 H :    0.031800
  92 H :    0.027967
  93 H :    0.037469
  94 H :    0.025464
  95 H :    0.030103
  96 H :    0.002179
  97 H :    0.004169
  98 H :   -0.003804
  99 H :   -0.002842
 100 H :   -0.005773
 101 H :   -0.012163
 102 H :   -0.008585
 103 H :   -0.005117
 104 H :    0.021509
 105 H :   -0.015496
 106 H :   -0.007238
 107 H :   -0.003936
 108 H :   -0.016423
Sum of atomic charges:   -0.0000000

LOEWDIN ATOMIC CHARGES
----------------------
   0 C :    0.076210
   1 C :   -0.150211
   2 C :   -0.018156
   3 N :   -0.062852
   4 C :   -0.019962
   5 N :   -0.061826
   6 C :   -0.019702
   7 C :   -0.048963
   8 C :    0.017890
   9 C :   -0.034351
  10 C :   -0.144895
  11 C :   -0.011910
  12 S :    0.428728
  13 C :   -0.273276
  14 C :   -0.071346
  15 Br:    0.131777
  16 C :    0.081926
  17 O :   -0.149224
  18 C :   -0.107102
  19 C :    0.065777
  20 C :   -0.038255
  21 C :    0.021142
  22 C :   -0.006298
  23 O :    0.007130
  24 C :    0.007016
  25 C :   -0.019731
  26 C :    0.019689
  27 O :   -0.016088
  28 O :   -0.056888
  29 C :   -0.047953
  30 C :   -0.006272
  31 C :   -0.014343
  32 C :   -0.045925
  33 C :   -0.145562
  34 S :    0.463361
  35 C :   -0.205962
  36 C :    0.043355
  37 C :   -0.094506
  38 C :   -0.022671
  39 C :   -0.033672
  40 O :   -0.085830
  41 C :    0.085149
  42 C :   -0.012669
  43 C :   -0.054723
  44 C :   -0.004890
  45 C :   -0.168077
  46 C :    0.001102
  47 C :   -0.053995
  48 C :   -0.132752
  49 S :    0.421891
  50 C :   -0.204296
  51 C :   -0.018681
  52 C :   -0.037065
  53 C :   -0.116213
  54 S :    0.476852
  55 C :   -0.073954
  56 C :    0.032623
  57 C :   -0.123625
  58 C :    0.079207
  59 O :   -0.155874
  60 C :   -0.046633
  61 C :    0.020337
  62 C :   -0.015741
  63 C :   -0.009448
  64 C :   -0.032216
  65 C :    0.059382
  66 C :    0.056462
  67 C :   -0.035073
  68 F :   -0.057623
  69 F :   -0.061954
  70 C :   -0.004410
  71 C :   -0.008984
  72 C :    0.031271
  73 C :   -0.176159
  74 C :   -0.025830
  75 N :   -0.066594
  76 C :   -0.021740
  77 N :   -0.082411
  78 H :    0.039108
  79 H :    0.040424
  80 H :    0.037795
  81 H :    0.040126
  82 H :    0.034297
  83 H :    0.044265
  84 H :    0.110109
  85 H :    0.100943
  86 H :    0.026333
  87 H :    0.033749
  88 H :    0.028852
  89 H :    0.030960
  90 H :    0.030374
  91 H :    0.027367
  92 H :    0.025954
  93 H :    0.027927
  94 H :    0.018398
  95 H :    0.021039
  96 H :    0.011623
  97 H :    0.032287
  98 H :    0.039783
  99 H :    0.037494
 100 H :    0.035198
 101 H :    0.034073
 102 H :    0.036077
 103 H :    0.039265
 104 H :    0.044336
 105 H :    0.037799
 106 H :    0.042155
 107 H :    0.043315
 108 H :    0.035658

  Mayer bond orders larger than 0.100000
B(  0-C ,  1-C ) :   1.6019 B(  0-C ,  6-C ) :   0.9945 B(  0-C , 18-C ) :   1.0907
B(  1-C ,  2-C ) :   1.1491 B(  1-C ,  4-C ) :   1.1520 B(  2-C ,  3-N ) :   2.9643
B(  4-C ,  5-N ) :   2.9584 B(  6-C ,  7-C ) :   1.2795 B(  6-C , 11-C ) :   1.4111
B(  7-C ,  8-C ) :   1.4254 B(  7-C , 16-C ) :   0.9372 B(  8-C ,  9-C ) :   1.2420
B(  8-C , 78-H ) :   1.0167 B(  9-C , 10-C ) :   1.3113 B(  9-C , 14-C ) :   1.1599
B( 10-C , 11-C ) :   1.3275 B( 10-C , 12-S ) :   1.0831 B( 11-C , 79-H ) :   0.9796
B( 12-S , 13-C ) :   1.0862 B( 13-C , 14-C ) :   1.6197 B( 13-C , 15-Br) :   1.0150
B( 14-C , 80-H ) :   1.0004 B( 16-C , 17-O ) :   2.2022 B( 16-C , 18-C ) :   0.9571
B( 18-C , 19-C ) :   1.4785 B( 19-C , 20-C ) :   1.2038 B( 19-C , 81-H ) :   0.9622
B( 20-C , 21-C ) :   1.4870 B( 20-C , 82-H ) :   0.9768 B( 21-C , 22-C ) :   1.1771
B( 21-C , 83-H ) :   0.9735 B( 22-C , 23-O ) :   1.0951 B( 22-C , 24-C ) :   0.1070
B( 22-C , 26-C ) :   1.3569 B( 23-O , 24-C ) :   1.1388 B( 24-C , 25-C ) :   1.2833
B( 24-C , 29-C ) :   1.1492 B( 25-C , 26-C ) :   1.2658 B( 25-C , 28-O ) :   1.2386
B( 26-C , 27-O ) :   1.2835 B( 27-O , 84-H ) :   0.9439 B( 28-O , 85-H ) :   0.9558
B( 29-C , 30-C ) :   1.6050 B( 29-C , 86-H ) :   0.9634 B( 30-C , 31-C ) :   1.1459
B( 30-C , 87-H ) :   0.9957 B( 31-C , 32-C ) :   1.6111 B( 31-C , 88-H ) :   0.9720
B( 32-C , 33-C ) :   1.1593 B( 32-C , 89-H ) :   0.9525 B( 33-C , 34-S ) :   1.1421
B( 33-C , 35-C ) :   0.1023 B( 33-C , 37-C ) :   1.4253 B( 34-S , 35-C ) :   1.1055
B( 35-C , 36-C ) :   1.3533 B( 35-C , 42-C ) :   1.2505 B( 36-C , 37-C ) :   1.2881
B( 36-C , 40-O ) :   1.1945 B( 37-C , 38-C ) :   1.0037 B( 38-C , 39-C ) :   1.9963
B( 38-C , 90-H ) :   0.9348 B( 39-C , 91-H ) :   0.9517 B( 39-C , 92-H ) :   0.9567
B( 40-O , 41-C ) :   0.9335 B( 41-C , 93-H ) :   0.9751 B( 41-C , 94-H ) :   0.9716
B( 41-C , 95-H ) :   0.9620 B( 42-C , 43-C ) :   1.5428 B( 42-C , 96-H ) :   0.9114
B( 43-C , 44-C ) :   1.2516 B( 43-C , 97-H ) :   0.9665 B( 44-C , 45-C ) :   1.5010
B( 44-C , 98-H ) :   0.9648 B( 45-C , 46-C ) :   1.1927 B( 45-C , 49-S ) :   1.0352
B( 46-C , 47-C ) :   1.5338 B( 46-C , 99-H ) :   0.9975 B( 47-C , 48-C ) :   1.2309
B( 47-C ,100-H ) :   0.9956 B( 48-C , 49-S ) :   1.0988 B( 48-C , 50-C ) :   1.4071
B( 50-C , 51-C ) :   1.2455 B( 50-C , 54-S ) :   1.0464 B( 51-C , 52-C ) :   1.5229
B( 51-C ,101-H ) :   0.9929 B( 52-C , 53-C ) :   1.2101 B( 52-C ,102-H ) :   0.9953
B( 53-C , 54-S ) :   1.1421 B( 53-C , 55-C ) :   1.3663 B( 55-C , 56-C ) :   1.4103
B( 55-C ,103-H ) :   0.9558 B( 56-C , 57-C ) :   1.3816 B( 56-C ,104-H ) :   0.9332
B( 57-C , 58-C ) :   0.9790 B( 57-C , 72-C ) :   1.1780 B( 58-C , 59-O ) :   2.2520
B( 58-C , 60-C ) :   0.9035 B( 60-C , 61-C ) :   1.4918 B( 60-C , 71-C ) :   1.2225
B( 61-C , 62-C ) :   1.1731 B( 61-C ,105-H ) :   1.0160 B( 62-C , 63-C ) :   1.2707
B( 62-C , 67-C ) :   1.1923 B( 63-C , 64-C ) :   1.2017 B( 63-C , 70-C ) :   1.1928
B( 64-C , 65-C ) :   1.4378 B( 64-C , 67-C ) :   0.1097 B( 64-C ,106-H ) :   1.0030
B( 65-C , 66-C ) :   1.2131 B( 65-C , 69-F ) :   1.0708 B( 66-C , 67-C ) :   1.4409
B( 66-C , 68-F ) :   1.0947 B( 67-C ,107-H ) :   1.0076 B( 70-C , 71-C ) :   1.4771
B( 70-C ,108-H ) :   0.9928 B( 71-C , 72-C ) :   0.9879 B( 72-C , 73-C ) :   1.5106
B( 73-C , 74-C ) :   1.1758 B( 73-C , 76-C ) :   1.1517 B( 74-C , 75-N ) :   2.9960
B( 76-C , 77-N ) :   2.9536

-----------------------------------------------------------------------------
         ABSORPTION SPECTRUM VIA TRANSITION ELECTRIC DIPOLE MOMENTS
-----------------------------------------------------------------------------
State   Energy  Wavelength   fosc         T2         TX        TY        TZ
        (cm-1)    (nm)                  (au**2)     (au)      (au)      (au)
-----------------------------------------------------------------------------
   0    8693.5   1150.3   0.371680962  14.07515   0.72694  -3.04932   2.06115
   1   15824.9    631.9   2.311366921  48.08427   4.92782  -3.70919  -3.16904
   2   16556.8    604.0   0.034670632   0.68938   0.08155  -0.76541  -0.31125
   3   19591.1    510.4   0.010251016   0.17226   0.33328  -0.20929   0.13184
   4   20778.2    481.3   0.622466152   9.86244   1.68985   2.64561  -0.08715
   5   21621.0    462.5   0.147475474   2.24554  -1.14740  -0.77800   0.56896
   6   21814.7    458.4   0.022845889   0.34477  -0.20534   0.43434   0.33758
   7   23452.7    426.4   0.528764229   7.42241  -0.40584   2.68262   0.24746
   8   24513.8    407.9   0.028734159   0.38589   0.46185  -0.02439  -0.41472
   9   25300.9    395.2   0.026370724   0.34313  -0.43833  -0.22657   0.31570
  10   25645.3    389.9   0.057613998   0.73960   0.38849   0.22062  -0.73485
  11   26347.4    379.5   0.032180323   0.40210   0.17737   0.15826  -0.58787
  12   26981.1    370.6   0.210238462   2.56524   0.71081  -1.24348  -0.71676
  13   27746.1    360.4   0.090464263   1.07337   0.44886  -0.90007  -0.24854
  14   27828.7    359.3   0.034752772   0.41112  -0.57001   0.12709   0.26468
  15   28254.4    353.9   0.000602844   0.00702   0.06729  -0.03667  -0.03394
  16   28335.5    352.9   0.044784536   0.52032  -0.46271   0.21818   0.50855
  17   28482.3    351.1   0.057679686   0.66669   0.14286  -0.77703  -0.20616
  18   29021.7    344.6   0.008675550   0.09841   0.30378  -0.07767   0.00985
  19   29170.9    342.8   0.022367565   0.25243   0.27304   0.37633  -0.19041
  20   29296.2    341.3   0.028624238   0.32166   0.05694   0.48960   0.28056
  21   29891.1    334.5   0.054729839   0.60278  -0.63785   0.17776   0.40537
  22   29974.8    333.6   0.019554191   0.21476   0.42465   0.09545  -0.15914
  23   30717.8    325.5   0.043970845   0.47125   0.54698  -0.16813  -0.37920
  24   31089.2    321.7   0.010307720   0.10915   0.24113   0.15295  -0.16617
  25   31547.9    317.0   0.024994863   0.26083   0.15414  -0.48555  -0.03623
  26   31893.3    313.5   0.080979390   0.83589   0.64736  -0.64486   0.03110
  27   32161.4    310.9   0.227868526   2.33252  -0.30232  -1.47202   0.27251
  28   32355.3    309.1   0.000142178   0.00145   0.00739   0.00013  -0.03731
  29   32624.9    306.5   0.407469197   4.11170  -0.82581   1.84060   0.20477
  30   32862.5    304.3   0.256625937   2.57084   0.88444  -0.87294  -1.01321
  31   33050.7    302.6   0.047878733   0.47691   0.49310  -0.48344   0.00696
  32   33431.9    299.1   0.083908914   0.82627  -0.08442   0.85944  -0.28373
  33   33524.5    298.3   0.082926219   0.81434  -0.08149   0.89686   0.05781
  34   33744.0    296.3   0.023343408   0.22774   0.09392  -0.42544   0.19474
  35   34042.4    293.8   0.147545614   1.42686   0.01794  -1.13256  -0.37929
  36   34204.9    292.4   0.038298844   0.36861   0.32403   0.41170  -0.30680
  37   34337.8    291.2   0.089483475   0.85792   0.23122  -0.89691   0.00367
  38   34562.2    289.3   0.023465346   0.22351   0.16114  -0.27647  -0.34801
  39   34909.7    286.5   0.060215684   0.56786   0.58552  -0.09916  -0.46388
  40   35522.4    281.5   0.117077463   1.08504  -0.67431  -0.41673   0.67578
  41   35684.1    280.2   0.099753098   0.92029  -0.49248   0.74223   0.35616
  42   35828.8    279.1   0.199495835   1.83306   0.14274   1.28612  -0.39822
  43   36059.8    277.3   0.087229407   0.79637   0.65664  -0.54454  -0.26207
  44   36393.0    274.8   0.044897619   0.40614   0.50961  -0.23080  -0.30524
  45   36688.8    272.6   0.007181922   0.06444   0.10225   0.17687   0.15069
  46   36907.3    270.9   0.028717660   0.25616  -0.24351   0.34980  -0.27295
  47   37259.0    268.4   0.019056547   0.16838   0.19662   0.32882   0.14695
  48   37380.0    267.5   0.050604007   0.44568   0.09582  -0.60769  -0.25926
  49   37765.4    264.8   0.209513674   1.82639  -0.97217  -0.85093   0.39647
  50   37883.5    264.0   0.033691727   0.29279  -0.48700   0.21692   0.09256
  51   38025.0    263.0   0.036474427   0.31579  -0.50826   0.20270   0.12795
  52   38380.3    260.6   0.024756104   0.21235   0.15636   0.43346  -0.00283
  53   38551.9    259.4   0.002609817   0.02229   0.05572   0.08745  -0.10740
  54   38697.1    258.4   0.040508709   0.34462   0.55787  -0.00774  -0.18260
  55   38992.6    256.5   0.192931229   1.62891   0.12460   1.24973  -0.22706
  56   39268.5    254.7   0.034246839   0.28711   0.51674  -0.01611  -0.14082
  57   39572.8    252.7   0.046260001   0.38484  -0.53882  -0.18570   0.24501
  58   39716.8    251.8   0.004718673   0.03911   0.14956   0.12810  -0.01835
  59   39795.8    251.3   0.145719698   1.20547   0.82137   0.68759  -0.24090
  60   40069.8    249.6   0.024925707   0.20479   0.30355   0.33339  -0.03871

FINAL SINGLE POINT ENERGY     -7375.212019632349

DIPOLE MOMENT
-------------
                                X             Y             Z
Electronic contribution:    164.88523    -131.13057     -85.85808
Nuclear contribution   :   -169.30390     129.09006      89.97225
                        -----------------------------------------
Total Dipole Moment    :     -4.41868      -2.04051       4.11417
                        -----------------------------------------
Magnitude (a.u.)       :      6.37297
Magnitude (Debye)      :     16.19880

Rotational constants in cm-1:     0.001260     0.000200     0.000181
Rotational constants in MHz :    37.783232     5.989339     5.415503

                             ****ORCA TERMINATED NORMALLY****
TOTAL RUN TIME: 0 days 0 hours 14 minutes 30 seconds 922 msec
