                         Program Version 4.2.0 -  RELEASE  -
|  1> # ORCA input file
|  2> # SCF done       -165.599515432096          0.000977199341
|  3> ! CAM-B3LYP def2-SVP def2/J RIJCOSX Grid4 TightSCF
|  4> %maxcore 5000
|  5> %tddft
|  6>     Mode sTDDFT
|  7>     Ethresh 5.0
|  8>     maxcore 5000
|  9> end
| 10>
| 11> %pal
| 12>   nprocs 6
| 13>   end
| 14> * xyz 0 1
| 15>    C      -13.08590         0.71502         5.16651
| 16>    C      -13.85766         1.70346         4.62077
| 17>    F      -14.77669         2.32985         5.36806
| 18>    C      -13.69786         2.07517         3.27216
| 19>    F      -14.46733         3.04724         2.76115
| 20>    C      -12.76719         1.45355         2.48641
| 21>    C      -11.95765         0.43315         3.01977
| 22>    C      -12.11844         0.05512         4.38388
| 23>    C      -11.31544        -0.96812         4.94151
| 24>    C      -10.38040        -1.59205         4.15997
| 25>    C      -10.22620        -1.20574         2.79658
| 26>    C      -10.98685        -0.22393         2.23044
| 27>    C       -9.16323        -2.01817         2.19419
| 28>    O       -8.75030        -1.96605         1.03604
| 29>    C       -8.67976        -2.91027         3.24722
| 30>    C       -9.42539        -2.65869         4.45636
| 31>    C       -9.28020        -3.28996         5.66697
| 32>    C      -10.04484        -2.99077         6.81142
| 33>    N      -10.63088        -2.78184         7.77674
| 34>    C       -8.34813        -4.31705         5.91301
| 35>    N       -7.60758        -5.16157         6.15231
| 36>    C       -7.65728        -3.80419         3.01568
| 37>    N       -7.09141        -3.86126         1.80456
| 38>    C       -6.06854        -4.65051         1.40075
| 39>    S       -5.30528        -5.78598         2.47139
| 40>    C       -4.21964        -6.22289         1.19045
| 41>    N       -3.26065        -7.20743         1.44714
| 42>    O       -2.49945        -7.50283         0.54149
| 43>    O       -3.25808        -7.69803         2.56391
| 44>    C       -4.43478        -5.53515         0.02516
| 45>    C       -5.50091        -4.62213         0.11796
| 46>    C       -5.97520        -3.77546        -0.94509
| 47>    C       -5.31775        -3.54518        -2.09726
| 48>    C       -5.85213        -2.70859        -3.13177
| 49>    C       -5.19918        -2.32454        -4.23990
| 50>    C       -3.78429        -2.71234        -4.54745
| 51>    C       -5.88544        -1.43360        -5.24992
| 52>    N       -5.61391        -1.82374        -6.60886
| 53>    C       -4.83755        -1.11998        -7.45621
| 54>    C       -4.35926        -1.58214        -8.64284
| 55>    C       -3.60354        -0.78409        -9.51919
| 56>    C       -3.04458        -1.21510       -10.69344
| 57>    C       -2.28380        -0.44841       -11.60823
| 58>    C       -1.82856        -1.14594       -12.68486
| 59>    C       -2.19901        -2.51032       -12.68439
| 60>    S       -3.16343        -2.87590       -11.27302
| 61>    C       -1.86572        -3.47529       -13.61453
| 62>    C       -1.10607        -3.31439       -14.79376
| 63>    C       -0.91095        -4.46222       -15.49946
| 64>    C       -1.50906        -5.61284       -14.92202
| 65>    S       -2.36334        -5.14762       -13.45094
| 66>    C       -1.54522        -6.91798       -15.32729
| 67>    C       -0.82138        -7.53669       -16.39018
| 68>    S       -1.61452        -9.06471       -16.87209
| 69>    C       -0.79234        -9.53695       -18.35103
| 70>    C       -1.28392       -10.53200       -19.13842
| 71>    S       -0.29450       -10.83354       -20.51256
| 72>    C        0.79478        -9.59569       -20.03032
| 73>    C        0.41419        -8.99382       -18.87072
| 74>    S        1.36953        -7.70859       -18.14767
| 75>    C        0.34381        -7.08156       -16.89118
| 76>    H      -13.22168         0.44283         6.20153
| 77>    H      -12.65682         1.75004         1.45506
| 78>    H      -11.46181        -1.23053         5.97660
| 79>    H      -10.85013         0.04988         1.19530
| 80>    H       -7.27804        -4.47049         3.77892
| 81>    H       -7.50233        -3.19016         1.12835
| 82>    H       -3.84552        -5.71253        -0.85512
| 83>    H       -6.92930        -3.28765        -0.79350
| 84>    H       -4.35033        -3.99163        -2.26689
| 85>    H       -6.86472        -2.35828        -2.97513
| 86>    H       -3.72048        -3.76993        -4.80530
| 87>    H       -3.14148        -2.54139        -3.68663
| 88>    H       -3.39660        -2.13772        -5.38502
| 89>    H       -5.53814        -0.40254        -5.12086
| 90>    H       -6.96750        -1.44844        -5.07575
| 91>    H       -5.80398        -2.78669        -6.84581
| 92>    H       -4.62421        -0.10454        -7.14702
| 93>    H       -4.55528        -2.60439        -8.93707
| 94>    H       -3.44030         0.25120        -9.24790
| 95>    H       -2.09716         0.59776       -11.43904
| 96>    H       -1.23475        -0.72061       -13.47375
| 97>    H       -0.72866        -2.35388       -15.09703
| 98>    H       -0.39940        -4.49789       -16.44358
| 99>    H       -2.21534        -7.57842       -14.79228
|100>    H       -2.17195       -11.10744       -18.97463
|101>    H        1.66226        -9.37677       -20.61887
|102>    H        0.81038        -6.21913       -16.44383
|103> *
|104>
|105>                          ****END OF INPUT****

CARTESIAN COORDINATES (ANGSTROEM)
---------------------------------
  C    -13.085900    0.715020    5.166510
  C    -13.857660    1.703460    4.620770
  F    -14.776690    2.329850    5.368060
  C    -13.697860    2.075170    3.272160
  F    -14.467330    3.047240    2.761150
  C    -12.767190    1.453550    2.486410
  C    -11.957650    0.433150    3.019770
  C    -12.118440    0.055120    4.383880
  C    -11.315440   -0.968120    4.941510
  C    -10.380400   -1.592050    4.159970
  C    -10.226200   -1.205740    2.796580
  C    -10.986850   -0.223930    2.230440
  C     -9.163230   -2.018170    2.194190
  O     -8.750300   -1.966050    1.036040
  C     -8.679760   -2.910270    3.247220
  C     -9.425390   -2.658690    4.456360
  C     -9.280200   -3.289960    5.666970
  C    -10.044840   -2.990770    6.811420
  N    -10.630880   -2.781840    7.776740
  C     -8.348130   -4.317050    5.913010
  N     -7.607580   -5.161570    6.152310
  C     -7.657280   -3.804190    3.015680
  N     -7.091410   -3.861260    1.804560
  C     -6.068540   -4.650510    1.400750
  S     -5.305280   -5.785980    2.471390
  C     -4.219640   -6.222890    1.190450
  N     -3.260650   -7.207430    1.447140
  O     -2.499450   -7.502830    0.541490
  O     -3.258080   -7.698030    2.563910
  C     -4.434780   -5.535150    0.025160
  C     -5.500910   -4.622130    0.117960
  C     -5.975200   -3.775460   -0.945090
  C     -5.317750   -3.545180   -2.097260
  C     -5.852130   -2.708590   -3.131770
  C     -5.199180   -2.324540   -4.239900
  C     -3.784290   -2.712340   -4.547450
  C     -5.885440   -1.433600   -5.249920
  N     -5.613910   -1.823740   -6.608860
  C     -4.837550   -1.119980   -7.456210
  C     -4.359260   -1.582140   -8.642840
  C     -3.603540   -0.784090   -9.519190
  C     -3.044580   -1.215100  -10.693440
  C     -2.283800   -0.448410  -11.608230
  C     -1.828560   -1.145940  -12.684860
  C     -2.199010   -2.510320  -12.684390
  S     -3.163430   -2.875900  -11.273020
  C     -1.865720   -3.475290  -13.614530
  C     -1.106070   -3.314390  -14.793760
  C     -0.910950   -4.462220  -15.499460
  C     -1.509060   -5.612840  -14.922020
  S     -2.363340   -5.147620  -13.450940
  C     -1.545220   -6.917980  -15.327290
  C     -0.821380   -7.536690  -16.390180
  S     -1.614520   -9.064710  -16.872090
  C     -0.792340   -9.536950  -18.351030
  C     -1.283920  -10.532000  -19.138420
  S     -0.294500  -10.833540  -20.512560
  C      0.794780   -9.595690  -20.030320
  C      0.414190   -8.993820  -18.870720
  S      1.369530   -7.708590  -18.147670
  C      0.343810   -7.081560  -16.891180
  H    -13.221680    0.442830    6.201530
  H    -12.656820    1.750040    1.455060
  H    -11.461810   -1.230530    5.976600
  H    -10.850130    0.049880    1.195300
  H     -7.278040   -4.470490    3.778920
  H     -7.502330   -3.190160    1.128350
  H     -3.845520   -5.712530   -0.855120
  H     -6.929300   -3.287650   -0.793500
  H     -4.350330   -3.991630   -2.266890
  H     -6.864720   -2.358280   -2.975130
  H     -3.720480   -3.769930   -4.805300
  H     -3.141480   -2.541390   -3.686630
  H     -3.396600   -2.137720   -5.385020
  H     -5.538140   -0.402540   -5.120860
  H     -6.967500   -1.448440   -5.075750
  H     -5.803980   -2.786690   -6.845810
  H     -4.624210   -0.104540   -7.147020
  H     -4.555280   -2.604390   -8.937070
  H     -3.440300    0.251200   -9.247900
  H     -2.097160    0.597760  -11.439040
  H     -1.234750   -0.720610  -13.473750
  H     -0.728660   -2.353880  -15.097030
  H     -0.399400   -4.497890  -16.443580
  H     -2.215340   -7.578420  -14.792280
  H     -2.171950  -11.107440  -18.974630
  H      1.662260   -9.376770  -20.618870
  H      0.810380   -6.219130  -16.443830

 Total Charge           Charge          ....    0
 Multiplicity           Mult            ....    1
 Number of Electrons    NEL             ....  470
 Basis Dimension        Dim             .... 1013

ORBITAL ENERGIES
----------------

  NO   OCC          E(Eh)            E(eV)
   0   2.0000     -88.997935     -2421.7569
   1   2.0000     -88.948957     -2420.4242
   2   2.0000     -88.931117     -2419.9387
   3   2.0000     -88.929626     -2419.8981
   4   2.0000     -88.925289     -2419.7801
   5   2.0000     -88.924087     -2419.7474
   6   2.0000     -24.806786      -675.0270
   7   2.0000     -24.805635      -674.9956
   8   2.0000     -19.245514      -523.6971
   9   2.0000     -19.244364      -523.6658
  10   2.0000     -19.243362      -523.6385
  11   2.0000     -14.656646      -398.8276
  12   2.0000     -14.506370      -394.7384
  13   2.0000     -14.446764      -393.1164
  14   2.0000     -14.427505      -392.5924
  15   2.0000     -14.422784      -392.4639
  16   2.0000     -10.390912      -282.7511
  17   2.0000     -10.390273      -282.7337
  18   2.0000     -10.390190      -282.7314
  19   2.0000     -10.381195      -282.4867
  20   2.0000     -10.379717      -282.4465
  21   2.0000     -10.355828      -281.7964
  22   2.0000     -10.355279      -281.7815
  23   2.0000     -10.350603      -281.6542
  24   2.0000     -10.329653      -281.0842
  25   2.0000     -10.326791      -281.0063
  26   2.0000     -10.325891      -280.9818
  27   2.0000     -10.324049      -280.9317
  28   2.0000     -10.320987      -280.8483
  29   2.0000     -10.320646      -280.8391
  30   2.0000     -10.319324      -280.8031
  31   2.0000     -10.318890      -280.7913
  32   2.0000     -10.316078      -280.7147
  33   2.0000     -10.315594      -280.7016
  34   2.0000     -10.313150      -280.6351
  35   2.0000     -10.311261      -280.5837
  36   2.0000     -10.309947      -280.5479
  37   2.0000     -10.309821      -280.5445
  38   2.0000     -10.307486      -280.4810
  39   2.0000     -10.300424      -280.2888
  40   2.0000     -10.298311      -280.2313
  41   2.0000     -10.296844      -280.1914
  42   2.0000     -10.296626      -280.1855
  43   2.0000     -10.296326      -280.1773
  44   2.0000     -10.295800      -280.1630
  45   2.0000     -10.295649      -280.1588
  46   2.0000     -10.294111      -280.1170
  47   2.0000     -10.288774      -279.9718
  48   2.0000     -10.287147      -279.9275
  49   2.0000     -10.286506      -279.9101
  50   2.0000     -10.286086      -279.8986
  51   2.0000     -10.282742      -279.8076
  52   2.0000     -10.282592      -279.8036
  53   2.0000     -10.280053      -279.7345
  54   2.0000     -10.277252      -279.6582
  55   2.0000     -10.275733      -279.6169
  56   2.0000     -10.274198      -279.5751
  57   2.0000     -10.270651      -279.4786
  58   2.0000     -10.265824      -279.3473
  59   2.0000     -10.263873      -279.2942
  60   2.0000     -10.260350      -279.1983
  61   2.0000      -8.093126      -220.2252
  62   2.0000      -8.045091      -218.9181
  63   2.0000      -8.026916      -218.4235
  64   2.0000      -8.026019      -218.3991
  65   2.0000      -8.020993      -218.2623
  66   2.0000      -8.020722      -218.2549
  67   2.0000      -6.062766      -164.9762
  68   2.0000      -6.058418      -164.8579
  69   2.0000      -6.054594      -164.7539
  70   2.0000      -6.014489      -163.6626
  71   2.0000      -6.010187      -163.5455
  72   2.0000      -6.007088      -163.4612
  73   2.0000      -5.997356      -163.1963
  74   2.0000      -5.995747      -163.1526
  75   2.0000      -5.992828      -163.0732
  76   2.0000      -5.991855      -163.0467
  77   2.0000      -5.991450      -163.0357
  78   2.0000      -5.990554      -163.0113
  79   2.0000      -5.987230      -162.9208
  80   2.0000      -5.986953      -162.9133
  81   2.0000      -5.986821      -162.9097
  82   2.0000      -5.986574      -162.9030
  83   2.0000      -5.981345      -162.7607
  84   2.0000      -5.980646      -162.7416
  85   2.0000      -1.328808       -36.1587
  86   2.0000      -1.325055       -36.0566
  87   2.0000      -1.313951       -35.7544
  88   2.0000      -1.157586       -31.4995
  89   2.0000      -1.144123       -31.1332
  90   2.0000      -1.113482       -30.2994
  91   2.0000      -1.049194       -28.5500
  92   2.0000      -1.030886       -28.0518
  93   2.0000      -1.018382       -27.7116
  94   2.0000      -1.015275       -27.6270
  95   2.0000      -1.003541       -27.3077
  96   2.0000      -0.992153       -26.9979
  97   2.0000      -0.986684       -26.8490
  98   2.0000      -0.978479       -26.6258
  99   2.0000      -0.957444       -26.0534
 100   2.0000      -0.943409       -25.6715
 101   2.0000      -0.939554       -25.5666
 102   2.0000      -0.927170       -25.2296
 103   2.0000      -0.923469       -25.1289
 104   2.0000      -0.911645       -24.8071
 105   2.0000      -0.903359       -24.5817
 106   2.0000      -0.897701       -24.4277
 107   2.0000      -0.889445       -24.2030
 108   2.0000      -0.880266       -23.9533
 109   2.0000      -0.871425       -23.7127
 110   2.0000      -0.863718       -23.5030
 111   2.0000      -0.856444       -23.3050
 112   2.0000      -0.851699       -23.1759
 113   2.0000      -0.839528       -22.8447
 114   2.0000      -0.828296       -22.5391
 115   2.0000      -0.825358       -22.4591
 116   2.0000      -0.820804       -22.3352
 117   2.0000      -0.803842       -21.8736
 118   2.0000      -0.798150       -21.7188
 119   2.0000      -0.795508       -21.6469
 120   2.0000      -0.784305       -21.3420
 121   2.0000      -0.780783       -21.2462
 122   2.0000      -0.770166       -20.9573
 123   2.0000      -0.755983       -20.5714
 124   2.0000      -0.749175       -20.3861
 125   2.0000      -0.740109       -20.1394
 126   2.0000      -0.733015       -19.9463
 127   2.0000      -0.726859       -19.7788
 128   2.0000      -0.718736       -19.5578
 129   2.0000      -0.715005       -19.4563
 130   2.0000      -0.698282       -19.0012
 131   2.0000      -0.694839       -18.9075
 132   2.0000      -0.683612       -18.6020
 133   2.0000      -0.669089       -18.2068
 134   2.0000      -0.666496       -18.1363
 135   2.0000      -0.661331       -17.9957
 136   2.0000      -0.656625       -17.8677
 137   2.0000      -0.655196       -17.8288
 138   2.0000      -0.653846       -17.7921
 139   2.0000      -0.651542       -17.7294
 140   2.0000      -0.641164       -17.4470
 141   2.0000      -0.637458       -17.3461
 142   2.0000      -0.634884       -17.2761
 143   2.0000      -0.625873       -17.0309
 144   2.0000      -0.620839       -16.8939
 145   2.0000      -0.616194       -16.7675
 146   2.0000      -0.612567       -16.6688
 147   2.0000      -0.608361       -16.5543
 148   2.0000      -0.606776       -16.5112
 149   2.0000      -0.596622       -16.2349
 150   2.0000      -0.595038       -16.1918
 151   2.0000      -0.593759       -16.1570
 152   2.0000      -0.590278       -16.0623
 153   2.0000      -0.584836       -15.9142
 154   2.0000      -0.583813       -15.8864
 155   2.0000      -0.573300       -15.6003
 156   2.0000      -0.572489       -15.5782
 157   2.0000      -0.571828       -15.5602
 158   2.0000      -0.568665       -15.4742
 159   2.0000      -0.568368       -15.4661
 160   2.0000      -0.563483       -15.3332
 161   2.0000      -0.555039       -15.1034
 162   2.0000      -0.554247       -15.0818
 163   2.0000      -0.548946       -14.9376
 164   2.0000      -0.544602       -14.8194
 165   2.0000      -0.542627       -14.7656
 166   2.0000      -0.540711       -14.7135
 167   2.0000      -0.537016       -14.6130
 168   2.0000      -0.534406       -14.5419
 169   2.0000      -0.531468       -14.4620
 170   2.0000      -0.526393       -14.3239
 171   2.0000      -0.526007       -14.3134
 172   2.0000      -0.515341       -14.0231
 173   2.0000      -0.514010       -13.9869
 174   2.0000      -0.510542       -13.8925
 175   2.0000      -0.509152       -13.8547
 176   2.0000      -0.506316       -13.7775
 177   2.0000      -0.500826       -13.6282
 178   2.0000      -0.499157       -13.5828
 179   2.0000      -0.491038       -13.3618
 180   2.0000      -0.485331       -13.2065
 181   2.0000      -0.484874       -13.1941
 182   2.0000      -0.482882       -13.1399
 183   2.0000      -0.481546       -13.1035
 184   2.0000      -0.480321       -13.0702
 185   2.0000      -0.476440       -12.9646
 186   2.0000      -0.476017       -12.9531
 187   2.0000      -0.475317       -12.9340
 188   2.0000      -0.474198       -12.9036
 189   2.0000      -0.467247       -12.7144
 190   2.0000      -0.464602       -12.6425
 191   2.0000      -0.462644       -12.5892
 192   2.0000      -0.460549       -12.5322
 193   2.0000      -0.459023       -12.4907
 194   2.0000      -0.456951       -12.4343
 195   2.0000      -0.453243       -12.3334
 196   2.0000      -0.452568       -12.3150
 197   2.0000      -0.445101       -12.1118
 198   2.0000      -0.443349       -12.0641
 199   2.0000      -0.443022       -12.0552
 200   2.0000      -0.436598       -11.8804
 201   2.0000      -0.436442       -11.8762
 202   2.0000      -0.433976       -11.8091
 203   2.0000      -0.428338       -11.6557
 204   2.0000      -0.425571       -11.5804
 205   2.0000      -0.421136       -11.4597
 206   2.0000      -0.419382       -11.4120
 207   2.0000      -0.418867       -11.3979
 208   2.0000      -0.415193       -11.2980
 209   2.0000      -0.409689       -11.1482
 210   2.0000      -0.405794       -11.0422
 211   2.0000      -0.398850       -10.8533
 212   2.0000      -0.394251       -10.7281
 213   2.0000      -0.392483       -10.6800
 214   2.0000      -0.386890       -10.5278
 215   2.0000      -0.384689       -10.4679
 216   2.0000      -0.384339       -10.4584
 217   2.0000      -0.379809       -10.3351
 218   2.0000      -0.373731       -10.1697
 219   2.0000      -0.368416       -10.0251
 220   2.0000      -0.366473        -9.9722
 221   2.0000      -0.366074        -9.9614
 222   2.0000      -0.354016        -9.6333
 223   2.0000      -0.345472        -9.4008
 224   2.0000      -0.329965        -8.9788
 225   2.0000      -0.325551        -8.8587
 226   2.0000      -0.319657        -8.6983
 227   2.0000      -0.317707        -8.6452
 228   2.0000      -0.307837        -8.3767
 229   2.0000      -0.305713        -8.3189
 230   2.0000      -0.286780        -7.8037
 231   2.0000      -0.273812        -7.4508
 232   2.0000      -0.264911        -7.2086
 233   2.0000      -0.233007        -6.3405
 234   2.0000      -0.190082        -5.1724
 235   0.0000      -0.100361        -2.7310
 236   0.0000      -0.078424        -2.1340
 237   0.0000      -0.056673        -1.5421
 238   0.0000      -0.055160        -1.5010
 239   0.0000      -0.038569        -1.0495

MULLIKEN ATOMIC CHARGES
-----------------------
   0 C :   -0.105056
   1 C :    0.242697
   2 F :   -0.169237
   3 C :    0.238182
   4 F :   -0.170963
   5 C :   -0.103633
   6 C :    0.114026
   7 C :    0.113242
   8 C :   -0.080465
   9 C :    0.041820
  10 C :    0.004917
  11 C :   -0.077124
  12 C :    0.173588
  13 O :   -0.228234
  14 C :   -0.140576
  15 C :    0.332772
  16 C :   -0.340444
  17 C :   -0.182865
  18 N :    0.151579
  19 C :   -0.196707
  20 N :    0.145670
  21 C :    0.035326
  22 N :   -0.001627
  23 C :   -0.126555
  24 S :    0.182001
  25 C :   -0.000122
  26 N :    0.278413
  27 O :   -0.248047
  28 O :   -0.253770
  29 C :    0.004913
  30 C :    0.143701
  31 C :   -0.045384
  32 C :    0.010472
  33 C :    0.005650
  34 C :   -0.225184
  35 C :    0.085907
  36 C :    0.227062
  37 N :   -0.153671
  38 C :    0.049981
  39 C :   -0.026246
  40 C :   -0.012596
  41 C :   -0.037018
  42 C :    0.041971
  43 C :    0.009704
  44 C :   -0.034890
  45 S :    0.056144
  46 C :   -0.062071
  47 C :    0.018529
  48 C :    0.012947
  49 C :   -0.050805
  50 S :    0.067177
  51 C :    0.046837
  52 C :   -0.041748
  53 S :    0.056037
  54 C :    0.009763
  55 C :   -0.125215
  56 S :    0.115656
  57 C :   -0.124325
  58 C :   -0.015607
  59 S :    0.074925
  60 C :   -0.132000
  61 H :    0.010134
  62 H :   -0.000048
  63 H :   -0.004077
  64 H :   -0.011432
  65 H :    0.047704
  66 H :    0.182398
  67 H :    0.012158
  68 H :   -0.005235
  69 H :   -0.011089
  70 H :   -0.024790
  71 H :    0.038879
  72 H :    0.035699
  73 H :    0.022058
  74 H :    0.030374
  75 H :    0.013607
  76 H :    0.122072
  77 H :    0.000925
  78 H :   -0.014182
  79 H :   -0.024789
  80 H :   -0.021041
  81 H :   -0.021457
  82 H :   -0.019712
  83 H :   -0.011967
  84 H :   -0.009668
  85 H :    0.022261
  86 H :    0.021811
  87 H :    0.039988
Sum of atomic charges:    0.0000000

LOEWDIN ATOMIC CHARGES
----------------------
   0 C :   -0.027441
   1 C :    0.069144
   2 F :   -0.047393
   3 C :    0.069347
   4 F :   -0.048928
   5 C :   -0.032375
   6 C :   -0.010171
   7 C :   -0.005832
   8 C :    0.020893
   9 C :   -0.020276
  10 C :   -0.052498
  11 C :    0.032043
  12 C :    0.096568
  13 O :   -0.181836
  14 C :   -0.146081
  15 C :    0.078025
  16 C :   -0.147312
  17 C :   -0.019290
  18 N :   -0.052606
  19 C :   -0.020985
  20 N :   -0.051655
  21 C :    0.115839
  22 N :    0.083891
  23 C :   -0.117230
  24 S :    0.473181
  25 C :   -0.198368
  26 N :    0.274777
  27 O :   -0.214103
  28 O :   -0.221230
  29 C :    0.003288
  30 C :   -0.081688
  31 C :   -0.033880
  32 C :   -0.009313
  33 C :   -0.051618
  34 C :   -0.036042
  35 C :   -0.056762
  36 C :    0.045463
  37 N :    0.001398
  38 C :    0.041766
  39 C :   -0.124154
  40 C :   -0.035515
  41 C :   -0.177471
  42 C :   -0.028182
  43 C :   -0.052463
  44 C :   -0.167738
  45 S :    0.353292
  46 C :   -0.200868
  47 C :   -0.020298
  48 C :   -0.060852
  49 C :   -0.131650
  50 S :    0.354077
  51 C :   -0.099917
  52 C :   -0.174783
  53 S :    0.338110
  54 C :   -0.210029
  55 C :   -0.210344
  56 S :    0.437239
  57 C :   -0.210056
  58 C :   -0.211061
  59 S :    0.356900
  60 C :   -0.221219
  61 H :    0.048886
  62 H :    0.044886
  63 H :    0.041302
  64 H :    0.040123
  65 H :    0.037218
  66 H :    0.084345
  67 H :    0.045301
  68 H :    0.030141
  69 H :    0.026451
  70 H :    0.026427
  71 H :    0.041878
  72 H :    0.038000
  73 H :    0.034010
  74 H :    0.036925
  75 H :    0.027382
  76 H :    0.081779
  77 H :    0.026591
  78 H :    0.018897
  79 H :    0.029309
  80 H :    0.030099
  81 H :    0.028257
  82 H :    0.029868
  83 H :    0.029799
  84 H :    0.022703
  85 H :    0.023594
  86 H :    0.023629
  87 H :    0.028471

  Mayer bond orders larger than 0.100000
B(  0-C ,  1-C ) :   1.4357 B(  0-C ,  5-C ) :   0.1078 B(  0-C ,  7-C ) :   1.1957
B(  0-C , 61-H ) :   1.0061 B(  1-C ,  2-F ) :   1.1363 B(  1-C ,  3-C ) :   1.1959
B(  3-C ,  4-F ) :   1.1348 B(  3-C ,  5-C ) :   1.4401 B(  5-C ,  6-C ) :   1.1949
B(  5-C , 62-H ) :   1.0060 B(  6-C ,  7-C ) :   1.2542 B(  6-C , 11-C ) :   1.1858
B(  7-C ,  8-C ) :   1.2062 B(  8-C ,  9-C ) :   1.4699 B(  8-C , 63-H ) :   0.9887
B(  9-C , 10-C ) :   1.2164 B(  9-C , 15-C ) :   0.9855 B( 10-C , 11-C ) :   1.4723
B( 10-C , 12-C ) :   0.9812 B( 11-C , 64-H ) :   1.0169 B( 12-C , 13-O ) :   2.0240
B( 12-C , 14-C ) :   1.0137 B( 13-O , 66-H ) :   0.1477 B( 14-C , 15-C ) :   1.1002
B( 14-C , 21-C ) :   1.4344 B( 15-C , 16-C ) :   1.6287 B( 16-C , 17-C ) :   1.1494
B( 16-C , 19-C ) :   1.1452 B( 17-C , 18-N ) :   2.9592 B( 19-C , 20-N ) :   2.9540
B( 21-C , 22-N ) :   1.3520 B( 21-C , 65-H ) :   0.9318 B( 22-N , 23-C ) :   1.1939
B( 22-N , 66-H ) :   0.8198 B( 23-C , 24-S ) :   1.1341 B( 23-C , 30-C ) :   1.3771
B( 24-S , 25-C ) :   1.0855 B( 25-C , 26-N ) :   0.9681 B( 25-C , 29-C ) :   1.5026
B( 26-N , 27-O ) :   1.5311 B( 26-N , 28-O ) :   1.5143 B( 27-O , 28-O ) :   0.2644
B( 29-C , 30-C ) :   1.2224 B( 29-C , 67-H ) :   0.9995 B( 30-C , 31-C ) :   1.0405
B( 31-C , 32-C ) :   1.7394 B( 31-C , 68-H ) :   0.9767 B( 32-C , 33-C ) :   1.0976
B( 32-C , 69-H ) :   0.9717 B( 33-C , 34-C ) :   1.7702 B( 33-C , 70-H ) :   0.9790
B( 34-C , 35-C ) :   1.0668 B( 34-C , 36-C ) :   1.0366 B( 35-C , 71-H ) :   0.9458
B( 35-C , 72-H ) :   0.9461 B( 35-C , 73-H ) :   0.9524 B( 36-C , 37-N ) :   1.0049
B( 36-C , 74-H ) :   0.9245 B( 36-C , 75-H ) :   0.9411 B( 37-N , 38-C ) :   1.2229
B( 37-N , 76-H ) :   0.9413 B( 38-C , 39-C ) :   1.5988 B( 38-C , 77-H ) :   0.9658
B( 39-C , 40-C ) :   1.1682 B( 39-C , 78-H ) :   0.9646 B( 40-C , 41-C ) :   1.5877
B( 40-C , 79-H ) :   0.9784 B( 41-C , 42-C ) :   1.1457 B( 41-C , 45-S ) :   1.0070
B( 42-C , 43-C ) :   1.5902 B( 42-C , 80-H ) :   0.9976 B( 43-C , 44-C ) :   1.1888
B( 43-C , 81-H ) :   0.9930 B( 44-C , 45-S ) :   1.0536 B( 44-C , 46-C ) :   1.5041
B( 46-C , 47-C ) :   1.1978 B( 46-C , 50-S ) :   1.0310 B( 47-C , 48-C ) :   1.5994
B( 47-C , 82-H ) :   0.9925 B( 48-C , 49-C ) :   1.1395 B( 48-C , 83-H ) :   0.9866
B( 49-C , 50-S ) :   1.0389 B( 49-C , 51-C ) :   1.6438 B( 51-C , 52-C ) :   1.1283
B( 51-C , 84-H ) :   0.9304 B( 52-C , 53-S ) :   0.9808 B( 52-C , 60-C ) :   1.7596
B( 53-S , 54-C ) :   0.9749 B( 54-C , 55-C ) :   1.5977 B( 54-C , 58-C ) :   1.2656
B( 55-C , 56-S ) :   1.1660 B( 55-C , 85-H ) :   0.9696 B( 56-S , 57-C ) :   1.1697
B( 57-C , 58-C ) :   1.6013 B( 57-C , 86-H ) :   0.9695 B( 58-C , 59-S ) :   0.9803
B( 59-S , 60-C ) :   1.0403 B( 60-C , 87-H ) :   0.9285

-----------------------------------------------------------------------------
         ABSORPTION SPECTRUM VIA TRANSITION ELECTRIC DIPOLE MOMENTS
-----------------------------------------------------------------------------
State   Energy  Wavelength   fosc         T2         TX        TY        TZ
        (cm-1)    (nm)                  (au**2)     (au)      (au)      (au)
-----------------------------------------------------------------------------
   0   12597.0    793.8   0.032222424   0.84211  -0.36908   0.21526   0.81212
   1   16395.6    609.9   1.754919093  35.23747   2.16149  -3.04671  -4.61335
   2   17805.4    561.6   0.000991355   0.01833  -0.01634   0.09012   0.09970
   3   20771.6    481.4   0.012579313   0.19937  -0.08004  -0.39674   0.18857
   4   21287.9    469.8   0.834489058  12.90519  -2.52127   1.25695   2.22900
   5   23265.2    429.8   0.019660999   0.27821  -0.37801   0.29514  -0.21957
   6   23562.5    424.4   0.057843801   0.80819  -0.29787   0.40141   0.74721
   7   23950.0    417.5   0.018496925   0.25425  -0.05437  -0.22083   0.45004
   8   25627.3    390.2   0.085674124   1.10058  -0.55866   0.72328  -0.51511
   9   27043.2    369.8   0.019333141   0.23535  -0.08498  -0.24681  -0.40892
  10   28346.0    352.8   0.017619431   0.20463  -0.29748   0.19518   0.27937
  11   28557.5    350.2   0.011585565   0.13356   0.06738   0.08717  -0.34845
  12   29316.1    341.1   0.080592144   0.90503   0.29948  -0.73529   0.52411
  13   29913.9    334.3   0.056321593   0.61984  -0.48467   0.59182  -0.18623
  14   30202.9    331.1   0.190249268   2.07372  -0.92189  -0.08080   1.10332
  15   31092.4    321.6   0.486114272   5.14707  -0.77026   2.04324  -0.61557
  16   31259.5    319.9   0.177705063   1.87151   1.26873  -0.51143  -0.01702
  17   31603.3    316.4   0.007769287   0.08093   0.26938   0.08941  -0.01937
  18   31941.5    313.1   0.066480838   0.68520  -0.35354  -0.64523   0.37932
  19   32307.3    309.5   0.008759570   0.08926   0.11662  -0.22191   0.16252
  20   33050.0    302.6   0.065618943   0.65363   0.03958  -0.45819  -0.66493
  21   33173.3    301.4   0.000148865   0.00148  -0.01531   0.01821  -0.03018
  22   33721.2    296.5   0.103035292   1.00591   0.62402  -0.70189   0.35194
  23   33756.5    296.2   0.273425754   2.66660   0.98796  -1.18838   0.52752
  24   34298.4    291.6   0.350479867   3.36407  -1.24031   1.30909  -0.33463
  25   34938.9    286.2   0.077267363   0.72805  -0.37082   0.65826  -0.39653
  26   35086.6    285.0   0.000502443   0.00471  -0.01237   0.06275  -0.02497
  27   35173.5    284.3   0.156538030   1.46514  -0.04437   0.61079  -1.04408
  28   35643.1    280.6   0.009748973   0.09004  -0.04511   0.27643  -0.10770
  29   36024.0    277.6   0.814741839   7.44567  -0.10580   1.22061  -2.43815
  30   36464.6    274.2   0.072792889   0.65719  -0.12261   0.76430   0.24085
  31   36644.5    272.9   0.000443271   0.00398  -0.02394   0.00434   0.05823
  32   37246.3    268.5   0.043861930   0.38769   0.06539   0.56205   0.25983
  33   37303.2    268.1   0.163700697   1.44471  -0.84829   0.23006   0.81987
  34   37616.9    265.8   0.038571828   0.33757   0.52033  -0.06637  -0.24984
  35   37703.5    265.2   0.028178036   0.24604  -0.17228   0.46514   0.00037
  36   38107.5    262.4   0.046149105   0.39868  -0.33431   0.03320   0.53462
  37   38314.0    261.0   0.027857059   0.23936  -0.23898   0.01003   0.42679
  38   38992.3    256.5   0.011050707   0.09330  -0.15007   0.23021  -0.13335
  39   40093.7    249.4   0.088454443   0.72631   0.36602   0.76664  -0.06785
  40   40111.9    249.3   0.269110342   2.20868   0.52657  -0.67787  -1.21322

FINAL SINGLE POINT ENERGY     -4815.332915043602

DIPOLE MOMENT
-------------
                                X             Y             Z
Electronic contribution:    -30.80766     -10.04248      43.16311
Nuclear contribution   :     29.15001      13.48576     -43.48337
                        -----------------------------------------
Total Dipole Moment    :     -1.65765       3.44329      -0.32026
                        -----------------------------------------
Magnitude (a.u.)       :      3.83492
Magnitude (Debye)      :      9.74758

Rotational constants in cm-1:     0.001641     0.000176     0.000165
Rotational constants in MHz :    49.197269     5.265039     4.931650

                             ****ORCA TERMINATED NORMALLY****
TOTAL RUN TIME: 0 days 0 hours 6 minutes 46 seconds 168 msec
