                         Program Version 4.2.0 -  RELEASE  -
|  1> # ORCA input file
|  2> # SCF done       -205.702554382404          0.000558698750
|  3> ! CAM-B3LYP def2-SVP def2/J RIJCOSX Grid4 TightSCF
|  4> %maxcore 5000
|  5> %tddft
|  6>     Mode sTDDFT
|  7>     Ethresh 5.0
|  8>     maxcore 5000
|  9> end
| 10>
| 11> %pal
| 12>   nprocs 6
| 13>   end
| 14> * xyz 0 1
| 15>    C      -14.03171        -2.87512         5.03279
| 16>    C      -14.98987        -1.91696         4.84988
| 17>    F      -15.90572        -1.69122         5.79913
| 18>    C      -15.02655        -1.15702         3.66368
| 19>    F      -15.97554        -0.22483         3.51001
| 20>    C      -14.10438        -1.36583         2.67625
| 21>    C      -13.10634        -2.34639         2.83496
| 22>    C      -13.06777        -3.11520         4.03396
| 23>    C      -12.07627        -4.10814         4.21423
| 24>    C      -11.15571        -4.32803         3.22546
| 25>    C      -11.20366        -3.55628         2.02800
| 26>    C      -12.14549        -2.58803         1.82802
| 27>    C      -10.12795        -4.00243         1.13484
| 28>    O       -9.84835        -3.56077         0.02315
| 29>    C       -9.43692        -5.08684         1.83413
| 30>    C      -10.04513        -5.27537         3.13065
| 31>    C       -9.66329        -6.16058         4.10470
| 32>    C      -10.30460        -6.28827         5.35384
| 33>    N      -10.78814        -6.43460         6.38453
| 34>    C       -8.57286        -7.04605         3.98361
| 35>    N       -7.68883        -7.77600         3.92485
| 36>    C       -8.39766        -5.77522         1.25329
| 37>    N       -7.97968        -5.46608         0.02140
| 38>    C       -7.01692        -6.10773        -0.69136
| 39>    S       -6.27502        -7.55952        -0.08465
| 40>    C       -5.39372        -7.70530        -1.56903
| 41>    N       -4.51596        -8.79333        -1.70776
| 42>    O       -3.90729        -8.89397        -2.75451
| 43>    O       -4.43537        -9.55372        -0.76146
| 44>    C       -5.65942        -6.70842        -2.46527
| 45>    C       -6.57956        -5.75693        -1.97512
| 46>    C       -6.96509        -4.61389        -2.75417
| 47>    C       -7.43920        -3.43253        -2.29932
| 48>    C       -7.80117        -2.34681        -3.13681
| 49>    S       -7.71373        -2.45010        -4.87175
| 50>    C       -8.28956        -0.81219        -5.04438
| 51>    C       -8.54866        -0.24316        -3.79646
| 52>    C       -8.26717        -1.10055        -2.72993
| 53>    C       -8.48103        -0.71465        -1.29970
| 54>    C       -8.71307         0.78825        -1.15952
| 55>    C       -9.71475         1.28496        -2.21334
| 56>    N      -10.14376         2.66030        -2.04448
| 57>    C       -9.08802         1.13562        -3.60252
| 58>    C       -8.41490        -0.19466        -6.30044
| 59>    C       -8.28219        -0.83973        -7.50081
| 60>    C       -8.33573        -0.25307        -8.77245
| 61>    C       -8.26409         1.08058        -9.11515
| 62>    C       -8.32737         1.58199       -10.43719
| 63>    C       -8.13898         2.92856       -10.54409
| 64>    C       -7.90476         3.56760        -9.30903
| 65>    S       -7.97236         2.40995        -8.00646
| 66>    C       -7.61980         4.90505        -9.07950
| 67>    C       -7.54447         5.94846       -10.02371
| 68>    C       -7.18427         7.15315        -9.49095
| 69>    C       -6.95408         7.11891        -8.09702
| 70>    S       -7.23842         5.50844        -7.48327
| 71>    C       -6.53313         8.12726        -7.24583
| 72>    C       -6.24717         9.41795        -7.67542
| 73>    C       -5.76814        10.43307        -6.86818
| 74>    C       -5.44861        11.77300        -7.28614
| 75>    C       -5.60087        12.31390        -8.54385
| 76>    C       -5.27774        13.64339        -8.87765
| 77>    N       -5.03567        14.71430        -9.21615
| 78>    C       -6.09790        11.63625        -9.67335
| 79>    N       -6.49187        11.15591       -10.64118
| 80>    C       -4.92318        12.48861        -6.12444
| 81>    C       -4.93462        11.61382        -5.01129
| 82>    C       -5.47131        10.30058        -5.42967
| 83>    O       -5.62161         9.32818        -4.71488
| 84>    C       -4.49046        11.98965        -3.76825
| 85>    C       -4.00750        13.29423        -3.61429
| 86>    C       -3.99985        14.16091        -4.73112
| 87>    C       -4.45206        13.78015        -5.98957
| 88>    S       -3.35966        15.72451        -4.32256
| 89>    C       -3.11157        15.19681        -2.67939
| 90>    C       -3.49034        13.91826        -2.44573
| 91>   Br       -2.37863        16.38510        -1.42588
| 92>    H      -14.01815        -3.44814         5.94672
| 93>    H      -14.14796        -0.77643         1.77373
| 94>    H      -12.07533        -4.67337         5.13195
| 95>    H      -12.16359        -2.01776         0.91155
| 96>    H       -7.88637        -6.58240         1.76147
| 97>    H       -8.51244        -4.70579        -0.43320
| 98>    H       -5.19132        -6.65618        -3.43172
| 99>    H       -6.80292        -4.72040        -3.81919
|100>    H       -7.53152        -3.23535        -1.24187
|101>    H       -7.61738        -1.00959        -0.69848
|102>    H       -9.34529        -1.26698        -0.91774
|103>    H       -7.76793         1.32254        -1.28981
|104>    H       -9.08683         1.00658        -0.15596
|105>    H      -10.61628         0.66129        -2.16273
|106>    H       -9.34632         3.28765        -2.06953
|107>    H      -10.61030         2.78650        -1.15339
|108>    H       -8.27707         1.86455        -3.70757
|109>    H       -9.83572         1.37169        -4.36031
|110>    H       -8.65893         0.85710        -6.28151
|111>    H       -8.14886        -1.91452        -7.47704
|112>    H       -8.40229        -0.93444        -9.61178
|113>    H       -8.50406         0.92859       -11.27343
|114>    H       -8.14307         3.46772       -11.47379
|115>    H       -7.75275         5.79113       -11.06665
|116>    H       -7.07739         8.05267       -10.07001
|117>    H       -6.40203         7.89020        -6.20029
|118>    H       -6.39617         9.64076        -8.72138
|119>    H       -4.51082        11.29871        -2.94003
|120>    H       -4.42326        14.47904        -6.80850
|121>    H       -3.40862        13.43301        -1.49023
|122> *
|123>
|124>                          ****END OF INPUT****

CARTESIAN COORDINATES (ANGSTROEM)
---------------------------------
  C    -14.031710   -2.875120    5.032790
  C    -14.989870   -1.916960    4.849880
  F    -15.905720   -1.691220    5.799130
  C    -15.026550   -1.157020    3.663680
  F    -15.975540   -0.224830    3.510010
  C    -14.104380   -1.365830    2.676250
  C    -13.106340   -2.346390    2.834960
  C    -13.067770   -3.115200    4.033960
  C    -12.076270   -4.108140    4.214230
  C    -11.155710   -4.328030    3.225460
  C    -11.203660   -3.556280    2.028000
  C    -12.145490   -2.588030    1.828020
  C    -10.127950   -4.002430    1.134840
  O     -9.848350   -3.560770    0.023150
  C     -9.436920   -5.086840    1.834130
  C    -10.045130   -5.275370    3.130650
  C     -9.663290   -6.160580    4.104700
  C    -10.304600   -6.288270    5.353840
  N    -10.788140   -6.434600    6.384530
  C     -8.572860   -7.046050    3.983610
  N     -7.688830   -7.776000    3.924850
  C     -8.397660   -5.775220    1.253290
  N     -7.979680   -5.466080    0.021400
  C     -7.016920   -6.107730   -0.691360
  S     -6.275020   -7.559520   -0.084650
  C     -5.393720   -7.705300   -1.569030
  N     -4.515960   -8.793330   -1.707760
  O     -3.907290   -8.893970   -2.754510
  O     -4.435370   -9.553720   -0.761460
  C     -5.659420   -6.708420   -2.465270
  C     -6.579560   -5.756930   -1.975120
  C     -6.965090   -4.613890   -2.754170
  C     -7.439200   -3.432530   -2.299320
  C     -7.801170   -2.346810   -3.136810
  S     -7.713730   -2.450100   -4.871750
  C     -8.289560   -0.812190   -5.044380
  C     -8.548660   -0.243160   -3.796460
  C     -8.267170   -1.100550   -2.729930
  C     -8.481030   -0.714650   -1.299700
  C     -8.713070    0.788250   -1.159520
  C     -9.714750    1.284960   -2.213340
  N    -10.143760    2.660300   -2.044480
  C     -9.088020    1.135620   -3.602520
  C     -8.414900   -0.194660   -6.300440
  C     -8.282190   -0.839730   -7.500810
  C     -8.335730   -0.253070   -8.772450
  C     -8.264090    1.080580   -9.115150
  C     -8.327370    1.581990  -10.437190
  C     -8.138980    2.928560  -10.544090
  C     -7.904760    3.567600   -9.309030
  S     -7.972360    2.409950   -8.006460
  C     -7.619800    4.905050   -9.079500
  C     -7.544470    5.948460  -10.023710
  C     -7.184270    7.153150   -9.490950
  C     -6.954080    7.118910   -8.097020
  S     -7.238420    5.508440   -7.483270
  C     -6.533130    8.127260   -7.245830
  C     -6.247170    9.417950   -7.675420
  C     -5.768140   10.433070   -6.868180
  C     -5.448610   11.773000   -7.286140
  C     -5.600870   12.313900   -8.543850
  C     -5.277740   13.643390   -8.877650
  N     -5.035670   14.714300   -9.216150
  C     -6.097900   11.636250   -9.673350
  N     -6.491870   11.155910  -10.641180
  C     -4.923180   12.488610   -6.124440
  C     -4.934620   11.613820   -5.011290
  C     -5.471310   10.300580   -5.429670
  O     -5.621610    9.328180   -4.714880
  C     -4.490460   11.989650   -3.768250
  C     -4.007500   13.294230   -3.614290
  C     -3.999850   14.160910   -4.731120
  C     -4.452060   13.780150   -5.989570
  S     -3.359660   15.724510   -4.322560
  C     -3.111570   15.196810   -2.679390
  C     -3.490340   13.918260   -2.445730
  Br    -2.378630   16.385100   -1.425880
  H    -14.018150   -3.448140    5.946720
  H    -14.147960   -0.776430    1.773730
  H    -12.075330   -4.673370    5.131950
  H    -12.163590   -2.017760    0.911550
  H     -7.886370   -6.582400    1.761470
  H     -8.512440   -4.705790   -0.433200
  H     -5.191320   -6.656180   -3.431720
  H     -6.802920   -4.720400   -3.819190
  H     -7.531520   -3.235350   -1.241870
  H     -7.617380   -1.009590   -0.698480
  H     -9.345290   -1.266980   -0.917740
  H     -7.767930    1.322540   -1.289810
  H     -9.086830    1.006580   -0.155960
  H    -10.616280    0.661290   -2.162730
  H     -9.346320    3.287650   -2.069530
  H    -10.610300    2.786500   -1.153390
  H     -8.277070    1.864550   -3.707570
  H     -9.835720    1.371690   -4.360310
  H     -8.658930    0.857100   -6.281510
  H     -8.148860   -1.914520   -7.477040
  H     -8.402290   -0.934440   -9.611780
  H     -8.504060    0.928590  -11.273430
  H     -8.143070    3.467720  -11.473790
  H     -7.752750    5.791130  -11.066650
  H     -7.077390    8.052670  -10.070010
  H     -6.402030    7.890200   -6.200290
  H     -6.396170    9.640760   -8.721380
  H     -4.510820   11.298710   -2.940030
  H     -4.423260   14.479040   -6.808500
  H     -3.408620   13.433010   -1.490230

 Total Charge           Charge          ....    0
 Multiplicity           Mult            ....    1
 Number of Electrons    NEL             ....  592
 Basis Dimension        Dim             .... 1266

ORBITAL ENERGIES
----------------

  NO   OCC          E(Eh)            E(eV)
   0   2.0000    -482.877962    -13139.7773
   1   2.0000     -88.999676     -2421.8043
   2   2.0000     -88.969239     -2420.9761
   3   2.0000     -88.965645     -2420.8783
   4   2.0000     -88.964425     -2420.8451
   5   2.0000     -88.962437     -2420.7910
   6   2.0000     -62.555670     -1702.2263
   7   2.0000     -56.389610     -1534.4393
   8   2.0000     -56.386918     -1534.3660
   9   2.0000     -56.386876     -1534.3649
  10   2.0000     -24.809331      -675.0962
  11   2.0000     -24.808295      -675.0680
  12   2.0000     -19.247884      -523.7616
  13   2.0000     -19.247000      -523.7375
  14   2.0000     -19.246980      -523.7370
  15   2.0000     -19.200320      -522.4673
  16   2.0000     -14.659388      -398.9022
  17   2.0000     -14.510811      -394.8592
  18   2.0000     -14.430136      -392.6640
  19   2.0000     -14.425392      -392.5349
  20   2.0000     -14.403981      -391.9523
  21   2.0000     -14.398681      -391.8080
  22   2.0000     -14.390593      -391.5879
  23   2.0000     -10.393567      -282.8233
  24   2.0000     -10.393497      -282.8214
  25   2.0000     -10.392747      -282.8010
  26   2.0000     -10.383098      -282.5385
  27   2.0000     -10.381898      -282.5058
  28   2.0000     -10.357948      -281.8541
  29   2.0000     -10.356972      -281.8275
  30   2.0000     -10.353726      -281.7392
  31   2.0000     -10.350631      -281.6550
  32   2.0000     -10.349221      -281.6166
  33   2.0000     -10.337329      -281.2930
  34   2.0000     -10.332262      -281.1551
  35   2.0000     -10.329489      -281.0797
  36   2.0000     -10.328418      -281.0505
  37   2.0000     -10.324985      -280.9571
  38   2.0000     -10.324533      -280.9448
  39   2.0000     -10.323836      -280.9259
  40   2.0000     -10.323761      -280.9238
  41   2.0000     -10.323387      -280.9136
  42   2.0000     -10.322330      -280.8849
  43   2.0000     -10.321841      -280.8716
  44   2.0000     -10.320504      -280.8352
  45   2.0000     -10.319372      -280.8044
  46   2.0000     -10.318847      -280.7901
  47   2.0000     -10.315760      -280.7061
  48   2.0000     -10.313810      -280.6530
  49   2.0000     -10.313724      -280.6507
  50   2.0000     -10.313599      -280.6473
  51   2.0000     -10.312959      -280.6299
  52   2.0000     -10.312185      -280.6088
  53   2.0000     -10.312152      -280.6079
  54   2.0000     -10.310562      -280.5646
  55   2.0000     -10.308526      -280.5093
  56   2.0000     -10.307475      -280.4807
  57   2.0000     -10.306239      -280.4470
  58   2.0000     -10.305800      -280.4351
  59   2.0000     -10.305556      -280.4284
  60   2.0000     -10.304305      -280.3944
  61   2.0000     -10.303661      -280.3769
  62   2.0000     -10.303154      -280.3631
  63   2.0000     -10.303045      -280.3601
  64   2.0000     -10.302515      -280.3457
  65   2.0000     -10.298433      -280.2346
  66   2.0000     -10.295882      -280.1652
  67   2.0000     -10.294457      -280.1264
  68   2.0000     -10.293297      -280.0948
  69   2.0000     -10.292570      -280.0751
  70   2.0000     -10.292340      -280.0688
  71   2.0000     -10.292163      -280.0640
  72   2.0000     -10.290789      -280.0266
  73   2.0000     -10.288587      -279.9667
  74   2.0000     -10.287548      -279.9384
  75   2.0000     -10.281435      -279.7721
  76   2.0000     -10.279741      -279.7260
  77   2.0000     -10.278314      -279.6872
  78   2.0000     -10.276235      -279.6306
  79   2.0000     -10.276034      -279.6251
  80   2.0000     -10.273190      -279.5477
  81   2.0000      -8.785083      -239.0543
  82   2.0000      -8.094886      -220.2730
  83   2.0000      -8.064975      -219.4591
  84   2.0000      -8.061572      -219.3665
  85   2.0000      -8.059866      -219.3201
  86   2.0000      -8.058817      -219.2916
  87   2.0000      -6.621339      -180.1758
  88   2.0000      -6.606819      -179.7807
  89   2.0000      -6.606677      -179.7768
  90   2.0000      -6.064522      -165.0240
  91   2.0000      -6.060116      -164.9041
  92   2.0000      -6.056400      -164.8030
  93   2.0000      -6.034645      -164.2110
  94   2.0000      -6.031288      -164.1197
  95   2.0000      -6.030538      -164.0993
  96   2.0000      -6.029033      -164.0583
  97   2.0000      -6.028446      -164.0424
  98   2.0000      -6.026987      -164.0026
  99   2.0000      -6.026166      -163.9803
 100   2.0000      -6.025234      -163.9550
 101   2.0000      -6.024309      -163.9298
 102   2.0000      -6.022811      -163.8890
 103   2.0000      -6.021921      -163.8648
 104   2.0000      -6.020030      -163.8133
 105   2.0000      -2.737211       -74.4833
 106   2.0000      -2.733146       -74.3727
 107   2.0000      -2.733011       -74.3690
 108   2.0000      -2.721499       -74.0557
 109   2.0000      -2.721478       -74.0552
 110   2.0000      -1.332052       -36.2470
 111   2.0000      -1.329831       -36.1865
 112   2.0000      -1.317154       -35.8416
 113   2.0000      -1.160811       -31.5873
 114   2.0000      -1.149152       -31.2700
 115   2.0000      -1.116785       -30.3893
 116   2.0000      -1.113728       -30.3061
 117   2.0000      -1.033704       -28.1285
 118   2.0000      -1.020439       -27.7676
 119   2.0000      -1.018042       -27.7023
 120   2.0000      -1.014478       -27.6053
 121   2.0000      -1.010311       -27.4920
 122   2.0000      -1.006430       -27.3864
 123   2.0000      -1.004984       -27.3470
 124   2.0000      -1.000721       -27.2310
 125   2.0000      -0.994754       -27.0686
 126   2.0000      -0.991304       -26.9747
 127   2.0000      -0.981138       -26.6981
 128   2.0000      -0.980732       -26.6871
 129   2.0000      -0.975188       -26.5362
 130   2.0000      -0.945644       -25.7323
 131   2.0000      -0.938155       -25.5285
 132   2.0000      -0.931843       -25.3567
 133   2.0000      -0.928132       -25.2558
 134   2.0000      -0.917506       -24.9666
 135   2.0000      -0.909256       -24.7421
 136   2.0000      -0.907300       -24.6889
 137   2.0000      -0.903369       -24.5819
 138   2.0000      -0.898521       -24.4500
 139   2.0000      -0.895728       -24.3740
 140   2.0000      -0.887257       -24.1435
 141   2.0000      -0.875588       -23.8260
 142   2.0000      -0.873779       -23.7767
 143   2.0000      -0.872064       -23.7301
 144   2.0000      -0.863467       -23.4961
 145   2.0000      -0.855355       -23.2754
 146   2.0000      -0.854479       -23.2515
 147   2.0000      -0.848623       -23.0922
 148   2.0000      -0.843195       -22.9445
 149   2.0000      -0.833231       -22.6734
 150   2.0000      -0.825780       -22.4706
 151   2.0000      -0.818523       -22.2732
 152   2.0000      -0.817073       -22.2337
 153   2.0000      -0.803534       -21.8653
 154   2.0000      -0.788621       -21.4595
 155   2.0000      -0.783651       -21.3242
 156   2.0000      -0.774608       -21.0782
 157   2.0000      -0.764101       -20.7922
 158   2.0000      -0.753086       -20.4925
 159   2.0000      -0.746475       -20.3126
 160   2.0000      -0.740805       -20.1583
 161   2.0000      -0.737848       -20.0779
 162   2.0000      -0.729639       -19.8545
 163   2.0000      -0.724164       -19.7055
 164   2.0000      -0.719799       -19.5867
 165   2.0000      -0.708996       -19.2928
 166   2.0000      -0.702311       -19.1109
 167   2.0000      -0.696696       -18.9581
 168   2.0000      -0.692075       -18.8323
 169   2.0000      -0.684145       -18.6165
 170   2.0000      -0.677567       -18.4375
 171   2.0000      -0.676630       -18.4120
 172   2.0000      -0.672274       -18.2935
 173   2.0000      -0.667014       -18.1504
 174   2.0000      -0.660931       -17.9849
 175   2.0000      -0.657103       -17.8807
 176   2.0000      -0.654360       -17.8060
 177   2.0000      -0.648834       -17.6557
 178   2.0000      -0.646691       -17.5973
 179   2.0000      -0.644296       -17.5322
 180   2.0000      -0.640778       -17.4365
 181   2.0000      -0.639397       -17.3989
 182   2.0000      -0.637482       -17.3468
 183   2.0000      -0.630055       -17.1447
 184   2.0000      -0.620184       -16.8761
 185   2.0000      -0.617578       -16.8052
 186   2.0000      -0.612848       -16.6764
 187   2.0000      -0.610732       -16.6189
 188   2.0000      -0.609401       -16.5827
 189   2.0000      -0.606518       -16.5042
 190   2.0000      -0.600695       -16.3457
 191   2.0000      -0.596615       -16.2347
 192   2.0000      -0.596362       -16.2278
 193   2.0000      -0.592521       -16.1233
 194   2.0000      -0.588812       -16.0224
 195   2.0000      -0.582712       -15.8564
 196   2.0000      -0.581699       -15.8288
 197   2.0000      -0.573616       -15.6089
 198   2.0000      -0.570945       -15.5362
 199   2.0000      -0.567759       -15.4495
 200   2.0000      -0.566500       -15.4153
 201   2.0000      -0.564319       -15.3559
 202   2.0000      -0.557844       -15.1797
 203   2.0000      -0.554763       -15.0959
 204   2.0000      -0.553159       -15.0522
 205   2.0000      -0.550625       -14.9833
 206   2.0000      -0.546940       -14.8830
 207   2.0000      -0.544307       -14.8113
 208   2.0000      -0.542933       -14.7740
 209   2.0000      -0.539948       -14.6927
 210   2.0000      -0.536401       -14.5962
 211   2.0000      -0.534820       -14.5532
 212   2.0000      -0.533370       -14.5137
 213   2.0000      -0.529208       -14.4005
 214   2.0000      -0.525988       -14.3129
 215   2.0000      -0.525361       -14.2958
 216   2.0000      -0.524734       -14.2787
 217   2.0000      -0.521268       -14.1844
 218   2.0000      -0.517268       -14.0756
 219   2.0000      -0.515476       -14.0268
 220   2.0000      -0.513566       -13.9748
 221   2.0000      -0.513381       -13.9698
 222   2.0000      -0.512308       -13.9406
 223   2.0000      -0.511677       -13.9234
 224   2.0000      -0.507793       -13.8178
 225   2.0000      -0.503795       -13.7090
 226   2.0000      -0.500651       -13.6234
 227   2.0000      -0.498008       -13.5515
 228   2.0000      -0.497244       -13.5307
 229   2.0000      -0.496146       -13.5008
 230   2.0000      -0.492448       -13.4002
 231   2.0000      -0.485849       -13.2206
 232   2.0000      -0.484401       -13.1812
 233   2.0000      -0.483415       -13.1544
 234   2.0000      -0.481482       -13.1018
 235   2.0000      -0.480244       -13.0681
 236   2.0000      -0.479325       -13.0431
 237   2.0000      -0.478385       -13.0175
 238   2.0000      -0.476835       -12.9753
 239   2.0000      -0.475591       -12.9415
 240   2.0000      -0.471306       -12.8249
 241   2.0000      -0.463192       -12.6041
 242   2.0000      -0.461104       -12.5473
 243   2.0000      -0.460270       -12.5246
 244   2.0000      -0.459562       -12.5053
 245   2.0000      -0.455103       -12.3840
 246   2.0000      -0.453301       -12.3350
 247   2.0000      -0.451270       -12.2797
 248   2.0000      -0.448572       -12.2063
 249   2.0000      -0.445620       -12.1259
 250   2.0000      -0.445522       -12.1233
 251   2.0000      -0.441160       -12.0046
 252   2.0000      -0.439563       -11.9611
 253   2.0000      -0.439159       -11.9501
 254   2.0000      -0.438827       -11.9411
 255   2.0000      -0.436520       -11.8783
 256   2.0000      -0.436068       -11.8660
 257   2.0000      -0.432213       -11.7611
 258   2.0000      -0.430296       -11.7089
 259   2.0000      -0.427771       -11.6402
 260   2.0000      -0.425984       -11.5916
 261   2.0000      -0.422087       -11.4856
 262   2.0000      -0.419399       -11.4124
 263   2.0000      -0.416372       -11.3300
 264   2.0000      -0.413992       -11.2653
 265   2.0000      -0.411148       -11.1879
 266   2.0000      -0.410452       -11.1690
 267   2.0000      -0.408576       -11.1179
 268   2.0000      -0.406955       -11.0738
 269   2.0000      -0.403903       -10.9908
 270   2.0000      -0.396866       -10.7993
 271   2.0000      -0.394434       -10.7331
 272   2.0000      -0.394251       -10.7281
 273   2.0000      -0.390724       -10.6322
 274   2.0000      -0.386364       -10.5135
 275   2.0000      -0.376997       -10.2586
 276   2.0000      -0.376521       -10.2457
 277   2.0000      -0.370262       -10.0753
 278   2.0000      -0.368269       -10.0211
 279   2.0000      -0.367602       -10.0030
 280   2.0000      -0.356745        -9.7075
 281   2.0000      -0.354992        -9.6598
 282   2.0000      -0.351899        -9.5756
 283   2.0000      -0.340574        -9.2675
 284   2.0000      -0.335458        -9.1283
 285   2.0000      -0.332680        -9.0527
 286   2.0000      -0.323580        -8.8050
 287   2.0000      -0.320848        -8.7307
 288   2.0000      -0.317545        -8.6408
 289   2.0000      -0.312349        -8.4994
 290   2.0000      -0.308825        -8.4036
 291   2.0000      -0.304211        -8.2780
 292   2.0000      -0.292669        -7.9639
 293   2.0000      -0.282746        -7.6939
 294   2.0000      -0.263604        -7.1730
 295   2.0000      -0.223076        -6.0702
 296   0.0000      -0.116033        -3.1574
 297   0.0000      -0.101621        -2.7653
 298   0.0000      -0.081684        -2.2227
 299   0.0000      -0.067289        -1.8310
 300   0.0000      -0.056408        -1.5350

MULLIKEN ATOMIC CHARGES
-----------------------
   0 C :   -0.105397
   1 C :    0.243391
   2 F :   -0.167444
   3 C :    0.238220
   4 F :   -0.169536
   5 C :   -0.104305
   6 C :    0.115586
   7 C :    0.112206
   8 C :   -0.079217
   9 C :    0.039950
  10 C :    0.008667
  11 C :   -0.082865
  12 C :    0.172313
  13 O :   -0.217630
  14 C :   -0.129339
  15 C :    0.334263
  16 C :   -0.341076
  17 C :   -0.183023
  18 N :    0.152293
  19 C :   -0.197766
  20 N :    0.148057
  21 C :    0.026903
  22 N :   -0.003172
  23 C :   -0.131110
  24 S :    0.176395
  25 C :    0.012562
  26 N :    0.274665
  27 O :   -0.243428
  28 O :   -0.252119
  29 C :    0.005510
  30 C :    0.137909
  31 C :   -0.040454
  32 C :   -0.001685
  33 C :   -0.098813
  34 S :    0.095622
  35 C :   -0.091134
  36 C :   -0.054242
  37 C :   -0.093293
  38 C :    0.124317
  39 C :    0.070841
  40 C :   -0.079098
  41 N :   -0.160687
  42 C :    0.166567
  43 C :   -0.018142
  44 C :   -0.004888
  45 C :    0.019423
  46 C :   -0.039703
  47 C :    0.049291
  48 C :    0.023227
  49 C :   -0.022836
  50 S :    0.080398
  51 C :   -0.061444
  52 C :    0.034220
  53 C :    0.015761
  54 C :   -0.026729
  55 S :    0.124725
  56 C :    0.021676
  57 C :   -0.031788
  58 C :   -0.089211
  59 C :    0.329448
  60 C :   -0.372168
  61 C :   -0.186068
  62 N :    0.137074
  63 C :   -0.191151
  64 N :    0.129208
  65 C :    0.014887
  66 C :   -0.006939
  67 C :    0.135190
  68 O :   -0.167098
  69 C :   -0.081777
  70 C :    0.120635
  71 C :   -0.090411
  72 C :   -0.029743
  73 S :    0.179809
  74 C :   -0.122622
  75 C :    0.034627
  76 Br:    0.013919
  77 H :    0.010597
  78 H :   -0.000131
  79 H :   -0.003099
  80 H :   -0.013061
  81 H :    0.050116
  82 H :    0.176782
  83 H :    0.014001
  84 H :    0.002082
  85 H :   -0.008912
  86 H :    0.015416
  87 H :    0.028030
  88 H :   -0.007557
  89 H :   -0.014215
  90 H :   -0.003400
  91 H :    0.089927
  92 H :    0.087762
  93 H :    0.010492
  94 H :    0.026672
  95 H :    0.015297
  96 H :   -0.002369
  97 H :   -0.002149
  98 H :   -0.002256
  99 H :   -0.005529
 100 H :   -0.002428
 101 H :    0.017978
 102 H :    0.008466
 103 H :   -0.006488
 104 H :   -0.016008
 105 H :   -0.009235
 106 H :   -0.006990
Sum of atomic charges:   -0.0000000

LOEWDIN ATOMIC CHARGES
----------------------
   0 C :   -0.027449
   1 C :    0.069104
   2 F :   -0.045386
   3 C :    0.069184
   4 F :   -0.046923
   5 C :   -0.033253
   6 C :   -0.010225
   7 C :   -0.005530
   8 C :    0.021015
   9 C :   -0.020234
  10 C :   -0.053483
  11 C :    0.030317
  12 C :    0.096254
  13 O :   -0.177882
  14 C :   -0.144820
  15 C :    0.077450
  16 C :   -0.145897
  17 C :   -0.019397
  18 N :   -0.051071
  19 C :   -0.021425
  20 N :   -0.049746
  21 C :    0.112711
  22 N :    0.084428
  23 C :   -0.115682
  24 S :    0.475870
  25 C :   -0.199821
  26 N :    0.272912
  27 O :   -0.209105
  28 O :   -0.218719
  29 C :    0.001943
  30 C :   -0.081144
  31 C :   -0.036475
  32 C :   -0.032639
  33 C :   -0.164994
  34 S :    0.426534
  35 C :   -0.169440
  36 C :   -0.040301
  37 C :   -0.045854
  38 C :   -0.030191
  39 C :   -0.041878
  40 C :    0.012770
  41 N :   -0.100622
  42 C :   -0.025355
  43 C :   -0.021692
  44 C :   -0.052057
  45 C :   -0.026842
  46 C :   -0.156757
  47 C :   -0.009624
  48 C :   -0.044732
  49 C :   -0.149157
  50 S :    0.403146
  51 C :   -0.195318
  52 C :   -0.005526
  53 C :   -0.042888
  54 C :   -0.104211
  55 S :    0.406087
  56 C :   -0.072312
  57 C :    0.056201
  58 C :   -0.112272
  59 C :    0.075358
  60 C :   -0.160581
  61 C :   -0.019491
  62 N :   -0.069253
  63 C :   -0.016123
  64 N :   -0.076048
  65 C :   -0.018405
  66 C :   -0.048221
  67 C :    0.081014
  68 O :   -0.160334
  69 C :    0.016137
  70 C :   -0.035928
  71 C :   -0.146001
  72 C :   -0.013323
  73 S :    0.427542
  74 C :   -0.274719
  75 C :   -0.071495
  76 Br:    0.129579
  77 H :    0.049154
  78 H :    0.044712
  79 H :    0.041623
  80 H :    0.039189
  81 H :    0.036465
  82 H :    0.088016
  83 H :    0.048111
  84 H :    0.027457
  85 H :    0.028135
  86 H :    0.031395
  87 H :    0.033660
  88 H :    0.018986
  89 H :    0.018756
  90 H :    0.019268
  91 H :    0.052502
  92 H :    0.053057
  93 H :    0.033166
  94 H :    0.035823
  95 H :    0.019806
  96 H :    0.026272
  97 H :    0.039920
  98 H :    0.037836
  99 H :    0.034957
 100 H :    0.037050
 101 H :    0.042316
 102 H :    0.032885
 103 H :    0.036504
 104 H :    0.038324
 105 H :    0.040094
 106 H :    0.037255

  Mayer bond orders larger than 0.100000
B(  0-C ,  1-C ) :   1.4358 B(  0-C ,  5-C ) :   0.1074 B(  0-C ,  7-C ) :   1.1956
B(  0-C , 77-H ) :   1.0064 B(  1-C ,  2-F ) :   1.1382 B(  1-C ,  3-C ) :   1.1942
B(  3-C ,  4-F ) :   1.1359 B(  3-C ,  5-C ) :   1.4421 B(  5-C ,  6-C ) :   1.1911
B(  5-C , 78-H ) :   1.0063 B(  6-C ,  7-C ) :   1.2573 B(  6-C , 11-C ) :   1.1896
B(  7-C ,  8-C ) :   1.2069 B(  8-C ,  9-C ) :   1.4690 B(  8-C , 79-H ) :   0.9885
B(  9-C , 10-C ) :   1.2186 B(  9-C , 15-C ) :   0.9857 B( 10-C , 11-C ) :   1.4652
B( 10-C , 12-C ) :   0.9753 B( 11-C , 80-H ) :   1.0188 B( 12-C , 13-O ) :   2.0089
B( 12-C , 14-C ) :   1.0136 B( 13-O , 82-H ) :   0.1307 B( 14-C , 15-C ) :   1.1017
B( 14-C , 21-C ) :   1.4373 B( 15-C , 16-C ) :   1.6311 B( 16-C , 17-C ) :   1.1466
B( 16-C , 19-C ) :   1.1455 B( 17-C , 18-N ) :   2.9609 B( 19-C , 20-N ) :   2.9546
B( 21-C , 22-N ) :   1.3482 B( 21-C , 81-H ) :   0.9291 B( 22-N , 23-C ) :   1.1776
B( 22-N , 82-H ) :   0.8295 B( 23-C , 24-S ) :   1.1375 B( 23-C , 30-C ) :   1.3862
B( 24-S , 25-C ) :   1.0874 B( 25-C , 26-N ) :   0.9586 B( 25-C , 29-C ) :   1.5013
B( 26-N , 27-O ) :   1.5408 B( 26-N , 28-O ) :   1.5204 B( 27-O , 28-O ) :   0.2651
B( 29-C , 30-C ) :   1.2059 B( 29-C , 83-H ) :   1.0077 B( 30-C , 31-C ) :   1.0865
B( 31-C , 32-C ) :   1.6558 B( 31-C , 84-H ) :   0.9631 B( 32-C , 33-C ) :   1.1994
B( 32-C , 85-H ) :   0.9486 B( 33-C , 34-S ) :   1.1090 B( 33-C , 37-C ) :   1.4623
B( 34-S , 35-C ) :   1.0916 B( 35-C , 36-C ) :   1.4348 B( 35-C , 43-C ) :   1.2459
B( 36-C , 37-C ) :   1.3472 B( 36-C , 42-C ) :   1.0324 B( 37-C , 38-C ) :   1.0470
B( 38-C , 39-C ) :   1.0731 B( 38-C , 86-H ) :   0.9081 B( 38-C , 87-H ) :   0.9008
B( 39-C , 40-C ) :   1.0241 B( 39-C , 88-H ) :   0.9280 B( 39-C , 89-H ) :   0.9282
B( 40-C , 41-N ) :   1.1142 B( 40-C , 42-C ) :   1.0459 B( 40-C , 90-H ) :   0.9293
B( 41-N , 91-H ) :   0.9681 B( 41-N , 92-H ) :   0.9693 B( 42-C , 93-H ) :   0.8965
B( 42-C , 94-H ) :   0.9117 B( 43-C , 44-C ) :   1.5527 B( 43-C , 95-H ) :   0.9422
B( 44-C , 45-C ) :   1.2327 B( 44-C , 96-H ) :   0.9659 B( 45-C , 46-C ) :   1.5396
B( 45-C , 97-H ) :   0.9622 B( 46-C , 47-C ) :   1.1697 B( 46-C , 50-S ) :   1.0310
B( 47-C , 48-C ) :   1.5613 B( 47-C , 98-H ) :   0.9985 B( 48-C , 49-C ) :   1.2092
B( 48-C , 99-H ) :   0.9945 B( 49-C , 50-S ) :   1.0751 B( 49-C , 51-C ) :   1.4523
B( 51-C , 52-C ) :   1.2195 B( 51-C , 55-S ) :   1.0455 B( 52-C , 53-C ) :   1.5524
B( 52-C ,100-H ) :   0.9948 B( 53-C , 54-C ) :   1.1948 B( 53-C ,101-H ) :   0.9899
B( 54-C , 55-S ) :   1.0985 B( 54-C , 56-C ) :   1.3774 B( 56-C , 57-C ) :   1.3115
B( 56-C ,102-H ) :   0.9643 B( 57-C , 58-C ) :   1.4591 B( 57-C ,103-H ) :   0.9477
B( 58-C , 59-C ) :   1.1189 B( 58-C , 67-C ) :   0.9653 B( 59-C , 60-C ) :   1.5770
B( 59-C , 65-C ) :   0.9898 B( 60-C , 61-C ) :   1.1509 B( 60-C , 63-C ) :   1.1570
B( 61-C , 62-N ) :   2.9613 B( 63-C , 64-N ) :   2.9724 B( 65-C , 66-C ) :   1.2790
B( 65-C , 72-C ) :   1.4180 B( 66-C , 67-C ) :   0.9357 B( 66-C , 69-C ) :   1.4307
B( 67-C , 68-O ) :   2.1855 B( 69-C , 70-C ) :   1.2366 B( 69-C ,104-H ) :   1.0170
B( 70-C , 71-C ) :   1.3171 B( 70-C , 75-C ) :   1.1603 B( 71-C , 72-C ) :   1.3197
B( 71-C , 73-S ) :   1.0834 B( 72-C ,105-H ) :   0.9803 B( 73-S , 74-C ) :   1.0864
B( 74-C , 75-C ) :   1.6194 B( 74-C , 76-Br) :   1.0128 B( 75-C ,106-H ) :   1.0004

-----------------------------------------------------------------------------
         ABSORPTION SPECTRUM VIA TRANSITION ELECTRIC DIPOLE MOMENTS
-----------------------------------------------------------------------------
State   Energy  Wavelength   fosc         T2         TX        TY        TZ
        (cm-1)    (nm)                  (au**2)     (au)      (au)      (au)
-----------------------------------------------------------------------------
   0   10430.9    958.7   1.643764145  51.87898  -1.49861  -6.82916   1.73081
   1   16229.0    616.2   0.250680532   5.08514   0.40148  -0.94785  -2.00637
   2   18886.2    529.5   0.258705176   4.50958  -0.09629   0.60587   2.03303
   3   20628.9    484.8   0.202464187   3.23108   0.39278   0.46341   1.69176
   4   20970.7    476.9   0.094814791   1.48846  -0.56350   0.02793  -1.08173
   5   22621.1    442.1   0.301926460   4.39404   1.61465  -0.25493  -1.31223
   6   23346.6    428.3   0.185956395   2.62218   0.79160  -0.31927   1.37609
   7   24851.6    402.4   0.227719293   3.01662  -0.71979  -0.44936  -1.51545
   8   26223.2    381.3   0.154336047   1.93757   1.11618  -0.13837   0.82011
   9   26331.3    379.8   0.009911761   0.12392   0.02503   0.32165  -0.14084
  10   26577.6    376.3   0.022706214   0.28126  -0.02260  -0.37567   0.37366
  11   26738.6    374.0   0.000489798   0.00603  -0.07193   0.02782   0.00910
  12   27086.7    369.2   0.122903391   1.49377   0.54212  -0.54868  -0.94806
  13   28427.8    351.8   0.021398178   0.24780   0.01187  -0.11782  -0.48351
  14   28681.1    348.7   0.155914868   1.78965  -0.44770   1.20934   0.35597
  15   28874.2    346.3   0.006908555   0.07877   0.05830  -0.27237  -0.03440
  16   29722.1    336.4   0.007560062   0.08374   0.03685   0.12998  -0.25590
  17   29953.3    333.9   0.018613728   0.20458  -0.37092   0.20514  -0.15785
  18   30022.4    333.1   0.424955371   4.65987   1.64880  -1.30055  -0.49990
  19   30487.9    328.0   0.113512619   1.22572   0.50880  -0.64012   0.74639
  20   30585.8    326.9   0.044302851   0.47686   0.12146  -0.12156  -0.66882
  21   31421.4    318.3   0.092506204   0.96922  -0.39087   0.82802  -0.36168
  22   31733.4    315.1   0.182005159   1.88818   1.01102  -0.02243   0.93033
  23   31847.0    314.0   0.518192830   5.35671  -0.04714   1.46244   1.79325
  24   31870.4    313.8   0.050993447   0.52675   0.02579  -0.44495  -0.57280
  25   32677.0    306.0   0.115809509   1.16675   0.54293   0.48353   0.79886
  26   32845.9    304.5   0.070793233   0.70956   0.36227  -0.56659  -0.50724
  27   33222.6    301.0   0.019971256   0.19790   0.15799   0.18870   0.37058
  28   33407.7    299.3   0.002224543   0.02192   0.02653   0.04867  -0.13729
  29   33611.7    297.5   0.008588973   0.08413  -0.26162   0.12191  -0.02863
  30   34200.2    292.4   0.391003521   3.76381   1.40154  -1.20767   0.58399
  31   34408.9    290.6   0.022123001   0.21166  -0.24588   0.35247   0.16424
  32   34656.5    288.5   0.351346325   3.33754  -1.16288   1.40132  -0.14682
  33   34816.8    287.2   0.254624864   2.40762   1.02562  -1.15505   0.14689
  34   34893.7    286.6   0.010488785   0.09896  -0.15133   0.15315  -0.22936
  35   35375.1    282.7   0.008788223   0.08179   0.19034   0.13163  -0.16803
  36   35660.8    280.4   0.010690878   0.09870   0.03932  -0.03506  -0.30971
  37   35697.4    280.1   0.042456568   0.39155   0.34360  -0.34271  -0.39501
  38   35758.5    279.7   0.072188884   0.66461   0.13448   0.00489   0.80405
  39   36771.2    272.0   0.077754553   0.69613   0.56425  -0.59584  -0.15074
  40   36823.2    271.6   0.095662034   0.85525  -0.44178   0.22212   0.78150
  41   37007.0    270.2   0.009840744   0.08754  -0.04991  -0.06201   0.28497
  42   37107.5    269.5   0.251870980   2.23456   0.04714  -0.91935   1.17777
  43   37684.8    265.4   0.054831746   0.47901  -0.14541  -0.27281   0.61922
  44   37720.3    265.1   0.030962392   0.27023   0.07671   0.49512   0.13856
  45   37969.2    263.4   0.047747944   0.41400   0.06136  -0.37905  -0.51629
  46   38095.8    262.5   0.011763945   0.10166  -0.06592   0.27717   0.14315
  47   38296.8    261.1   0.006038731   0.05191   0.16124  -0.15725   0.03440
  48   38446.5    260.1   0.032949459   0.28214   0.30359  -0.03927   0.43409
  49   38974.1    256.6   0.002290848   0.01935   0.01357   0.03245  -0.13459
  50   39019.3    256.3   0.100312708   0.84635  -0.33668   0.25528   0.81721
  51   39060.6    256.0   0.086314079   0.72747  -0.14680   0.56444  -0.62236
  52   39279.8    254.6   0.030012903   0.25154  -0.08174   0.22853  -0.43891
  53   39420.8    253.7   0.017816018   0.14879   0.07737  -0.25512   0.27878
  54   39607.6    252.5   0.019496036   0.16205   0.27802  -0.28632  -0.05261
  55   39816.0    251.2   0.103053442   0.85208   0.57754  -0.02552  -0.71963
  56   40155.5    249.0   0.014172164   0.11619  -0.19981   0.20845   0.18115
  57   40178.1    248.9   0.012364182   0.10131   0.05653  -0.02785   0.31199

FINAL SINGLE POINT ENERGY     -7672.326393473190

DIPOLE MOMENT
-------------
                                X             Y             Z
Electronic contribution:     53.87750     149.96553      44.66700
Nuclear contribution   :    -56.00622    -151.78900     -44.65335
                        -----------------------------------------
Total Dipole Moment    :     -2.12872      -1.82346       0.01365
                        -----------------------------------------
Magnitude (a.u.)       :      2.80297
Magnitude (Debye)      :      7.12459

Rotational constants in cm-1:     0.000693     0.000177     0.000159
Rotational constants in MHz :    20.775718     5.292861     4.779845

                             ****ORCA TERMINATED NORMALLY****
TOTAL RUN TIME: 0 days 0 hours 20 minutes 34 seconds 930 msec
