                         Program Version 4.2.0 -  RELEASE  -
|  1> # ORCA input file
|  2> # SCF done       -138.291101368074          0.000861321626
|  3> ! CAM-B3LYP def2-SVP def2/J RIJCOSX Grid4 TightSCF
|  4> %maxcore 5000
|  5> %tddft
|  6>     Mode sTDDFT
|  7>     Ethresh 5.0
|  8>     maxcore 5000
|  9> end
| 10>
| 11> %pal
| 12>   nprocs 6
| 13>   end
| 14> * xyz 0 1
| 15>    C       10.42051        -3.25547        -2.03793
| 16>    C       10.07831        -4.07226        -1.03383
| 17>    C       10.45240        -3.97050         0.34880
| 18>    C        9.95828        -4.94859         1.13669
| 19>    C        9.15384        -5.90494         0.45195
| 20>    S        9.05064        -5.49816        -1.25216
| 21>    C        8.53232        -7.00214         0.98848
| 22>    C        8.54451        -7.44287         2.33798
| 23>    C        7.83876        -8.57758         2.56554
| 24>    C        7.21496        -9.11894         1.40771
| 25>    S        7.57160        -8.09873         0.00809
| 26>    C        6.45817       -10.24551         1.33929
| 27>    N        5.89762       -10.69976         0.18477
| 28>    C        5.16132       -11.82345         0.04189
| 29>    S        4.86347       -12.86908         1.39573
| 30>    C        3.97260       -13.93700         0.35315
| 31>    N        3.41702       -15.07525         0.92477
| 32>    O        2.79029       -15.83235         0.20022
| 33>    O        3.59864       -15.23373         2.12482
| 34>    C        3.91813       -13.50504        -0.94671
| 35>    C        4.59082       -12.28951        -1.15503
| 36>    C        4.67721       -11.58898        -2.41017
| 37>    C        4.31338       -12.10081        -3.60090
| 38>    C        4.37990       -11.35427        -4.82293
| 39>    C        4.11507       -11.80788        -6.05883
| 40>    C        3.70839       -13.20276        -6.40629
| 41>    C        4.17994       -10.86547        -7.23960
| 42>    N        2.86667       -10.61094        -7.79406
| 43>    C        2.30621       -11.45069        -8.69884
| 44>    C        0.98373       -11.53754        -8.95704
| 45>    C        0.41240       -12.41409        -9.93633
| 46>    C        0.97152       -13.00925       -11.04861
| 47>    C        2.26885       -12.62361       -11.63363
| 48>    O        3.07000       -13.39151       -12.09826
| 49>    O        2.52017       -11.29229       -11.66488
| 50>    C        0.10965       -13.99223       -11.65872
| 51>    C       -1.10213       -14.05500       -11.01654
| 52>    S       -1.20754       -13.00468        -9.66851
| 53>    C        0.51098       -14.75882       -12.79567
| 54>    C       -0.17381       -15.72897       -13.45565
| 55>    C        0.34084       -16.46268       -14.56847
| 56>    C       -0.49543       -17.40194       -15.06753
| 57>    C       -1.74354       -17.48589       -14.39216
| 58>    S       -1.80005       -16.30443       -13.09426
| 59>    C       -2.78777       -18.33328       -14.65081
| 60>    C       -2.86075       -19.33553       -15.66130
| 61>    C       -4.01873       -20.02846       -15.67761
| 62>    C       -4.96653       -19.62854       -14.67535
| 63>    S       -4.27394       -18.31112       -13.71562
| 64>    C       -6.18740       -20.13282       -14.45548
| 65>    H       11.04773        -2.40014        -1.85895
| 66>    H       10.08446        -3.42307        -3.04469
| 67>    H       11.07881        -3.16440         0.68737
| 68>    H       10.13975        -5.02587         2.19401
| 69>    H        9.07966        -6.90274         3.09772
| 70>    H        7.73927        -9.05603         3.52318
| 71>    H        6.27507       -10.83385         2.22570
| 72>    H        6.06883       -10.14529        -0.64693
| 73>    H        3.38953       -14.05757        -1.70087
| 74>    H        5.05881       -10.57566        -2.37950
| 75>    H        3.95281       -13.11567        -3.65050
| 76>    H        4.68263       -10.31884        -4.71382
| 77>    H        3.67279       -13.85278        -5.53977
| 78>    H        4.41372       -13.62373        -7.12286
| 79>    H        2.72557       -13.20494        -6.87962
| 80>    H        4.79627       -11.29679        -8.03353
| 81>    H        4.61578        -9.90821        -6.94097
| 82>    H        2.22667       -10.13014        -7.17667
| 83>    H        3.01655       -12.04060        -9.26221
| 84>    H        0.28100       -11.00331        -8.33211
| 85>    H        1.80750       -10.77998       -11.26069
| 86>    H       -1.94875       -14.66463       -11.25390
| 87>    H        1.51168       -14.55902       -13.15368
| 88>    H        1.32663       -16.25793       -14.94752
| 89>    H       -0.26107       -18.04237       -15.89901
| 90>    H       -2.04278       -19.50426       -16.33934
| 91>    H       -4.25260       -20.82169       -16.36559
| 92>    H       -6.56799       -20.93424       -15.06378
| 93>    H       -6.82152       -19.75864       -13.67297
| 94> *
| 95>
| 96>                          ****END OF INPUT****

CARTESIAN COORDINATES (ANGSTROEM)
---------------------------------
  C     10.420510   -3.255470   -2.037930
  C     10.078310   -4.072260   -1.033830
  C     10.452400   -3.970500    0.348800
  C      9.958280   -4.948590    1.136690
  C      9.153840   -5.904940    0.451950
  S      9.050640   -5.498160   -1.252160
  C      8.532320   -7.002140    0.988480
  C      8.544510   -7.442870    2.337980
  C      7.838760   -8.577580    2.565540
  C      7.214960   -9.118940    1.407710
  S      7.571600   -8.098730    0.008090
  C      6.458170  -10.245510    1.339290
  N      5.897620  -10.699760    0.184770
  C      5.161320  -11.823450    0.041890
  S      4.863470  -12.869080    1.395730
  C      3.972600  -13.937000    0.353150
  N      3.417020  -15.075250    0.924770
  O      2.790290  -15.832350    0.200220
  O      3.598640  -15.233730    2.124820
  C      3.918130  -13.505040   -0.946710
  C      4.590820  -12.289510   -1.155030
  C      4.677210  -11.588980   -2.410170
  C      4.313380  -12.100810   -3.600900
  C      4.379900  -11.354270   -4.822930
  C      4.115070  -11.807880   -6.058830
  C      3.708390  -13.202760   -6.406290
  C      4.179940  -10.865470   -7.239600
  N      2.866670  -10.610940   -7.794060
  C      2.306210  -11.450690   -8.698840
  C      0.983730  -11.537540   -8.957040
  C      0.412400  -12.414090   -9.936330
  C      0.971520  -13.009250  -11.048610
  C      2.268850  -12.623610  -11.633630
  O      3.070000  -13.391510  -12.098260
  O      2.520170  -11.292290  -11.664880
  C      0.109650  -13.992230  -11.658720
  C     -1.102130  -14.055000  -11.016540
  S     -1.207540  -13.004680   -9.668510
  C      0.510980  -14.758820  -12.795670
  C     -0.173810  -15.728970  -13.455650
  C      0.340840  -16.462680  -14.568470
  C     -0.495430  -17.401940  -15.067530
  C     -1.743540  -17.485890  -14.392160
  S     -1.800050  -16.304430  -13.094260
  C     -2.787770  -18.333280  -14.650810
  C     -2.860750  -19.335530  -15.661300
  C     -4.018730  -20.028460  -15.677610
  C     -4.966530  -19.628540  -14.675350
  S     -4.273940  -18.311120  -13.715620
  C     -6.187400  -20.132820  -14.455480
  H     11.047730   -2.400140   -1.858950
  H     10.084460   -3.423070   -3.044690
  H     11.078810   -3.164400    0.687370
  H     10.139750   -5.025870    2.194010
  H      9.079660   -6.902740    3.097720
  H      7.739270   -9.056030    3.523180
  H      6.275070  -10.833850    2.225700
  H      6.068830  -10.145290   -0.646930
  H      3.389530  -14.057570   -1.700870
  H      5.058810  -10.575660   -2.379500
  H      3.952810  -13.115670   -3.650500
  H      4.682630  -10.318840   -4.713820
  H      3.672790  -13.852780   -5.539770
  H      4.413720  -13.623730   -7.122860
  H      2.725570  -13.204940   -6.879620
  H      4.796270  -11.296790   -8.033530
  H      4.615780   -9.908210   -6.940970
  H      2.226670  -10.130140   -7.176670
  H      3.016550  -12.040600   -9.262210
  H      0.281000  -11.003310   -8.332110
  H      1.807500  -10.779980  -11.260690
  H     -1.948750  -14.664630  -11.253900
  H      1.511680  -14.559020  -13.153680
  H      1.326630  -16.257930  -14.947520
  H     -0.261070  -18.042370  -15.899010
  H     -2.042780  -19.504260  -16.339340
  H     -4.252600  -20.821690  -16.365590
  H     -6.567990  -20.934240  -15.063780
  H     -6.821520  -19.758640  -13.672970

 Total Charge           Charge          ....    0
 Multiplicity           Mult            ....    1
 Number of Electrons    NEL             ....  400
 Basis Dimension        Dim             ....  869

ORBITAL ENERGIES
----------------

  NO   OCC          E(Eh)            E(eV)
   0   2.0000     -88.980416     -2421.2802
   1   2.0000     -88.952551     -2420.5220
   2   2.0000     -88.949947     -2420.4511
   3   2.0000     -88.940102     -2420.1832
   4   2.0000     -88.932363     -2419.9726
   5   2.0000     -88.927591     -2419.8428
   6   2.0000     -19.243703      -523.6478
   7   2.0000     -19.227065      -523.1950
   8   2.0000     -19.226430      -523.1778
   9   2.0000     -19.189143      -522.1631
  10   2.0000     -14.638789      -398.3417
  11   2.0000     -14.488538      -394.2532
  12   2.0000     -14.440189      -392.9375
  13   2.0000     -10.392444      -282.7928
  14   2.0000     -10.367740      -282.1205
  15   2.0000     -10.336098      -281.2595
  16   2.0000     -10.334106      -281.2053
  17   2.0000     -10.322578      -280.8916
  18   2.0000     -10.315695      -280.7043
  19   2.0000     -10.315411      -280.6966
  20   2.0000     -10.313646      -280.6486
  21   2.0000     -10.310896      -280.5738
  22   2.0000     -10.308181      -280.4999
  23   2.0000     -10.307749      -280.4881
  24   2.0000     -10.304382      -280.3965
  25   2.0000     -10.298456      -280.2352
  26   2.0000     -10.297798      -280.2173
  27   2.0000     -10.296988      -280.1953
  28   2.0000     -10.294928      -280.1392
  29   2.0000     -10.293194      -280.0920
  30   2.0000     -10.292634      -280.0768
  31   2.0000     -10.291554      -280.0474
  32   2.0000     -10.291536      -280.0469
  33   2.0000     -10.291083      -280.0346
  34   2.0000     -10.285871      -279.8928
  35   2.0000     -10.285552      -279.8841
  36   2.0000     -10.281915      -279.7851
  37   2.0000     -10.281321      -279.7690
  38   2.0000     -10.280374      -279.7432
  39   2.0000     -10.277451      -279.6637
  40   2.0000     -10.276784      -279.6455
  41   2.0000     -10.274960      -279.5959
  42   2.0000     -10.274030      -279.5706
  43   2.0000     -10.271933      -279.5135
  44   2.0000     -10.271691      -279.5069
  45   2.0000     -10.270758      -279.4815
  46   2.0000     -10.270374      -279.4711
  47   2.0000     -10.267041      -279.3804
  48   2.0000     -10.261580      -279.2318
  49   2.0000     -10.259724      -279.1813
  50   2.0000      -8.075815      -219.7541
  51   2.0000      -8.048822      -219.0196
  52   2.0000      -8.046130      -218.9463
  53   2.0000      -8.036871      -218.6944
  54   2.0000      -8.028192      -218.4582
  55   2.0000      -8.024359      -218.3539
  56   2.0000      -6.045570      -164.5083
  57   2.0000      -6.041168      -164.3885
  58   2.0000      -6.037114      -164.2782
  59   2.0000      -6.018719      -163.7777
  60   2.0000      -6.015367      -163.6865
  61   2.0000      -6.014846      -163.6723
  62   2.0000      -6.011127      -163.5711
  63   2.0000      -6.009351      -163.5228
  64   2.0000      -6.008395      -163.4967
  65   2.0000      -6.006716      -163.4511
  66   2.0000      -6.002865      -163.3462
  67   2.0000      -5.997986      -163.2135
  68   2.0000      -5.997299      -163.1948
  69   2.0000      -5.994230      -163.1113
  70   2.0000      -5.993975      -163.1044
  71   2.0000      -5.990293      -163.0042
  72   2.0000      -5.989059      -162.9706
  73   2.0000      -5.984798      -162.8546
  74   2.0000      -1.305858       -35.5342
  75   2.0000      -1.167585       -31.7716
  76   2.0000      -1.124697       -30.6046
  77   2.0000      -1.095061       -29.7981
  78   2.0000      -1.083665       -29.4880
  79   2.0000      -1.042747       -28.3746
  80   2.0000      -1.002733       -27.2858
  81   2.0000      -0.992921       -27.0187
  82   2.0000      -0.981941       -26.7200
  83   2.0000      -0.976963       -26.5845
  84   2.0000      -0.970735       -26.4150
  85   2.0000      -0.956276       -26.0216
  86   2.0000      -0.928247       -25.2589
  87   2.0000      -0.908353       -24.7175
  88   2.0000      -0.893092       -24.3023
  89   2.0000      -0.885562       -24.0974
  90   2.0000      -0.875978       -23.8366
  91   2.0000      -0.868263       -23.6266
  92   2.0000      -0.852958       -23.2102
  93   2.0000      -0.851589       -23.1729
  94   2.0000      -0.848694       -23.0942
  95   2.0000      -0.843536       -22.9538
  96   2.0000      -0.834084       -22.6966
  97   2.0000      -0.828470       -22.5438
  98   2.0000      -0.824724       -22.4419
  99   2.0000      -0.809027       -22.0147
 100   2.0000      -0.803842       -21.8736
 101   2.0000      -0.800179       -21.7740
 102   2.0000      -0.785377       -21.3712
 103   2.0000      -0.774055       -21.0631
 104   2.0000      -0.758926       -20.6514
 105   2.0000      -0.751801       -20.4576
 106   2.0000      -0.725826       -19.7507
 107   2.0000      -0.719405       -19.5760
 108   2.0000      -0.717427       -19.5222
 109   2.0000      -0.701592       -19.0913
 110   2.0000      -0.693333       -18.8666
 111   2.0000      -0.686638       -18.6844
 112   2.0000      -0.676524       -18.4092
 113   2.0000      -0.668946       -18.2029
 114   2.0000      -0.661352       -17.9963
 115   2.0000      -0.655474       -17.8363
 116   2.0000      -0.651339       -17.7238
 117   2.0000      -0.643971       -17.5233
 118   2.0000      -0.628537       -17.1034
 119   2.0000      -0.626141       -17.0382
 120   2.0000      -0.622379       -16.9358
 121   2.0000      -0.619922       -16.8689
 122   2.0000      -0.619380       -16.8542
 123   2.0000      -0.615270       -16.7424
 124   2.0000      -0.609714       -16.5912
 125   2.0000      -0.602603       -16.3977
 126   2.0000      -0.601283       -16.3618
 127   2.0000      -0.592219       -16.1151
 128   2.0000      -0.589006       -16.0277
 129   2.0000      -0.588237       -16.0067
 130   2.0000      -0.580290       -15.7905
 131   2.0000      -0.575240       -15.6531
 132   2.0000      -0.571440       -15.5497
 133   2.0000      -0.560553       -15.2534
 134   2.0000      -0.554851       -15.0983
 135   2.0000      -0.549158       -14.9434
 136   2.0000      -0.542638       -14.7659
 137   2.0000      -0.539281       -14.6746
 138   2.0000      -0.535723       -14.5778
 139   2.0000      -0.526381       -14.3236
 140   2.0000      -0.520993       -14.1770
 141   2.0000      -0.518455       -14.1079
 142   2.0000      -0.517996       -14.0954
 143   2.0000      -0.516210       -14.0468
 144   2.0000      -0.515278       -14.0214
 145   2.0000      -0.508140       -13.8272
 146   2.0000      -0.501665       -13.6510
 147   2.0000      -0.498073       -13.5533
 148   2.0000      -0.494633       -13.4596
 149   2.0000      -0.493823       -13.4376
 150   2.0000      -0.487967       -13.2782
 151   2.0000      -0.486310       -13.2332
 152   2.0000      -0.485065       -13.1993
 153   2.0000      -0.484601       -13.1867
 154   2.0000      -0.479511       -13.0482
 155   2.0000      -0.478104       -13.0099
 156   2.0000      -0.473518       -12.8851
 157   2.0000      -0.471964       -12.8428
 158   2.0000      -0.470575       -12.8050
 159   2.0000      -0.468154       -12.7391
 160   2.0000      -0.466359       -12.6903
 161   2.0000      -0.464440       -12.6381
 162   2.0000      -0.456192       -12.4136
 163   2.0000      -0.451877       -12.2962
 164   2.0000      -0.449129       -12.2214
 165   2.0000      -0.446542       -12.1510
 166   2.0000      -0.445953       -12.1350
 167   2.0000      -0.441703       -12.0193
 168   2.0000      -0.438202       -11.9241
 169   2.0000      -0.437257       -11.8984
 170   2.0000      -0.433346       -11.7919
 171   2.0000      -0.426703       -11.6112
 172   2.0000      -0.423853       -11.5336
 173   2.0000      -0.417162       -11.3515
 174   2.0000      -0.413606       -11.2548
 175   2.0000      -0.409309       -11.1379
 176   2.0000      -0.405463       -11.0332
 177   2.0000      -0.403717       -10.9857
 178   2.0000      -0.386263       -10.5108
 179   2.0000      -0.385245       -10.4831
 180   2.0000      -0.383616       -10.4387
 181   2.0000      -0.378227       -10.2921
 182   2.0000      -0.376000       -10.2315
 183   2.0000      -0.368781       -10.0350
 184   2.0000      -0.356092        -9.6898
 185   2.0000      -0.355469        -9.6728
 186   2.0000      -0.347398        -9.4532
 187   2.0000      -0.343915        -9.3584
 188   2.0000      -0.341580        -9.2949
 189   2.0000      -0.338511        -9.2114
 190   2.0000      -0.327923        -8.9232
 191   2.0000      -0.325550        -8.8587
 192   2.0000      -0.324549        -8.8314
 193   2.0000      -0.314108        -8.5473
 194   2.0000      -0.303916        -8.2700
 195   2.0000      -0.289950        -7.8899
 196   2.0000      -0.268869        -7.3163
 197   2.0000      -0.250039        -6.8039
 198   2.0000      -0.219589        -5.9753
 199   2.0000      -0.211120        -5.7449
 200   0.0000      -0.067149        -1.8272
 201   0.0000      -0.049792        -1.3549
 202   0.0000      -0.039946        -1.0870
 203   0.0000      -0.021384        -0.5819
 204   0.0000      -0.004092        -0.1114

MULLIKEN ATOMIC CHARGES
-----------------------
   0 C :   -0.030981
   1 C :   -0.063000
   2 C :    0.051209
   3 C :    0.029274
   4 C :   -0.067421
   5 S :    0.068461
   6 C :   -0.049015
   7 C :    0.029505
   8 C :    0.037610
   9 C :   -0.037413
  10 S :    0.030527
  11 C :    0.017913
  12 N :   -0.030792
  13 C :   -0.108758
  14 S :    0.143656
  15 C :   -0.012646
  16 N :    0.281228
  17 O :   -0.261138
  18 O :   -0.276478
  19 C :    0.006466
  20 C :    0.127388
  21 C :   -0.043017
  22 C :    0.009409
  23 C :    0.010825
  24 C :   -0.191894
  25 C :    0.097964
  26 C :    0.195460
  27 N :   -0.153541
  28 C :    0.047368
  29 C :   -0.058664
  30 C :   -0.142964
  31 C :   -0.024253
  32 C :    0.122139
  33 O :   -0.191837
  34 O :   -0.175300
  35 C :    0.101567
  36 C :   -0.165968
  37 S :    0.123959
  38 C :   -0.040679
  39 C :   -0.010574
  40 C :    0.034341
  41 C :    0.030120
  42 C :   -0.040405
  43 S :    0.043002
  44 C :   -0.068454
  45 C :    0.031485
  46 C :    0.047943
  47 C :   -0.059180
  48 S :    0.071983
  49 C :   -0.036843
  50 H :    0.019985
  51 H :    0.020527
  52 H :   -0.011182
  53 H :   -0.011274
  54 H :   -0.012613
  55 H :   -0.009991
  56 H :    0.026080
  57 H :    0.147765
  58 H :    0.008258
  59 H :   -0.033870
  60 H :   -0.015736
  61 H :   -0.033591
  62 H :    0.010663
  63 H :    0.026227
  64 H :    0.045871
  65 H :    0.025451
  66 H :    0.007161
  67 H :    0.116339
  68 H :    0.038156
  69 H :   -0.024962
  70 H :    0.187236
  71 H :    0.039600
  72 H :    0.002766
  73 H :   -0.008884
  74 H :   -0.018424
  75 H :   -0.012663
  76 H :   -0.014091
  77 H :    0.016542
  78 H :    0.019071
Sum of atomic charges:    0.0000000

LOEWDIN ATOMIC CHARGES
----------------------
   0 C :   -0.079072
   1 C :   -0.138428
   2 C :   -0.032543
   3 C :   -0.026282
   4 C :   -0.182758
   5 S :    0.341252
   6 C :   -0.175240
   7 C :   -0.038375
   8 C :   -0.029922
   9 C :   -0.182029
  10 S :    0.329478
  11 C :   -0.016498
  12 N :    0.047132
  13 C :   -0.097080
  14 S :    0.447973
  15 C :   -0.216380
  16 N :    0.274537
  17 O :   -0.227430
  18 O :   -0.242876
  19 C :    0.006821
  20 C :   -0.109990
  21 C :   -0.031912
  22 C :   -0.022350
  23 C :   -0.051099
  24 C :   -0.039382
  25 C :   -0.050326
  26 C :    0.045615
  27 N :   -0.002327
  28 C :    0.047905
  29 C :   -0.169826
  30 C :   -0.151473
  31 C :   -0.136189
  32 C :    0.080369
  33 O :   -0.163129
  34 O :   -0.042530
  35 C :   -0.048509
  36 C :   -0.202797
  37 S :    0.440714
  38 C :   -0.052677
  39 C :   -0.142123
  40 C :   -0.023774
  41 C :   -0.040821
  42 C :   -0.177338
  43 S :    0.363537
  44 C :   -0.180341
  45 C :   -0.025486
  46 C :   -0.034917
  47 C :   -0.138354
  48 S :    0.343128
  49 C :   -0.084009
  50 H :    0.028818
  51 H :    0.025848
  52 H :    0.033640
  53 H :    0.032295
  54 H :    0.032652
  55 H :    0.034450
  56 H :    0.030005
  57 H :    0.087080
  58 H :    0.043276
  59 H :    0.020524
  60 H :    0.025027
  61 H :    0.023271
  62 H :    0.029580
  63 H :    0.039201
  64 H :    0.040571
  65 H :    0.033797
  66 H :    0.026401
  67 H :    0.077854
  68 H :    0.033774
  69 H :    0.021200
  70 H :    0.090316
  71 H :    0.009310
  72 H :    0.037774
  73 H :    0.035297
  74 H :    0.029944
  75 H :    0.031885
  76 H :    0.032218
  77 H :    0.027129
  78 H :    0.024994

  Mayer bond orders larger than 0.100000
B(  0-C ,  1-C ) :   1.8692 B(  0-C , 50-H ) :   0.9502 B(  0-C , 51-H ) :   0.9419
B(  1-C ,  2-C ) :   1.0769 B(  1-C ,  5-S ) :   1.0067 B(  2-C ,  3-C ) :   1.6695
B(  2-C , 52-H ) :   0.9927 B(  3-C ,  4-C ) :   1.1469 B(  3-C , 53-H ) :   0.9913
B(  4-C ,  5-S ) :   1.0363 B(  4-C ,  6-C ) :   1.5805 B(  6-C ,  7-C ) :   1.1619
B(  6-C , 10-S ) :   1.0312 B(  7-C ,  8-C ) :   1.6373 B(  7-C , 54-H ) :   0.9914
B(  8-C ,  9-C ) :   1.1363 B(  8-C , 55-H ) :   0.9948 B(  9-C , 10-S ) :   1.0033
B(  9-C , 11-C ) :   1.6377 B( 11-C , 12-N ) :   1.1249 B( 11-C , 56-H ) :   0.9567
B( 12-N , 13-C ) :   1.2483 B( 12-N , 57-H ) :   0.9053 B( 13-C , 14-S ) :   1.1300
B( 13-C , 20-C ) :   1.3405 B( 14-S , 15-C ) :   1.0590 B( 15-C , 16-N ) :   0.9924
B( 15-C , 19-C ) :   1.4796 B( 16-N , 17-O ) :   1.5184 B( 16-N , 18-O ) :   1.4963
B( 17-O , 18-O ) :   0.2499 B( 19-C , 20-C ) :   1.2446 B( 19-C , 58-H ) :   0.9995
B( 20-C , 21-C ) :   1.0393 B( 21-C , 22-C ) :   1.7563 B( 21-C , 59-H ) :   0.9754
B( 22-C , 23-C ) :   1.0933 B( 22-C , 60-H ) :   0.9712 B( 23-C , 24-C ) :   1.7648
B( 23-C , 61-H ) :   0.9738 B( 24-C , 25-C ) :   1.0811 B( 24-C , 26-C ) :   1.0397
B( 25-C , 62-H ) :   0.9494 B( 25-C , 63-H ) :   0.9443 B( 25-C , 64-H ) :   0.9370
B( 26-C , 27-N ) :   1.0091 B( 26-C , 65-H ) :   0.9298 B( 26-C , 66-H ) :   0.9437
B( 27-N , 28-C ) :   1.2395 B( 27-N , 67-H ) :   0.9388 B( 28-C , 29-C ) :   1.6218
B( 28-C , 68-H ) :   0.9567 B( 29-C , 30-C ) :   1.1136 B( 29-C , 69-H ) :   0.9517
B( 30-C , 31-C ) :   1.4991 B( 30-C , 37-S ) :   1.1531 B( 31-C , 32-C ) :   0.9183
B( 31-C , 35-C ) :   1.2160 B( 32-C , 33-O ) :   2.1074 B( 32-C , 34-O ) :   1.2241
B( 34-O , 70-H ) :   0.9452 B( 35-C , 36-C ) :   1.5312 B( 35-C , 38-C ) :   1.1149
B( 36-C , 37-S ) :   1.1304 B( 36-C , 71-H ) :   0.9473 B( 38-C , 39-C ) :   1.6383
B( 38-C , 72-H ) :   0.9514 B( 39-C , 40-C ) :   1.1126 B( 39-C , 43-S ) :   1.0168
B( 40-C , 41-C ) :   1.6286 B( 40-C , 73-H ) :   1.0001 B( 41-C , 42-C ) :   1.1494
B( 41-C , 74-H ) :   0.9926 B( 42-C , 43-S ) :   1.0283 B( 42-C , 44-C ) :   1.5835
B( 44-C , 45-C ) :   1.1451 B( 44-C , 48-S ) :   1.0354 B( 45-C , 46-C ) :   1.6682
B( 45-C , 75-H ) :   0.9913 B( 46-C , 47-C ) :   1.0767 B( 46-C , 76-H ) :   0.9932
B( 47-C , 48-S ) :   1.0084 B( 47-C , 49-C ) :   1.8667 B( 49-C , 77-H ) :   0.9509
B( 49-C , 78-H ) :   0.9418

-----------------------------------------------------------------------------
         ABSORPTION SPECTRUM VIA TRANSITION ELECTRIC DIPOLE MOMENTS
-----------------------------------------------------------------------------
State   Energy  Wavelength   fosc         T2         TX        TY        TZ
        (cm-1)    (nm)                  (au**2)     (au)      (au)      (au)
-----------------------------------------------------------------------------
   0   19071.2    524.3   1.630956738  28.15395  -2.87633  -4.45713   0.12116
   1   21405.3    467.2   1.308376353  20.12276  -2.74431  -2.92561  -2.00806
   2   25153.8    397.6   0.005237335   0.06855   0.04398  -0.07326   0.24748
   3   25172.1    397.3   0.066430545   0.86881   0.36218   0.18478   0.83874
   4   27641.3    361.8   0.039458675   0.46996  -0.05148  -0.30165   0.61345
   5   27881.7    358.7   0.013405620   0.15829   0.10993   0.12027   0.36295
   6   29222.8    342.2   0.235562807   2.65375  -0.98499  -0.21680  -1.27927
   7   29459.2    339.5   0.213439746   2.38523  -0.25798  -0.39251   1.47126
   8   30474.0    328.1   0.059706811   0.64501  -0.61148  -0.44545   0.26959
   9   31109.9    321.4   0.007163106   0.07580  -0.05490   0.04097  -0.26666
  10   31293.2    319.6   0.004691183   0.04935   0.20992   0.07148   0.01326
  11   31529.8    317.2   0.013516997   0.14113   0.05367   0.22061  -0.29931
  12   32461.3    308.1   0.112081651   1.13669  -0.13261  -0.07914   1.05491
  13   32505.3    307.6   0.474595732   4.80669  -0.53286  -0.13875  -2.12215
  14   33744.4    296.3   0.050141798   0.48919   0.06465   0.33357  -0.61134
  15   34303.8    291.5   0.099464545   0.95456  -0.13251  -0.66182  -0.70639
  16   34728.3    287.9   0.000861211   0.00816   0.02987  -0.07697  -0.03671
  17   34741.2    287.8   0.068532654   0.64942   0.31877  -0.57335  -0.46805
  18   34935.3    286.2   0.065825571   0.62031  -0.57197  -0.33147   0.42812
  19   35256.0    283.6   0.001777088   0.01659   0.10256   0.07795  -0.00002
  20   35790.7    279.4   0.148896933   1.36959  -0.17701  -0.35837  -1.09992
  21   36344.3    275.1   0.098652667   0.89361  -0.40085  -0.73706   0.43552
  22   37865.8    264.1   0.069838688   0.60719   0.07016   0.32500   0.70473
  23   38168.3    262.0   0.057445150   0.49548  -0.29481   0.50960   0.38584
  24   38348.0    260.8   0.119213809   1.02343   0.18149   0.62761  -0.77240
  25   38634.6    258.8   0.112989555   0.96280  -0.09849   0.31633  -0.92360
  26   39496.3    253.2   0.000348546   0.00291   0.02877  -0.01029   0.04440
  27   40185.8    248.8   0.002247456   0.01841   0.03609   0.09930   0.08514

FINAL SINGLE POINT ENERGY     -4278.368623255905

DIPOLE MOMENT
-------------
                                X             Y             Z
Electronic contribution:     -8.78744      -7.52921      16.16675
Nuclear contribution   :     10.17559      10.37518     -15.24676
                        -----------------------------------------
Total Dipole Moment    :      1.38814       2.84597       0.91999
                        -----------------------------------------
Magnitude (a.u.)       :      3.29740
Magnitude (Debye)      :      8.38133

Rotational constants in cm-1:     0.002358     0.000318     0.000286
Rotational constants in MHz :    70.697009     9.533308     8.564625

                             ****ORCA TERMINATED NORMALLY****
TOTAL RUN TIME: 0 days 0 hours 4 minutes 44 seconds 650 msec
