                         Program Version 4.2.0 -  RELEASE  -
|  1> # ORCA input file
|  2> # SCF done       -148.130894086164          0.000489461266
|  3> ! CAM-B3LYP def2-SVP def2/J RIJCOSX Grid4 TightSCF
|  4> %maxcore 5000
|  5> %tddft
|  6>     Mode sTDDFT
|  7>     Ethresh 5.0
|  8>     maxcore 5000
|  9> end
| 10>
| 11> %pal
| 12>   nprocs 6
| 13>   end
| 14> * xyz 0 1
| 15>    C       -4.28992        -2.23972         0.01737
| 16>    C       -3.22129        -2.05779         0.80489
| 17>    C       -3.12357        -1.21239         1.96194
| 18>    C       -1.91209        -1.22717         2.55700
| 19>    C       -0.95955        -2.08033         1.92585
| 20>    S       -1.66733        -2.86871         0.53876
| 21>    C        0.34635        -2.29426         2.30196
| 22>    C        1.04508        -1.71297         3.39165
| 23>    C        2.33482        -2.12581         3.49311
| 24>    C        2.72131        -3.05726         2.49150
| 25>    S        1.38647        -3.39411         1.42044
| 26>    C        3.96187        -3.62889         2.33740
| 27>    C        4.25188        -4.55685         1.32815
| 28>    O        3.26439        -4.99061         0.49322
| 29>    C        5.43784        -5.17659         0.94760
| 30>    C        6.85480        -5.30278         1.26227
| 31>    O        7.53588        -4.79544         2.11743
| 32>    N        7.32385        -6.20627         0.30170
| 33>    C        6.36928        -6.67794        -0.59330
| 34>    O        6.58095        -7.46001        -1.48249
| 35>    C        5.13824        -5.99770        -0.16529
| 36>    C        3.78590        -5.86293        -0.41006
| 37>    C        2.93235        -6.46440        -1.36815
| 38>    O        3.49119        -7.13874        -2.40488
| 39>    C        1.55598        -6.52968        -1.48296
| 40>    C        0.28133        -6.17038        -0.85101
| 41>    O        0.02447        -5.59379         0.17469
| 42>    N       -0.67029        -6.69717        -1.72003
| 43>    C       -0.16041        -7.39660        -2.81507
| 44>    O       -0.83240        -7.94201        -3.65589
| 45>    C        1.28395        -7.28559        -2.65113
| 46>    C        2.50968        -7.64719        -3.19996
| 47>    C        2.86798        -8.37410        -4.34971
| 48>    C        1.95401        -8.96813        -5.17809
| 49>    C        2.31506        -9.66436        -6.33511
| 50>    C        1.43155       -10.33010        -7.15635
| 51>    C        1.74931       -11.01418        -8.35366
| 52>    C        0.68134       -11.60746        -8.95783
| 53>    C       -0.53372       -11.43358        -8.26042
| 54>    S       -0.28276       -10.46660        -6.82440
| 55>    C       -1.77443       -11.95305        -8.59032
| 56>    C       -2.11037       -12.74115        -9.71266
| 57>    C       -3.41537       -13.13109        -9.73939
| 58>    C       -4.18019       -12.67660        -8.63814
| 59>    S       -3.17643       -11.71191        -7.57219
| 60>    C       -5.50639       -12.95794        -8.41274
| 61>    C       -6.29488       -12.55865        -7.33329
| 62>    C       -7.64640       -12.91182        -7.14911
| 63>    N       -8.36864       -13.67480        -7.98070
| 64>    C       -9.61091       -13.88857        -7.62061
| 65>    C      -10.16716       -13.35348        -6.43487
| 66>    N       -9.49457       -12.60719        -5.60196
| 67>    C       -8.20656       -12.36795        -5.94189
| 68>    C       -7.29245       -11.61765        -5.23157
| 69>    S       -5.76901       -11.56607        -6.00493
| 70>    H       -5.21403        -1.72526         0.21450
| 71>    H       -4.26038        -2.89813        -0.83128
| 72>    H       -3.96770        -0.63415         2.29369
| 73>    H       -1.65794        -0.65704         3.43285
| 74>    H        0.57983        -1.01243         4.06195
| 75>    H        3.02635        -1.80103         4.25020
| 76>    H        4.76975        -3.36114         2.99971
| 77>    H        8.28914        -6.50060         0.26569
| 78>    H       -1.66111        -6.61504        -1.54390
| 79>    H        3.92727        -8.45181        -4.54907
| 80>    H        0.90156        -8.89805        -4.93357
| 81>    H        3.36075        -9.69038        -6.61420
| 82>    H        2.75630       -11.04479        -8.73081
| 83>    H        0.73921       -12.16803        -9.87339
| 84>    H       -1.38721       -12.99894       -10.46507
| 85>    H       -3.85580       -13.73657       -10.51160
| 86>    H       -6.02068       -13.57215        -9.14099
| 87>    H      -10.20364       -14.50449        -8.28253
| 88>    H      -11.19796       -13.55310        -6.17433
| 89>    H       -7.44648       -11.10437        -4.30451
| 90> *
| 91>
| 92>                          ****END OF INPUT****

CARTESIAN COORDINATES (ANGSTROEM)
---------------------------------
  C     -4.289920   -2.239720    0.017370
  C     -3.221290   -2.057790    0.804890
  C     -3.123570   -1.212390    1.961940
  C     -1.912090   -1.227170    2.557000
  C     -0.959550   -2.080330    1.925850
  S     -1.667330   -2.868710    0.538760
  C      0.346350   -2.294260    2.301960
  C      1.045080   -1.712970    3.391650
  C      2.334820   -2.125810    3.493110
  C      2.721310   -3.057260    2.491500
  S      1.386470   -3.394110    1.420440
  C      3.961870   -3.628890    2.337400
  C      4.251880   -4.556850    1.328150
  O      3.264390   -4.990610    0.493220
  C      5.437840   -5.176590    0.947600
  C      6.854800   -5.302780    1.262270
  O      7.535880   -4.795440    2.117430
  N      7.323850   -6.206270    0.301700
  C      6.369280   -6.677940   -0.593300
  O      6.580950   -7.460010   -1.482490
  C      5.138240   -5.997700   -0.165290
  C      3.785900   -5.862930   -0.410060
  C      2.932350   -6.464400   -1.368150
  O      3.491190   -7.138740   -2.404880
  C      1.555980   -6.529680   -1.482960
  C      0.281330   -6.170380   -0.851010
  O      0.024470   -5.593790    0.174690
  N     -0.670290   -6.697170   -1.720030
  C     -0.160410   -7.396600   -2.815070
  O     -0.832400   -7.942010   -3.655890
  C      1.283950   -7.285590   -2.651130
  C      2.509680   -7.647190   -3.199960
  C      2.867980   -8.374100   -4.349710
  C      1.954010   -8.968130   -5.178090
  C      2.315060   -9.664360   -6.335110
  C      1.431550  -10.330100   -7.156350
  C      1.749310  -11.014180   -8.353660
  C      0.681340  -11.607460   -8.957830
  C     -0.533720  -11.433580   -8.260420
  S     -0.282760  -10.466600   -6.824400
  C     -1.774430  -11.953050   -8.590320
  C     -2.110370  -12.741150   -9.712660
  C     -3.415370  -13.131090   -9.739390
  C     -4.180190  -12.676600   -8.638140
  S     -3.176430  -11.711910   -7.572190
  C     -5.506390  -12.957940   -8.412740
  C     -6.294880  -12.558650   -7.333290
  C     -7.646400  -12.911820   -7.149110
  N     -8.368640  -13.674800   -7.980700
  C     -9.610910  -13.888570   -7.620610
  C    -10.167160  -13.353480   -6.434870
  N     -9.494570  -12.607190   -5.601960
  C     -8.206560  -12.367950   -5.941890
  C     -7.292450  -11.617650   -5.231570
  S     -5.769010  -11.566070   -6.004930
  H     -5.214030   -1.725260    0.214500
  H     -4.260380   -2.898130   -0.831280
  H     -3.967700   -0.634150    2.293690
  H     -1.657940   -0.657040    3.432850
  H      0.579830   -1.012430    4.061950
  H      3.026350   -1.801030    4.250200
  H      4.769750   -3.361140    2.999710
  H      8.289140   -6.500600    0.265690
  H     -1.661110   -6.615040   -1.543900
  H      3.927270   -8.451810   -4.549070
  H      0.901560   -8.898050   -4.933570
  H      3.360750   -9.690380   -6.614200
  H      2.756300  -11.044790   -8.730810
  H      0.739210  -12.168030   -9.873390
  H     -1.387210  -12.998940  -10.465070
  H     -3.855800  -13.736570  -10.511600
  H     -6.020680  -13.572150   -9.140990
  H    -10.203640  -14.504490   -8.282530
  H    -11.197960  -13.553100   -6.174330
  H     -7.446480  -11.104370   -4.304510

 Total Charge           Charge          ....    0
 Multiplicity           Mult            ....    1
 Number of Electrons    NEL             ....  416
 Basis Dimension        Dim             ....  890

ORBITAL ENERGIES
----------------

  NO   OCC          E(Eh)            E(eV)
   0   2.0000     -88.973449     -2421.0906
   1   2.0000     -88.949270     -2420.4327
   2   2.0000     -88.944765     -2420.3101
   3   2.0000     -88.939267     -2420.1605
   4   2.0000     -88.935953     -2420.0703
   5   2.0000     -19.303458      -525.2738
   6   2.0000     -19.300587      -525.1957
   7   2.0000     -19.202038      -522.5140
   8   2.0000     -19.199732      -522.4513
   9   2.0000     -19.196941      -522.3753
  10   2.0000     -19.195258      -522.3295
  11   2.0000     -14.444299      -393.0493
  12   2.0000     -14.439900      -392.9297
  13   2.0000     -14.421667      -392.4335
  14   2.0000     -14.416671      -392.2976
  15   2.0000     -10.390373      -282.7364
  16   2.0000     -10.389613      -282.7157
  17   2.0000     -10.387525      -282.6589
  18   2.0000     -10.384933      -282.5884
  19   2.0000     -10.358122      -281.8588
  20   2.0000     -10.355940      -281.7994
  21   2.0000     -10.353004      -281.7196
  22   2.0000     -10.352643      -281.7097
  23   2.0000     -10.314939      -280.6837
  24   2.0000     -10.314289      -280.6661
  25   2.0000     -10.311345      -280.5860
  26   2.0000     -10.311099      -280.5793
  27   2.0000     -10.311097      -280.5792
  28   2.0000     -10.311068      -280.5784
  29   2.0000     -10.310166      -280.5539
  30   2.0000     -10.308086      -280.4973
  31   2.0000     -10.307910      -280.4925
  32   2.0000     -10.306409      -280.4517
  33   2.0000     -10.305759      -280.4340
  34   2.0000     -10.305466      -280.4260
  35   2.0000     -10.301665      -280.3226
  36   2.0000     -10.294206      -280.1196
  37   2.0000     -10.291561      -280.0476
  38   2.0000     -10.290485      -280.0183
  39   2.0000     -10.288998      -279.9779
  40   2.0000     -10.288896      -279.9751
  41   2.0000     -10.287273      -279.9309
  42   2.0000     -10.286825      -279.9187
  43   2.0000     -10.286729      -279.9161
  44   2.0000     -10.286042      -279.8974
  45   2.0000     -10.285833      -279.8917
  46   2.0000     -10.284575      -279.8575
  47   2.0000     -10.281149      -279.7643
  48   2.0000     -10.280762      -279.7537
  49   2.0000     -10.277622      -279.6683
  50   2.0000     -10.277164      -279.6559
  51   2.0000     -10.276540      -279.6389
  52   2.0000     -10.275820      -279.6193
  53   2.0000     -10.275135      -279.6006
  54   2.0000     -10.275101      -279.5997
  55   2.0000      -8.068056      -219.5430
  56   2.0000      -8.045324      -218.9244
  57   2.0000      -8.040978      -218.8061
  58   2.0000      -8.035936      -218.6689
  59   2.0000      -8.031714      -218.5540
  60   2.0000      -6.036927      -164.2731
  61   2.0000      -6.032675      -164.1574
  62   2.0000      -6.031273      -164.1193
  63   2.0000      -6.015043      -163.6777
  64   2.0000      -6.010931      -163.5657
  65   2.0000      -6.010668      -163.5586
  66   2.0000      -6.006656      -163.4494
  67   2.0000      -6.006354      -163.4412
  68   2.0000      -6.005715      -163.4238
  69   2.0000      -6.001904      -163.3201
  70   2.0000      -6.001728      -163.3153
  71   2.0000      -6.001497      -163.3090
  72   2.0000      -5.997115      -163.1898
  73   2.0000      -5.996503      -163.1731
  74   2.0000      -5.992565      -163.0660
  75   2.0000      -1.222520       -33.2665
  76   2.0000      -1.215549       -33.0768
  77   2.0000      -1.145405       -31.1680
  78   2.0000      -1.140783       -31.0423
  79   2.0000      -1.124690       -30.6044
  80   2.0000      -1.119831       -30.4721
  81   2.0000      -1.072720       -29.1902
  82   2.0000      -1.032260       -28.0892
  83   2.0000      -1.028173       -27.9780
  84   2.0000      -0.998258       -27.1640
  85   2.0000      -0.996026       -27.1032
  86   2.0000      -0.992444       -27.0058
  87   2.0000      -0.980341       -26.6764
  88   2.0000      -0.970414       -26.4063
  89   2.0000      -0.969844       -26.3908
  90   2.0000      -0.926438       -25.2097
  91   2.0000      -0.917617       -24.9696
  92   2.0000      -0.911153       -24.7937
  93   2.0000      -0.904410       -24.6103
  94   2.0000      -0.892071       -24.2745
  95   2.0000      -0.880705       -23.9652
  96   2.0000      -0.867794       -23.6139
  97   2.0000      -0.853137       -23.2150
  98   2.0000      -0.846360       -23.0306
  99   2.0000      -0.845448       -23.0058
 100   2.0000      -0.842015       -22.9124
 101   2.0000      -0.826920       -22.5016
 102   2.0000      -0.823548       -22.4099
 103   2.0000      -0.817645       -22.2492
 104   2.0000      -0.806760       -21.9531
 105   2.0000      -0.786629       -21.4053
 106   2.0000      -0.773145       -21.0383
 107   2.0000      -0.760687       -20.6994
 108   2.0000      -0.759311       -20.6619
 109   2.0000      -0.752679       -20.4814
 110   2.0000      -0.749104       -20.3842
 111   2.0000      -0.747979       -20.3535
 112   2.0000      -0.736716       -20.0471
 113   2.0000      -0.722316       -19.6552
 114   2.0000      -0.704893       -19.1811
 115   2.0000      -0.696273       -18.9466
 116   2.0000      -0.692778       -18.8514
 117   2.0000      -0.683988       -18.6122
 118   2.0000      -0.679514       -18.4905
 119   2.0000      -0.669561       -18.2197
 120   2.0000      -0.662241       -18.0205
 121   2.0000      -0.646234       -17.5849
 122   2.0000      -0.633581       -17.2406
 123   2.0000      -0.631959       -17.1965
 124   2.0000      -0.622448       -16.9377
 125   2.0000      -0.619071       -16.8458
 126   2.0000      -0.614850       -16.7309
 127   2.0000      -0.613637       -16.6979
 128   2.0000      -0.608405       -16.5555
 129   2.0000      -0.599554       -16.3147
 130   2.0000      -0.594753       -16.1841
 131   2.0000      -0.587455       -15.9854
 132   2.0000      -0.585650       -15.9363
 133   2.0000      -0.584888       -15.9156
 134   2.0000      -0.581896       -15.8342
 135   2.0000      -0.578485       -15.7414
 136   2.0000      -0.573098       -15.5948
 137   2.0000      -0.567960       -15.4550
 138   2.0000      -0.567190       -15.4340
 139   2.0000      -0.564694       -15.3661
 140   2.0000      -0.550788       -14.9877
 141   2.0000      -0.549621       -14.9559
 142   2.0000      -0.543511       -14.7897
 143   2.0000      -0.538938       -14.6652
 144   2.0000      -0.534872       -14.5546
 145   2.0000      -0.531314       -14.4578
 146   2.0000      -0.530052       -14.4234
 147   2.0000      -0.526050       -14.3145
 148   2.0000      -0.524287       -14.2666
 149   2.0000      -0.517869       -14.0919
 150   2.0000      -0.514117       -13.9898
 151   2.0000      -0.510442       -13.8898
 152   2.0000      -0.508592       -13.8395
 153   2.0000      -0.503264       -13.6945
 154   2.0000      -0.502601       -13.6765
 155   2.0000      -0.499164       -13.5830
 156   2.0000      -0.498331       -13.5603
 157   2.0000      -0.493858       -13.4386
 158   2.0000      -0.492982       -13.4147
 159   2.0000      -0.491115       -13.3639
 160   2.0000      -0.489851       -13.3295
 161   2.0000      -0.486921       -13.2498
 162   2.0000      -0.483486       -13.1563
 163   2.0000      -0.477112       -12.9829
 164   2.0000      -0.473895       -12.8953
 165   2.0000      -0.471742       -12.8367
 166   2.0000      -0.471033       -12.8175
 167   2.0000      -0.469396       -12.7729
 168   2.0000      -0.468258       -12.7419
 169   2.0000      -0.464708       -12.6453
 170   2.0000      -0.460338       -12.5264
 171   2.0000      -0.459386       -12.5005
 172   2.0000      -0.451987       -12.2992
 173   2.0000      -0.449859       -12.2413
 174   2.0000      -0.444001       -12.0819
 175   2.0000      -0.439683       -11.9644
 176   2.0000      -0.428561       -11.6617
 177   2.0000      -0.426762       -11.6128
 178   2.0000      -0.421460       -11.4685
 179   2.0000      -0.415932       -11.3181
 180   2.0000      -0.415006       -11.2929
 181   2.0000      -0.413112       -11.2413
 182   2.0000      -0.400443       -10.8966
 183   2.0000      -0.394533       -10.7358
 184   2.0000      -0.391669       -10.6579
 185   2.0000      -0.385757       -10.4970
 186   2.0000      -0.383801       -10.4438
 187   2.0000      -0.371632       -10.1126
 188   2.0000      -0.367832       -10.0092
 189   2.0000      -0.359729        -9.7887
 190   2.0000      -0.358575        -9.7573
 191   2.0000      -0.355647        -9.6776
 192   2.0000      -0.350811        -9.5460
 193   2.0000      -0.348212        -9.4753
 194   2.0000      -0.340592        -9.2680
 195   2.0000      -0.338655        -9.2153
 196   2.0000      -0.336065        -9.1448
 197   2.0000      -0.335302        -9.1240
 198   2.0000      -0.330927        -9.0050
 199   2.0000      -0.327683        -8.9167
 200   2.0000      -0.320621        -8.7245
 201   2.0000      -0.317390        -8.6366
 202   2.0000      -0.315959        -8.5977
 203   2.0000      -0.306777        -8.3478
 204   2.0000      -0.284511        -7.7419
 205   2.0000      -0.259499        -7.0613
 206   2.0000      -0.220903        -6.0111
 207   2.0000      -0.203879        -5.5478
 208   0.0000      -0.092874        -2.5272
 209   0.0000      -0.074203        -2.0192
 210   0.0000      -0.048885        -1.3302
 211   0.0000      -0.043318        -1.1787
 212   0.0000      -0.017074        -0.4646

MULLIKEN ATOMIC CHARGES
-----------------------
   0 C :   -0.023059
   1 C :   -0.069884
   2 C :    0.058825
   3 C :    0.027961
   4 C :   -0.062309
   5 S :    0.115515
   6 C :   -0.054256
   7 C :    0.036663
   8 C :    0.024561
   9 C :   -0.000910
  10 S :    0.150414
  11 C :   -0.068158
  12 C :    0.115639
  13 O :   -0.229371
  14 C :   -0.045250
  15 C :    0.156552
  16 O :   -0.151210
  17 N :   -0.172060
  18 C :    0.156406
  19 O :   -0.138418
  20 C :   -0.045170
  21 C :    0.079728
  22 C :    0.072671
  23 O :   -0.190127
  24 C :   -0.038439
  25 C :    0.161347
  26 O :   -0.142662
  27 N :   -0.163942
  28 C :    0.181015
  29 O :   -0.160110
  30 C :   -0.094575
  31 C :    0.161297
  32 C :   -0.038285
  33 C :    0.005100
  34 C :   -0.023022
  35 C :   -0.009676
  36 C :    0.032372
  37 C :    0.029215
  38 C :   -0.050085
  39 S :    0.105016
  40 C :   -0.033584
  41 C :    0.022411
  42 C :    0.040356
  43 C :   -0.032525
  44 S :    0.077265
  45 C :   -0.017595
  46 C :   -0.149006
  47 C :    0.015438
  48 N :   -0.014075
  49 C :    0.015986
  50 C :    0.017377
  51 N :   -0.013811
  52 C :    0.059792
  53 C :   -0.139083
  54 S :    0.166409
  55 H :    0.023005
  56 H :    0.022931
  57 H :   -0.008918
  58 H :   -0.009906
  59 H :   -0.013375
  60 H :   -0.009995
  61 H :    0.002089
  62 H :    0.134479
  63 H :    0.133053
  64 H :   -0.002785
  65 H :    0.029610
  66 H :   -0.013044
  67 H :   -0.010672
  68 H :   -0.011151
  69 H :   -0.013431
  70 H :   -0.008002
  71 H :    0.003556
  72 H :    0.009146
  73 H :    0.010247
  74 H :    0.018487
Sum of atomic charges:   -0.0000000

LOEWDIN ATOMIC CHARGES
----------------------
   0 C :   -0.066502
   1 C :   -0.142136
   2 C :   -0.022619
   3 C :   -0.027626
   4 C :   -0.160239
   5 S :    0.381669
   6 C :   -0.194063
   7 C :   -0.017956
   8 C :   -0.042403
   9 C :   -0.121564
  10 S :    0.438582
  11 C :   -0.101502
  12 C :    0.079432
  13 O :    0.010436
  14 C :   -0.113970
  15 C :    0.082978
  16 O :   -0.169210
  17 N :   -0.010505
  18 C :    0.082351
  19 O :   -0.158262
  20 C :   -0.079504
  21 C :    0.036475
  22 C :    0.044690
  23 O :    0.027714
  24 C :   -0.089052
  25 C :    0.085101
  26 O :   -0.163987
  27 N :   -0.005980
  28 C :    0.085370
  29 O :   -0.168977
  30 C :   -0.112103
  31 C :    0.078731
  32 C :   -0.056081
  33 C :    0.009063
  34 C :   -0.065459
  35 C :   -0.131549
  36 C :   -0.036994
  37 C :   -0.024458
  38 C :   -0.181076
  39 S :    0.395425
  40 C :   -0.169927
  41 C :   -0.040865
  42 C :   -0.024212
  43 C :   -0.157906
  44 S :    0.375367
  45 C :   -0.052601
  46 C :   -0.191327
  47 C :   -0.050865
  48 N :   -0.039846
  49 C :   -0.005527
  50 C :   -0.000667
  51 N :   -0.042477
  52 C :   -0.057075
  53 C :   -0.199421
  54 S :    0.501181
  55 H :    0.029996
  56 H :    0.026795
  57 H :    0.034476
  58 H :    0.032994
  59 H :    0.031097
  60 H :    0.033804
  61 H :    0.047157
  62 H :    0.092020
  63 H :    0.091639
  64 H :    0.040091
  65 H :    0.029285
  66 H :    0.033225
  67 H :    0.034197
  68 H :    0.032643
  69 H :    0.031902
  70 H :    0.035601
  71 H :    0.046075
  72 H :    0.024562
  73 H :    0.025114
  74 H :    0.029259

  Mayer bond orders larger than 0.100000
B(  0-C ,  1-C ) :   1.8648 B(  0-C , 55-H ) :   0.9509 B(  0-C , 56-H ) :   0.9418
B(  1-C ,  2-C ) :   1.0753 B(  1-C ,  5-S ) :   1.0051 B(  2-C ,  3-C ) :   1.6657
B(  2-C , 57-H ) :   0.9932 B(  3-C ,  4-C ) :   1.1457 B(  3-C , 58-H ) :   0.9925
B(  4-C ,  5-S ) :   1.0738 B(  4-C ,  6-C ) :   1.5446 B(  6-C ,  7-C ) :   1.1720
B(  6-C , 10-S ) :   1.0288 B(  7-C ,  8-C ) :   1.6005 B(  7-C , 59-H ) :   0.9943
B(  8-C ,  9-C ) :   1.1339 B(  8-C , 60-H ) :   1.0020 B(  9-C , 10-S ) :   1.0907
B(  9-C , 11-C ) :   1.5027 B( 11-C , 12-C ) :   1.2420 B( 11-C , 61-H ) :   0.9656
B( 12-C , 13-O ) :   1.1128 B( 12-C , 14-C ) :   1.3427 B( 13-O , 21-C ) :   1.1695
B( 14-C , 15-C ) :   0.8974 B( 14-C , 20-C ) :   1.2806 B( 15-C , 16-O ) :   2.2629
B( 15-C , 17-N ) :   1.0622 B( 17-N , 18-C ) :   1.0874 B( 17-N , 62-H ) :   0.9149
B( 18-C , 19-O ) :   2.2837 B( 18-C , 20-C ) :   0.8550 B( 20-C , 21-C ) :   1.4224
B( 21-C , 22-C ) :   1.0984 B( 22-C , 23-O ) :   1.1977 B( 22-C , 24-C ) :   1.4050
B( 23-O , 31-C ) :   1.1307 B( 24-C , 25-C ) :   0.8694 B( 24-C , 30-C ) :   1.2637
B( 25-C , 26-O ) :   2.2220 B( 25-C , 27-N ) :   1.0866 B( 27-N , 28-C ) :   1.0874
B( 27-N , 63-H ) :   0.9163 B( 28-C , 29-O ) :   2.1708 B( 28-C , 30-C ) :   0.8989
B( 30-C , 31-C ) :   1.3796 B( 31-C , 32-C ) :   1.1896 B( 32-C , 33-C ) :   1.5524
B( 32-C , 64-H ) :   0.9733 B( 33-C , 34-C ) :   1.1935 B( 33-C , 65-H ) :   0.9546
B( 34-C , 35-C ) :   1.5155 B( 34-C , 66-H ) :   0.9848 B( 35-C , 36-C ) :   1.1553
B( 35-C , 39-S ) :   1.0556 B( 36-C , 37-C ) :   1.5697 B( 36-C , 67-H ) :   1.0005
B( 37-C , 38-C ) :   1.2019 B( 37-C , 68-H ) :   0.9942 B( 38-C , 39-S ) :   1.0468
B( 38-C , 40-C ) :   1.4886 B( 40-C , 41-C ) :   1.1960 B( 40-C , 44-S ) :   1.0528
B( 41-C , 42-C ) :   1.5764 B( 41-C , 69-H ) :   0.9926 B( 42-C , 43-C ) :   1.1571
B( 42-C , 70-H ) :   1.0008 B( 43-C , 44-S ) :   1.0342 B( 43-C , 45-C ) :   1.5152
B( 45-C , 46-C ) :   1.2475 B( 45-C , 71-H ) :   0.9679 B( 46-C , 47-C ) :   1.2812
B( 46-C , 53-C ) :   0.1150 B( 46-C , 54-S ) :   1.1602 B( 47-C , 48-N ) :   1.4529
B( 47-C , 52-C ) :   1.2033 B( 48-N , 49-C ) :   1.6760 B( 49-C , 50-C ) :   1.1896
B( 49-C , 72-H ) :   0.9745 B( 50-C , 51-N ) :   1.7177 B( 50-C , 73-H ) :   0.9735
B( 51-N , 52-C ) :   1.3713 B( 52-C , 53-C ) :   1.3867 B( 53-C , 54-S ) :   1.1925
B( 53-C , 74-H ) :   0.9782

-----------------------------------------------------------------------------
         ABSORPTION SPECTRUM VIA TRANSITION ELECTRIC DIPOLE MOMENTS
-----------------------------------------------------------------------------
State   Energy  Wavelength   fosc         T2         TX        TY        TZ
        (cm-1)    (nm)                  (au**2)     (au)      (au)      (au)
-----------------------------------------------------------------------------
   0   11362.4    880.1   1.068964205  30.97199  -3.86685  -3.20279  -2.40033
   1   16005.0    624.8   0.938698903  19.30838  -4.00581   1.48371   1.02980
   2   17388.0    575.1   0.016485009   0.31212  -0.47323  -0.21261   0.20727
   3   19298.2    518.2   0.156244109   2.66539  -0.43400  -0.41564  -1.51799
   4   19745.7    506.4   0.047685171   0.79504  -0.75369   0.33879  -0.33499
   5   21253.4    470.5   0.607115272   9.40411  -2.97324   0.30154  -0.68775
   6   23334.9    428.5   0.507321672   7.15735   0.18868  -1.17463  -2.39625
   7   23736.7    421.3   0.018035826   0.25015   0.24490   0.07363   0.42982
   8   25843.8    386.9   0.315978416   4.02510  -1.31965   0.44169   1.44517
   9   27352.0    365.6   0.108626331   1.30744  -1.13672   0.10333   0.06810
  10   27518.4    363.4   0.064664547   0.77360   0.56202   0.25161   0.62803
  11   28694.1    348.5   0.002320943   0.02663  -0.03865   0.13163  -0.08837
  12   28945.9    345.5   0.040115141   0.45624  -0.55496   0.07544   0.37759
  13   29892.8    334.5   0.202841446   2.23391  -0.98402  -0.48203  -1.01649
  14   30917.5    323.4   0.042560386   0.45319   0.55739   0.27896   0.25432
  15   31125.1    321.3   0.061676056   0.65235   0.46017   0.30225   0.59096
  16   32103.5    311.5   0.040497864   0.41529  -0.62604   0.10756   0.10862
  17   32232.7    310.2   0.040843446   0.41716   0.62137  -0.02766  -0.17406
  18   32377.1    308.9   0.056225103   0.57170  -0.73747   0.07404  -0.14954
  19   33082.3    302.3   0.115202605   1.14642   1.06557  -0.05951  -0.08618
  20   33833.2    295.6   0.058208929   0.56640   0.00432  -0.36866  -0.65610
  21   34089.4    293.3   0.041542343   0.40119  -0.08716  -0.45846  -0.42826
  22   34578.7    289.2   0.013811502   0.13149  -0.07437  -0.15362  -0.31995
  23   34887.3    286.6   0.069605639   0.65683  -0.18235   0.47524   0.63066
  24   35481.5    281.8   0.005323547   0.04939  -0.14209  -0.00323   0.17086
  25   35594.0    280.9   0.001496308   0.01384  -0.05892  -0.08088  -0.06186
  26   36004.0    277.7   0.149935662   1.37098   1.07157   0.44657   0.15260
  27   36254.0    275.8   0.005132167   0.04660  -0.17264   0.06334   0.11308
  28   37026.5    270.1   0.054175148   0.48169   0.35932   0.32930   0.49410
  29   37544.3    266.4   0.170566596   1.49564   1.19303  -0.26680   0.03365
  30   37644.6    265.6   0.044479464   0.38898   0.52911   0.02547   0.32920
  31   37961.3    263.4   0.003351640   0.02907  -0.07619   0.07657  -0.13190
  32   38009.3    263.1   0.002447660   0.02120  -0.12583   0.04352   0.05893
  33   38872.1    257.3   0.009146517   0.07746   0.23110  -0.12100  -0.09702
  34   39759.3    251.5   0.014908747   0.12345  -0.35134  -0.00006  -0.00303
  35   39908.2    250.6   0.054183293   0.44697   0.37084  -0.33650  -0.44296

FINAL SINGLE POINT ENERGY     -4194.213856248103

DIPOLE MOMENT
-------------
                                X             Y             Z
Electronic contribution:     15.56260       0.13980       7.34851
Nuclear contribution   :    -17.19523       0.10956      -8.22576
                        -----------------------------------------
Total Dipole Moment    :     -1.63263       0.24936      -0.87725
                        -----------------------------------------
Magnitude (a.u.)       :      1.87009
Magnitude (Debye)      :      4.75339

Rotational constants in cm-1:     0.001788     0.000507     0.000407
Rotational constants in MHz :    53.601703    15.202552    12.192051

                             ****ORCA TERMINATED NORMALLY****
TOTAL RUN TIME: 0 days 0 hours 5 minutes 33 seconds 653 msec
