                         Program Version 4.2.0 -  RELEASE  -
|  1> # ORCA input file
|  2> # SCF done       -164.190552801204          0.000829803462
|  3> ! CAM-B3LYP def2-SVP def2/J RIJCOSX Grid4 TightSCF
|  4> %maxcore 5000
|  5> %tddft
|  6>     Mode sTDDFT
|  7>     Ethresh 5.0
|  8>     maxcore 5000
|  9> end
| 10>
| 11> %pal
| 12>   nprocs 6
| 13>   end
| 14> * xyz 0 1
| 15>    C       -5.61180         0.34540         1.26221
| 16>    C       -5.90464        -0.80651         1.94065
| 17>    C       -5.13333        -1.95710         1.76189
| 18>    C       -4.04802        -1.99725         0.90285
| 19>    C       -3.71958        -0.80195         0.18978
| 20>    N       -2.66597        -0.76101        -0.64659
| 21>    C       -2.41241         0.35689        -1.27209
| 22>    C       -3.20823         1.50432        -1.09106
| 23>    N       -4.23184         1.50702        -0.28253
| 24>    C       -4.51552         0.36502         0.37941
| 25>    C       -3.28538        -3.20878         0.74312
| 26>    C       -2.27607        -3.48521        -0.15266
| 27>    C       -1.77905        -4.78370        -0.01228
| 28>    C       -2.41800        -5.50581         1.00934
| 29>    S       -3.62632        -4.59178         1.78757
| 30>    C       -1.85088        -6.80403         1.06751
| 31>    C       -0.85643        -6.90346         0.08129
| 32>    C       -0.77658        -5.63217        -0.62771
| 33>    C        0.06759        -5.31331        -1.65142
| 34>    C        1.00574        -6.23441        -2.16170
| 35>    N        1.76817        -6.98359        -2.57821
| 36>    C        0.06533        -4.04538        -2.26995
| 37>    N        0.08041        -3.02121        -2.78575
| 38>    C       -0.24186        -8.15356         0.05184
| 39>    C       -0.75534        -9.01032         1.01043
| 40>    S       -2.02461        -8.24568         1.96449
| 41>    C       -0.37994       -10.36029         1.26509
| 42>    C       -0.92812       -11.10347         2.28262
| 43>    C       -0.61082       -12.42956         2.56479
| 44>    C        0.36333       -13.16322         1.75295
| 45>    C        1.03542       -12.62921         0.71034
| 46>    S        0.83835       -11.01184         0.17249
| 47>    C        0.41019       -14.46738         2.31671
| 48>    C       -0.46078       -14.55340         3.40591
| 49>    C       -0.43836       -15.84359         3.98366
| 50>    C        0.42240       -16.67287         3.33736
| 51>    S        1.24369       -15.93626         2.00574
| 52>    C       -1.10687       -13.27448         3.58030
| 53>    C       -2.03573       -12.86798         4.56080
| 54>    C       -2.52991       -13.62448         5.57842
| 55>    C       -3.43270       -13.14115         6.55337
| 56>    C       -3.97909       -11.87134         6.69552
| 57>    C       -4.81276       -11.77667         7.80346
| 58>    C       -4.91717       -12.97868         8.52427
| 59>    S       -3.98105       -14.22737         7.82542
| 60>    C       -5.77340       -12.76513         9.63123
| 61>    C       -6.21054       -11.42809         9.61279
| 62>    C       -5.62745       -10.76330         8.46689
| 63>    C       -5.79347        -9.46439         8.07909
| 64>    C       -6.60321        -8.55661         8.79274
| 65>    N       -7.25780        -7.80227         9.35667
| 66>    C       -5.16366        -8.93982         6.93233
| 67>    N       -4.65034        -8.51584         5.99763
| 68>    C       -7.05757       -11.11759        10.68060
| 69>    C       -7.27573       -12.19229        11.51248
| 70>    S       -6.40893       -13.63096        10.95358
| 71>    C       -8.07466       -12.27100        12.70694
| 72>    C       -8.24661       -13.47988        13.36104
| 73>    C       -9.01248       -13.60155        14.52208
| 74>    C       -9.63375       -12.51154        15.06919
| 75>    C       -9.49187       -11.25576        14.44966
| 76>    N      -10.10553       -10.18539        14.99838
| 77>    C       -9.95744        -9.03040        14.41030
| 78>    C       -9.18259        -8.88914        13.24342
| 79>    N       -8.57966        -9.90777        12.69154
| 80>    C       -8.71221       -11.11813        13.26436
| 81>    H       -6.19150         1.24702         1.37760
| 82>    H       -6.74053        -0.83905         2.62346
| 83>    H       -5.39886        -2.84884         2.31219
| 84>    H       -1.55793         0.35310        -1.93495
| 85>    H       -2.99682         2.42741        -1.61378
| 86>    H       -1.93316        -2.75746        -0.86406
| 87>    H        0.54166        -8.43875        -0.62689
| 88>    H       -1.66377       -10.60352         2.89904
| 89>    H        1.75527       -13.18817         0.13364
| 90>    H       -1.01889       -16.16526         4.82833
| 91>    H        0.63479       -17.69982         3.56223
| 92>    H       -2.36826       -11.84196         4.48876
| 93>    H       -2.22710       -14.65436         5.68289
| 94>    H       -3.77028       -11.06119         6.02225
| 95>    H       -7.50256       -10.15785        10.86599
| 96>    H       -7.77344       -14.36435        12.95798
| 97>    H       -9.10981       -14.57253        14.98431
| 98>    H      -10.23235       -12.57627        15.96340
| 99>    H      -10.45663        -8.18438        14.86341
|100>    H       -9.05339        -7.93257        12.75550
|101> *
|102>
|103>                          ****END OF INPUT****

CARTESIAN COORDINATES (ANGSTROEM)
---------------------------------
  C     -5.611800    0.345400    1.262210
  C     -5.904640   -0.806510    1.940650
  C     -5.133330   -1.957100    1.761890
  C     -4.048020   -1.997250    0.902850
  C     -3.719580   -0.801950    0.189780
  N     -2.665970   -0.761010   -0.646590
  C     -2.412410    0.356890   -1.272090
  C     -3.208230    1.504320   -1.091060
  N     -4.231840    1.507020   -0.282530
  C     -4.515520    0.365020    0.379410
  C     -3.285380   -3.208780    0.743120
  C     -2.276070   -3.485210   -0.152660
  C     -1.779050   -4.783700   -0.012280
  C     -2.418000   -5.505810    1.009340
  S     -3.626320   -4.591780    1.787570
  C     -1.850880   -6.804030    1.067510
  C     -0.856430   -6.903460    0.081290
  C     -0.776580   -5.632170   -0.627710
  C      0.067590   -5.313310   -1.651420
  C      1.005740   -6.234410   -2.161700
  N      1.768170   -6.983590   -2.578210
  C      0.065330   -4.045380   -2.269950
  N      0.080410   -3.021210   -2.785750
  C     -0.241860   -8.153560    0.051840
  C     -0.755340   -9.010320    1.010430
  S     -2.024610   -8.245680    1.964490
  C     -0.379940  -10.360290    1.265090
  C     -0.928120  -11.103470    2.282620
  C     -0.610820  -12.429560    2.564790
  C      0.363330  -13.163220    1.752950
  C      1.035420  -12.629210    0.710340
  S      0.838350  -11.011840    0.172490
  C      0.410190  -14.467380    2.316710
  C     -0.460780  -14.553400    3.405910
  C     -0.438360  -15.843590    3.983660
  C      0.422400  -16.672870    3.337360
  S      1.243690  -15.936260    2.005740
  C     -1.106870  -13.274480    3.580300
  C     -2.035730  -12.867980    4.560800
  C     -2.529910  -13.624480    5.578420
  C     -3.432700  -13.141150    6.553370
  C     -3.979090  -11.871340    6.695520
  C     -4.812760  -11.776670    7.803460
  C     -4.917170  -12.978680    8.524270
  S     -3.981050  -14.227370    7.825420
  C     -5.773400  -12.765130    9.631230
  C     -6.210540  -11.428090    9.612790
  C     -5.627450  -10.763300    8.466890
  C     -5.793470   -9.464390    8.079090
  C     -6.603210   -8.556610    8.792740
  N     -7.257800   -7.802270    9.356670
  C     -5.163660   -8.939820    6.932330
  N     -4.650340   -8.515840    5.997630
  C     -7.057570  -11.117590   10.680600
  C     -7.275730  -12.192290   11.512480
  S     -6.408930  -13.630960   10.953580
  C     -8.074660  -12.271000   12.706940
  C     -8.246610  -13.479880   13.361040
  C     -9.012480  -13.601550   14.522080
  C     -9.633750  -12.511540   15.069190
  C     -9.491870  -11.255760   14.449660
  N    -10.105530  -10.185390   14.998380
  C     -9.957440   -9.030400   14.410300
  C     -9.182590   -8.889140   13.243420
  N     -8.579660   -9.907770   12.691540
  C     -8.712210  -11.118130   13.264360
  H     -6.191500    1.247020    1.377600
  H     -6.740530   -0.839050    2.623460
  H     -5.398860   -2.848840    2.312190
  H     -1.557930    0.353100   -1.934950
  H     -2.996820    2.427410   -1.613780
  H     -1.933160   -2.757460   -0.864060
  H      0.541660   -8.438750   -0.626890
  H     -1.663770  -10.603520    2.899040
  H      1.755270  -13.188170    0.133640
  H     -1.018890  -16.165260    4.828330
  H      0.634790  -17.699820    3.562230
  H     -2.368260  -11.841960    4.488760
  H     -2.227100  -14.654360    5.682890
  H     -3.770280  -11.061190    6.022250
  H     -7.502560  -10.157850   10.865990
  H     -7.773440  -14.364350   12.957980
  H     -9.109810  -14.572530   14.984310
  H    -10.232350  -12.576270   15.963400
  H    -10.456630   -8.184380   14.863410
  H     -9.053390   -7.932570   12.755500

 Total Charge           Charge          ....    0
 Multiplicity           Mult            ....    1
 Number of Electrons    NEL             ....  484
 Basis Dimension        Dim             .... 1048

ORBITAL ENERGIES
----------------

  NO   OCC          E(Eh)            E(eV)
   0   2.0000     -88.984317     -2421.3864
   1   2.0000     -88.977600     -2421.2036
   2   2.0000     -88.975908     -2421.1576
   3   2.0000     -88.975758     -2421.1535
   4   2.0000     -88.974694     -2421.1245
   5   2.0000     -88.956893     -2420.6401
   6   2.0000     -14.423927      -392.4950
   7   2.0000     -14.423534      -392.4843
   8   2.0000     -14.422904      -392.4672
   9   2.0000     -14.422356      -392.4523
  10   2.0000     -14.421870      -392.4390
  11   2.0000     -14.421119      -392.4186
  12   2.0000     -14.420309      -392.3966
  13   2.0000     -14.420161      -392.3925
  14   2.0000     -10.356335      -281.8102
  15   2.0000     -10.352723      -281.7119
  16   2.0000     -10.343803      -281.4692
  17   2.0000     -10.341104      -281.3958
  18   2.0000     -10.328875      -281.0630
  19   2.0000     -10.327906      -281.0366
  20   2.0000     -10.325628      -280.9746
  21   2.0000     -10.325174      -280.9623
  22   2.0000     -10.324671      -280.9486
  23   2.0000     -10.322858      -280.8993
  24   2.0000     -10.322356      -280.8856
  25   2.0000     -10.322243      -280.8825
  26   2.0000     -10.321134      -280.8523
  27   2.0000     -10.320948      -280.8473
  28   2.0000     -10.318696      -280.7860
  29   2.0000     -10.317254      -280.7468
  30   2.0000     -10.316687      -280.7313
  31   2.0000     -10.315588      -280.7014
  32   2.0000     -10.315250      -280.6922
  33   2.0000     -10.314646      -280.6758
  34   2.0000     -10.314507      -280.6720
  35   2.0000     -10.314110      -280.6612
  36   2.0000     -10.313036      -280.6320
  37   2.0000     -10.311763      -280.5973
  38   2.0000     -10.310550      -280.5643
  39   2.0000     -10.305924      -280.4385
  40   2.0000     -10.299277      -280.2576
  41   2.0000     -10.297939      -280.2212
  42   2.0000     -10.297663      -280.2137
  43   2.0000     -10.297255      -280.2025
  44   2.0000     -10.296577      -280.1841
  45   2.0000     -10.296345      -280.1778
  46   2.0000     -10.296141      -280.1722
  47   2.0000     -10.291849      -280.0554
  48   2.0000     -10.289459      -279.9904
  49   2.0000     -10.287254      -279.9304
  50   2.0000     -10.286423      -279.9078
  51   2.0000     -10.285923      -279.8942
  52   2.0000     -10.285524      -279.8833
  53   2.0000     -10.284152      -279.8460
  54   2.0000     -10.283855      -279.8379
  55   2.0000     -10.283827      -279.8372
  56   2.0000     -10.282846      -279.8105
  57   2.0000     -10.280473      -279.7459
  58   2.0000     -10.279659      -279.7237
  59   2.0000     -10.278916      -279.7035
  60   2.0000     -10.276986      -279.6510
  61   2.0000     -10.276942      -279.6498
  62   2.0000     -10.275951      -279.6228
  63   2.0000     -10.275666      -279.6151
  64   2.0000     -10.275263      -279.6041
  65   2.0000     -10.275254      -279.6039
  66   2.0000      -8.078567      -219.8290
  67   2.0000      -8.072108      -219.6532
  68   2.0000      -8.070943      -219.6215
  69   2.0000      -8.070580      -219.6116
  70   2.0000      -8.069221      -219.5747
  71   2.0000      -8.052447      -219.1182
  72   2.0000      -6.047867      -164.5708
  73   2.0000      -6.043721      -164.4580
  74   2.0000      -6.041323      -164.3927
  75   2.0000      -6.040821      -164.3791
  76   2.0000      -6.040621      -164.3736
  77   2.0000      -6.039783      -164.3509
  78   2.0000      -6.038445      -164.3144
  79   2.0000      -6.037136      -164.2788
  80   2.0000      -6.035978      -164.2473
  81   2.0000      -6.035680      -164.2392
  82   2.0000      -6.034568      -164.2090
  83   2.0000      -6.034303      -164.2017
  84   2.0000      -6.033008      -164.1665
  85   2.0000      -6.032701      -164.1582
  86   2.0000      -6.031648      -164.1295
  87   2.0000      -6.021861      -163.8632
  88   2.0000      -6.017618      -163.7477
  89   2.0000      -6.014488      -163.6625
  90   2.0000      -1.078524       -29.3481
  91   2.0000      -1.077366       -29.3166
  92   2.0000      -1.036164       -28.1955
  93   2.0000      -1.030892       -28.0520
  94   2.0000      -1.014884       -27.6164
  95   2.0000      -1.012619       -27.5548
  96   2.0000      -1.006961       -27.4008
  97   2.0000      -1.001935       -27.2640
  98   2.0000      -1.000555       -27.2265
  99   2.0000      -1.000335       -27.2205
 100   2.0000      -0.999242       -27.1907
 101   2.0000      -0.991338       -26.9757
 102   2.0000      -0.982862       -26.7450
 103   2.0000      -0.970960       -26.4212
 104   2.0000      -0.956090       -26.0165
 105   2.0000      -0.955867       -26.0105
 106   2.0000      -0.943878       -25.6842
 107   2.0000      -0.941645       -25.6235
 108   2.0000      -0.928297       -25.2603
 109   2.0000      -0.909825       -24.7576
 110   2.0000      -0.903691       -24.5907
 111   2.0000      -0.887161       -24.1409
 112   2.0000      -0.876687       -23.8559
 113   2.0000      -0.865131       -23.5414
 114   2.0000      -0.861568       -23.4445
 115   2.0000      -0.857158       -23.3244
 116   2.0000      -0.855816       -23.2879
 117   2.0000      -0.853212       -23.2171
 118   2.0000      -0.846846       -23.0439
 119   2.0000      -0.841253       -22.8917
 120   2.0000      -0.838141       -22.8070
 121   2.0000      -0.833684       -22.6857
 122   2.0000      -0.815319       -22.1859
 123   2.0000      -0.801161       -21.8007
 124   2.0000      -0.780488       -21.2381
 125   2.0000      -0.772258       -21.0142
 126   2.0000      -0.767484       -20.8843
 127   2.0000      -0.763432       -20.7740
 128   2.0000      -0.756243       -20.5784
 129   2.0000      -0.753617       -20.5070
 130   2.0000      -0.741890       -20.1879
 131   2.0000      -0.739964       -20.1355
 132   2.0000      -0.735317       -20.0090
 133   2.0000      -0.730167       -19.8689
 134   2.0000      -0.706440       -19.2232
 135   2.0000      -0.701856       -19.0985
 136   2.0000      -0.694072       -18.8866
 137   2.0000      -0.684779       -18.6338
 138   2.0000      -0.679523       -18.4908
 139   2.0000      -0.671287       -18.2666
 140   2.0000      -0.663557       -18.0563
 141   2.0000      -0.658253       -17.9120
 142   2.0000      -0.654151       -17.8004
 143   2.0000      -0.647203       -17.6113
 144   2.0000      -0.636658       -17.3243
 145   2.0000      -0.631598       -17.1867
 146   2.0000      -0.630520       -17.1573
 147   2.0000      -0.625866       -17.0307
 148   2.0000      -0.622989       -16.9524
 149   2.0000      -0.620778       -16.8922
 150   2.0000      -0.616383       -16.7726
 151   2.0000      -0.610894       -16.6233
 152   2.0000      -0.606898       -16.5145
 153   2.0000      -0.605019       -16.4634
 154   2.0000      -0.600555       -16.3419
 155   2.0000      -0.590010       -16.0550
 156   2.0000      -0.589317       -16.0361
 157   2.0000      -0.578808       -15.7502
 158   2.0000      -0.571744       -15.5579
 159   2.0000      -0.564088       -15.3496
 160   2.0000      -0.558496       -15.1975
 161   2.0000      -0.553355       -15.0575
 162   2.0000      -0.550506       -14.9800
 163   2.0000      -0.547946       -14.9104
 164   2.0000      -0.539653       -14.6847
 165   2.0000      -0.535247       -14.5648
 166   2.0000      -0.533531       -14.5181
 167   2.0000      -0.533288       -14.5115
 168   2.0000      -0.528694       -14.3865
 169   2.0000      -0.528134       -14.3713
 170   2.0000      -0.526721       -14.3328
 171   2.0000      -0.522621       -14.2212
 172   2.0000      -0.518866       -14.1191
 173   2.0000      -0.514846       -14.0097
 174   2.0000      -0.513358       -13.9692
 175   2.0000      -0.512398       -13.9430
 176   2.0000      -0.510455       -13.8902
 177   2.0000      -0.503681       -13.7059
 178   2.0000      -0.497473       -13.5369
 179   2.0000      -0.496358       -13.5066
 180   2.0000      -0.494472       -13.4553
 181   2.0000      -0.492824       -13.4104
 182   2.0000      -0.488471       -13.2920
 183   2.0000      -0.485437       -13.2094
 184   2.0000      -0.484067       -13.1721
 185   2.0000      -0.482911       -13.1407
 186   2.0000      -0.475141       -12.9292
 187   2.0000      -0.474579       -12.9140
 188   2.0000      -0.465280       -12.6609
 189   2.0000      -0.462661       -12.5896
 190   2.0000      -0.460787       -12.5387
 191   2.0000      -0.459663       -12.5081
 192   2.0000      -0.459163       -12.4945
 193   2.0000      -0.455770       -12.4021
 194   2.0000      -0.455074       -12.3832
 195   2.0000      -0.451906       -12.2970
 196   2.0000      -0.451473       -12.2852
 197   2.0000      -0.450059       -12.2467
 198   2.0000      -0.448961       -12.2168
 199   2.0000      -0.446878       -12.1602
 200   2.0000      -0.443770       -12.0756
 201   2.0000      -0.442024       -12.0281
 202   2.0000      -0.439354       -11.9554
 203   2.0000      -0.438032       -11.9195
 204   2.0000      -0.433914       -11.8074
 205   2.0000      -0.433203       -11.7881
 206   2.0000      -0.432725       -11.7751
 207   2.0000      -0.432392       -11.7660
 208   2.0000      -0.429415       -11.6850
 209   2.0000      -0.427648       -11.6369
 210   2.0000      -0.425760       -11.5855
 211   2.0000      -0.425279       -11.5724
 212   2.0000      -0.424503       -11.5513
 213   2.0000      -0.423163       -11.5149
 214   2.0000      -0.419794       -11.4232
 215   2.0000      -0.418146       -11.3783
 216   2.0000      -0.416759       -11.3406
 217   2.0000      -0.414944       -11.2912
 218   2.0000      -0.410685       -11.1753
 219   2.0000      -0.407426       -11.0866
 220   2.0000      -0.400269       -10.8919
 221   2.0000      -0.390877       -10.6363
 222   2.0000      -0.380417       -10.3517
 223   2.0000      -0.379972       -10.3396
 224   2.0000      -0.378959       -10.3120
 225   2.0000      -0.360382        -9.8065
 226   2.0000      -0.353786        -9.6270
 227   2.0000      -0.340196        -9.2572
 228   2.0000      -0.335745        -9.1361
 229   2.0000      -0.333032        -9.0623
 230   2.0000      -0.329412        -8.9638
 231   2.0000      -0.328018        -8.9258
 232   2.0000      -0.319515        -8.6944
 233   2.0000      -0.317756        -8.6466
 234   2.0000      -0.317072        -8.6280
 235   2.0000      -0.312358        -8.4997
 236   2.0000      -0.311872        -8.4865
 237   2.0000      -0.305511        -8.3134
 238   2.0000      -0.282728        -7.6934
 239   2.0000      -0.267260        -7.2725
 240   2.0000      -0.248597        -6.7647
 241   2.0000      -0.214980        -5.8499
 242   0.0000      -0.099006        -2.6941
 243   0.0000      -0.093897        -2.5551
 244   0.0000      -0.063410        -1.7255
 245   0.0000      -0.049876        -1.3572
 246   0.0000      -0.046115        -1.2549

MULLIKEN ATOMIC CHARGES
-----------------------
   0 C :    0.006289
   1 C :    0.044450
   2 C :   -0.074020
   3 C :    0.157533
   4 C :   -0.036928
   5 N :   -0.030431
   6 C :    0.037479
   7 C :    0.021363
   8 N :   -0.019146
   9 C :   -0.022702
  10 C :   -0.119505
  11 C :   -0.044430
  12 C :    0.021954
  13 C :   -0.084243
  14 S :    0.163015
  15 C :   -0.093744
  16 C :    0.015759
  17 C :    0.311583
  18 C :   -0.305187
  19 C :   -0.190793
  20 N :    0.165088
  21 C :   -0.185192
  22 N :    0.172254
  23 C :   -0.060719
  24 C :   -0.066359
  25 S :    0.179762
  26 C :   -0.016104
  27 C :   -0.099395
  28 C :    0.057420
  29 C :    0.064605
  30 C :   -0.120763
  31 S :    0.132233
  32 C :   -0.114510
  33 C :    0.052629
  34 C :   -0.009207
  35 C :   -0.066602
  36 S :    0.129655
  37 C :    0.097056
  38 C :   -0.015041
  39 C :    0.038853
  40 C :   -0.068213
  41 C :   -0.052466
  42 C :    0.014144
  43 C :   -0.111204
  44 S :    0.173590
  45 C :   -0.084860
  46 C :    0.015249
  47 C :    0.315990
  48 C :   -0.313866
  49 C :   -0.187006
  50 N :    0.168295
  51 C :   -0.181871
  52 N :    0.151424
  53 C :   -0.042048
  54 C :   -0.126113
  55 S :    0.142510
  56 C :    0.165744
  57 C :   -0.075918
  58 C :    0.044761
  59 C :    0.003733
  60 C :   -0.027787
  61 N :   -0.016779
  62 C :    0.021470
  63 C :    0.037444
  64 N :   -0.031641
  65 C :   -0.034439
  66 H :   -0.022586
  67 H :   -0.003336
  68 H :   -0.004542
  69 H :    0.022810
  70 H :    0.014374
  71 H :    0.018840
  72 H :    0.018749
  73 H :   -0.002323
  74 H :    0.037635
  75 H :   -0.014526
  76 H :    0.024212
  77 H :   -0.038212
  78 H :   -0.053393
  79 H :   -0.000281
  80 H :    0.016537
  81 H :   -0.009675
  82 H :   -0.007752
  83 H :   -0.024382
  84 H :    0.013040
  85 H :    0.020709
Sum of atomic charges:   -0.0000000

LOEWDIN ATOMIC CHARGES
----------------------
   0 C :   -0.013418
   1 C :   -0.012148
   2 C :   -0.023820
   3 C :   -0.033667
   4 C :   -0.004071
   5 N :   -0.029813
   6 C :    0.011988
   7 C :    0.003209
   8 N :   -0.036187
   9 C :   -0.008995
  10 C :   -0.156767
  11 C :   -0.020180
  12 C :   -0.076205
  13 C :   -0.179049
  14 S :    0.476478
  15 C :   -0.175965
  16 C :   -0.069233
  17 C :    0.084769
  18 C :   -0.104919
  19 C :   -0.015660
  20 N :   -0.038630
  21 C :   -0.015376
  22 N :   -0.035371
  23 C :   -0.040034
  24 C :   -0.183208
  25 S :    0.485129
  26 C :   -0.177252
  27 C :   -0.034510
  28 C :   -0.016551
  29 C :   -0.050300
  30 C :   -0.138749
  31 S :    0.461114
  32 C :   -0.200350
  33 C :   -0.037533
  34 C :   -0.067057
  35 C :   -0.166740
  36 S :    0.425284
  37 C :   -0.051882
  38 C :   -0.004815
  39 C :   -0.066989
  40 C :   -0.152741
  41 C :   -0.040212
  42 C :   -0.062284
  43 C :   -0.199710
  44 S :    0.463360
  45 C :   -0.168352
  46 C :   -0.086697
  47 C :    0.088466
  48 C :   -0.111725
  49 C :   -0.015583
  50 N :   -0.039942
  51 C :   -0.011547
  52 N :   -0.051514
  53 C :   -0.018092
  54 C :   -0.163760
  55 S :    0.462067
  56 C :   -0.031322
  57 C :   -0.028483
  58 C :   -0.012912
  59 C :   -0.017069
  60 C :   -0.009045
  61 N :   -0.036853
  62 C :    0.002677
  63 C :    0.010632
  64 N :   -0.029150
  65 C :   -0.004798
  66 H :    0.035933
  67 H :    0.034729
  68 H :    0.021822
  69 H :    0.030791
  70 H :    0.027001
  71 H :    0.036649
  72 H :    0.034347
  73 H :    0.026956
  74 H :    0.037376
  75 H :    0.027504
  76 H :    0.023246
  77 H :    0.027278
  78 H :    0.022870
  79 H :    0.034780
  80 H :    0.036025
  81 H :    0.019664
  82 H :    0.033311
  83 H :    0.035095
  84 H :    0.026483
  85 H :    0.030201

  Mayer bond orders larger than 0.100000
B(  0-C ,  1-C ) :   1.4340 B(  0-C ,  3-C ) :   0.1066 B(  0-C ,  9-C ) :   1.2564
B(  0-C , 66-H ) :   1.0101 B(  1-C ,  2-C ) :   1.2635 B(  1-C , 67-H ) :   0.9865
B(  2-C ,  3-C ) :   1.4426 B(  2-C , 68-H ) :   0.9875 B(  3-C ,  4-C ) :   1.2085
B(  3-C , 10-C ) :   1.0903 B(  4-C ,  5-N ) :   1.4665 B(  4-C ,  9-C ) :   1.2367
B(  5-N ,  6-C ) :   1.6377 B(  6-C ,  7-C ) :   1.2278 B(  6-C , 69-H ) :   0.9744
B(  7-C ,  8-N ) :   1.6735 B(  7-C , 70-H ) :   0.9751 B(  8-N ,  9-C ) :   1.4215
B( 10-C , 11-C ) :   1.5017 B( 10-C , 14-S ) :   1.0892 B( 11-C , 12-C ) :   1.2158
B( 11-C , 71-H ) :   0.9802 B( 12-C , 13-C ) :   1.4392 B( 12-C , 17-C ) :   1.0066
B( 13-C , 14-S ) :   1.1327 B( 13-C , 15-C ) :   1.1740 B( 15-C , 16-C ) :   1.4484
B( 15-C , 25-S ) :   1.1275 B( 16-C , 17-C ) :   0.9897 B( 16-C , 23-C ) :   1.3020
B( 17-C , 18-C ) :   1.7036 B( 18-C , 19-C ) :   1.1342 B( 18-C , 21-C ) :   1.1369
B( 19-C , 20-N ) :   2.9884 B( 21-C , 22-N ) :   2.9920 B( 23-C , 24-C ) :   1.4521
B( 23-C , 72-H ) :   0.9816 B( 24-C , 25-S ) :   1.1044 B( 24-C , 26-C ) :   1.1650
B( 26-C , 27-C ) :   1.5279 B( 26-C , 31-S ) :   1.0565 B( 27-C , 28-C ) :   1.2489
B( 27-C , 73-H ) :   0.9602 B( 28-C , 29-C ) :   1.0525 B( 28-C , 37-C ) :   1.3703
B( 29-C , 30-C ) :   1.6115 B( 29-C , 32-C ) :   1.1737 B( 30-C , 31-S ) :   1.1356
B( 30-C , 74-H ) :   0.9408 B( 32-C , 33-C ) :   1.4550 B( 32-C , 36-S ) :   1.0792
B( 33-C , 34-C ) :   1.2116 B( 33-C , 37-C ) :   1.0673 B( 34-C , 35-C ) :   1.5867
B( 34-C , 75-H ) :   1.0013 B( 35-C , 36-S ) :   1.1575 B( 35-C , 76-H ) :   0.9646
B( 37-C , 38-C ) :   1.1971 B( 38-C , 39-C ) :   1.6254 B( 38-C , 77-H ) :   0.9554
B( 39-C , 40-C ) :   1.1331 B( 39-C , 78-H ) :   0.9642 B( 40-C , 41-C ) :   1.4358
B( 40-C , 44-S ) :   1.1106 B( 41-C , 42-C ) :   1.3091 B( 41-C , 79-H ) :   0.9873
B( 42-C , 43-C ) :   1.4392 B( 42-C , 47-C ) :   0.9881 B( 43-C , 44-S ) :   1.1027
B( 43-C , 45-C ) :   1.1903 B( 45-C , 46-C ) :   1.4324 B( 45-C , 55-S ) :   1.1349
B( 46-C , 47-C ) :   1.0128 B( 46-C , 53-C ) :   1.2088 B( 47-C , 48-C ) :   1.6942
B( 48-C , 49-C ) :   1.1370 B( 48-C , 51-C ) :   1.1391 B( 49-C , 50-N ) :   2.9940
B( 51-C , 52-N ) :   2.9780 B( 53-C , 54-C ) :   1.5127 B( 53-C , 80-H ) :   0.9787
B( 54-C , 55-S ) :   1.0738 B( 54-C , 56-C ) :   1.0951 B( 56-C , 57-C ) :   1.4406
B( 56-C , 59-C ) :   0.1066 B( 56-C , 65-C ) :   1.2054 B( 57-C , 58-C ) :   1.2633
B( 57-C , 81-H ) :   0.9874 B( 58-C , 59-C ) :   1.4319 B( 58-C , 82-H ) :   0.9863
B( 59-C , 60-C ) :   1.2585 B( 59-C , 83-H ) :   1.0105 B( 60-C , 61-N ) :   1.4232
B( 60-C , 65-C ) :   1.2353 B( 61-N , 62-C ) :   1.6724 B( 62-C , 63-C ) :   1.2277
B( 62-C , 84-H ) :   0.9753 B( 63-C , 64-N ) :   1.6384 B( 63-C , 85-H ) :   0.9745
B( 64-N , 65-C ) :   1.4665

-----------------------------------------------------------------------------
         ABSORPTION SPECTRUM VIA TRANSITION ELECTRIC DIPOLE MOMENTS
-----------------------------------------------------------------------------
State   Energy  Wavelength   fosc         T2         TX        TY        TZ
        (cm-1)    (nm)                  (au**2)     (au)      (au)      (au)
-----------------------------------------------------------------------------
   0    9502.2   1052.4   0.178786002   6.19419   1.23720   0.62532  -2.06700
   1   10777.3    927.9   0.112233334   3.42837  -0.43856   1.74789  -0.42535
   2   16662.9    600.1   0.083578444   1.65128   0.76585   0.06927  -1.02954
   3   17804.7    561.6   0.742728836  13.73315  -1.12364  -2.23661   2.73279
   4   19166.6    521.7   0.129544637   2.22510  -0.58331  -0.67754   1.19406
   5   22137.6    451.7   0.342012852   5.08613  -0.92646  -0.90590   1.84585
   6   23485.5    425.8   0.795033980  11.14454  -2.02580   2.12604   1.58764
   7   24484.4    408.4   0.025384640   0.34132  -0.29246   0.46346   0.20244
   8   24690.8    405.0   0.084439755   1.12587  -0.65172   0.73324   0.40433
   9   25595.4    390.7   0.249905904   3.21433  -1.15091   1.20017   0.67032
  10   26361.0    379.3   0.244826149   3.05753   1.07427  -1.14553  -0.76893
  11   27179.5    367.9   0.012975727   0.15717  -0.08419   0.37967  -0.07702
  12   28846.3    346.7   0.120501740   1.37524   0.71967  -0.24797  -0.89209
  13   28954.5    345.4   0.147937767   1.68205   0.70853  -0.99263  -0.44126
  14   29668.2    337.1   0.026918737   0.29870  -0.17144   0.45555   0.24856
  15   29894.8    334.5   0.213550477   2.35169  -0.34802   1.37795  -0.57603
  16   30192.2    331.2   0.173065330   1.88708   0.13252   1.18585  -0.68065
  17   30635.7    326.4   0.150941902   1.62203  -0.89103   0.71148   0.56735
  18   31004.8    322.5   0.006533466   0.06937   0.13549   0.22406   0.02853
  19   31333.7    319.1   0.132619621   1.39339  -0.61754   0.92793   0.38858
  20   31629.6    316.2   0.693792053   7.22122   1.43343   1.05495  -2.01335
  21   31959.8    312.9   0.312835547   3.22246  -0.38641   1.70676  -0.40017
  22   32055.2    312.0   0.220851565   2.26818  -0.95957   0.24401   1.13485
  23   32560.6    307.1   0.025849175   0.26135   0.19814   0.11869  -0.45608
  24   32673.9    306.1   0.239264088   2.41075   0.84231   0.29257  -1.27109
  25   32929.3    303.7   0.089683213   0.89661  -0.43566   0.81755   0.19604
  26   33449.7    299.0   0.007094983   0.06983  -0.00875  -0.12010   0.23522
  27   33577.4    297.8   0.045508813   0.44619   0.15918  -0.63782   0.11849
  28   34429.4    290.4   0.789949117   7.55344  -0.53673   2.62338  -0.61904
  29   34638.9    288.7   0.010638924   0.10111  -0.23438   0.06184   0.20581
  30   34700.1    288.2   0.053867483   0.51106  -0.43049   0.55227   0.14402
  31   35142.1    284.6   0.020494512   0.19199  -0.18705   0.39397   0.04234
  32   35853.4    278.9   0.062940033   0.57793  -0.26249  -0.29810   0.64820
  33   36242.4    275.9   0.009323199   0.08469  -0.20700  -0.10968   0.17265
  34   36425.8    274.5   0.025682245   0.23211  -0.25757   0.33040   0.23793
  35   36482.9    274.1   0.019724623   0.17799   0.03198   0.37712  -0.18640
  36   36690.8    272.5   0.006008166   0.05391   0.11576   0.13530  -0.14901
  37   37115.5    269.4   0.074646986   0.66211  -0.43847   0.67737   0.10500
  38   37234.3    268.6   0.074951857   0.66270   0.10354  -0.73763   0.32844
  39   37265.0    268.3   0.068335638   0.60370   0.53395  -0.35806  -0.43634
  40   37865.1    264.1   0.045916349   0.39921  -0.35969   0.02872   0.51866
  41   38356.1    260.7   0.036812330   0.31596  -0.01780  -0.52719   0.19421
  42   38912.0    257.0   0.008713674   0.07372   0.14796   0.14798  -0.17301
  43   39012.0    256.3   0.034240227   0.28894   0.35921  -0.18777  -0.35306
  44   39151.4    255.4   0.074156049   0.62356   0.06267  -0.76612   0.18080
  45   39737.1    251.7   0.021082170   0.17466   0.18047   0.21046  -0.31272
  46   39976.5    250.1   0.035598630   0.29316   0.30801  -0.00647  -0.44525
  47   40064.6    249.6   0.030656959   0.25191  -0.06149  -0.44607   0.22171
  48   40101.1    249.4   0.021877743   0.17961  -0.36987   0.09519   0.18368
  49   40314.6    248.0   0.032708555   0.26710  -0.32650   0.35952   0.17676

FINAL SINGLE POINT ENERGY     -4816.777651974286

DIPOLE MOMENT
-------------
                                X             Y             Z
Electronic contribution:     15.08142      -7.42480     -15.62152
Nuclear contribution   :    -15.68336       5.69110      16.88581
                        -----------------------------------------
Total Dipole Moment    :     -0.60194      -1.73370       1.26429
                        -----------------------------------------
Magnitude (a.u.)       :      2.22856
Magnitude (Debye)      :      5.66456

Rotational constants in cm-1:     0.000954     0.000419     0.000292
Rotational constants in MHz :    28.602993    12.564482     8.749624

                             ****ORCA TERMINATED NORMALLY****
TOTAL RUN TIME: 0 days 0 hours 10 minutes 15 seconds 382 msec
