                         Program Version 4.2.0 -  RELEASE  -
|  1> # ORCA input file
|  2> # SCF done       -176.305963328425          0.000590651937
|  3> ! CAM-B3LYP def2-SVP def2/J RIJCOSX Grid4 TightSCF
|  4> %maxcore 5000
|  5> %tddft
|  6>     Mode sTDDFT
|  7>     Ethresh 5.0
|  8>     maxcore 5000
|  9> end
| 10>
| 11> %pal
| 12>   nprocs 6
| 13>   end
| 14> * xyz 0 1
| 15>    C       -3.41588        -1.78328        -1.10155
| 16>    C       -2.90940        -2.19258         0.10639
| 17>    C       -1.96644        -3.23224         0.25557
| 18>    N       -1.20239        -4.06488         0.45826
| 19>    C       -3.22949        -1.67787         1.38065
| 20>    N       -3.41732        -1.33832         2.46241
| 21>    C       -3.06287        -2.37584        -2.38719
| 22>    C       -3.79751        -1.71985        -3.40242
| 23>    C       -3.69332        -2.05133        -4.73155
| 24>    C       -2.81842        -3.08549        -5.07826
| 25>    C       -2.08566        -3.73680        -4.05759
| 26>    C       -2.19213        -3.39921        -2.71384
| 27>    S       -1.06375        -4.98506        -4.70254
| 28>    C       -1.62765        -4.62066        -6.31191
| 29>    C       -2.53415        -3.61590        -6.36613
| 30>   Br       -0.96790        -5.60129        -7.76798
| 31>    C       -4.64700        -0.67657        -2.80147
| 32>    O       -5.39208         0.05635        -3.42493
| 33>    C       -4.38702        -0.72695        -1.34663
| 34>    C       -4.91522         0.05344        -0.34870
| 35>    C       -5.86749         1.08764        -0.37283
| 36>    C       -6.60084         1.66372        -1.39533
| 37>    C       -7.46797         2.66897        -0.97949
| 38>    S       -8.45164         3.58525        -2.11395
| 39>    C       -7.62959         3.25372        -3.69870
| 40>    C       -7.43605         2.88729         0.40646
| 41>    S       -6.28325         1.82907         1.15885
| 42>    C       -8.17529         3.79933         1.20820
| 43>    C       -9.30644         4.44903         0.77159
| 44>    C      -10.04746         5.35347         1.52156
| 45>    C       -9.69629         5.67778         2.90473
| 46>    C       -8.63825         5.14108         3.55289
| 47>    S       -7.54915         4.02412         2.84080
| 48>    C      -10.68765         6.60334         3.33123
| 49>    C      -11.59530         6.85035         2.29423
| 50>    C      -12.59370         7.77097         2.68585
| 51>    C      -12.42244         8.18436         3.96858
| 52>    S      -11.05254         7.48273         4.75894
| 53>    C      -11.20587         6.07184         1.14815
| 54>    C      -11.78168         5.99097        -0.13649
| 55>    C      -12.89016         6.62918        -0.59717
| 56>    C      -13.37038         6.47336        -1.92177
| 57>    C      -12.86079         5.68382        -2.93766
| 58>    C      -13.55487         5.79062        -4.14145
| 59>    S      -13.21603         4.81923        -5.55374
| 60>    C      -12.07252         3.56476        -4.90672
| 61>    C      -14.63513         6.68556        -4.08075
| 62>    S      -14.77221         7.33804        -2.46435
| 63>    C      -15.60879         7.04886        -5.02022
| 64>    C      -15.60736         6.98233        -6.39015
| 65>    C      -14.56224         6.87033        -7.36782
| 66>    C      -13.24398         7.23007        -7.20197
| 67>    C      -12.26139         7.12036        -8.20336
| 68>    N      -11.41085         7.02723        -8.96970
| 69>    C      -12.74545         7.83119        -6.03171
| 70>    N      -12.30522         8.34226        -5.10197
| 71>    C      -15.18463         6.52224        -8.64221
| 72>    C      -16.59119         6.61622        -8.50001
| 73>    C      -16.91073         6.98006        -7.10325
| 74>    O      -18.00246         7.19389        -6.62537
| 75>    C      -17.45458         6.38125        -9.54127
| 76>    C      -16.90399         6.02430       -10.77775
| 77>    C      -15.49938         5.92041       -10.90451
| 78>    C      -14.62421         6.16866        -9.85309
| 79>    S      -15.03532         5.45733       -12.51382
| 80>    C      -16.71260         5.41484       -12.98936
| 81>    C      -17.57661         5.72858       -11.99580
| 82>   Br      -17.16265         4.95810       -14.75249
| 83>    H       -4.26959        -1.52969        -5.47961
| 84>    H       -1.61012        -3.92780        -1.97824
| 85>    H       -2.98448        -3.26260        -7.27574
| 86>    H       -4.55176        -0.15121         0.65072
| 87>    H       -6.48840         1.33529        -2.41070
| 88>    H       -8.06842         3.95154        -4.40589
| 89>    H       -7.81635         2.23302        -4.01817
| 90>    H       -6.56581         3.44524        -3.60147
| 91>    H       -9.64926         4.21172        -0.22255
| 92>    H       -8.39643         5.38345         4.57573
| 93>    H      -13.39956         8.12032         2.06770
| 94>    H      -13.02882         8.87628         4.51974
| 95>    H      -11.25796         5.34265        -0.82434
| 96>    H      -13.45020         7.29333         0.04173
| 97>    H      -11.99446         5.06499        -2.80514
| 98>    H      -11.92674         2.86261        -5.72202
| 99>    H      -12.51686         3.06008        -4.05445
|100>    H      -11.12489         4.02597        -4.64504
|101>    H      -16.55077         7.38840        -4.59738
|102>    H      -18.52160         6.46868        -9.40926
|103>    H      -13.56029         6.07475        -9.99446
|104>    H      -18.64456         5.75130       -12.11403
|105> *
|106>
|107>                          ****END OF INPUT****

CARTESIAN COORDINATES (ANGSTROEM)
---------------------------------
  C     -3.415880   -1.783280   -1.101550
  C     -2.909400   -2.192580    0.106390
  C     -1.966440   -3.232240    0.255570
  N     -1.202390   -4.064880    0.458260
  C     -3.229490   -1.677870    1.380650
  N     -3.417320   -1.338320    2.462410
  C     -3.062870   -2.375840   -2.387190
  C     -3.797510   -1.719850   -3.402420
  C     -3.693320   -2.051330   -4.731550
  C     -2.818420   -3.085490   -5.078260
  C     -2.085660   -3.736800   -4.057590
  C     -2.192130   -3.399210   -2.713840
  S     -1.063750   -4.985060   -4.702540
  C     -1.627650   -4.620660   -6.311910
  C     -2.534150   -3.615900   -6.366130
  Br    -0.967900   -5.601290   -7.767980
  C     -4.647000   -0.676570   -2.801470
  O     -5.392080    0.056350   -3.424930
  C     -4.387020   -0.726950   -1.346630
  C     -4.915220    0.053440   -0.348700
  C     -5.867490    1.087640   -0.372830
  C     -6.600840    1.663720   -1.395330
  C     -7.467970    2.668970   -0.979490
  S     -8.451640    3.585250   -2.113950
  C     -7.629590    3.253720   -3.698700
  C     -7.436050    2.887290    0.406460
  S     -6.283250    1.829070    1.158850
  C     -8.175290    3.799330    1.208200
  C     -9.306440    4.449030    0.771590
  C    -10.047460    5.353470    1.521560
  C     -9.696290    5.677780    2.904730
  C     -8.638250    5.141080    3.552890
  S     -7.549150    4.024120    2.840800
  C    -10.687650    6.603340    3.331230
  C    -11.595300    6.850350    2.294230
  C    -12.593700    7.770970    2.685850
  C    -12.422440    8.184360    3.968580
  S    -11.052540    7.482730    4.758940
  C    -11.205870    6.071840    1.148150
  C    -11.781680    5.990970   -0.136490
  C    -12.890160    6.629180   -0.597170
  C    -13.370380    6.473360   -1.921770
  C    -12.860790    5.683820   -2.937660
  C    -13.554870    5.790620   -4.141450
  S    -13.216030    4.819230   -5.553740
  C    -12.072520    3.564760   -4.906720
  C    -14.635130    6.685560   -4.080750
  S    -14.772210    7.338040   -2.464350
  C    -15.608790    7.048860   -5.020220
  C    -15.607360    6.982330   -6.390150
  C    -14.562240    6.870330   -7.367820
  C    -13.243980    7.230070   -7.201970
  C    -12.261390    7.120360   -8.203360
  N    -11.410850    7.027230   -8.969700
  C    -12.745450    7.831190   -6.031710
  N    -12.305220    8.342260   -5.101970
  C    -15.184630    6.522240   -8.642210
  C    -16.591190    6.616220   -8.500010
  C    -16.910730    6.980060   -7.103250
  O    -18.002460    7.193890   -6.625370
  C    -17.454580    6.381250   -9.541270
  C    -16.903990    6.024300  -10.777750
  C    -15.499380    5.920410  -10.904510
  C    -14.624210    6.168660   -9.853090
  S    -15.035320    5.457330  -12.513820
  C    -16.712600    5.414840  -12.989360
  C    -17.576610    5.728580  -11.995800
  Br   -17.162650    4.958100  -14.752490
  H     -4.269590   -1.529690   -5.479610
  H     -1.610120   -3.927800   -1.978240
  H     -2.984480   -3.262600   -7.275740
  H     -4.551760   -0.151210    0.650720
  H     -6.488400    1.335290   -2.410700
  H     -8.068420    3.951540   -4.405890
  H     -7.816350    2.233020   -4.018170
  H     -6.565810    3.445240   -3.601470
  H     -9.649260    4.211720   -0.222550
  H     -8.396430    5.383450    4.575730
  H    -13.399560    8.120320    2.067700
  H    -13.028820    8.876280    4.519740
  H    -11.257960    5.342650   -0.824340
  H    -13.450200    7.293330    0.041730
  H    -11.994460    5.064990   -2.805140
  H    -11.926740    2.862610   -5.722020
  H    -12.516860    3.060080   -4.054450
  H    -11.124890    4.025970   -4.645040
  H    -16.550770    7.388400   -4.597380
  H    -18.521600    6.468680   -9.409260
  H    -13.560290    6.074750   -9.994460
  H    -18.644560    5.751300  -12.114030

 Total Charge           Charge          ....    0
 Multiplicity           Mult            ....    1
 Number of Electrons    NEL             ....  576
 Basis Dimension        Dim             .... 1130

ORBITAL ENERGIES
----------------

  NO   OCC          E(Eh)            E(eV)
   0   2.0000    -482.888777    -13140.0717
   1   2.0000    -482.879121    -13139.8089
   2   2.0000     -88.985578     -2421.4207
   3   2.0000     -88.979253     -2421.2486
   4   2.0000     -88.978991     -2421.2414
   5   2.0000     -88.967341     -2420.9244
   6   2.0000     -88.964724     -2420.8532
   7   2.0000     -88.960601     -2420.7410
   8   2.0000     -88.950221     -2420.4586
   9   2.0000     -88.948540     -2420.4128
  10   2.0000     -62.566476     -1702.5204
  11   2.0000     -62.556811     -1702.2574
  12   2.0000     -56.400435     -1534.7339
  13   2.0000     -56.397704     -1534.6596
  14   2.0000     -56.397677     -1534.6588
  15   2.0000     -56.390750     -1534.4703
  16   2.0000     -56.388058     -1534.3971
  17   2.0000     -56.388020     -1534.3960
  18   2.0000     -19.226377      -523.1763
  19   2.0000     -19.203401      -522.5511
  20   2.0000     -14.420800      -392.4099
  21   2.0000     -14.417206      -392.3121
  22   2.0000     -14.404495      -391.9662
  23   2.0000     -14.401119      -391.8744
  24   2.0000     -10.377096      -282.3751
  25   2.0000     -10.362588      -281.9803
  26   2.0000     -10.353714      -281.7389
  27   2.0000     -10.350210      -281.6435
  28   2.0000     -10.346193      -281.5342
  29   2.0000     -10.345251      -281.5086
  30   2.0000     -10.339687      -281.3572
  31   2.0000     -10.338818      -281.3335
  32   2.0000     -10.338168      -281.3159
  33   2.0000     -10.329900      -281.0909
  34   2.0000     -10.329425      -281.0779
  35   2.0000     -10.328220      -281.0452
  36   2.0000     -10.325548      -280.9724
  37   2.0000     -10.325250      -280.9643
  38   2.0000     -10.324109      -280.9333
  39   2.0000     -10.323692      -280.9219
  40   2.0000     -10.322137      -280.8796
  41   2.0000     -10.320457      -280.8339
  42   2.0000     -10.318944      -280.7927
  43   2.0000     -10.316274      -280.7201
  44   2.0000     -10.312035      -280.6048
  45   2.0000     -10.311619      -280.5934
  46   2.0000     -10.310318      -280.5580
  47   2.0000     -10.309187      -280.5273
  48   2.0000     -10.308998      -280.5221
  49   2.0000     -10.308307      -280.5033
  50   2.0000     -10.308078      -280.4971
  51   2.0000     -10.308067      -280.4968
  52   2.0000     -10.307626      -280.4848
  53   2.0000     -10.307162      -280.4721
  54   2.0000     -10.306342      -280.4498
  55   2.0000     -10.305575      -280.4289
  56   2.0000     -10.303773      -280.3799
  57   2.0000     -10.303358      -280.3686
  58   2.0000     -10.300276      -280.2847
  59   2.0000     -10.297558      -280.2108
  60   2.0000     -10.297029      -280.1964
  61   2.0000     -10.296956      -280.1944
  62   2.0000     -10.296551      -280.1834
  63   2.0000     -10.296404      -280.1794
  64   2.0000     -10.296129      -280.1719
  65   2.0000     -10.294272      -280.1214
  66   2.0000     -10.292041      -280.0607
  67   2.0000     -10.291527      -280.0467
  68   2.0000     -10.288905      -279.9753
  69   2.0000     -10.287896      -279.9479
  70   2.0000     -10.287415      -279.9348
  71   2.0000     -10.284491      -279.8552
  72   2.0000     -10.282925      -279.8126
  73   2.0000     -10.282837      -279.8102
  74   2.0000     -10.281823      -279.7826
  75   2.0000     -10.280912      -279.7578
  76   2.0000      -8.795895      -239.3485
  77   2.0000      -8.786224      -239.0853
  78   2.0000      -8.081089      -219.8976
  79   2.0000      -8.075198      -219.7373
  80   2.0000      -8.074599      -219.7210
  81   2.0000      -8.063335      -219.4145
  82   2.0000      -8.060282      -219.3314
  83   2.0000      -8.056520      -219.2291
  84   2.0000      -8.044850      -218.9115
  85   2.0000      -8.042978      -218.8605
  86   2.0000      -6.632232      -180.4722
  87   2.0000      -6.622451      -180.2061
  88   2.0000      -6.617624      -180.0747
  89   2.0000      -6.617389      -180.0683
  90   2.0000      -6.607973      -179.8121
  91   2.0000      -6.607820      -179.8079
  92   2.0000      -6.050735      -164.6489
  93   2.0000      -6.046074      -164.5220
  94   2.0000      -6.044883      -164.4896
  95   2.0000      -6.043859      -164.4618
  96   2.0000      -6.042861      -164.4346
  97   2.0000      -6.040609      -164.3733
  98   2.0000      -6.039790      -164.3511
  99   2.0000      -6.036592      -164.2640
 100   2.0000      -6.036440      -164.2599
 101   2.0000      -6.033030      -164.1671
 102   2.0000      -6.029700      -164.0765
 103   2.0000      -6.028771      -164.0512
 104   2.0000      -6.025863      -163.9721
 105   2.0000      -6.025432      -163.9603
 106   2.0000      -6.024559      -163.9366
 107   2.0000      -6.022321      -163.8757
 108   2.0000      -6.021859      -163.8631
 109   2.0000      -6.018296      -163.7662
 110   2.0000      -6.015325      -163.6853
 111   2.0000      -6.013212      -163.6278
 112   2.0000      -6.011057      -163.5692
 113   2.0000      -6.008775      -163.5071
 114   2.0000      -6.004815      -163.3993
 115   2.0000      -6.003416      -163.3612
 116   2.0000      -2.748066       -74.7787
 117   2.0000      -2.744000       -74.6680
 118   2.0000      -2.743866       -74.6644
 119   2.0000      -2.738376       -74.5150
 120   2.0000      -2.734248       -74.4027
 121   2.0000      -2.734131       -74.3995
 122   2.0000      -2.732224       -74.3476
 123   2.0000      -2.732215       -74.3473
 124   2.0000      -2.722629       -74.0865
 125   2.0000      -2.722615       -74.0861
 126   2.0000      -1.140165       -31.0255
 127   2.0000      -1.118094       -30.4249
 128   2.0000      -1.027380       -27.9564
 129   2.0000      -1.022410       -27.8212
 130   2.0000      -1.017593       -27.6901
 131   2.0000      -1.013029       -27.5659
 132   2.0000      -1.011518       -27.5248
 133   2.0000      -1.005063       -27.3491
 134   2.0000      -0.997805       -27.1516
 135   2.0000      -0.997025       -27.1304
 136   2.0000      -0.993880       -27.0448
 137   2.0000      -0.981140       -26.6982
 138   2.0000      -0.978253       -26.6196
 139   2.0000      -0.977668       -26.6037
 140   2.0000      -0.947967       -25.7955
 141   2.0000      -0.939591       -25.5676
 142   2.0000      -0.933019       -25.3887
 143   2.0000      -0.926282       -25.2054
 144   2.0000      -0.919045       -25.0085
 145   2.0000      -0.912322       -24.8256
 146   2.0000      -0.909651       -24.7529
 147   2.0000      -0.901466       -24.5301
 148   2.0000      -0.898088       -24.4382
 149   2.0000      -0.896638       -24.3988
 150   2.0000      -0.889762       -24.2116
 151   2.0000      -0.881391       -23.9839
 152   2.0000      -0.875773       -23.8310
 153   2.0000      -0.870481       -23.6870
 154   2.0000      -0.860186       -23.4069
 155   2.0000      -0.848427       -23.0869
 156   2.0000      -0.842093       -22.9145
 157   2.0000      -0.834549       -22.7092
 158   2.0000      -0.831240       -22.6192
 159   2.0000      -0.829880       -22.5822
 160   2.0000      -0.820044       -22.3145
 161   2.0000      -0.813814       -22.1450
 162   2.0000      -0.806162       -21.9368
 163   2.0000      -0.789099       -21.4725
 164   2.0000      -0.775960       -21.1149
 165   2.0000      -0.765749       -20.8371
 166   2.0000      -0.764086       -20.7918
 167   2.0000      -0.752897       -20.4874
 168   2.0000      -0.747964       -20.3531
 169   2.0000      -0.745076       -20.2745
 170   2.0000      -0.727370       -19.7927
 171   2.0000      -0.722484       -19.6598
 172   2.0000      -0.704971       -19.1832
 173   2.0000      -0.697281       -18.9740
 174   2.0000      -0.694459       -18.8972
 175   2.0000      -0.691575       -18.8187
 176   2.0000      -0.680384       -18.5142
 177   2.0000      -0.677762       -18.4428
 178   2.0000      -0.671435       -18.2707
 179   2.0000      -0.664168       -18.0729
 180   2.0000      -0.661232       -17.9930
 181   2.0000      -0.656625       -17.8677
 182   2.0000      -0.649165       -17.6647
 183   2.0000      -0.648289       -17.6408
 184   2.0000      -0.637321       -17.3424
 185   2.0000      -0.631339       -17.1796
 186   2.0000      -0.626496       -17.0478
 187   2.0000      -0.619138       -16.8476
 188   2.0000      -0.616949       -16.7880
 189   2.0000      -0.611907       -16.6508
 190   2.0000      -0.602171       -16.3859
 191   2.0000      -0.596068       -16.2198
 192   2.0000      -0.587672       -15.9914
 193   2.0000      -0.584598       -15.9077
 194   2.0000      -0.583240       -15.8708
 195   2.0000      -0.578848       -15.7513
 196   2.0000      -0.572673       -15.5832
 197   2.0000      -0.568682       -15.4746
 198   2.0000      -0.557541       -15.1715
 199   2.0000      -0.556449       -15.1418
 200   2.0000      -0.548930       -14.9372
 201   2.0000      -0.547855       -14.9079
 202   2.0000      -0.546460       -14.8699
 203   2.0000      -0.540513       -14.7081
 204   2.0000      -0.537681       -14.6310
 205   2.0000      -0.533961       -14.5298
 206   2.0000      -0.532855       -14.4997
 207   2.0000      -0.532195       -14.4818
 208   2.0000      -0.529772       -14.4158
 209   2.0000      -0.525953       -14.3119
 210   2.0000      -0.525424       -14.2975
 211   2.0000      -0.523851       -14.2547
 212   2.0000      -0.522660       -14.2223
 213   2.0000      -0.520594       -14.1661
 214   2.0000      -0.517316       -14.0769
 215   2.0000      -0.516040       -14.0422
 216   2.0000      -0.513587       -13.9754
 217   2.0000      -0.510658       -13.8957
 218   2.0000      -0.507873       -13.8199
 219   2.0000      -0.506235       -13.7754
 220   2.0000      -0.505683       -13.7603
 221   2.0000      -0.502793       -13.6817
 222   2.0000      -0.500691       -13.6245
 223   2.0000      -0.499445       -13.5906
 224   2.0000      -0.498370       -13.5613
 225   2.0000      -0.497817       -13.5463
 226   2.0000      -0.491295       -13.3688
 227   2.0000      -0.487345       -13.2613
 228   2.0000      -0.481250       -13.0955
 229   2.0000      -0.477528       -12.9942
 230   2.0000      -0.475793       -12.9470
 231   2.0000      -0.474241       -12.9048
 232   2.0000      -0.469326       -12.7710
 233   2.0000      -0.466791       -12.7020
 234   2.0000      -0.462522       -12.5859
 235   2.0000      -0.459502       -12.5037
 236   2.0000      -0.457746       -12.4559
 237   2.0000      -0.453164       -12.3312
 238   2.0000      -0.452462       -12.3121
 239   2.0000      -0.451906       -12.2970
 240   2.0000      -0.449427       -12.2295
 241   2.0000      -0.446661       -12.1543
 242   2.0000      -0.443830       -12.0772
 243   2.0000      -0.441939       -12.0258
 244   2.0000      -0.440132       -11.9766
 245   2.0000      -0.439708       -11.9651
 246   2.0000      -0.437196       -11.8967
 247   2.0000      -0.435474       -11.8499
 248   2.0000      -0.432722       -11.7750
 249   2.0000      -0.432009       -11.7556
 250   2.0000      -0.429342       -11.6830
 251   2.0000      -0.428547       -11.6614
 252   2.0000      -0.427372       -11.6294
 253   2.0000      -0.425379       -11.5751
 254   2.0000      -0.422733       -11.5032
 255   2.0000      -0.419135       -11.4052
 256   2.0000      -0.417790       -11.3686
 257   2.0000      -0.415154       -11.2969
 258   2.0000      -0.412016       -11.2115
 259   2.0000      -0.409988       -11.1563
 260   2.0000      -0.409368       -11.1395
 261   2.0000      -0.404190       -10.9986
 262   2.0000      -0.403292       -10.9741
 263   2.0000      -0.394506       -10.7351
 264   2.0000      -0.391729       -10.6595
 265   2.0000      -0.387104       -10.5336
 266   2.0000      -0.384109       -10.4521
 267   2.0000      -0.378127       -10.2893
 268   2.0000      -0.377854       -10.2819
 269   2.0000      -0.372645       -10.1402
 270   2.0000      -0.368658       -10.0317
 271   2.0000      -0.364633        -9.9222
 272   2.0000      -0.359234        -9.7752
 273   2.0000      -0.351175        -9.5560
 274   2.0000      -0.347476        -9.4553
 275   2.0000      -0.344776        -9.3818
 276   2.0000      -0.332189        -9.0393
 277   2.0000      -0.323067        -8.7911
 278   2.0000      -0.320201        -8.7131
 279   2.0000      -0.311770        -8.4837
 280   2.0000      -0.306891        -8.3509
 281   2.0000      -0.300387        -8.1739
 282   2.0000      -0.298185        -8.1140
 283   2.0000      -0.296664        -8.0726
 284   2.0000      -0.287534        -7.8242
 285   2.0000      -0.278488        -7.5780
 286   2.0000      -0.270063        -7.3488
 287   2.0000      -0.231216        -6.2917
 288   0.0000      -0.107449        -2.9238
 289   0.0000      -0.081299        -2.2123
 290   0.0000      -0.068474        -1.8633
 291   0.0000      -0.056509        -1.5377
 292   0.0000      -0.045350        -1.2340

MULLIKEN ATOMIC CHARGES
-----------------------
   0 C :    0.319941
   1 C :   -0.361600
   2 C :   -0.187143
   3 N :    0.150312
   4 C :   -0.184062
   5 N :    0.150562
   6 C :    0.013400
   7 C :   -0.009174
   8 C :   -0.072043
   9 C :    0.119081
  10 C :   -0.092296
  11 C :   -0.017332
  12 S :    0.188877
  13 C :   -0.122909
  14 C :    0.038529
  15 Br:    0.026256
  16 C :    0.156756
  17 O :   -0.166789
  18 C :   -0.084763
  19 C :    0.062963
  20 C :   -0.090511
  21 C :   -0.019061
  22 C :    0.006249
  23 S :   -0.057132
  24 C :   -0.067969
  25 C :   -0.100299
  26 S :    0.154416
  27 C :   -0.044103
  28 C :   -0.051793
  29 C :    0.034278
  30 C :    0.069386
  31 C :   -0.119236
  32 S :    0.140519
  33 C :   -0.111746
  34 C :    0.049568
  35 C :   -0.003387
  36 C :   -0.064205
  37 S :    0.136685
  38 C :    0.105495
  39 C :   -0.004599
  40 C :    0.052028
  41 C :   -0.019996
  42 C :   -0.057413
  43 C :    0.039635
  44 S :    0.017287
  45 C :   -0.073362
  46 C :   -0.155895
  47 S :    0.150832
  48 C :    0.062668
  49 C :   -0.145095
  50 C :    0.284698
  51 C :   -0.343938
  52 C :   -0.182922
  53 N :    0.142624
  54 C :   -0.209409
  55 N :    0.164524
  56 C :    0.010441
  57 C :    0.005122
  58 C :    0.130368
  59 O :   -0.149913
  60 C :   -0.078455
  61 C :    0.113568
  62 C :   -0.088098
  63 C :   -0.036789
  64 S :    0.176097
  65 C :   -0.124385
  66 C :    0.036975
  67 Br:    0.014552
  68 H :   -0.012328
  69 H :   -0.006234
  70 H :   -0.003207
  71 H :   -0.003861
  72 H :    0.006107
  73 H :    0.069481
  74 H :    0.083105
  75 H :    0.077318
  76 H :    0.000739
  77 H :    0.041031
  78 H :   -0.010019
  79 H :    0.029659
  80 H :   -0.033669
  81 H :   -0.044088
  82 H :   -0.025986
  83 H :    0.068579
  84 H :    0.071699
  85 H :    0.069978
  86 H :    0.021029
  87 H :   -0.012309
  88 H :   -0.009161
  89 H :   -0.004734
Sum of atomic charges:   -0.0000000

LOEWDIN ATOMIC CHARGES
----------------------
   0 C :    0.076902
   1 C :   -0.142906
   2 C :   -0.017507
   3 N :   -0.053869
   4 C :   -0.024620
   5 N :   -0.050641
   6 C :   -0.021289
   7 C :   -0.051133
   8 C :    0.021668
   9 C :   -0.032549
  10 C :   -0.143354
  11 C :   -0.008747
  12 S :    0.434989
  13 C :   -0.270612
  14 C :   -0.070577
  15 Br:    0.138923
  16 C :    0.090898
  17 O :   -0.153009
  18 C :   -0.099117
  19 C :    0.048295
  20 C :   -0.178735
  21 C :   -0.031728
  22 C :   -0.189823
  23 S :    0.299559
  24 C :   -0.147368
  25 C :   -0.184880
  26 S :    0.453488
  27 C :   -0.189226
  28 C :   -0.014473
  29 C :   -0.015230
  30 C :   -0.051257
  31 C :   -0.133673
  32 S :    0.449707
  33 C :   -0.196660
  34 C :   -0.037115
  35 C :   -0.063094
  36 C :   -0.161519
  37 S :    0.430589
  38 C :   -0.041628
  39 C :    0.008427
  40 C :   -0.057372
  41 C :   -0.128583
  42 C :   -0.087735
  43 C :   -0.154405
  44 S :    0.373298
  45 C :   -0.153155
  46 C :   -0.203837
  47 S :    0.452123
  48 C :    0.032202
  49 C :   -0.108887
  50 C :    0.045830
  51 C :   -0.158224
  52 C :   -0.018807
  53 N :   -0.067660
  54 C :   -0.025450
  55 N :   -0.057743
  56 C :   -0.012731
  57 C :   -0.053955
  58 C :    0.083756
  59 O :   -0.149514
  60 C :    0.020760
  61 C :   -0.038661
  62 C :   -0.144063
  63 C :   -0.019455
  64 S :    0.425250
  65 C :   -0.276108
  66 C :   -0.070180
  67 Br:    0.129589
  68 H :    0.039964
  69 H :    0.041312
  70 H :    0.038891
  71 H :    0.043286
  72 H :    0.029988
  73 H :    0.036307
  74 H :    0.031125
  75 H :    0.035941
  76 H :    0.019755
  77 H :    0.039064
  78 H :    0.030368
  79 H :    0.025401
  80 H :    0.029201
  81 H :    0.025928
  82 H :    0.025063
  83 H :    0.037152
  84 H :    0.031644
  85 H :    0.025326
  86 H :    0.044002
  87 H :    0.039899
  88 H :    0.039039
  89 H :    0.037960

  Mayer bond orders larger than 0.100000
B(  0-C ,  1-C ) :   1.6109 B(  0-C ,  6-C ) :   0.9957 B(  0-C , 18-C ) :   1.0912
B(  1-C ,  2-C ) :   1.1514 B(  1-C ,  4-C ) :   1.1406 B(  2-C ,  3-N ) :   2.9636
B(  4-C ,  5-N ) :   2.9542 B(  6-C ,  7-C ) :   1.2743 B(  6-C , 11-C ) :   1.4088
B(  7-C ,  8-C ) :   1.4207 B(  7-C , 16-C ) :   0.9611 B(  8-C ,  9-C ) :   1.2456
B(  8-C , 68-H ) :   1.0169 B(  9-C , 10-C ) :   1.3028 B(  9-C , 14-C ) :   1.1632
B( 10-C , 11-C ) :   1.3335 B( 10-C , 12-S ) :   1.0876 B( 11-C , 69-H ) :   0.9787
B( 12-S , 13-C ) :   1.0871 B( 13-C , 14-C ) :   1.6165 B( 13-C , 15-Br) :   1.0200
B( 14-C , 70-H ) :   1.0008 B( 16-C , 17-O ) :   2.1375 B( 16-C , 18-C ) :   0.9430
B( 17-O , 72-H ) :   0.1144 B( 18-C , 19-C ) :   1.5661 B( 19-C , 20-C ) :   1.2390
B( 19-C , 71-H ) :   0.9069 B( 20-C , 21-C ) :   1.4234 B( 20-C , 26-S ) :   1.0937
B( 21-C , 22-C ) :   1.2916 B( 21-C , 72-H ) :   0.9654 B( 22-C , 23-S ) :   1.0107
B( 22-C , 25-C ) :   1.4681 B( 23-S , 24-C ) :   1.0096 B( 24-C , 73-H ) :   0.9676
B( 24-C , 74-H ) :   0.9645 B( 24-C , 75-H ) :   0.9664 B( 25-C , 26-S ) :   1.1501
B( 25-C , 27-C ) :   1.1555 B( 27-C , 28-C ) :   1.5229 B( 27-C , 32-S ) :   1.0416
B( 28-C , 29-C ) :   1.2825 B( 28-C , 76-H ) :   0.9461 B( 29-C , 30-C ) :   1.0508
B( 29-C , 38-C ) :   1.3542 B( 30-C , 31-C ) :   1.6001 B( 30-C , 33-C ) :   1.1774
B( 31-C , 32-S ) :   1.1470 B( 31-C , 77-H ) :   0.9409 B( 33-C , 34-C ) :   1.4442
B( 33-C , 37-S ) :   1.0838 B( 34-C , 35-C ) :   1.2157 B( 34-C , 38-C ) :   1.0763
B( 35-C , 36-C ) :   1.5887 B( 35-C , 78-H ) :   1.0020 B( 36-C , 37-S ) :   1.1556
B( 36-C , 79-H ) :   0.9647 B( 38-C , 39-C ) :   1.2020 B( 39-C , 40-C ) :   1.6090
B( 39-C , 80-H ) :   0.9539 B( 40-C , 41-C ) :   1.1301 B( 40-C , 81-H ) :   0.9753
B( 41-C , 42-C ) :   1.4531 B( 41-C , 47-S ) :   1.1383 B( 42-C , 43-C ) :   1.2889
B( 42-C , 82-H ) :   0.9863 B( 43-C , 44-S ) :   1.0646 B( 43-C , 46-C ) :   1.3959
B( 44-S , 45-C ) :   1.0145 B( 45-C , 83-H ) :   0.9683 B( 45-C , 84-H ) :   0.9654
B( 45-C , 85-H ) :   0.9617 B( 46-C , 47-S ) :   1.0909 B( 46-C , 48-C ) :   1.2278
B( 48-C , 49-C ) :   1.5745 B( 48-C , 86-H ) :   0.9247 B( 49-C , 50-C ) :   1.0928
B( 49-C , 58-C ) :   0.9538 B( 50-C , 51-C ) :   1.5814 B( 50-C , 56-C ) :   1.0102
B( 51-C , 52-C ) :   1.1444 B( 51-C , 54-C ) :   1.1708 B( 52-C , 53-N ) :   2.9830
B( 54-C , 55-N ) :   3.0125 B( 56-C , 57-C ) :   1.2781 B( 56-C , 63-C ) :   1.4239
B( 57-C , 58-C ) :   0.9180 B( 57-C , 60-C ) :   1.4274 B( 58-C , 59-O ) :   2.2612
B( 60-C , 61-C ) :   1.2452 B( 60-C , 87-H ) :   1.0171 B( 61-C , 62-C ) :   1.3178
B( 61-C , 66-C ) :   1.1598 B( 62-C , 63-C ) :   1.3143 B( 62-C , 64-S ) :   1.0829
B( 63-C , 88-H ) :   0.9844 B( 64-S , 65-C ) :   1.0829 B( 65-C , 66-C ) :   1.6239
B( 65-C , 67-Br) :   1.0132 B( 66-C , 89-H ) :   1.0003

-----------------------------------------------------------------------------
         ABSORPTION SPECTRUM VIA TRANSITION ELECTRIC DIPOLE MOMENTS
-----------------------------------------------------------------------------
State   Energy  Wavelength   fosc         T2         TX        TY        TZ
        (cm-1)    (nm)                  (au**2)     (au)      (au)      (au)
-----------------------------------------------------------------------------
   0   13471.8    742.3   1.248321540  30.50533   4.19888  -3.34787   1.29093
   1   18804.6    531.8   0.566660646   9.92054   0.41813   0.40811   3.09502
   2   21274.4    470.0   0.667478864  10.32892   0.79137  -1.39204  -2.78655
   3   22033.7    453.9   0.023781864   0.35533   0.13918  -0.55488   0.16756
   4   23446.3    426.5   0.047377723   0.66523  -0.24650   0.06843   0.77446
   5   24556.8    407.2   0.050752535   0.68040  -0.00984   0.60309   0.56266
   6   25565.3    391.2   0.183836048   2.36731   0.81444  -0.15204   1.29649
   7   25958.8    385.2   0.118130131   1.49814   1.09022  -0.38756   0.39919
   8   26402.4    378.8   0.239705088   2.98889   0.12351  -0.18670   1.71429
   9   26691.7    374.6   0.070525655   0.86985   0.13520   0.71632   0.58178
  10   27512.1    363.5   0.262696258   3.14344  -1.27775   1.20758  -0.22919
  11   28321.5    353.1   0.162559027   1.88960   1.01845  -0.32929   0.86252
  12   28990.0    344.9   0.234808013   2.66649   0.66756  -0.98010  -1.12261
  13   29392.6    340.2   0.010766399   0.12059  -0.18598  -0.06768  -0.28534
  14   29482.8    339.2   0.040463680   0.45183   0.45057  -0.43941  -0.23608
  15   29530.7    338.6   0.082257015   0.91701  -0.51681  -0.41340  -0.69211
  16   29611.3    337.7   0.056871887   0.63229  -0.56353   0.56036   0.02683
  17   30069.9    332.6   0.176405631   1.93133  -0.50643  -0.37573  -1.23842
  18   30802.5    324.6   0.183374041   1.95987   0.42955   0.63520   1.17127
  19   31180.8    320.7   0.057958837   0.61194  -0.64794   0.32479   0.29432
  20   31549.1    317.0   0.143691573   1.49941  -1.19056   0.25607   0.12809
  21   32237.3    310.2   0.244523483   2.49711   0.05702   0.58647   1.46625
  22   32592.2    306.8   0.426624210   4.30931  -0.24064   0.37012   2.02840
  23   32827.0    304.6   0.122427936   1.22779  -0.67090   0.05882  -0.87990
  24   33177.4    301.4   0.024165232   0.23979   0.23427   0.31577   0.29187
  25   33543.0    298.1   0.240150391   2.35699  -0.73141  -0.26355  -1.32384
  26   33637.2    297.3   0.001136266   0.01112   0.02549   0.04251   0.09308
  27   33850.5    295.4   0.133013764   1.29362   0.56456   0.60828   0.77774
  28   33985.5    294.2   0.006032765   0.05844  -0.20547  -0.01776  -0.12612
  29   34736.2    287.9   0.066816695   0.63325   0.23598   0.43150   0.62560
  30   35129.4    284.7   0.029791851   0.27919   0.25491  -0.34587  -0.30755
  31   35345.2    282.9   0.010852358   0.10108   0.21627  -0.23294   0.00678
  32   35809.4    279.3   0.098012112   0.90107  -0.02619   0.61566   0.72204
  33   36317.3    275.4   0.049651523   0.45009   0.58440  -0.31084  -0.10925
  34   36637.0    272.9   0.022236204   0.19981  -0.06125   0.42961  -0.10721
  35   36858.2    271.3   0.057844158   0.51666  -0.61913   0.01916  -0.36465
  36   36987.6    270.4   0.021329025   0.18984  -0.38030   0.04798  -0.20714
  37   37179.9    269.0   0.062448425   0.55295   0.23707  -0.36999   0.59988
  38   37358.7    267.7   0.032248404   0.28418  -0.23739   0.47431  -0.05342
  39   37590.5    266.0   0.236066457   2.06743   1.30758  -0.59718   0.03219
  40   38038.1    262.9   0.044180288   0.38237   0.00223   0.08426  -0.61259
  41   38451.1    260.1   0.033083193   0.28325  -0.27357   0.45028   0.07524
  42   38598.3    259.1   0.007266992   0.06198  -0.02832   0.24713  -0.01039
  43   38810.8    257.7   0.116152449   0.98526  -0.66574   0.19956   0.70868
  44   38857.5    257.4   0.002386142   0.02022  -0.02538   0.10019   0.09765
  45   39060.3    256.0   0.073155507   0.61658   0.51669  -0.55138   0.21352
  46   39252.7    254.8   0.061003280   0.51163   0.58697  -0.40817   0.02234
  47   39355.3    254.1   0.087152574   0.72904  -0.21263   0.61500   0.55282
  48   39587.6    252.6   0.126319626   1.05048   0.84799  -0.51004   0.26691
  49   39839.4    251.0   0.162263011   1.34086   0.14940  -0.69168  -0.91658
  50   40249.0    248.5   0.009852983   0.08059  -0.19874   0.17825   0.09654

FINAL SINGLE POINT ENERGY    -10693.601480437374

DIPOLE MOMENT
-------------
                                X             Y             Z
Electronic contribution:     23.75937     -77.55468    -150.02309
Nuclear contribution   :    -24.16174      76.72346     150.10117
                        -----------------------------------------
Total Dipole Moment    :     -0.40237      -0.83122       0.07808
                        -----------------------------------------
Magnitude (a.u.)       :      0.92678
Magnitude (Debye)      :      2.35568

Rotational constants in cm-1:     0.000569     0.000281     0.000191
Rotational constants in MHz :    17.051466     8.415774     5.720075

                             ****ORCA TERMINATED NORMALLY****
TOTAL RUN TIME: 0 days 0 hours 9 minutes 34 seconds 234 msec
