                         Program Version 4.2.0 -  RELEASE  -
|  1> # ORCA input file
|  2> # SCF done       -144.878857359340          0.000490979132
|  3> ! CAM-B3LYP def2-SVP def2/J RIJCOSX Grid4 TightSCF
|  4> %maxcore 5000
|  5> %tddft
|  6>     Mode sTDDFT
|  7>     Ethresh 5.0
|  8>     maxcore 5000
|  9> end
| 10>
| 11> %pal
| 12>   nprocs 6
| 13>   end
| 14> * xyz 0 1
| 15>    C       -5.26246         1.11011        -7.20300
| 16>    C       -3.94159         0.92439        -6.93070
| 17>    C       -3.48663         1.83437        -5.95672
| 18>    C       -4.49672         2.69443        -5.51599
| 19>    S       -5.98785         2.39078        -6.28748
| 20>    C       -3.94806         3.57551        -4.53634
| 21>    C       -2.59634         3.26346        -4.36706
| 22>    C       -2.25713         2.15841        -5.25369
| 23>    C       -1.03999         1.55753        -5.39211
| 24>    C        0.08681         1.96525        -4.64838
| 25>    N        1.00500         2.29431        -4.04495
| 26>    C       -0.82491         0.48972        -6.28806
| 27>    N       -0.64381        -0.37923        -7.01417
| 28>    C       -1.96514         4.07658        -3.41783
| 29>    C       -2.82296         5.00116        -2.86406
| 30>    S       -4.44335         4.86069        -3.53332
| 31>    C       -2.54810         5.99949        -1.85647
| 32>    C       -1.22996         6.19364        -1.38933
| 33>    C       -0.91688         7.12272        -0.42628
| 34>    C       -1.95498         7.89028         0.09353
| 35>    C       -3.27511         7.70174        -0.37843
| 36>    C       -3.59183         6.77166        -1.34287
| 37>    O       -4.07151         8.56464         0.28806
| 38>    C       -3.23692         9.23159         1.12243
| 39>    N       -1.98694         8.86929         1.04319
| 40>    C       -3.72657        10.24382         2.02710
| 41>    C       -2.84794        10.82634         2.92214
| 42>    C       -3.27120        11.79274         3.83122
| 43>    C       -4.58287        12.22139         3.88221
| 44>    C       -5.51177        11.64654         2.97150
| 45>    N       -6.80839        12.01350         3.02171
| 46>    C       -7.63649        11.46471         2.17624
| 47>    C       -7.20530        10.52018         1.22484
| 48>    N       -5.96372        10.12462         1.16590
| 49>    C       -5.08630        10.65807         2.03633
| 50>    C       -5.01873        13.21617         4.86865
| 51>    C       -5.89307        14.25286         4.49703
| 52>    C       -6.34678        15.19181         5.39513
| 53>    C       -5.90850        15.08026         6.70934
| 54>    C       -5.01420        14.05173         7.07844
| 55>    C       -4.55573        13.11302         6.17788
| 56>    O       -4.75334        14.18991         8.40153
| 57>    C       -5.48256        15.26621         8.77617
| 58>    N       -6.17763        15.82099         7.82789
| 59>    C       -5.46830        15.68342        10.14750
| 60>    N       -4.91816        15.02333        11.13290
| 61>    C       -5.23422        15.68747        12.26760
| 62>    C       -6.01535        16.76889        11.97822
| 63>    N       -6.14949        16.79462        10.61248
| 64>    C       -6.92452        17.74704         9.91088
| 65>    O       -8.03234        18.04066        10.25579
| 66>    N       -6.27355        18.33257         8.84448
| 67>    C       -6.89840        19.02494         7.82636
| 68>    N       -6.06122        19.44157         6.94255
| 69>    C       -4.82309        19.03452         7.36669
| 70>    C       -4.92754        18.34280         8.52760
| 71>    H       -5.87370         0.56809        -7.89634
| 72>    H       -3.33375         0.17560        -7.40465
| 73>    H       -0.93041         3.98371        -3.14603
| 74>    H       -0.43759         5.59334        -1.80611
| 75>    H        0.09419         7.25851        -0.07987
| 76>    H       -4.60857         6.64567        -1.68059
| 77>    H       -1.81700        10.50981         2.90111
| 78>    H       -2.54788        12.22960         4.50340
| 79>    H       -8.67142        11.77271         2.24294
| 80>    H       -7.88825        10.08195         0.50967
| 81>    H       -6.21033        14.30899         3.46879
| 82>    H       -7.01424        15.98592         5.10476
| 83>    H       -3.89749        12.31759         6.48725
| 84>    H       -4.88638        15.34281        13.21998
| 85>    H       -6.46373        17.52053        12.59393
| 86>    H       -7.96020        19.16280         7.80906
| 87>    H       -3.94612        19.27435         6.80025
| 88>    H       -4.18536        17.89398         9.15445
| 89> *
| 90>
| 91>                          ****END OF INPUT****

CARTESIAN COORDINATES (ANGSTROEM)
---------------------------------
  C     -5.262460    1.110110   -7.203000
  C     -3.941590    0.924390   -6.930700
  C     -3.486630    1.834370   -5.956720
  C     -4.496720    2.694430   -5.515990
  S     -5.987850    2.390780   -6.287480
  C     -3.948060    3.575510   -4.536340
  C     -2.596340    3.263460   -4.367060
  C     -2.257130    2.158410   -5.253690
  C     -1.039990    1.557530   -5.392110
  C      0.086810    1.965250   -4.648380
  N      1.005000    2.294310   -4.044950
  C     -0.824910    0.489720   -6.288060
  N     -0.643810   -0.379230   -7.014170
  C     -1.965140    4.076580   -3.417830
  C     -2.822960    5.001160   -2.864060
  S     -4.443350    4.860690   -3.533320
  C     -2.548100    5.999490   -1.856470
  C     -1.229960    6.193640   -1.389330
  C     -0.916880    7.122720   -0.426280
  C     -1.954980    7.890280    0.093530
  C     -3.275110    7.701740   -0.378430
  C     -3.591830    6.771660   -1.342870
  O     -4.071510    8.564640    0.288060
  C     -3.236920    9.231590    1.122430
  N     -1.986940    8.869290    1.043190
  C     -3.726570   10.243820    2.027100
  C     -2.847940   10.826340    2.922140
  C     -3.271200   11.792740    3.831220
  C     -4.582870   12.221390    3.882210
  C     -5.511770   11.646540    2.971500
  N     -6.808390   12.013500    3.021710
  C     -7.636490   11.464710    2.176240
  C     -7.205300   10.520180    1.224840
  N     -5.963720   10.124620    1.165900
  C     -5.086300   10.658070    2.036330
  C     -5.018730   13.216170    4.868650
  C     -5.893070   14.252860    4.497030
  C     -6.346780   15.191810    5.395130
  C     -5.908500   15.080260    6.709340
  C     -5.014200   14.051730    7.078440
  C     -4.555730   13.113020    6.177880
  O     -4.753340   14.189910    8.401530
  C     -5.482560   15.266210    8.776170
  N     -6.177630   15.820990    7.827890
  C     -5.468300   15.683420   10.147500
  N     -4.918160   15.023330   11.132900
  C     -5.234220   15.687470   12.267600
  C     -6.015350   16.768890   11.978220
  N     -6.149490   16.794620   10.612480
  C     -6.924520   17.747040    9.910880
  O     -8.032340   18.040660   10.255790
  N     -6.273550   18.332570    8.844480
  C     -6.898400   19.024940    7.826360
  N     -6.061220   19.441570    6.942550
  C     -4.823090   19.034520    7.366690
  C     -4.927540   18.342800    8.527600
  H     -5.873700    0.568090   -7.896340
  H     -3.333750    0.175600   -7.404650
  H     -0.930410    3.983710   -3.146030
  H     -0.437590    5.593340   -1.806110
  H      0.094190    7.258510   -0.079870
  H     -4.608570    6.645670   -1.680590
  H     -1.817000   10.509810    2.901110
  H     -2.547880   12.229600    4.503400
  H     -8.671420   11.772710    2.242940
  H     -7.888250   10.081950    0.509670
  H     -6.210330   14.308990    3.468790
  H     -7.014240   15.985920    5.104760
  H     -3.897490   12.317590    6.487250
  H     -4.886380   15.342810   13.219980
  H     -6.463730   17.520530   12.593930
  H     -7.960200   19.162800    7.809060
  H     -3.946120   19.274350    6.800250
  H     -4.185360   17.893980    9.154450

 Total Charge           Charge          ....    0
 Multiplicity           Mult            ....    1
 Number of Electrons    NEL             ....  390
 Basis Dimension        Dim             ....  882

ORBITAL ENERGIES
----------------

  NO   OCC          E(Eh)            E(eV)
   0   2.0000     -88.981930     -2421.3214
   1   2.0000     -88.980538     -2421.2835
   2   2.0000     -19.304266      -525.2958
   3   2.0000     -19.293264      -524.9964
   4   2.0000     -19.240043      -523.5482
   5   2.0000     -14.502563      -394.6348
   6   2.0000     -14.487285      -394.2191
   7   2.0000     -14.427733      -392.5986
   8   2.0000     -14.424243      -392.5036
   9   2.0000     -14.423992      -392.4968
  10   2.0000     -14.423371      -392.4799
  11   2.0000     -14.417488      -392.3198
  12   2.0000     -14.413377      -392.2079
  13   2.0000     -14.405211      -391.9857
  14   2.0000     -14.395051      -391.7092
  15   2.0000     -10.453701      -284.4597
  16   2.0000     -10.383758      -282.5564
  17   2.0000     -10.371050      -282.2106
  18   2.0000     -10.358102      -281.8583
  19   2.0000     -10.356458      -281.8136
  20   2.0000     -10.344617      -281.4913
  21   2.0000     -10.336025      -281.2575
  22   2.0000     -10.332285      -281.1558
  23   2.0000     -10.330497      -281.1071
  24   2.0000     -10.325847      -280.9806
  25   2.0000     -10.324810      -280.9524
  26   2.0000     -10.324024      -280.9310
  27   2.0000     -10.323439      -280.9151
  28   2.0000     -10.323110      -280.9061
  29   2.0000     -10.322849      -280.8990
  30   2.0000     -10.322175      -280.8807
  31   2.0000     -10.321858      -280.8720
  32   2.0000     -10.321801      -280.8705
  33   2.0000     -10.314636      -280.6755
  34   2.0000     -10.307454      -280.4801
  35   2.0000     -10.305811      -280.4354
  36   2.0000     -10.305424      -280.4248
  37   2.0000     -10.300911      -280.3020
  38   2.0000     -10.300392      -280.2879
  39   2.0000     -10.298971      -280.2493
  40   2.0000     -10.298313      -280.2313
  41   2.0000     -10.296514      -280.1824
  42   2.0000     -10.293005      -280.0869
  43   2.0000     -10.292542      -280.0743
  44   2.0000     -10.291909      -280.0571
  45   2.0000     -10.291310      -280.0408
  46   2.0000     -10.290222      -280.0112
  47   2.0000     -10.290078      -280.0073
  48   2.0000     -10.288411      -279.9619
  49   2.0000     -10.288178      -279.9555
  50   2.0000     -10.286459      -279.9088
  51   2.0000     -10.285854      -279.8923
  52   2.0000     -10.278226      -279.6848
  53   2.0000     -10.277337      -279.6606
  54   2.0000     -10.276702      -279.6433
  55   2.0000     -10.273752      -279.5630
  56   2.0000      -8.077015      -219.7867
  57   2.0000      -8.075111      -219.7349
  58   2.0000      -6.046256      -164.5270
  59   2.0000      -6.044277      -164.4731
  60   2.0000      -6.041829      -164.4065
  61   2.0000      -6.040161      -164.3611
  62   2.0000      -6.039616      -164.3463
  63   2.0000      -6.037608      -164.2917
  64   2.0000      -1.235656       -33.6239
  65   2.0000      -1.226697       -33.3801
  66   2.0000      -1.197970       -32.5984
  67   2.0000      -1.133749       -30.8509
  68   2.0000      -1.118535       -30.4369
  69   2.0000      -1.084821       -29.5195
  70   2.0000      -1.035669       -28.1820
  71   2.0000      -1.029077       -28.0026
  72   2.0000      -1.018016       -27.7016
  73   2.0000      -1.015021       -27.6201
  74   2.0000      -1.009165       -27.4608
  75   2.0000      -1.008118       -27.4323
  76   2.0000      -1.001412       -27.2498
  77   2.0000      -0.989537       -26.9267
  78   2.0000      -0.978737       -26.6328
  79   2.0000      -0.972271       -26.4568
  80   2.0000      -0.959925       -26.1209
  81   2.0000      -0.950947       -25.8766
  82   2.0000      -0.943248       -25.6671
  83   2.0000      -0.904283       -24.6068
  84   2.0000      -0.897135       -24.4123
  85   2.0000      -0.879791       -23.9403
  86   2.0000      -0.863232       -23.4897
  87   2.0000      -0.860340       -23.4110
  88   2.0000      -0.851896       -23.1813
  89   2.0000      -0.847798       -23.0698
  90   2.0000      -0.846135       -23.0245
  91   2.0000      -0.843404       -22.9502
  92   2.0000      -0.841266       -22.8920
  93   2.0000      -0.822291       -22.3757
  94   2.0000      -0.798964       -21.7409
  95   2.0000      -0.784247       -21.3404
  96   2.0000      -0.769215       -20.9314
  97   2.0000      -0.765119       -20.8200
  98   2.0000      -0.755717       -20.5641
  99   2.0000      -0.752277       -20.4705
 100   2.0000      -0.741546       -20.1785
 101   2.0000      -0.733554       -19.9610
 102   2.0000      -0.722941       -19.6722
 103   2.0000      -0.718914       -19.5626
 104   2.0000      -0.701794       -19.0968
 105   2.0000      -0.696769       -18.9601
 106   2.0000      -0.693890       -18.8817
 107   2.0000      -0.692001       -18.8303
 108   2.0000      -0.686417       -18.6783
 109   2.0000      -0.682137       -18.5619
 110   2.0000      -0.669733       -18.2244
 111   2.0000      -0.663649       -18.0588
 112   2.0000      -0.659565       -17.9477
 113   2.0000      -0.651196       -17.7200
 114   2.0000      -0.639112       -17.3911
 115   2.0000      -0.632420       -17.2090
 116   2.0000      -0.626031       -17.0352
 117   2.0000      -0.619710       -16.8632
 118   2.0000      -0.616631       -16.7794
 119   2.0000      -0.609265       -16.5789
 120   2.0000      -0.605369       -16.4729
 121   2.0000      -0.599778       -16.3208
 122   2.0000      -0.591997       -16.1091
 123   2.0000      -0.586650       -15.9636
 124   2.0000      -0.584816       -15.9137
 125   2.0000      -0.581676       -15.8282
 126   2.0000      -0.575813       -15.6687
 127   2.0000      -0.573334       -15.6012
 128   2.0000      -0.571190       -15.5429
 129   2.0000      -0.561023       -15.2662
 130   2.0000      -0.552120       -15.0239
 131   2.0000      -0.550341       -14.9755
 132   2.0000      -0.545263       -14.8374
 133   2.0000      -0.538297       -14.6478
 134   2.0000      -0.537803       -14.6344
 135   2.0000      -0.535534       -14.5726
 136   2.0000      -0.533959       -14.5298
 137   2.0000      -0.531513       -14.4632
 138   2.0000      -0.529826       -14.4173
 139   2.0000      -0.527071       -14.3423
 140   2.0000      -0.522856       -14.2276
 141   2.0000      -0.519991       -14.1497
 142   2.0000      -0.518201       -14.1010
 143   2.0000      -0.516293       -14.0491
 144   2.0000      -0.509717       -13.8701
 145   2.0000      -0.504447       -13.7267
 146   2.0000      -0.497845       -13.5471
 147   2.0000      -0.496559       -13.5121
 148   2.0000      -0.494915       -13.4673
 149   2.0000      -0.489945       -13.3321
 150   2.0000      -0.484704       -13.1895
 151   2.0000      -0.483251       -13.1499
 152   2.0000      -0.479959       -13.0603
 153   2.0000      -0.477461       -12.9924
 154   2.0000      -0.462884       -12.5957
 155   2.0000      -0.461920       -12.5695
 156   2.0000      -0.458801       -12.4846
 157   2.0000      -0.456973       -12.4349
 158   2.0000      -0.455465       -12.3938
 159   2.0000      -0.451300       -12.2805
 160   2.0000      -0.450980       -12.2718
 161   2.0000      -0.449960       -12.2440
 162   2.0000      -0.447493       -12.1769
 163   2.0000      -0.440954       -11.9990
 164   2.0000      -0.437667       -11.9095
 165   2.0000      -0.435055       -11.8384
 166   2.0000      -0.434220       -11.8157
 167   2.0000      -0.432017       -11.7558
 168   2.0000      -0.429099       -11.6764
 169   2.0000      -0.426007       -11.5922
 170   2.0000      -0.421096       -11.4586
 171   2.0000      -0.417959       -11.3732
 172   2.0000      -0.416458       -11.3324
 173   2.0000      -0.408826       -11.1247
 174   2.0000      -0.399966       -10.8836
 175   2.0000      -0.386658       -10.5215
 176   2.0000      -0.384500       -10.4628
 177   2.0000      -0.381116       -10.3707
 178   2.0000      -0.370795       -10.0898
 179   2.0000      -0.364672        -9.9232
 180   2.0000      -0.363733        -9.8977
 181   2.0000      -0.359027        -9.7696
 182   2.0000      -0.352177        -9.5832
 183   2.0000      -0.347846        -9.4654
 184   2.0000      -0.339951        -9.2505
 185   2.0000      -0.335934        -9.1412
 186   2.0000      -0.331620        -9.0238
 187   2.0000      -0.325293        -8.8517
 188   2.0000      -0.320068        -8.7095
 189   2.0000      -0.315394        -8.5823
 190   2.0000      -0.313312        -8.5257
 191   2.0000      -0.310808        -8.4575
 192   2.0000      -0.301477        -8.2036
 193   2.0000      -0.277355        -7.5472
 194   2.0000      -0.250015        -6.8033
 195   0.0000      -0.095114        -2.5882
 196   0.0000      -0.065362        -1.7786
 197   0.0000      -0.039334        -1.0703
 198   0.0000      -0.022830        -0.6212
 199   0.0000      -0.009974        -0.2714

MULLIKEN ATOMIC CHARGES
-----------------------
   0 C :   -0.083922
   1 C :    0.036229
   2 C :   -0.035836
   3 C :   -0.116294
   4 S :    0.176723
   5 C :   -0.095579
   6 C :    0.006407
   7 C :    0.300028
   8 C :   -0.300220
   9 C :   -0.186252
  10 N :    0.166302
  11 C :   -0.189946
  12 N :    0.170796
  13 C :   -0.041471
  14 C :   -0.071033
  15 S :    0.154691
  16 C :    0.156707
  17 C :   -0.036876
  18 C :   -0.041371
  19 C :    0.023974
  20 C :    0.236803
  21 C :   -0.176596
  22 O :   -0.159218
  23 C :    0.060665
  24 N :   -0.046654
  25 C :    0.041983
  26 C :   -0.003359
  27 C :   -0.038375
  28 C :    0.094229
  29 C :   -0.054561
  30 N :   -0.013322
  31 C :    0.027809
  32 C :    0.024175
  33 N :    0.010097
  34 C :   -0.023680
  35 C :    0.044780
  36 C :    0.052933
  37 C :   -0.061914
  38 C :    0.054142
  39 C :    0.238702
  40 C :   -0.143452
  41 O :   -0.169525
  42 C :    0.126319
  43 N :   -0.078976
  44 C :   -0.017900
  45 N :   -0.063458
  46 C :    0.031275
  47 C :    0.099319
  48 N :   -0.176126
  49 C :    0.214756
  50 O :   -0.132410
  51 N :   -0.145568
  52 C :    0.114110
  53 N :   -0.111750
  54 C :    0.004694
  55 C :    0.077789
  56 H :    0.034586
  57 H :    0.010968
  58 H :    0.002779
  59 H :   -0.014941
  60 H :   -0.019379
  61 H :   -0.009062
  62 H :    0.003872
  63 H :   -0.011574
  64 H :    0.012830
  65 H :    0.012863
  66 H :   -0.015823
  67 H :   -0.017603
  68 H :   -0.014742
  69 H :    0.003819
  70 H :    0.026655
  71 H :    0.032225
  72 H :    0.003833
  73 H :    0.027901
Sum of atomic charges:   -0.0000000

LOEWDIN ATOMIC CHARGES
----------------------
   0 C :   -0.181303
   1 C :   -0.034550
   2 C :   -0.079268
   3 C :   -0.182434
   4 S :    0.474120
   5 C :   -0.184380
   6 C :   -0.072209
   7 C :    0.085553
   8 C :   -0.107185
   9 C :   -0.015556
  10 N :   -0.038524
  11 C :   -0.016830
  12 N :   -0.036609
  13 C :   -0.034075
  14 C :   -0.152294
  15 S :    0.473867
  16 C :   -0.038395
  17 C :   -0.018498
  18 C :   -0.014824
  19 C :   -0.033021
  20 C :    0.033209
  21 C :   -0.050895
  22 O :    0.019630
  23 C :    0.073250
  24 N :   -0.106201
  25 C :   -0.053078
  26 C :    0.026316
  27 C :   -0.013828
  28 C :    0.000068
  29 C :   -0.007313
  30 N :   -0.029621
  31 C :    0.003386
  32 C :    0.006649
  33 N :   -0.032696
  34 C :   -0.001532
  35 C :   -0.014262
  36 C :   -0.001322
  37 C :   -0.018937
  38 C :   -0.028639
  39 C :    0.031631
  40 C :   -0.033001
  41 O :    0.017473
  42 C :    0.046628
  43 N :   -0.105823
  44 C :   -0.017854
  45 N :   -0.075594
  46 C :   -0.029095
  47 C :    0.010387
  48 N :    0.038264
  49 C :    0.119778
  50 O :   -0.122206
  51 N :    0.038270
  52 C :    0.053338
  53 N :   -0.093418
  54 C :   -0.024925
  55 C :   -0.022785
  56 H :    0.026638
  57 H :    0.042014
  58 H :    0.037680
  59 H :    0.031751
  60 H :    0.037382
  61 H :    0.026051
  62 H :    0.040938
  63 H :    0.034272
  64 H :    0.026603
  65 H :    0.026540
  66 H :    0.029329
  67 H :    0.037902
  68 H :    0.036809
  69 H :    0.026006
  70 H :    0.034960
  71 H :    0.025927
  72 H :    0.023182
  73 H :    0.027180

  Mayer bond orders larger than 0.100000
B(  0-C ,  1-C ) :   1.5511 B(  0-C ,  4-S ) :   1.1470 B(  0-C , 56-H ) :   0.9645
B(  1-C ,  2-C ) :   1.2751 B(  1-C , 57-H ) :   0.9963 B(  2-C ,  3-C ) :   1.4662
B(  2-C ,  7-C ) :   1.0128 B(  3-C ,  4-S ) :   1.1373 B(  3-C ,  5-C ) :   1.1686
B(  5-C ,  6-C ) :   1.4737 B(  5-C , 15-S ) :   1.1224 B(  6-C ,  7-C ) :   0.9999
B(  6-C , 13-C ) :   1.2649 B(  7-C ,  8-C ) :   1.7065 B(  8-C ,  9-C ) :   1.1353
B(  8-C , 11-C ) :   1.1272 B(  9-C , 10-N ) :   2.9873 B( 11-C , 12-N ) :   3.0033
B( 13-C , 14-C ) :   1.5121 B( 13-C , 58-H ) :   0.9890 B( 14-C , 15-S ) :   1.1077
B( 14-C , 16-C ) :   1.0724 B( 16-C , 17-C ) :   1.3131 B( 16-C , 21-C ) :   1.3079
B( 17-C , 18-C ) :   1.4162 B( 17-C , 59-H ) :   0.9897 B( 18-C , 19-C ) :   1.2834
B( 18-C , 60-H ) :   1.0179 B( 19-C , 20-C ) :   1.2672 B( 19-C , 24-N ) :   1.3051
B( 20-C , 21-C ) :   1.3505 B( 20-C , 22-O ) :   1.1233 B( 21-C , 61-H ) :   1.0023
B( 22-O , 23-C ) :   1.1901 B( 23-C , 24-N ) :   1.7717 B( 23-C , 25-C ) :   0.9863
B( 25-C , 26-C ) :   1.4832 B( 25-C , 28-C ) :   0.1245 B( 25-C , 34-C ) :   1.2035
B( 26-C , 27-C ) :   1.2161 B( 26-C , 62-H ) :   0.9969 B( 27-C , 28-C ) :   1.4479
B( 27-C , 63-H ) :   1.0019 B( 28-C , 29-C ) :   1.2497 B( 28-C , 35-C ) :   0.9690
B( 29-C , 30-N ) :   1.4655 B( 29-C , 34-C ) :   1.2345 B( 30-N , 31-C ) :   1.6586
B( 31-C , 32-C ) :   1.2230 B( 31-C , 64-H ) :   0.9741 B( 32-C , 33-N ) :   1.6614
B( 32-C , 65-H ) :   0.9746 B( 33-N , 34-C ) :   1.5046 B( 35-C , 36-C ) :   1.3406
B( 35-C , 40-C ) :   1.3578 B( 36-C , 37-C ) :   1.4045 B( 36-C , 66-H ) :   0.9810
B( 37-C , 38-C ) :   1.2868 B( 37-C , 40-C ) :   0.1042 B( 37-C , 67-H ) :   1.0211
B( 38-C , 39-C ) :   1.2783 B( 38-C , 43-N ) :   1.2729 B( 39-C , 40-C ) :   1.3099
B( 39-C , 41-O ) :   1.0988 B( 40-C , 68-H ) :   1.0207 B( 41-O , 42-C ) :   1.2232
B( 42-C , 43-N ) :   1.7197 B( 42-C , 44-C ) :   0.9921 B( 44-C , 45-N ) :   1.7392
B( 44-C , 47-C ) :   0.1043 B( 44-C , 48-N ) :   1.1526 B( 45-N , 46-C ) :   1.3678
B( 46-C , 47-C ) :   1.5159 B( 46-C , 69-H ) :   0.9973 B( 47-C , 48-N ) :   1.1373
B( 47-C , 70-H ) :   0.9867 B( 48-N , 49-C ) :   0.9364 B( 49-C , 50-O ) :   2.2279
B( 49-C , 51-N ) :   1.0423 B( 51-N , 52-C ) :   1.0999 B( 51-N , 55-C ) :   1.0870
B( 52-C , 53-N ) :   1.7621 B( 52-C , 71-H ) :   0.9818 B( 53-N , 54-C ) :   1.3198
B( 54-C , 55-C ) :   1.6021 B( 54-C , 72-H ) :   1.0036 B( 55-C , 73-H ) :   0.9843

-----------------------------------------------------------------------------
         ABSORPTION SPECTRUM VIA TRANSITION ELECTRIC DIPOLE MOMENTS
-----------------------------------------------------------------------------
State   Energy  Wavelength   fosc         T2         TX        TY        TZ
        (cm-1)    (nm)                  (au**2)     (au)      (au)      (au)
-----------------------------------------------------------------------------
   0   14524.0    688.5   0.073169094   1.65851   0.25984   0.86462   0.91838
   1   25372.4    394.1   1.530728117  19.86152   0.87051  -3.06087  -3.12007
   2   27536.0    363.2   0.003459802   0.04136  -0.18186  -0.05789  -0.07028
   3   28701.8    348.4   0.003186028   0.03654   0.05770   0.01118  -0.18191
   4   30816.6    324.5   0.068729248   0.73423   0.13257  -0.04705  -0.84525
   5   31959.4    312.9   0.695673144   7.16609  -2.09196   1.49009   0.75462
   6   32769.1    305.2   0.361904351   3.63584  -0.30436   1.22962   1.42522
   7   33247.6    300.8   0.434831346   4.30562   1.06410   0.90561   1.53401
   8   33410.3    299.3   0.384735438   3.79103   0.01989   1.02106   1.65773
   9   33923.0    294.8   0.272179372   2.64142  -0.35158  -1.33082  -0.86413
  10   34558.9    289.4   0.060991414   0.58101  -0.71947   0.25116   0.01706
  11   36456.1    274.3   0.014070945   0.12707  -0.22911   0.13180  -0.23917
  12   36781.7    271.9   0.010783301   0.09652   0.28293   0.08789   0.09351
  13   37267.9    268.3   0.062020965   0.54787  -0.48809   0.53824   0.14121
  14   37769.6    264.8   0.016431260   0.14322  -0.23742   0.25609   0.14584
  15   37844.8    264.2   0.011129449   0.09682   0.27402   0.13070  -0.06817
  16   38424.6    260.2   0.020759112   0.17786   0.05416   0.26866   0.32054
  17   39052.4    256.1   0.016093588   0.13567  -0.24841  -0.10395  -0.25130
  18   39583.5    252.6   0.043945439   0.36549   0.02995  -0.31933  -0.51246
  19   39848.7    250.9   0.252338189   2.08470   0.94327  -0.48784  -0.97824

FINAL SINGLE POINT ENERGY     -3139.586435018678

DIPOLE MOMENT
-------------
                                X             Y             Z
Electronic contribution:      0.45208     -23.18605     -18.90587
Nuclear contribution   :     -2.20509      24.01587      19.48594
                        -----------------------------------------
Total Dipole Moment    :     -1.75301       0.82982       0.58008
                        -----------------------------------------
Magnitude (a.u.)       :      2.02438
Magnitude (Debye)      :      5.14557

Rotational constants in cm-1:     0.005781     0.000312     0.000304
Rotational constants in MHz :   173.312125     9.345911     9.105877

                             ****ORCA TERMINATED NORMALLY****
TOTAL RUN TIME: 0 days 0 hours 6 minutes 3 seconds 719 msec
