                         Program Version 4.2.0 -  RELEASE  -
|  1> # ORCA input file
|  2> # SCF done       -148.757698470446          0.000556568059
|  3> ! CAM-B3LYP def2-SVP def2/J RIJCOSX Grid4 TightSCF
|  4> %maxcore 5000
|  5> %tddft
|  6>     Mode sTDDFT
|  7>     Ethresh 5.0
|  8>     maxcore 5000
|  9> end
| 10>
| 11> %pal
| 12>   nprocs 6
| 13>   end
| 14> * xyz 0 1
| 15>    C       -1.05889        -2.95637        -0.15961
| 16>    C       -2.00429        -2.51765        -1.03629
| 17>    C       -2.09397        -1.11247        -1.03030
| 18>    C       -1.19732        -0.52425        -0.13259
| 19>    S       -0.25521        -1.68184         0.69439
| 20>    C       -1.35483         0.89221        -0.19597
| 21>    C       -2.34854         1.18625        -1.13665
| 22>    C       -2.85218        -0.06381        -1.69033
| 23>    C       -3.83439        -0.21154        -2.62536
| 24>    C       -4.50096         0.89534        -3.19130
| 25>    N       -5.04193         1.79516        -3.65220
| 26>    C       -4.25112        -1.47837        -3.08543
| 27>    N       -4.59420        -2.50572        -3.46158
| 28>    C       -2.57390         2.55921        -1.27743
| 29>    C       -1.76538         3.30571        -0.44785
| 30>    S       -0.70487         2.29207         0.52498
| 31>    C       -1.71580         4.73304        -0.31418
| 32>    C       -1.01068         5.36998         0.72017
| 33>    N       -0.95990         6.67212         0.85940
| 34>    C       -1.61820         7.40693        -0.04177
| 35>    N       -2.31348         6.91016        -1.07000
| 36>    C       -2.36211         5.60798        -1.20475
| 37>    C       -1.58363         8.83327         0.08646
| 38>    C       -0.98363         9.58801         1.07237
| 39>    C       -1.17212        10.95361         0.85264
| 40>    C       -1.91599        11.21561        -0.31253
| 41>    S       -2.38859         9.79555        -1.12785
| 42>    C       -2.04834        12.62497        -0.45058
| 43>    C       -1.39835        13.24634         0.62482
| 44>    C       -0.82394        12.21824         1.48020
| 45>    C       -0.10964        12.40771         2.62657
| 46>    C        0.15921        13.69591         3.13515
| 47>    N        0.37787        14.74300         3.54831
| 48>    C        0.40840        11.33477         3.38262
| 49>    N        0.83582        10.47366         4.00718
| 50>    C       -1.47745        14.64123         0.57427
| 51>    C       -2.17193        15.08155        -0.53232
| 52>    S       -2.74297        13.74814        -1.52805
| 53>    C       -2.44271        16.43535        -0.92248
| 54>    C       -2.92303        16.76786        -2.19992
| 55>    N       -3.16242        17.99876        -2.57871
| 56>    C       -2.93171        18.96758        -1.68673
| 57>    N       -2.48989        18.76659        -0.44082
| 58>    C       -2.25222        17.53375        -0.06642
| 59>    C       -3.17422        20.32189        -2.08316
| 60>    C       -3.57713        20.78588        -3.31791
| 61>    C       -3.70084        22.17618        -3.32318
| 62>    C       -3.39178        22.75097        -2.07881
| 63>    S       -2.94287        21.59526        -0.91058
| 64>    C       -3.55436        24.16371        -2.18746
| 65>    C       -3.95864        24.47107        -3.49071
| 66>    C       -4.06089        23.23771        -4.25266
| 67>    C       -4.40978        23.10366        -5.56451
| 68>    C       -4.73284        24.21377        -6.37305
| 69>    N       -4.99565        25.11207        -7.03564
| 70>    C       -4.46791        21.84960        -6.20875
| 71>    N       -4.51751        20.83835        -6.74665
| 72>    C       -4.14486        25.85292        -3.68483
| 73>    C       -3.88331        26.55147        -2.54489
| 74>    S       -3.40504        25.55575        -1.21145
| 75>    H       -0.77405        -3.96866         0.04633
| 76>    H       -2.59924        -3.16974        -1.64912
| 77>    H       -3.29904         2.99029        -1.94274
| 78>    H       -0.47256         4.79261         1.46311
| 79>    H       -2.92496         5.24307        -2.05332
| 80>    H       -0.44881         9.14226         1.89061
| 81>    H       -1.03855        15.30202         1.29890
| 82>    H       -3.11139        15.99830        -2.93963
| 83>    H       -1.90833        17.40823         0.95156
| 84>    H       -3.76056        20.12639        -4.14593
| 85>    H       -4.45348        26.30931        -4.60742
| 86>    H       -3.94183        27.61138        -2.39780
| 87> *
| 88>
| 89>                          ****END OF INPUT****

CARTESIAN COORDINATES (ANGSTROEM)
---------------------------------
  C     -1.058890   -2.956370   -0.159610
  C     -2.004290   -2.517650   -1.036290
  C     -2.093970   -1.112470   -1.030300
  C     -1.197320   -0.524250   -0.132590
  S     -0.255210   -1.681840    0.694390
  C     -1.354830    0.892210   -0.195970
  C     -2.348540    1.186250   -1.136650
  C     -2.852180   -0.063810   -1.690330
  C     -3.834390   -0.211540   -2.625360
  C     -4.500960    0.895340   -3.191300
  N     -5.041930    1.795160   -3.652200
  C     -4.251120   -1.478370   -3.085430
  N     -4.594200   -2.505720   -3.461580
  C     -2.573900    2.559210   -1.277430
  C     -1.765380    3.305710   -0.447850
  S     -0.704870    2.292070    0.524980
  C     -1.715800    4.733040   -0.314180
  C     -1.010680    5.369980    0.720170
  N     -0.959900    6.672120    0.859400
  C     -1.618200    7.406930   -0.041770
  N     -2.313480    6.910160   -1.070000
  C     -2.362110    5.607980   -1.204750
  C     -1.583630    8.833270    0.086460
  C     -0.983630    9.588010    1.072370
  C     -1.172120   10.953610    0.852640
  C     -1.915990   11.215610   -0.312530
  S     -2.388590    9.795550   -1.127850
  C     -2.048340   12.624970   -0.450580
  C     -1.398350   13.246340    0.624820
  C     -0.823940   12.218240    1.480200
  C     -0.109640   12.407710    2.626570
  C      0.159210   13.695910    3.135150
  N      0.377870   14.743000    3.548310
  C      0.408400   11.334770    3.382620
  N      0.835820   10.473660    4.007180
  C     -1.477450   14.641230    0.574270
  C     -2.171930   15.081550   -0.532320
  S     -2.742970   13.748140   -1.528050
  C     -2.442710   16.435350   -0.922480
  C     -2.923030   16.767860   -2.199920
  N     -3.162420   17.998760   -2.578710
  C     -2.931710   18.967580   -1.686730
  N     -2.489890   18.766590   -0.440820
  C     -2.252220   17.533750   -0.066420
  C     -3.174220   20.321890   -2.083160
  C     -3.577130   20.785880   -3.317910
  C     -3.700840   22.176180   -3.323180
  C     -3.391780   22.750970   -2.078810
  S     -2.942870   21.595260   -0.910580
  C     -3.554360   24.163710   -2.187460
  C     -3.958640   24.471070   -3.490710
  C     -4.060890   23.237710   -4.252660
  C     -4.409780   23.103660   -5.564510
  C     -4.732840   24.213770   -6.373050
  N     -4.995650   25.112070   -7.035640
  C     -4.467910   21.849600   -6.208750
  N     -4.517510   20.838350   -6.746650
  C     -4.144860   25.852920   -3.684830
  C     -3.883310   26.551470   -2.544890
  S     -3.405040   25.555750   -1.211450
  H     -0.774050   -3.968660    0.046330
  H     -2.599240   -3.169740   -1.649120
  H     -3.299040    2.990290   -1.942740
  H     -0.472560    4.792610    1.463110
  H     -2.924960    5.243070   -2.053320
  H     -0.448810    9.142260    1.890610
  H     -1.038550   15.302020    1.298900
  H     -3.111390   15.998300   -2.939630
  H     -1.908330   17.408230    0.951560
  H     -3.760560   20.126390   -4.145930
  H     -4.453480   26.309310   -4.607420
  H     -3.941830   27.611380   -2.397800

 Total Charge           Charge          ....    0
 Multiplicity           Mult            ....    1
 Number of Electrons    NEL             ....  442
 Basis Dimension        Dim             ....  924

ORBITAL ENERGIES
----------------

  NO   OCC          E(Eh)            E(eV)
   0   2.0000     -88.995224     -2421.6832
   1   2.0000     -88.992851     -2421.6186
   2   2.0000     -88.991544     -2421.5830
   3   2.0000     -88.987769     -2421.4803
   4   2.0000     -88.983848     -2421.3736
   5   2.0000     -88.982213     -2421.3291
   6   2.0000     -14.433291      -392.7498
   7   2.0000     -14.431850      -392.7106
   8   2.0000     -14.431204      -392.6930
   9   2.0000     -14.429078      -392.6352
  10   2.0000     -14.428307      -392.6142
  11   2.0000     -14.427008      -392.5788
  12   2.0000     -14.424744      -392.5172
  13   2.0000     -14.423715      -392.4893
  14   2.0000     -14.423283      -392.4775
  15   2.0000     -14.422746      -392.4629
  16   2.0000     -10.366665      -282.0913
  17   2.0000     -10.364462      -282.0314
  18   2.0000     -10.361676      -281.9555
  19   2.0000     -10.358584      -281.8714
  20   2.0000     -10.356935      -281.8265
  21   2.0000     -10.354378      -281.7569
  22   2.0000     -10.352198      -281.6976
  23   2.0000     -10.345029      -281.5025
  24   2.0000     -10.338605      -281.3278
  25   2.0000     -10.338315      -281.3198
  26   2.0000     -10.336205      -281.2624
  27   2.0000     -10.335891      -281.2539
  28   2.0000     -10.335359      -281.2394
  29   2.0000     -10.333806      -281.1972
  30   2.0000     -10.333688      -281.1939
  31   2.0000     -10.332763      -281.1688
  32   2.0000     -10.332097      -281.1507
  33   2.0000     -10.332007      -281.1482
  34   2.0000     -10.331766      -281.1417
  35   2.0000     -10.330095      -281.0962
  36   2.0000     -10.329284      -281.0741
  37   2.0000     -10.329208      -281.0720
  38   2.0000     -10.325989      -280.9845
  39   2.0000     -10.324387      -280.9408
  40   2.0000     -10.324335      -280.9394
  41   2.0000     -10.323141      -280.9070
  42   2.0000     -10.315377      -280.6957
  43   2.0000     -10.314378      -280.6685
  44   2.0000     -10.313666      -280.6491
  45   2.0000     -10.310957      -280.5754
  46   2.0000     -10.308939      -280.5205
  47   2.0000     -10.307798      -280.4894
  48   2.0000     -10.306155      -280.4447
  49   2.0000     -10.305590      -280.4294
  50   2.0000     -10.305477      -280.4263
  51   2.0000     -10.304169      -280.3907
  52   2.0000     -10.303111      -280.3619
  53   2.0000     -10.301324      -280.3133
  54   2.0000     -10.300863      -280.3007
  55   2.0000     -10.300276      -280.2847
  56   2.0000     -10.296053      -280.1698
  57   2.0000     -10.294967      -280.1403
  58   2.0000     -10.294332      -280.1230
  59   2.0000     -10.293882      -280.1108
  60   2.0000      -8.089652      -220.1306
  61   2.0000      -8.087410      -220.0696
  62   2.0000      -8.086451      -220.0435
  63   2.0000      -8.081833      -219.9178
  64   2.0000      -8.078946      -219.8393
  65   2.0000      -8.076405      -219.7702
  66   2.0000      -6.058889      -164.8708
  67   2.0000      -6.056628      -164.8092
  68   2.0000      -6.055658      -164.7828
  69   2.0000      -6.054686      -164.7564
  70   2.0000      -6.052462      -164.6959
  71   2.0000      -6.052132      -164.6869
  72   2.0000      -6.051277      -164.6636
  73   2.0000      -6.051035      -164.6570
  74   2.0000      -6.049837      -164.6244
  75   2.0000      -6.049120      -164.6049
  76   2.0000      -6.048158      -164.5788
  77   2.0000      -6.046693      -164.5389
  78   2.0000      -6.045573      -164.5084
  79   2.0000      -6.044484      -164.4788
  80   2.0000      -6.043762      -164.4591
  81   2.0000      -6.041563      -164.3993
  82   2.0000      -6.041305      -164.3923
  83   2.0000      -6.039035      -164.3305
  84   2.0000      -1.101874       -29.9835
  85   2.0000      -1.098411       -29.8893
  86   2.0000      -1.046788       -28.4846
  87   2.0000      -1.044596       -28.4249
  88   2.0000      -1.036761       -28.2117
  89   2.0000      -1.024372       -27.8746
  90   2.0000      -1.022048       -27.8113
  91   2.0000      -1.014891       -27.6166
  92   2.0000      -1.010265       -27.4907
  93   2.0000      -1.007733       -27.4218
  94   2.0000      -1.001206       -27.2442
  95   2.0000      -1.000816       -27.2336
  96   2.0000      -0.998065       -27.1587
  97   2.0000      -0.996008       -27.1028
  98   2.0000      -0.993178       -27.0258
  99   2.0000      -0.988221       -26.8909
 100   2.0000      -0.963017       -26.2050
 101   2.0000      -0.959684       -26.1143
 102   2.0000      -0.950701       -25.8699
 103   2.0000      -0.930720       -25.3262
 104   2.0000      -0.924384       -25.1538
 105   2.0000      -0.907492       -24.6941
 106   2.0000      -0.897647       -24.4262
 107   2.0000      -0.887918       -24.1615
 108   2.0000      -0.870547       -23.6888
 109   2.0000      -0.866096       -23.5677
 110   2.0000      -0.858903       -23.3719
 111   2.0000      -0.855900       -23.2902
 112   2.0000      -0.854994       -23.2656
 113   2.0000      -0.846629       -23.0379
 114   2.0000      -0.832607       -22.6564
 115   2.0000      -0.814720       -22.1697
 116   2.0000      -0.787175       -21.4201
 117   2.0000      -0.781957       -21.2781
 118   2.0000      -0.779484       -21.2108
 119   2.0000      -0.773106       -21.0373
 120   2.0000      -0.764844       -20.8125
 121   2.0000      -0.759970       -20.6798
 122   2.0000      -0.754814       -20.5395
 123   2.0000      -0.744115       -20.2484
 124   2.0000      -0.706631       -19.2284
 125   2.0000      -0.704447       -19.1690
 126   2.0000      -0.701757       -19.0958
 127   2.0000      -0.696546       -18.9540
 128   2.0000      -0.694794       -18.9063
 129   2.0000      -0.687966       -18.7205
 130   2.0000      -0.683072       -18.5873
 131   2.0000      -0.678862       -18.4728
 132   2.0000      -0.670791       -18.2532
 133   2.0000      -0.652361       -17.7516
 134   2.0000      -0.648262       -17.6401
 135   2.0000      -0.644690       -17.5429
 136   2.0000      -0.640041       -17.4164
 137   2.0000      -0.632809       -17.2196
 138   2.0000      -0.624346       -16.9893
 139   2.0000      -0.619814       -16.8660
 140   2.0000      -0.617268       -16.7967
 141   2.0000      -0.613041       -16.6817
 142   2.0000      -0.608973       -16.5710
 143   2.0000      -0.607891       -16.5416
 144   2.0000      -0.595838       -16.2136
 145   2.0000      -0.591550       -16.0969
 146   2.0000      -0.574376       -15.6296
 147   2.0000      -0.566061       -15.4033
 148   2.0000      -0.553309       -15.0563
 149   2.0000      -0.550607       -14.9828
 150   2.0000      -0.549388       -14.9496
 151   2.0000      -0.546325       -14.8663
 152   2.0000      -0.545072       -14.8322
 153   2.0000      -0.539824       -14.6894
 154   2.0000      -0.535260       -14.5652
 155   2.0000      -0.532808       -14.4984
 156   2.0000      -0.530711       -14.4414
 157   2.0000      -0.522694       -14.2232
 158   2.0000      -0.521256       -14.1841
 159   2.0000      -0.516164       -14.0455
 160   2.0000      -0.511998       -13.9322
 161   2.0000      -0.507012       -13.7965
 162   2.0000      -0.504143       -13.7184
 163   2.0000      -0.501926       -13.6581
 164   2.0000      -0.498148       -13.5553
 165   2.0000      -0.496552       -13.5119
 166   2.0000      -0.495092       -13.4721
 167   2.0000      -0.494431       -13.4541
 168   2.0000      -0.490856       -13.3569
 169   2.0000      -0.488370       -13.2892
 170   2.0000      -0.487469       -13.2647
 171   2.0000      -0.484278       -13.1779
 172   2.0000      -0.479486       -13.0475
 173   2.0000      -0.474298       -12.9063
 174   2.0000      -0.473035       -12.8719
 175   2.0000      -0.468522       -12.7491
 176   2.0000      -0.464065       -12.6278
 177   2.0000      -0.463342       -12.6082
 178   2.0000      -0.461836       -12.5672
 179   2.0000      -0.460107       -12.5201
 180   2.0000      -0.457516       -12.4496
 181   2.0000      -0.454930       -12.3793
 182   2.0000      -0.454171       -12.3586
 183   2.0000      -0.451660       -12.2903
 184   2.0000      -0.450702       -12.2642
 185   2.0000      -0.445647       -12.1267
 186   2.0000      -0.444908       -12.1066
 187   2.0000      -0.443029       -12.0554
 188   2.0000      -0.442935       -12.0529
 189   2.0000      -0.441303       -12.0085
 190   2.0000      -0.440442       -11.9850
 191   2.0000      -0.439066       -11.9476
 192   2.0000      -0.436942       -11.8898
 193   2.0000      -0.433810       -11.8046
 194   2.0000      -0.432417       -11.7667
 195   2.0000      -0.432262       -11.7625
 196   2.0000      -0.428798       -11.6682
 197   2.0000      -0.426290       -11.6000
 198   2.0000      -0.419566       -11.4170
 199   2.0000      -0.418321       -11.3831
 200   2.0000      -0.411082       -11.1861
 201   2.0000      -0.407961       -11.1012
 202   2.0000      -0.407175       -11.0798
 203   2.0000      -0.398934       -10.8556
 204   2.0000      -0.398187       -10.8352
 205   2.0000      -0.395181       -10.7534
 206   2.0000      -0.393348       -10.7035
 207   2.0000      -0.370874       -10.0920
 208   2.0000      -0.355830        -9.6826
 209   2.0000      -0.350908        -9.5487
 210   2.0000      -0.348612        -9.4862
 211   2.0000      -0.340571        -9.2674
 212   2.0000      -0.338355        -9.2071
 213   2.0000      -0.335147        -9.1198
 214   2.0000      -0.333680        -9.0799
 215   2.0000      -0.324298        -8.8246
 216   2.0000      -0.320919        -8.7327
 217   2.0000      -0.314503        -8.5581
 218   2.0000      -0.289379        -7.8744
 219   2.0000      -0.270345        -7.3565
 220   2.0000      -0.252234        -6.8636
 221   0.0000      -0.107238        -2.9181
 222   0.0000      -0.103832        -2.8254
 223   0.0000      -0.096011        -2.6126
 224   0.0000      -0.061381        -1.6703
 225   0.0000      -0.045099        -1.2272

MULLIKEN ATOMIC CHARGES
-----------------------
   0 C :   -0.080548
   1 C :    0.036635
   2 C :   -0.028534
   3 C :   -0.119723
   4 S :    0.185299
   5 C :   -0.097139
   6 C :    0.009580
   7 C :    0.296216
   8 C :   -0.296789
   9 C :   -0.188271
  10 N :    0.171808
  11 C :   -0.189881
  12 N :    0.177828
  13 C :   -0.038279
  14 C :   -0.063129
  15 S :    0.174973
  16 C :    0.035806
  17 C :    0.008886
  18 N :   -0.037068
  19 C :   -0.075674
  20 N :   -0.066757
  21 C :    0.030942
  22 C :   -0.035162
  23 C :   -0.042178
  24 C :    0.006312
  25 C :   -0.095081
  26 S :    0.239561
  27 C :   -0.101761
  28 C :    0.011502
  29 C :    0.302182
  30 C :   -0.299481
  31 C :   -0.185619
  32 N :    0.167588
  33 C :   -0.193549
  34 N :    0.182564
  35 C :   -0.040753
  36 C :   -0.057440
  37 S :    0.180250
  38 C :    0.025703
  39 C :    0.012482
  40 N :   -0.038147
  41 C :   -0.076797
  42 N :   -0.065468
  43 C :    0.034748
  44 C :   -0.041657
  45 C :   -0.036518
  46 C :    0.000728
  47 C :   -0.095001
  48 S :    0.233858
  49 C :   -0.121515
  50 C :   -0.027615
  51 C :    0.300105
  52 C :   -0.300497
  53 C :   -0.191005
  54 N :    0.170533
  55 C :   -0.191250
  56 N :    0.175679
  57 C :    0.034475
  58 C :   -0.081363
  59 S :    0.183183
  60 H :    0.037432
  61 H :    0.013859
  62 H :    0.006716
  63 H :    0.014944
  64 H :    0.015476
  65 H :    0.017934
  66 H :    0.007636
  67 H :    0.015445
  68 H :    0.013826
  69 H :    0.018458
  70 H :    0.011475
  71 H :    0.037022
Sum of atomic charges:    0.0000000

LOEWDIN ATOMIC CHARGES
----------------------
   0 C :   -0.175949
   1 C :   -0.033703
   2 C :   -0.074996
   3 C :   -0.186301
   4 S :    0.480853
   5 C :   -0.176611
   6 C :   -0.071452
   7 C :    0.083133
   8 C :   -0.102978
   9 C :   -0.016050
  10 N :   -0.034905
  11 C :   -0.017362
  12 N :   -0.031125
  13 C :   -0.026992
  14 C :   -0.165591
  15 S :    0.477998
  16 C :   -0.088803
  17 C :    0.042654
  18 N :   -0.073048
  19 C :    0.009322
  20 N :   -0.091832
  21 C :    0.059589
  22 C :   -0.189306
  23 C :   -0.001020
  24 C :   -0.075665
  25 C :   -0.176481
  26 S :    0.515964
  27 C :   -0.180125
  28 C :   -0.066704
  29 C :    0.081906
  30 C :   -0.102673
  31 C :   -0.015464
  32 N :   -0.036312
  33 C :   -0.018739
  34 N :   -0.028869
  35 C :   -0.029182
  36 C :   -0.161038
  37 S :    0.479996
  38 C :   -0.092506
  39 C :    0.043738
  40 N :   -0.073384
  41 C :    0.012150
  42 N :   -0.092441
  43 C :    0.059975
  44 C :   -0.193739
  45 C :    0.000219
  46 C :   -0.077716
  47 C :   -0.173870
  48 S :    0.512474
  49 C :   -0.187153
  50 C :   -0.072639
  51 C :    0.082621
  52 C :   -0.105289
  53 C :   -0.016608
  54 N :   -0.036567
  55 C :   -0.018192
  56 N :   -0.032863
  57 C :   -0.035172
  58 C :   -0.176678
  59 S :    0.478950
  60 H :    0.028313
  61 H :    0.043067
  62 H :    0.039158
  63 H :    0.020527
  64 H :    0.029959
  65 H :    0.046037
  66 H :    0.039451
  67 H :    0.020700
  68 H :    0.029541
  69 H :    0.045702
  70 H :    0.042358
  71 H :    0.027742

  Mayer bond orders larger than 0.100000
B(  0-C ,  1-C ) :   1.5474 B(  0-C ,  4-S ) :   1.1530 B(  0-C , 60-H ) :   0.9643
B(  1-C ,  2-C ) :   1.2788 B(  1-C , 61-H ) :   0.9960 B(  2-C ,  3-C ) :   1.4615
B(  2-C ,  7-C ) :   1.0145 B(  3-C ,  4-S ) :   1.1366 B(  3-C ,  5-C ) :   1.1768
B(  5-C ,  6-C ) :   1.4681 B(  5-C , 15-S ) :   1.1296 B(  6-C ,  7-C ) :   0.9973
B(  6-C , 13-C ) :   1.2769 B(  7-C ,  8-C ) :   1.7109 B(  8-C ,  9-C ) :   1.1338
B(  8-C , 11-C ) :   1.1306 B(  9-C , 10-N ) :   2.9891 B( 11-C , 12-N ) :   3.0033
B( 13-C , 14-C ) :   1.5041 B( 13-C , 62-H ) :   0.9889 B( 14-C , 15-S ) :   1.1047
B( 14-C , 16-C ) :   1.0720 B( 16-C , 17-C ) :   1.3003 B( 16-C , 21-C ) :   1.3213
B( 17-C , 18-N ) :   1.5882 B( 17-C , 63-H ) :   0.9824 B( 18-N , 19-C ) :   1.5761
B( 19-C , 20-N ) :   1.5681 B( 19-C , 22-C ) :   1.0300 B( 20-N , 21-C ) :   1.5804
B( 21-C , 64-H ) :   0.9839 B( 22-C , 23-C ) :   1.4821 B( 22-C , 26-S ) :   1.1080
B( 23-C , 24-C ) :   1.2630 B( 23-C , 65-H ) :   1.0069 B( 24-C , 25-C ) :   1.4337
B( 24-C , 29-C ) :   0.9967 B( 25-C , 26-S ) :   1.1353 B( 25-C , 27-C ) :   1.1811
B( 27-C , 28-C ) :   1.4593 B( 27-C , 37-S ) :   1.1247 B( 28-C , 29-C ) :   0.9964
B( 28-C , 35-C ) :   1.2793 B( 29-C , 30-C ) :   1.7131 B( 30-C , 31-C ) :   1.1335
B( 30-C , 33-C ) :   1.1332 B( 31-C , 32-N ) :   2.9877 B( 33-C , 34-N ) :   3.0021
B( 35-C , 36-C ) :   1.5003 B( 35-C , 66-H ) :   0.9888 B( 36-C , 37-S ) :   1.1084
B( 36-C , 38-C ) :   1.0673 B( 38-C , 39-C ) :   1.2991 B( 38-C , 43-C ) :   1.3235
B( 39-C , 40-N ) :   1.5925 B( 39-C , 67-H ) :   0.9821 B( 40-N , 41-C ) :   1.5730
B( 41-C , 42-N ) :   1.5699 B( 41-C , 44-C ) :   1.0326 B( 42-N , 43-C ) :   1.5822
B( 43-C , 68-H ) :   0.9838 B( 44-C , 45-C ) :   1.4827 B( 44-C , 48-S ) :   1.1068
B( 45-C , 46-C ) :   1.2632 B( 45-C , 69-H ) :   1.0063 B( 46-C , 47-C ) :   1.4412
B( 46-C , 51-C ) :   0.9969 B( 47-C , 48-S ) :   1.1396 B( 47-C , 49-C ) :   1.1831
B( 49-C , 50-C ) :   1.4616 B( 49-C , 59-S ) :   1.1361 B( 50-C , 51-C ) :   1.0149
B( 50-C , 57-C ) :   1.2790 B( 51-C , 52-C ) :   1.7100 B( 52-C , 53-C ) :   1.1309
B( 52-C , 55-C ) :   1.1322 B( 53-C , 54-N ) :   3.0008 B( 55-C , 56-N ) :   3.0003
B( 57-C , 58-C ) :   1.5463 B( 57-C , 70-H ) :   0.9958 B( 58-C , 59-S ) :   1.1541
B( 58-C , 71-H ) :   0.9642

-----------------------------------------------------------------------------
         ABSORPTION SPECTRUM VIA TRANSITION ELECTRIC DIPOLE MOMENTS
-----------------------------------------------------------------------------
State   Energy  Wavelength   fosc         T2         TX        TY        TZ
        (cm-1)    (nm)                  (au**2)     (au)      (au)      (au)
-----------------------------------------------------------------------------
   0   14091.2    709.7   0.225558093   5.26968  -0.19649   2.27473  -0.23805
   1   15354.5    651.3   0.058596194   1.25634  -0.02991   1.11907   0.05599
   2   16306.1    613.3   0.065735779   1.32717   0.17012  -1.12055   0.20640
   3   23820.7    419.8   0.464246744   6.41609  -0.28814   2.47753  -0.44146
   4   24402.2    409.8   0.870020821  11.73753  -0.08949   3.42439  -0.05531
   5   25435.9    393.1   1.246710738  16.13595   0.37321  -3.95621   0.58740
   6   26701.0    374.5   0.117681719   1.45096  -0.10550  -1.18700  -0.17570
   7   27991.0    357.3   0.357844104   4.20873  -0.05869   2.04878  -0.08815
   8   29364.3    340.5   0.427118736   4.78856  -1.12114  -0.06712  -1.87806
   9   30777.9    324.9   0.010501377   0.11233  -0.01506  -0.33294   0.03537
  10   31644.9    316.0   0.149684132   1.55721  -0.66214  -0.73006  -0.76537
  11   31866.9    313.8   0.683732755   7.06354   0.65744   0.44283   2.53677
  12   32044.3    312.1   0.852041637   8.75357  -2.02935  -0.07859  -2.15155
  13   32128.6    311.2   0.003643259   0.03733   0.01946   0.07702   0.17613
  14   32347.2    309.1   0.010706302   0.10896   0.11334   0.23457   0.20272
  15   32901.7    303.9   0.121279359   1.21351   0.29920   0.67962   0.81370
  16   33235.7    300.9   0.492650157   4.87989   0.54897  -2.08941   0.46140
  17   33656.7    297.1   0.043545305   0.42594  -0.23678   0.44149  -0.41828
  18   33856.0    295.4   0.219553956   2.13492   0.00836   1.45714  -0.10764
  19   34177.3    292.6   0.028569344   0.27519   0.05970  -0.52090   0.01695
  20   34712.6    288.1   0.114850497   1.08923  -0.57654   0.09955  -0.86425
  21   34831.4    287.1   0.013850842   0.13091   0.08774  -0.04229   0.34846
  22   34941.3    286.2   0.017241919   0.16245   0.12620  -0.37277   0.08701
  23   35201.4    284.1   0.079132780   0.74007   0.26344   0.76046   0.30394
  24   35245.8    283.7   0.003483746   0.03254  -0.08274  -0.15175  -0.05164
  25   35281.3    283.4   0.037246605   0.34755   0.12121   0.53194   0.22339
  26   35630.9    280.7   0.024425069   0.22568  -0.38343   0.06125  -0.27369
  27   36394.7    274.8   0.018451494   0.16690  -0.12103  -0.03940  -0.38821
  28   37341.1    267.8   0.012345779   0.10884  -0.27265   0.07956  -0.16786
  29   37511.2    266.6   0.061040278   0.53571  -0.24404  -0.23648  -0.64825
  30   37670.6    265.5   0.007732218   0.06757  -0.17030  -0.16270   0.11000
  31   37871.7    264.0   0.008518840   0.07405   0.15500  -0.01304  -0.22329
  32   38238.8    261.5   0.011946210   0.10285  -0.20747  -0.06996  -0.23433
  33   39533.6    252.9   0.068355825   0.56923  -0.08270  -0.60363  -0.44500
  34   39564.1    252.8   0.017910218   0.14903   0.33208  -0.09889   0.17022
  35   39634.9    252.3   0.097963901   0.81370  -0.10542   0.88910  -0.10994
  36   39776.1    251.4   0.014471323   0.11977  -0.14938  -0.27106   0.15487

FINAL SINGLE POINT ENERGY     -4616.857526569628

DIPOLE MOMENT
-------------
                                X             Y             Z
Electronic contribution:      1.07140       2.67402       2.07904
Nuclear contribution   :     -0.04556      -4.07055      -0.28307
                        -----------------------------------------
Total Dipole Moment    :      1.02583      -1.39653       1.79597
                        -----------------------------------------
Magnitude (a.u.)       :      2.49563
Magnitude (Debye)      :      6.34338

Rotational constants in cm-1:     0.003086     0.000227     0.000212
Rotational constants in MHz :    92.510162     6.792684     6.355034

                             ****ORCA TERMINATED NORMALLY****
TOTAL RUN TIME: 0 days 0 hours 5 minutes 41 seconds 168 msec
