                         Program Version 4.2.0 -  RELEASE  -
|  1> # ORCA input file
|  2> # SCF done       -176.641455285358          0.000472200907
|  3> ! CAM-B3LYP def2-SVP def2/J RIJCOSX Grid4 TightSCF
|  4> %maxcore 5000
|  5> %tddft
|  6>     Mode sTDDFT
|  7>     Ethresh 5.0
|  8>     maxcore 5000
|  9> end
| 10>
| 11> %pal
| 12>   nprocs 6
| 13>   end
| 14> * xyz 0 1
| 15>    C        2.01246        -1.38316         3.38362
| 16>    C        1.12988        -2.32936         4.12775
| 17>    O        1.18545        -2.56468         5.31445
| 18>    C        0.18314        -2.84539         3.12469
| 19>    C        0.53739        -2.36721         1.86237
| 20>    C        1.76145        -1.57779         1.97193
| 21>    C        2.62994        -1.31591         0.94531
| 22>    C        3.92800        -0.79705         1.12872
| 23>    N        5.00701        -0.41762         1.22427
| 24>    C        2.37477        -1.61949        -0.40814
| 25>    N        2.21725        -1.82467        -1.52628
| 26>    C       -0.22794        -2.69480         0.73570
| 27>    C       -1.32437        -3.50139         0.89649
| 28>    C       -1.69991        -4.01585         2.15683
| 29>    C       -0.93365        -3.68288         3.31178
| 30>    C       -1.31304        -4.19629         4.56871
| 31>    C       -2.40698        -5.01002         4.67627
| 32>    C       -3.16477        -5.34241         3.54177
| 33>    C       -2.82085        -4.85681         2.31005
| 34>    C        2.78765        -0.51710         4.08606
| 35>    C        3.42837         0.67117         3.65797
| 36>    C        3.12786         1.50451         2.59596
| 37>    C        3.97574         2.60664         2.54181
| 38>    C        4.94506         2.62076         3.55578
| 39>    S        4.77020         1.28087         4.61377
| 40>    C        5.80704         3.71534         3.44731
| 41>    C        5.48603         4.54037         2.36171
| 42>    S        4.11243         3.96464         1.45983
| 43>    C        6.33603         5.63842         2.22581
| 44>    C        7.31171         5.64996         3.20089
| 45>    S        7.17917         4.29665         4.30809
| 46>    C        8.35604         6.59999         3.36064
| 47>    C        9.38742         6.58225         4.27744
| 48>    F        9.53171         5.61990         5.19445
| 49>    C       10.27351         7.66205         4.15767
| 50>    F       11.33741         7.82261         4.95160
| 51>    C        9.94461         8.54763         3.15163
| 52>    S        8.50122         8.00525         2.34276
| 53>    C       10.62864         9.73452         2.77399
| 54>    C       10.23347        10.66475         1.83515
| 55>    C       11.15254        11.70925         1.72696
| 56>    C       12.25664        11.57202         2.57812
| 57>    S       12.15475        10.14446         3.53382
| 58>    C       13.16252        12.62763         2.44793
| 59>    C       12.74380        13.57321         1.49942
| 60>    S       11.22086        13.15748         0.76248
| 61>    C       13.63603        14.62701         1.32899
| 62>    C       14.75003        14.50066         2.14043
| 63>    S       14.66468        13.06398         3.15159
| 64>    C       15.86668        15.35040         2.31513
| 65>    C       16.34813        16.35820         1.54077
| 66>    C       17.29956        17.32979         2.15765
| 67>    O       17.87059        17.18528         3.21591
| 68>    C       17.33525        18.47680         1.23558
| 69>    C       16.58047        18.18222         0.09957
| 70>    C       16.08809        16.80930         0.19197
| 71>    C       15.70876        16.03183        -0.87084
| 72>    C       15.52395        14.63712        -0.78632
| 73>    N       15.39960        13.49624        -0.76893
| 74>    C       15.55060        16.50972        -2.18809
| 75>    N       15.38402        16.84419        -3.27340
| 76>    C       16.42645        19.13189        -0.91853
| 77>    C       17.04216        20.34907        -0.78210
| 78>    C       17.83224        20.66957         0.34359
| 79>    C       17.98789        19.71500         1.39057
| 80>    C       18.77654        20.03754         2.51370
| 81>    C       19.39035        21.25695         2.59412
| 82>    C       19.24129        22.20113         1.56542
| 83>    C       18.47917        21.91616         0.46580
| 84>    H        0.03091        -2.31289        -0.23843
| 85>    H       -1.92768        -3.76037         0.03842
| 86>    H       -0.72345        -3.93425         5.43296
| 87>    H       -2.69643        -5.40428         5.63885
| 88>    H       -4.02466        -5.98672         3.65014
| 89>    H       -3.40193        -5.11177         1.43562
| 90>    H        2.88038        -0.74649         5.14381
| 91>    H        2.30878         1.33901         1.92008
| 92>    H        6.26122         6.38734         1.45909
| 93>    H        9.32422        10.57987         1.26916
| 94>    H       13.46005        15.46369         0.67830
| 95>    H       16.40107        15.21964         3.25252
| 96>    H       15.82687        18.91785        -1.78834
| 97>    H       16.92930        21.09456        -1.55598
| 98>    H       18.88349        19.30431         3.29737
| 99>    H       19.99686        21.50266         3.45295
|100>    H       19.73529        23.15775         1.65004
|101>    H       18.36383        22.64100        -0.32703
|102> *
|103>
|104>                          ****END OF INPUT****

CARTESIAN COORDINATES (ANGSTROEM)
---------------------------------
  C      2.012460   -1.383160    3.383620
  C      1.129880   -2.329360    4.127750
  O      1.185450   -2.564680    5.314450
  C      0.183140   -2.845390    3.124690
  C      0.537390   -2.367210    1.862370
  C      1.761450   -1.577790    1.971930
  C      2.629940   -1.315910    0.945310
  C      3.928000   -0.797050    1.128720
  N      5.007010   -0.417620    1.224270
  C      2.374770   -1.619490   -0.408140
  N      2.217250   -1.824670   -1.526280
  C     -0.227940   -2.694800    0.735700
  C     -1.324370   -3.501390    0.896490
  C     -1.699910   -4.015850    2.156830
  C     -0.933650   -3.682880    3.311780
  C     -1.313040   -4.196290    4.568710
  C     -2.406980   -5.010020    4.676270
  C     -3.164770   -5.342410    3.541770
  C     -2.820850   -4.856810    2.310050
  C      2.787650   -0.517100    4.086060
  C      3.428370    0.671170    3.657970
  C      3.127860    1.504510    2.595960
  C      3.975740    2.606640    2.541810
  C      4.945060    2.620760    3.555780
  S      4.770200    1.280870    4.613770
  C      5.807040    3.715340    3.447310
  C      5.486030    4.540370    2.361710
  S      4.112430    3.964640    1.459830
  C      6.336030    5.638420    2.225810
  C      7.311710    5.649960    3.200890
  S      7.179170    4.296650    4.308090
  C      8.356040    6.599990    3.360640
  C      9.387420    6.582250    4.277440
  F      9.531710    5.619900    5.194450
  C     10.273510    7.662050    4.157670
  F     11.337410    7.822610    4.951600
  C      9.944610    8.547630    3.151630
  S      8.501220    8.005250    2.342760
  C     10.628640    9.734520    2.773990
  C     10.233470   10.664750    1.835150
  C     11.152540   11.709250    1.726960
  C     12.256640   11.572020    2.578120
  S     12.154750   10.144460    3.533820
  C     13.162520   12.627630    2.447930
  C     12.743800   13.573210    1.499420
  S     11.220860   13.157480    0.762480
  C     13.636030   14.627010    1.328990
  C     14.750030   14.500660    2.140430
  S     14.664680   13.063980    3.151590
  C     15.866680   15.350400    2.315130
  C     16.348130   16.358200    1.540770
  C     17.299560   17.329790    2.157650
  O     17.870590   17.185280    3.215910
  C     17.335250   18.476800    1.235580
  C     16.580470   18.182220    0.099570
  C     16.088090   16.809300    0.191970
  C     15.708760   16.031830   -0.870840
  C     15.523950   14.637120   -0.786320
  N     15.399600   13.496240   -0.768930
  C     15.550600   16.509720   -2.188090
  N     15.384020   16.844190   -3.273400
  C     16.426450   19.131890   -0.918530
  C     17.042160   20.349070   -0.782100
  C     17.832240   20.669570    0.343590
  C     17.987890   19.715000    1.390570
  C     18.776540   20.037540    2.513700
  C     19.390350   21.256950    2.594120
  C     19.241290   22.201130    1.565420
  C     18.479170   21.916160    0.465800
  H      0.030910   -2.312890   -0.238430
  H     -1.927680   -3.760370    0.038420
  H     -0.723450   -3.934250    5.432960
  H     -2.696430   -5.404280    5.638850
  H     -4.024660   -5.986720    3.650140
  H     -3.401930   -5.111770    1.435620
  H      2.880380   -0.746490    5.143810
  H      2.308780    1.339010    1.920080
  H      6.261220    6.387340    1.459090
  H      9.324220   10.579870    1.269160
  H     13.460050   15.463690    0.678300
  H     16.401070   15.219640    3.252520
  H     15.826870   18.917850   -1.788340
  H     16.929300   21.094560   -1.555980
  H     18.883490   19.304310    3.297370
  H     19.996860   21.502660    3.452950
  H     19.735290   23.157750    1.650040
  H     18.363830   22.641000   -0.327030

 Total Charge           Charge          ....    0
 Multiplicity           Mult            ....    1
 Number of Electrons    NEL             ....  516
 Basis Dimension        Dim             .... 1084

ORBITAL ENERGIES
----------------

  NO   OCC          E(Eh)            E(eV)
   0   2.0000     -88.985421     -2421.4164
   1   2.0000     -88.973726     -2421.0982
   2   2.0000     -88.973296     -2421.0865
   3   2.0000     -88.971768     -2421.0449
   4   2.0000     -88.971640     -2421.0414
   5   2.0000     -88.967345     -2420.9245
   6   2.0000     -88.967104     -2420.9180
   7   2.0000     -24.811241      -675.1482
   8   2.0000     -24.810971      -675.1408
   9   2.0000     -19.217166      -522.9257
  10   2.0000     -19.216597      -522.9102
  11   2.0000     -14.415159      -392.2564
  12   2.0000     -14.415059      -392.2537
  13   2.0000     -14.414159      -392.2292
  14   2.0000     -14.413882      -392.2217
  15   2.0000     -10.381373      -282.4915
  16   2.0000     -10.380945      -282.4799
  17   2.0000     -10.367526      -282.1147
  18   2.0000     -10.366761      -282.0939
  19   2.0000     -10.344333      -281.4836
  20   2.0000     -10.344040      -281.4756
  21   2.0000     -10.342105      -281.4230
  22   2.0000     -10.341898      -281.4174
  23   2.0000     -10.333479      -281.1883
  24   2.0000     -10.333383      -281.1856
  25   2.0000     -10.331036      -281.1218
  26   2.0000     -10.330463      -281.1062
  27   2.0000     -10.321717      -280.8682
  28   2.0000     -10.321018      -280.8492
  29   2.0000     -10.319114      -280.7974
  30   2.0000     -10.318428      -280.7787
  31   2.0000     -10.318136      -280.7708
  32   2.0000     -10.317975      -280.7664
  33   2.0000     -10.317875      -280.7637
  34   2.0000     -10.317823      -280.7622
  35   2.0000     -10.316703      -280.7318
  36   2.0000     -10.316006      -280.7128
  37   2.0000     -10.315485      -280.6986
  38   2.0000     -10.315153      -280.6896
  39   2.0000     -10.315033      -280.6863
  40   2.0000     -10.315002      -280.6855
  41   2.0000     -10.313114      -280.6341
  42   2.0000     -10.312775      -280.6249
  43   2.0000     -10.309121      -280.5255
  44   2.0000     -10.308566      -280.5103
  45   2.0000     -10.303703      -280.3780
  46   2.0000     -10.302833      -280.3543
  47   2.0000     -10.298601      -280.2392
  48   2.0000     -10.298286      -280.2306
  49   2.0000     -10.296485      -280.1816
  50   2.0000     -10.296164      -280.1729
  51   2.0000     -10.295901      -280.1657
  52   2.0000     -10.295582      -280.1570
  53   2.0000     -10.295292      -280.1491
  54   2.0000     -10.295201      -280.1466
  55   2.0000     -10.295014      -280.1416
  56   2.0000     -10.294930      -280.1393
  57   2.0000     -10.294487      -280.1272
  58   2.0000     -10.294217      -280.1199
  59   2.0000     -10.291441      -280.0444
  60   2.0000     -10.290976      -280.0317
  61   2.0000     -10.283676      -279.8331
  62   2.0000     -10.283265      -279.8219
  63   2.0000     -10.283170      -279.8193
  64   2.0000     -10.282691      -279.8062
  65   2.0000     -10.281327      -279.7691
  66   2.0000     -10.280747      -279.7534
  67   2.0000     -10.277267      -279.6587
  68   2.0000     -10.276814      -279.6463
  69   2.0000      -8.080344      -219.8773
  70   2.0000      -8.068582      -219.5573
  71   2.0000      -8.068194      -219.5467
  72   2.0000      -8.067067      -219.5161
  73   2.0000      -8.066923      -219.5121
  74   2.0000      -8.062481      -219.3913
  75   2.0000      -8.062275      -219.3857
  76   2.0000      -6.049930      -164.6270
  77   2.0000      -6.046105      -164.5229
  78   2.0000      -6.041555      -164.3991
  79   2.0000      -6.038268      -164.3096
  80   2.0000      -6.037863      -164.2986
  81   2.0000      -6.036536      -164.2625
  82   2.0000      -6.036406      -164.2590
  83   2.0000      -6.033995      -164.1933
  84   2.0000      -6.033611      -164.1829
  85   2.0000      -6.032515      -164.1531
  86   2.0000      -6.032357      -164.1488
  87   2.0000      -6.032263      -164.1462
  88   2.0000      -6.032029      -164.1399
  89   2.0000      -6.030011      -164.0849
  90   2.0000      -6.029622      -164.0743
  91   2.0000      -6.028702      -164.0493
  92   2.0000      -6.028570      -164.0457
  93   2.0000      -6.028384      -164.0407
  94   2.0000      -6.028189      -164.0354
  95   2.0000      -6.023378      -163.9044
  96   2.0000      -6.023181      -163.8991
  97   2.0000      -1.330482       -36.2042
  98   2.0000      -1.319104       -35.8946
  99   2.0000      -1.132298       -30.8114
 100   2.0000      -1.131825       -30.7985
 101   2.0000      -1.032681       -28.1007
 102   2.0000      -1.030537       -28.0423
 103   2.0000      -1.019626       -27.7454
 104   2.0000      -1.018342       -27.7105
 105   2.0000      -1.016150       -27.6508
 106   2.0000      -0.998716       -27.1765
 107   2.0000      -0.998338       -27.1662
 108   2.0000      -0.995187       -27.0804
 109   2.0000      -0.993506       -27.0347
 110   2.0000      -0.990567       -26.9547
 111   2.0000      -0.985529       -26.8176
 112   2.0000      -0.968300       -26.3488
 113   2.0000      -0.967704       -26.3326
 114   2.0000      -0.943531       -25.6748
 115   2.0000      -0.937049       -25.4984
 116   2.0000      -0.921438       -25.0736
 117   2.0000      -0.920874       -25.0582
 118   2.0000      -0.903340       -24.5811
 119   2.0000      -0.902998       -24.5718
 120   2.0000      -0.890111       -24.2212
 121   2.0000      -0.888847       -24.1868
 122   2.0000      -0.886657       -24.1272
 123   2.0000      -0.872668       -23.7465
 124   2.0000      -0.861651       -23.4467
 125   2.0000      -0.857691       -23.3390
 126   2.0000      -0.852680       -23.2026
 127   2.0000      -0.849590       -23.1185
 128   2.0000      -0.846080       -23.0230
 129   2.0000      -0.845331       -23.0026
 130   2.0000      -0.836927       -22.7740
 131   2.0000      -0.836179       -22.7536
 132   2.0000      -0.808754       -22.0073
 133   2.0000      -0.803304       -21.8590
 134   2.0000      -0.802338       -21.8327
 135   2.0000      -0.787595       -21.4315
 136   2.0000      -0.777124       -21.1466
 137   2.0000      -0.773186       -21.0395
 138   2.0000      -0.765996       -20.8438
 139   2.0000      -0.756555       -20.5869
 140   2.0000      -0.733125       -19.9493
 141   2.0000      -0.719984       -19.5918
 142   2.0000      -0.713597       -19.4180
 143   2.0000      -0.713135       -19.4054
 144   2.0000      -0.709429       -19.3045
 145   2.0000      -0.706238       -19.2177
 146   2.0000      -0.699505       -19.0345
 147   2.0000      -0.687158       -18.6985
 148   2.0000      -0.680336       -18.5129
 149   2.0000      -0.675465       -18.3803
 150   2.0000      -0.673661       -18.3313
 151   2.0000      -0.663379       -18.0515
 152   2.0000      -0.660631       -17.9767
 153   2.0000      -0.653690       -17.7878
 154   2.0000      -0.652471       -17.7546
 155   2.0000      -0.643368       -17.5069
 156   2.0000      -0.642357       -17.4794
 157   2.0000      -0.637743       -17.3539
 158   2.0000      -0.633579       -17.2406
 159   2.0000      -0.628612       -17.1054
 160   2.0000      -0.627765       -17.0824
 161   2.0000      -0.609708       -16.5910
 162   2.0000      -0.600545       -16.3417
 163   2.0000      -0.598918       -16.2974
 164   2.0000      -0.597296       -16.2533
 165   2.0000      -0.595740       -16.2109
 166   2.0000      -0.588979       -16.0269
 167   2.0000      -0.588040       -16.0014
 168   2.0000      -0.587441       -15.9851
 169   2.0000      -0.583358       -15.8740
 170   2.0000      -0.575598       -15.6628
 171   2.0000      -0.573889       -15.6163
 172   2.0000      -0.566396       -15.4124
 173   2.0000      -0.563545       -15.3348
 174   2.0000      -0.559593       -15.2273
 175   2.0000      -0.555275       -15.1098
 176   2.0000      -0.553034       -15.0488
 177   2.0000      -0.542508       -14.7624
 178   2.0000      -0.536993       -14.6123
 179   2.0000      -0.536020       -14.5858
 180   2.0000      -0.535767       -14.5790
 181   2.0000      -0.531363       -14.4591
 182   2.0000      -0.529348       -14.4043
 183   2.0000      -0.528648       -14.3853
 184   2.0000      -0.526089       -14.3156
 185   2.0000      -0.524973       -14.2852
 186   2.0000      -0.519863       -14.1462
 187   2.0000      -0.518893       -14.1198
 188   2.0000      -0.513661       -13.9774
 189   2.0000      -0.512083       -13.9345
 190   2.0000      -0.509999       -13.8778
 191   2.0000      -0.505986       -13.7686
 192   2.0000      -0.505367       -13.7517
 193   2.0000      -0.504843       -13.7375
 194   2.0000      -0.501961       -13.6590
 195   2.0000      -0.499853       -13.6017
 196   2.0000      -0.495257       -13.4766
 197   2.0000      -0.493845       -13.4382
 198   2.0000      -0.492492       -13.4014
 199   2.0000      -0.488462       -13.2917
 200   2.0000      -0.487694       -13.2708
 201   2.0000      -0.484121       -13.1736
 202   2.0000      -0.480195       -13.0668
 203   2.0000      -0.478368       -13.0170
 204   2.0000      -0.477856       -13.0031
 205   2.0000      -0.474820       -12.9205
 206   2.0000      -0.472794       -12.8654
 207   2.0000      -0.468917       -12.7599
 208   2.0000      -0.467893       -12.7320
 209   2.0000      -0.465301       -12.6615
 210   2.0000      -0.463266       -12.6061
 211   2.0000      -0.456223       -12.4145
 212   2.0000      -0.454433       -12.3658
 213   2.0000      -0.449232       -12.2242
 214   2.0000      -0.448643       -12.2082
 215   2.0000      -0.441986       -12.0270
 216   2.0000      -0.441490       -12.0136
 217   2.0000      -0.440579       -11.9888
 218   2.0000      -0.439468       -11.9585
 219   2.0000      -0.438606       -11.9351
 220   2.0000      -0.434796       -11.8314
 221   2.0000      -0.433363       -11.7924
 222   2.0000      -0.431890       -11.7523
 223   2.0000      -0.430476       -11.7139
 224   2.0000      -0.429785       -11.6950
 225   2.0000      -0.428861       -11.6699
 226   2.0000      -0.427296       -11.6273
 227   2.0000      -0.426261       -11.5991
 228   2.0000      -0.425628       -11.5819
 229   2.0000      -0.422258       -11.4902
 230   2.0000      -0.419484       -11.4147
 231   2.0000      -0.418893       -11.3986
 232   2.0000      -0.418225       -11.3805
 233   2.0000      -0.415712       -11.3121
 234   2.0000      -0.407663       -11.0931
 235   2.0000      -0.405408       -11.0317
 236   2.0000      -0.396981       -10.8024
 237   2.0000      -0.396887       -10.7998
 238   2.0000      -0.384839       -10.4720
 239   2.0000      -0.377720       -10.2783
 240   2.0000      -0.373275       -10.1573
 241   2.0000      -0.363731        -9.8976
 242   2.0000      -0.356660        -9.7052
 243   2.0000      -0.343709        -9.3528
 244   2.0000      -0.342641        -9.3237
 245   2.0000      -0.340408        -9.2630
 246   2.0000      -0.335104        -9.1186
 247   2.0000      -0.334341        -9.0979
 248   2.0000      -0.332196        -9.0395
 249   2.0000      -0.319411        -8.6916
 250   2.0000      -0.315180        -8.5765
 251   2.0000      -0.305332        -8.3085
 252   2.0000      -0.294126        -8.0036
 253   2.0000      -0.293225        -7.9790
 254   2.0000      -0.292608        -7.9623
 255   2.0000      -0.292079        -7.9479
 256   2.0000      -0.269603        -7.3363
 257   2.0000      -0.243139        -6.6161
 258   0.0000      -0.092731        -2.5233
 259   0.0000      -0.085960        -2.3391
 260   0.0000      -0.073488        -1.9997
 261   0.0000      -0.068996        -1.8775
 262   0.0000      -0.048408        -1.3173

MULLIKEN ATOMIC CHARGES
-----------------------
   0 C :   -0.118498
   1 C :    0.114140
   2 O :   -0.151929
   3 C :    0.014194
   4 C :   -0.011951
   5 C :    0.260501
   6 C :   -0.336560
   7 C :   -0.203679
   8 N :    0.178897
   9 C :   -0.177581
  10 N :    0.156018
  11 C :   -0.021783
  12 C :    0.006457
  13 C :    0.076954
  14 C :    0.034387
  15 C :   -0.025618
  16 C :    0.038928
  17 C :    0.036497
  18 C :   -0.018498
  19 C :    0.072280
  20 C :   -0.117177
  21 C :    0.009652
  22 C :   -0.043430
  23 C :   -0.054807
  24 S :    0.176074
  25 C :   -0.081761
  26 C :   -0.011988
  27 S :    0.168571
  28 C :   -0.075026
  29 C :   -0.032225
  30 S :    0.184074
  31 C :   -0.122198
  32 C :    0.189353
  33 F :   -0.168546
  34 C :    0.192936
  35 F :   -0.167895
  36 C :   -0.124803
  37 S :    0.164121
  38 C :   -0.032124
  39 C :   -0.072934
  40 C :   -0.013144
  41 C :   -0.083949
  42 S :    0.184926
  43 C :   -0.054895
  44 C :   -0.045837
  45 S :    0.170729
  46 C :    0.012090
  47 C :   -0.111914
  48 S :    0.171530
  49 C :    0.081906
  50 C :   -0.125690
  51 C :    0.115894
  52 O :   -0.153129
  53 C :    0.014045
  54 C :   -0.009051
  55 C :    0.261302
  56 C :   -0.340638
  57 C :   -0.210418
  58 N :    0.178818
  59 C :   -0.173230
  60 N :    0.157126
  61 C :   -0.023827
  62 C :    0.003187
  63 C :    0.080197
  64 C :    0.037147
  65 C :   -0.029304
  66 C :    0.038781
  67 C :    0.040286
  68 C :   -0.023096
  69 H :   -0.000058
  70 H :   -0.012898
  71 H :    0.000708
  72 H :   -0.007218
  73 H :   -0.005664
  74 H :   -0.021361
  75 H :    0.024508
  76 H :    0.002274
  77 H :   -0.005225
  78 H :   -0.006120
  79 H :    0.001761
  80 H :    0.021329
  81 H :    0.000583
  82 H :   -0.012167
  83 H :    0.001244
  84 H :   -0.006870
  85 H :   -0.007233
  86 H :   -0.020458
Sum of atomic charges:    0.0000000

LOEWDIN ATOMIC CHARGES
----------------------
   0 C :   -0.091573
   1 C :    0.087032
   2 O :   -0.142935
   3 C :   -0.033318
   4 C :   -0.005080
   5 C :    0.066012
   6 C :   -0.137909
   7 C :   -0.019940
   8 N :   -0.038494
   9 C :   -0.021861
  10 N :   -0.050205
  11 C :   -0.017964
  12 C :    0.018497
  13 C :   -0.009531
  14 C :   -0.002879
  15 C :   -0.002239
  16 C :   -0.012056
  17 C :   -0.012751
  18 C :   -0.012468
  19 C :    0.042627
  20 C :   -0.178282
  21 C :   -0.027096
  22 C :   -0.188742
  23 C :   -0.198170
  24 S :    0.452836
  25 C :   -0.221571
  26 C :   -0.180304
  27 S :    0.414301
  28 C :   -0.070553
  29 C :   -0.171297
  30 S :    0.452437
  31 C :   -0.211295
  32 C :    0.020344
  33 F :   -0.044628
  34 C :    0.020734
  35 F :   -0.044578
  36 C :   -0.212240
  37 S :    0.460138
  38 C :   -0.170208
  39 C :   -0.070826
  40 C :   -0.179628
  41 C :   -0.222876
  42 S :    0.452436
  43 C :   -0.198301
  44 C :   -0.188556
  45 S :    0.414999
  46 C :   -0.022503
  47 C :   -0.177571
  48 S :    0.450907
  49 C :    0.041228
  50 C :   -0.093629
  51 C :    0.087631
  52 O :   -0.143299
  53 C :   -0.033502
  54 C :   -0.004744
  55 C :    0.066966
  56 C :   -0.140247
  57 C :   -0.020530
  58 N :   -0.037896
  59 C :   -0.022081
  60 N :   -0.050485
  61 C :   -0.018480
  62 C :    0.018373
  63 C :   -0.009644
  64 C :   -0.002662
  65 C :   -0.002281
  66 C :   -0.012454
  67 C :   -0.012791
  68 C :   -0.012747
  69 H :    0.039250
  70 H :    0.035581
  71 H :    0.035570
  72 H :    0.032479
  73 H :    0.032122
  74 H :    0.030325
  75 H :    0.046003
  76 H :    0.037495
  77 H :    0.031751
  78 H :    0.031793
  79 H :    0.037717
  80 H :    0.045115
  81 H :    0.039295
  82 H :    0.035571
  83 H :    0.035548
  84 H :    0.032580
  85 H :    0.031886
  86 H :    0.030321

  Mayer bond orders larger than 0.100000
B(  0-C ,  1-C ) :   0.9580 B(  0-C ,  5-C ) :   1.0296 B(  0-C , 19-C ) :   1.6881
B(  1-C ,  2-O ) :   2.1915 B(  1-C ,  3-C ) :   0.9399 B(  3-C ,  4-C ) :   1.4173
B(  3-C , 14-C ) :   1.2370 B(  4-C ,  5-C ) :   1.0008 B(  4-C , 11-C ) :   1.2592
B(  5-C ,  6-C ) :   1.6505 B(  6-C ,  7-C ) :   1.1639 B(  6-C ,  9-C ) :   1.1234
B(  7-C ,  8-N ) :   3.0111 B(  9-C , 10-N ) :   2.9955 B( 11-C , 12-C ) :   1.4698
B( 11-C , 69-H ) :   0.9862 B( 12-C , 13-C ) :   1.2246 B( 12-C , 70-H ) :   0.9933
B( 13-C , 14-C ) :   1.2403 B( 13-C , 18-C ) :   1.2405 B( 14-C , 15-C ) :   1.2751
B( 15-C , 16-C ) :   1.4766 B( 15-C , 71-H ) :   0.9858 B( 16-C , 17-C ) :   1.2551
B( 16-C , 72-H ) :   0.9875 B( 17-C , 18-C ) :   1.4950 B( 17-C , 73-H ) :   0.9894
B( 18-C , 74-H ) :   0.9972 B( 19-C , 20-C ) :   1.1183 B( 19-C , 75-H ) :   0.9261
B( 20-C , 21-C ) :   1.4645 B( 20-C , 24-S ) :   1.0806 B( 21-C , 22-C ) :   1.3291
B( 21-C , 76-H ) :   0.9919 B( 22-C , 23-C ) :   1.4376 B( 22-C , 27-S ) :   1.0450
B( 23-C , 24-S ) :   1.0973 B( 23-C , 25-C ) :   1.3109 B( 25-C , 26-C ) :   1.4601
B( 25-C , 30-S ) :   1.0565 B( 26-C , 27-S ) :   1.0548 B( 26-C , 28-C ) :   1.2784
B( 28-C , 29-C ) :   1.5030 B( 28-C , 77-H ) :   0.9981 B( 29-C , 30-S ) :   1.1076
B( 29-C , 31-C ) :   1.1693 B( 31-C , 32-C ) :   1.4630 B( 31-C , 36-C ) :   0.1210
B( 31-C , 37-S ) :   1.1007 B( 32-C , 33-F ) :   1.1477 B( 32-C , 34-C ) :   1.2126
B( 34-C , 35-F ) :   1.1491 B( 34-C , 36-C ) :   1.4620 B( 36-C , 37-S ) :   1.0998
B( 36-C , 38-C ) :   1.1697 B( 38-C , 39-C ) :   1.5019 B( 38-C , 42-S ) :   1.1078
B( 39-C , 40-C ) :   1.2784 B( 39-C , 78-H ) :   0.9979 B( 40-C , 41-C ) :   1.4609
B( 40-C , 45-S ) :   1.0557 B( 41-C , 42-S ) :   1.0562 B( 41-C , 43-C ) :   1.3100
B( 43-C , 44-C ) :   1.4354 B( 43-C , 48-S ) :   1.0985 B( 44-C , 45-S ) :   1.0443
B( 44-C , 46-C ) :   1.3337 B( 46-C , 47-C ) :   1.4561 B( 46-C , 79-H ) :   0.9884
B( 47-C , 48-S ) :   1.0784 B( 47-C , 49-C ) :   1.1344 B( 49-C , 50-C ) :   1.6806
B( 49-C , 80-H ) :   0.9207 B( 50-C , 51-C ) :   0.9597 B( 50-C , 55-C ) :   1.0318
B( 51-C , 52-O ) :   2.1857 B( 51-C , 53-C ) :   0.9391 B( 53-C , 54-C ) :   1.4188
B( 53-C , 64-C ) :   1.2377 B( 54-C , 55-C ) :   1.0003 B( 54-C , 61-C ) :   1.2602
B( 55-C , 56-C ) :   1.6451 B( 56-C , 57-C ) :   1.1673 B( 56-C , 59-C ) :   1.1225
B( 57-C , 58-N ) :   3.0075 B( 59-C , 60-N ) :   2.9958 B( 61-C , 62-C ) :   1.4675
B( 61-C , 81-H ) :   0.9863 B( 62-C , 63-C ) :   1.2261 B( 62-C , 82-H ) :   0.9934
B( 63-C , 64-C ) :   1.2392 B( 63-C , 68-C ) :   1.2392 B( 64-C , 65-C ) :   1.2752
B( 65-C , 66-C ) :   1.4770 B( 65-C , 83-H ) :   0.9859 B( 66-C , 67-C ) :   1.2541
B( 66-C , 84-H ) :   0.9870 B( 67-C , 68-C ) :   1.4976 B( 67-C , 85-H ) :   0.9883
B( 68-C , 86-H ) :   0.9971

-----------------------------------------------------------------------------
         ABSORPTION SPECTRUM VIA TRANSITION ELECTRIC DIPOLE MOMENTS
-----------------------------------------------------------------------------
State   Energy  Wavelength   fosc         T2         TX        TY        TZ
        (cm-1)    (nm)                  (au**2)     (au)      (au)      (au)
-----------------------------------------------------------------------------
   0   18066.2    553.5   2.552530016  46.51346  -4.17709  -5.37051   0.47217
   1   19993.6    500.2   0.104642101   1.72302  -0.44563  -0.21430   1.21594
   2   23031.5    434.2   0.668383111   9.55387  -1.98448  -2.36144   0.19824
   3   24711.4    404.7   0.013086854   0.17435   0.03726  -0.03621  -0.41430
   4   26826.6    372.8   0.044927712   0.55135  -0.21647   0.10204  -0.70290
   5   27292.5    366.4   0.030079876   0.36283  -0.34569  -0.45521  -0.19004
   6   27553.6    362.9   0.106168151   1.26850   0.54672  -0.06807   0.98233
   7   27662.4    361.5   0.312967915   3.72466   1.32531   1.36169  -0.33765
   8   27908.4    358.3   0.077755344   0.91721  -0.22271   0.64473   0.67226
   9   28251.7    354.0   0.008633281   0.10060  -0.17958  -0.25392   0.06230
  10   29515.2    338.8   0.029992966   0.33454   0.31427   0.47047  -0.12011
  11   30429.6    328.6   0.085382637   0.92374  -0.58630   0.25439  -0.71782
  12   30742.8    325.3   0.147683669   1.58148   0.66234   1.06839  -0.03633
  13   30767.4    325.0   0.041763446   0.44687  -0.07416   0.13586   0.65032
  14   30803.3    324.6   0.015058088   0.16093  -0.36184  -0.08735   0.14959
  15   31806.5    314.4   0.020243178   0.20953  -0.04421   0.03616   0.45416
  16   31957.9    312.9   0.040538590   0.41761   0.53664   0.35951  -0.01937
  17   32535.4    307.4   0.241916404   2.44785   0.59093  -0.37447  -1.39944
  18   32845.1    304.5   0.187406102   1.87840   0.88357   0.96656   0.40429
  19   33008.3    303.0   0.217891418   2.17316  -0.24230  -0.99817   1.05741
  20   33092.8    302.2   0.310225003   3.08617  -1.50906  -0.89936   0.00702
  21   33204.3    301.2   0.202267190   2.00543  -0.44583  -1.26648  -0.45021
  22   33880.2    295.2   0.501007388   4.86827   1.56679   1.55122  -0.08450
  23   34672.6    288.4   0.030371343   0.28837  -0.32334  -0.41739  -0.09804
  24   34828.9    287.1   0.042189976   0.39879   0.00565   0.03415   0.63055
  25   35136.1    284.6   0.010116214   0.09479   0.20599  -0.21415  -0.08059
  26   35428.7    282.3   0.061326449   0.56986  -0.51273  -0.55177  -0.05018
  27   35657.4    280.4   0.049366207   0.45578   0.38971   0.26972  -0.48079
  28   35778.9    279.5   0.072670781   0.66866  -0.17891  -0.22212  -0.76637
  29   36563.8    273.5   0.038267350   0.34455   0.05581  -0.09233  -0.57698
  30   37228.6    268.6   0.020364865   0.18009  -0.22381   0.13560  -0.33408
  31   38605.0    259.0   0.002506790   0.02138   0.12829   0.00042   0.07014
  32   38747.8    258.1   0.010285633   0.08739  -0.13479   0.04525  -0.25918
  33   38869.3    257.3   0.024755442   0.20967  -0.19162  -0.41572   0.01166
  34   39095.9    255.8   0.043905650   0.36971  -0.05859   0.41934   0.43639
  35   39152.3    255.4   0.135240724   1.13717   0.74979   0.74519  -0.14025
  36   39360.9    254.1   0.010049552   0.08405   0.26576   0.00185   0.11585
  37   39497.8    253.2   0.060765372   0.50648   0.36003  -0.27598   0.54835
  38   39777.7    251.4   0.014724759   0.12187   0.12563   0.01131   0.32551
  39   40138.5    249.1   0.037686348   0.30910  -0.44742   0.26510  -0.19655
  40   40325.7    248.0   0.066473915   0.54268   0.46306   0.56670  -0.08433

FINAL SINGLE POINT ENERGY     -5420.840234703140

DIPOLE MOMENT
-------------
                                X             Y             Z
Electronic contribution:     12.46468      -9.21900      11.85429
Nuclear contribution   :    -14.67919      10.93029     -10.50428
                        -----------------------------------------
Total Dipole Moment    :     -2.21451       1.71129       1.35001
                        -----------------------------------------
Magnitude (a.u.)       :      3.10727
Magnitude (Debye)      :      7.89804

Rotational constants in cm-1:     0.004492     0.000155     0.000152
Rotational constants in MHz :   134.676172     4.648373     4.549382

                             ****ORCA TERMINATED NORMALLY****
TOTAL RUN TIME: 0 days 0 hours 8 minutes 4 seconds 705 msec
