                         Program Version 4.2.0 -  RELEASE  -
|  1> # ORCA input file
|  2> # SCF done       -209.690781123554          0.000390069772
|  3> ! CAM-B3LYP def2-SVP def2/J RIJCOSX Grid4 TightSCF
|  4> %maxcore 5000
|  5> %tddft
|  6>     Mode sTDDFT
|  7>     Ethresh 5.0
|  8>     maxcore 5000
|  9> end
| 10>
| 11> %pal
| 12>   nprocs 6
| 13>   end
| 14> * xyz 0 1
| 15>    C        9.53302        -1.89187         2.18260
| 16>    C        9.61715        -1.48927         3.61595
| 17>    O        9.41593        -2.20873         4.56963
| 18>    C        9.93603        -0.05064         3.59424
| 19>    C       10.16708         0.35385         2.27905
| 20>    C       10.07704        -0.80596         1.39575
| 21>    C       10.63957        -0.90134         0.15023
| 22>    C       10.77838        -2.11611        -0.55256
| 23>    N       10.96189        -3.08272        -1.14340
| 24>    C       11.22239         0.17797        -0.54426
| 25>    N       11.68612         1.02192        -1.16936
| 26>    C       10.45935         1.69222         1.98588
| 27>    C       10.51826         2.59423         3.01607
| 28>    C       10.30340         2.21489         4.35926
| 29>    C       10.00265         0.85656         4.66935
| 30>    C        9.78765         0.48173         6.01130
| 31>    C        9.86855         1.41590         7.00676
| 32>    C       10.16378         2.75565         6.70705
| 33>    C       10.37622         3.14752         5.41386
| 34>    C        8.91532        -3.05851         1.86183
| 35>    C        8.39147        -3.47889         0.61418
| 36>    C        8.02573        -2.73754        -0.47826
| 37>    C        7.48163        -3.49631        -1.53206
| 38>    C        7.42303        -4.88531        -1.23898
| 39>    S        8.03302        -5.17681         0.37519
| 40>    C        6.93737        -5.79279        -2.16705
| 41>    O        6.80890        -7.13624        -2.05729
| 42>    C        7.24873        -7.80119        -0.89605
| 43>    C        6.50741        -5.25903        -3.40123
| 44>    C        6.57305        -3.87159        -3.69568
| 45>    C        7.05715        -2.96271        -2.76977
| 46>    O        7.18501        -1.61889        -2.87844
| 47>    C        6.89268        -0.97303        -4.09611
| 48>    S        5.96697        -3.57438        -5.31497
| 49>    C        5.64072        -5.27547        -5.55930
| 50>    C        5.97649        -6.02199        -4.46657
| 51>    C        5.08910        -5.71537        -6.79682
| 52>    C        4.66840        -6.98173        -7.14959
| 53>    F        4.71807        -8.03522        -6.32501
| 54>    C        4.17312        -7.06952        -8.45923
| 55>    F        3.72034        -8.21605        -8.98150
| 56>    C        4.20403        -5.87513        -9.15072
| 57>    S        4.85838        -4.62981        -8.13336
| 58>    C        3.79738        -5.61029       -10.49088
| 59>    C        3.20208        -6.47063       -11.37313
| 60>    C        2.94777        -5.88205       -12.63260
| 61>    C        3.36950        -4.53910       -12.68693
| 62>    S        4.06253        -4.01910       -11.18127
| 63>    C        3.23880        -3.73916       -13.81237
| 64>    O        3.69019        -2.46484       -13.68274
| 65>    C        3.10845        -1.40881       -14.41659
| 66>    C        2.68960        -4.35362       -14.95539
| 67>    C        2.22366        -5.70778       -14.89196
| 68>    C        2.32774        -6.48554       -13.74937
| 69>    O        1.92831        -7.76233       -13.54326
| 70>    C        1.20343        -8.46621       -14.52472
| 71>    S        1.58770        -6.20257       -16.44760
| 72>    C        1.95027        -4.64902       -17.15912
| 73>    C        2.53173        -3.80679       -16.24741
| 74>    C        1.71324        -4.46026       -18.54302
| 75>    C        1.69074        -3.31423       -19.27341
| 76>    C        1.85686        -3.40520       -20.75395
| 77>    O        1.74812        -4.41036       -21.42025
| 78>    C        2.22430        -2.04451       -21.18499
| 79>    C        2.14355        -1.17571       -20.09626
| 80>    C        1.65835        -1.91012       -18.93099
| 81>    C        1.05704        -1.34932       -17.83401
| 82>    C        0.36078        -2.09660       -16.86310
| 83>    N       -0.23809        -2.65581       -16.05900
| 84>    C        1.00194         0.03454       -17.57365
| 85>    N        0.95482         1.14438       -17.28361
| 86>    C        2.47904         0.17705       -20.23608
| 87>    C        2.88428         0.63045       -21.46449
| 88>    C        2.96273        -0.21898       -22.58978
| 89>    C        2.62554        -1.59797       -22.45861
| 90>    C        2.70551        -2.44293       -23.58433
| 91>    C        3.10263        -1.94084       -24.79277
| 92>    C        3.43677        -0.58355       -24.92774
| 93>    C        3.36933         0.25886       -23.85217
| 94>    H       10.62260         2.01198         0.96950
| 95>    H       10.73604         3.63166         2.80672
| 96>    H        9.56079        -0.55000         6.22888
| 97>    H        9.70495         1.12822         8.03456
| 98>    H       10.22157         3.47678         7.50895
| 99>    H       10.60423         4.17771         5.18106
|100>    H        8.74195        -3.72888         2.69844
|101>    H        8.09492        -1.66649        -0.53019
|102>    H        6.69307        -7.48085        -0.01100
|103>    H        8.31884        -7.65642        -0.72890
|104>    H        7.05266        -8.85643        -1.08085
|105>    H        7.51083        -1.35387        -4.91254
|106>    H        7.12810         0.07682        -3.92670
|107>    H        5.83645        -1.06834        -4.36111
|108>    H        5.86053        -7.08737        -4.40488
|109>    H        2.94894        -7.48944       -11.14882
|110>    H        2.05771        -1.60171       -14.64245
|111>    H        3.66449        -1.21553       -15.33934
|112>    H        3.18262        -0.52699       -13.77923
|113>    H        0.94653        -9.41694       -14.05929
|114>    H        1.80516        -8.65515       -15.41739
|115>    H        0.28606        -7.94212       -14.80361
|116>    H        2.90829        -2.84318       -16.53328
|117>    H        1.60707        -5.36988       -19.12699
|118>    H        2.43322         0.84809       -19.39360
|119>    H        3.15408         1.66929       -21.58844
|120>    H        2.44739        -3.48365       -23.46806
|121>    H        3.16247        -2.58780       -25.65509
|122>    H        3.74895        -0.20900       -25.89135
|123>    H        3.62532         1.30356       -23.95397
|124> *
|125>
|126>                          ****END OF INPUT****

CARTESIAN COORDINATES (ANGSTROEM)
---------------------------------
  C      9.533020   -1.891870    2.182600
  C      9.617150   -1.489270    3.615950
  O      9.415930   -2.208730    4.569630
  C      9.936030   -0.050640    3.594240
  C     10.167080    0.353850    2.279050
  C     10.077040   -0.805960    1.395750
  C     10.639570   -0.901340    0.150230
  C     10.778380   -2.116110   -0.552560
  N     10.961890   -3.082720   -1.143400
  C     11.222390    0.177970   -0.544260
  N     11.686120    1.021920   -1.169360
  C     10.459350    1.692220    1.985880
  C     10.518260    2.594230    3.016070
  C     10.303400    2.214890    4.359260
  C     10.002650    0.856560    4.669350
  C      9.787650    0.481730    6.011300
  C      9.868550    1.415900    7.006760
  C     10.163780    2.755650    6.707050
  C     10.376220    3.147520    5.413860
  C      8.915320   -3.058510    1.861830
  C      8.391470   -3.478890    0.614180
  C      8.025730   -2.737540   -0.478260
  C      7.481630   -3.496310   -1.532060
  C      7.423030   -4.885310   -1.238980
  S      8.033020   -5.176810    0.375190
  C      6.937370   -5.792790   -2.167050
  O      6.808900   -7.136240   -2.057290
  C      7.248730   -7.801190   -0.896050
  C      6.507410   -5.259030   -3.401230
  C      6.573050   -3.871590   -3.695680
  C      7.057150   -2.962710   -2.769770
  O      7.185010   -1.618890   -2.878440
  C      6.892680   -0.973030   -4.096110
  S      5.966970   -3.574380   -5.314970
  C      5.640720   -5.275470   -5.559300
  C      5.976490   -6.021990   -4.466570
  C      5.089100   -5.715370   -6.796820
  C      4.668400   -6.981730   -7.149590
  F      4.718070   -8.035220   -6.325010
  C      4.173120   -7.069520   -8.459230
  F      3.720340   -8.216050   -8.981500
  C      4.204030   -5.875130   -9.150720
  S      4.858380   -4.629810   -8.133360
  C      3.797380   -5.610290  -10.490880
  C      3.202080   -6.470630  -11.373130
  C      2.947770   -5.882050  -12.632600
  C      3.369500   -4.539100  -12.686930
  S      4.062530   -4.019100  -11.181270
  C      3.238800   -3.739160  -13.812370
  O      3.690190   -2.464840  -13.682740
  C      3.108450   -1.408810  -14.416590
  C      2.689600   -4.353620  -14.955390
  C      2.223660   -5.707780  -14.891960
  C      2.327740   -6.485540  -13.749370
  O      1.928310   -7.762330  -13.543260
  C      1.203430   -8.466210  -14.524720
  S      1.587700   -6.202570  -16.447600
  C      1.950270   -4.649020  -17.159120
  C      2.531730   -3.806790  -16.247410
  C      1.713240   -4.460260  -18.543020
  C      1.690740   -3.314230  -19.273410
  C      1.856860   -3.405200  -20.753950
  O      1.748120   -4.410360  -21.420250
  C      2.224300   -2.044510  -21.184990
  C      2.143550   -1.175710  -20.096260
  C      1.658350   -1.910120  -18.930990
  C      1.057040   -1.349320  -17.834010
  C      0.360780   -2.096600  -16.863100
  N     -0.238090   -2.655810  -16.059000
  C      1.001940    0.034540  -17.573650
  N      0.954820    1.144380  -17.283610
  C      2.479040    0.177050  -20.236080
  C      2.884280    0.630450  -21.464490
  C      2.962730   -0.218980  -22.589780
  C      2.625540   -1.597970  -22.458610
  C      2.705510   -2.442930  -23.584330
  C      3.102630   -1.940840  -24.792770
  C      3.436770   -0.583550  -24.927740
  C      3.369330    0.258860  -23.852170
  H     10.622600    2.011980    0.969500
  H     10.736040    3.631660    2.806720
  H      9.560790   -0.550000    6.228880
  H      9.704950    1.128220    8.034560
  H     10.221570    3.476780    7.508950
  H     10.604230    4.177710    5.181060
  H      8.741950   -3.728880    2.698440
  H      8.094920   -1.666490   -0.530190
  H      6.693070   -7.480850   -0.011000
  H      8.318840   -7.656420   -0.728900
  H      7.052660   -8.856430   -1.080850
  H      7.510830   -1.353870   -4.912540
  H      7.128100    0.076820   -3.926700
  H      5.836450   -1.068340   -4.361110
  H      5.860530   -7.087370   -4.404880
  H      2.948940   -7.489440  -11.148820
  H      2.057710   -1.601710  -14.642450
  H      3.664490   -1.215530  -15.339340
  H      3.182620   -0.526990  -13.779230
  H      0.946530   -9.416940  -14.059290
  H      1.805160   -8.655150  -15.417390
  H      0.286060   -7.942120  -14.803610
  H      2.908290   -2.843180  -16.533280
  H      1.607070   -5.369880  -19.126990
  H      2.433220    0.848090  -19.393600
  H      3.154080    1.669290  -21.588440
  H      2.447390   -3.483650  -23.468060
  H      3.162470   -2.587800  -25.655090
  H      3.748950   -0.209000  -25.891350
  H      3.625320    1.303560  -23.953970

 Total Charge           Charge          ....    0
 Multiplicity           Mult            ....    1
 Number of Electrons    NEL             ....  576
 Basis Dimension        Dim             .... 1276

ORBITAL ENERGIES
----------------

  NO   OCC          E(Eh)            E(eV)
   0   2.0000     -88.974151     -2421.1097
   1   2.0000     -88.955731     -2420.6085
   2   2.0000     -88.955069     -2420.5905
   3   2.0000     -88.952467     -2420.5197
   4   2.0000     -88.951732     -2420.4997
   5   2.0000     -24.798852      -674.8111
   6   2.0000     -24.798601      -674.8042
   7   2.0000     -19.253514      -523.9148
   8   2.0000     -19.250469      -523.8319
   9   2.0000     -19.250322      -523.8279
  10   2.0000     -19.248374      -523.7749
  11   2.0000     -19.220001      -523.0028
  12   2.0000     -19.213874      -522.8361
  13   2.0000     -14.420406      -392.3992
  14   2.0000     -14.419338      -392.3701
  15   2.0000     -14.412338      -392.1796
  16   2.0000     -14.409637      -392.1062
  17   2.0000     -10.370396      -282.1928
  18   2.0000     -10.370387      -282.1926
  19   2.0000     -10.369995      -282.1819
  20   2.0000     -10.364360      -282.0286
  21   2.0000     -10.347888      -281.5804
  22   2.0000     -10.346240      -281.5355
  23   2.0000     -10.344062      -281.4762
  24   2.0000     -10.342620      -281.4370
  25   2.0000     -10.341569      -281.4084
  26   2.0000     -10.340478      -281.3787
  27   2.0000     -10.339053      -281.3399
  28   2.0000     -10.338018      -281.3118
  29   2.0000     -10.325666      -280.9756
  30   2.0000     -10.325294      -280.9655
  31   2.0000     -10.324781      -280.9516
  32   2.0000     -10.323264      -280.9103
  33   2.0000     -10.322935      -280.9013
  34   2.0000     -10.321505      -280.8624
  35   2.0000     -10.320951      -280.8474
  36   2.0000     -10.320321      -280.8302
  37   2.0000     -10.320222      -280.8275
  38   2.0000     -10.315444      -280.6975
  39   2.0000     -10.315199      -280.6908
  40   2.0000     -10.314392      -280.6689
  41   2.0000     -10.313884      -280.6550
  42   2.0000     -10.312300      -280.6119
  43   2.0000     -10.311930      -280.6019
  44   2.0000     -10.310751      -280.5698
  45   2.0000     -10.310658      -280.5673
  46   2.0000     -10.307509      -280.4816
  47   2.0000     -10.306847      -280.4636
  48   2.0000     -10.306749      -280.4609
  49   2.0000     -10.306057      -280.4421
  50   2.0000     -10.299153      -280.2542
  51   2.0000     -10.298935      -280.2483
  52   2.0000     -10.298252      -280.2297
  53   2.0000     -10.297930      -280.2209
  54   2.0000     -10.297860      -280.2190
  55   2.0000     -10.297529      -280.2100
  56   2.0000     -10.296955      -280.1944
  57   2.0000     -10.294386      -280.1245
  58   2.0000     -10.294133      -280.1176
  59   2.0000     -10.293800      -280.1085
  60   2.0000     -10.292956      -280.0856
  61   2.0000     -10.292550      -280.0745
  62   2.0000     -10.292415      -280.0708
  63   2.0000     -10.291874      -280.0561
  64   2.0000     -10.288625      -279.9677
  65   2.0000     -10.287087      -279.9259
  66   2.0000     -10.285884      -279.8931
  67   2.0000     -10.285380      -279.8794
  68   2.0000     -10.284598      -279.8581
  69   2.0000     -10.283405      -279.8257
  70   2.0000     -10.283377      -279.8249
  71   2.0000     -10.283119      -279.8179
  72   2.0000     -10.281435      -279.7721
  73   2.0000     -10.280916      -279.7579
  74   2.0000     -10.279523      -279.7200
  75   2.0000     -10.278898      -279.7030
  76   2.0000     -10.275026      -279.5977
  77   2.0000     -10.274838      -279.5926
  78   2.0000     -10.274156      -279.5740
  79   2.0000      -8.069504      -219.5824
  80   2.0000      -8.050778      -219.0728
  81   2.0000      -8.050292      -219.0596
  82   2.0000      -8.047545      -218.9848
  83   2.0000      -8.046928      -218.9681
  84   2.0000      -6.038978      -164.3289
  85   2.0000      -6.035096      -164.2233
  86   2.0000      -6.030924      -164.1098
  87   2.0000      -6.020741      -163.8327
  88   2.0000      -6.020157      -163.8168
  89   2.0000      -6.017418      -163.7423
  90   2.0000      -6.016689      -163.7224
  91   2.0000      -6.016412      -163.7149
  92   2.0000      -6.015906      -163.7011
  93   2.0000      -6.013130      -163.6256
  94   2.0000      -6.012515      -163.6088
  95   2.0000      -6.011750      -163.5880
  96   2.0000      -6.011336      -163.5768
  97   2.0000      -6.008638      -163.5034
  98   2.0000      -6.008129      -163.4895
  99   2.0000      -1.317250       -35.8442
 100   2.0000      -1.305493       -35.5243
 101   2.0000      -1.158373       -31.5209
 102   2.0000      -1.155760       -31.4498
 103   2.0000      -1.154003       -31.4020
 104   2.0000      -1.153499       -31.3883
 105   2.0000      -1.135106       -30.8878
 106   2.0000      -1.128804       -30.7163
 107   2.0000      -1.023421       -27.8487
 108   2.0000      -1.015420       -27.6310
 109   2.0000      -1.012475       -27.5508
 110   2.0000      -1.002651       -27.2835
 111   2.0000      -1.000898       -27.2358
 112   2.0000      -0.997724       -27.1495
 113   2.0000      -0.995667       -27.0935
 114   2.0000      -0.995305       -27.0836
 115   2.0000      -0.988966       -26.9111
 116   2.0000      -0.982168       -26.7262
 117   2.0000      -0.975496       -26.5446
 118   2.0000      -0.970239       -26.4015
 119   2.0000      -0.964851       -26.2549
 120   2.0000      -0.928033       -25.2531
 121   2.0000      -0.923950       -25.1419
 122   2.0000      -0.918685       -24.9987
 123   2.0000      -0.913628       -24.8611
 124   2.0000      -0.904635       -24.6164
 125   2.0000      -0.898464       -24.4485
 126   2.0000      -0.886218       -24.1152
 127   2.0000      -0.879572       -23.9344
 128   2.0000      -0.877397       -23.8752
 129   2.0000      -0.876076       -23.8392
 130   2.0000      -0.864188       -23.5158
 131   2.0000      -0.857891       -23.3444
 132   2.0000      -0.853476       -23.2243
 133   2.0000      -0.845724       -23.0133
 134   2.0000      -0.844027       -22.9672
 135   2.0000      -0.841892       -22.9091
 136   2.0000      -0.838557       -22.8183
 137   2.0000      -0.832338       -22.6491
 138   2.0000      -0.815658       -22.1952
 139   2.0000      -0.811354       -22.0781
 140   2.0000      -0.809416       -22.0253
 141   2.0000      -0.805522       -21.9194
 142   2.0000      -0.800647       -21.7867
 143   2.0000      -0.792428       -21.5631
 144   2.0000      -0.781289       -21.2600
 145   2.0000      -0.774499       -21.0752
 146   2.0000      -0.768256       -20.9053
 147   2.0000      -0.762019       -20.7356
 148   2.0000      -0.750412       -20.4198
 149   2.0000      -0.746051       -20.3011
 150   2.0000      -0.730416       -19.8756
 151   2.0000      -0.717575       -19.5262
 152   2.0000      -0.716288       -19.4912
 153   2.0000      -0.710759       -19.3407
 154   2.0000      -0.709586       -19.3088
 155   2.0000      -0.704799       -19.1786
 156   2.0000      -0.695299       -18.9201
 157   2.0000      -0.689770       -18.7696
 158   2.0000      -0.682693       -18.5770
 159   2.0000      -0.677785       -18.4435
 160   2.0000      -0.676075       -18.3969
 161   2.0000      -0.672050       -18.2874
 162   2.0000      -0.670113       -18.2347
 163   2.0000      -0.667785       -18.1713
 164   2.0000      -0.667170       -18.1546
 165   2.0000      -0.652603       -17.7582
 166   2.0000      -0.647253       -17.6126
 167   2.0000      -0.636873       -17.3302
 168   2.0000      -0.636130       -17.3100
 169   2.0000      -0.632373       -17.2077
 170   2.0000      -0.627082       -17.0638
 171   2.0000      -0.625124       -17.0105
 172   2.0000      -0.622187       -16.9306
 173   2.0000      -0.610894       -16.6233
 174   2.0000      -0.609171       -16.5764
 175   2.0000      -0.604636       -16.4530
 176   2.0000      -0.596791       -16.2395
 177   2.0000      -0.595573       -16.2064
 178   2.0000      -0.591424       -16.0935
 179   2.0000      -0.590818       -16.0770
 180   2.0000      -0.590091       -16.0572
 181   2.0000      -0.589603       -16.0439
 182   2.0000      -0.585326       -15.9275
 183   2.0000      -0.583278       -15.8718
 184   2.0000      -0.577575       -15.7166
 185   2.0000      -0.571000       -15.5377
 186   2.0000      -0.566380       -15.4120
 187   2.0000      -0.564600       -15.3635
 188   2.0000      -0.563773       -15.3411
 189   2.0000      -0.562238       -15.2993
 190   2.0000      -0.557894       -15.1811
 191   2.0000      -0.555632       -15.1195
 192   2.0000      -0.555577       -15.1180
 193   2.0000      -0.546630       -14.8746
 194   2.0000      -0.545001       -14.8302
 195   2.0000      -0.542365       -14.7585
 196   2.0000      -0.539803       -14.6888
 197   2.0000      -0.536922       -14.6104
 198   2.0000      -0.535228       -14.5643
 199   2.0000      -0.533250       -14.5105
 200   2.0000      -0.532685       -14.4951
 201   2.0000      -0.531567       -14.4647
 202   2.0000      -0.529902       -14.4194
 203   2.0000      -0.527700       -14.3594
 204   2.0000      -0.522912       -14.2292
 205   2.0000      -0.518436       -14.1074
 206   2.0000      -0.513754       -13.9800
 207   2.0000      -0.512612       -13.9489
 208   2.0000      -0.512428       -13.9439
 209   2.0000      -0.510031       -13.8786
 210   2.0000      -0.508244       -13.8300
 211   2.0000      -0.507592       -13.8123
 212   2.0000      -0.504101       -13.7173
 213   2.0000      -0.503280       -13.6950
 214   2.0000      -0.501865       -13.6564
 215   2.0000      -0.500819       -13.6280
 216   2.0000      -0.499091       -13.5810
 217   2.0000      -0.495480       -13.4827
 218   2.0000      -0.492188       -13.3931
 219   2.0000      -0.488961       -13.3053
 220   2.0000      -0.488370       -13.2892
 221   2.0000      -0.487542       -13.2667
 222   2.0000      -0.482365       -13.1258
 223   2.0000      -0.480991       -13.0884
 224   2.0000      -0.477960       -13.0059
 225   2.0000      -0.476192       -12.9578
 226   2.0000      -0.474821       -12.9205
 227   2.0000      -0.472885       -12.8678
 228   2.0000      -0.468273       -12.7424
 229   2.0000      -0.467153       -12.7119
 230   2.0000      -0.463860       -12.6223
 231   2.0000      -0.462441       -12.5837
 232   2.0000      -0.460854       -12.5405
 233   2.0000      -0.458686       -12.4815
 234   2.0000      -0.454051       -12.3554
 235   2.0000      -0.451402       -12.2833
 236   2.0000      -0.446888       -12.1604
 237   2.0000      -0.445762       -12.1298
 238   2.0000      -0.445120       -12.1123
 239   2.0000      -0.443358       -12.0644
 240   2.0000      -0.440922       -11.9981
 241   2.0000      -0.439849       -11.9689
 242   2.0000      -0.438187       -11.9237
 243   2.0000      -0.437517       -11.9055
 244   2.0000      -0.436696       -11.8831
 245   2.0000      -0.435917       -11.8619
 246   2.0000      -0.434844       -11.8327
 247   2.0000      -0.432282       -11.7630
 248   2.0000      -0.430925       -11.7261
 249   2.0000      -0.430180       -11.7058
 250   2.0000      -0.429145       -11.6776
 251   2.0000      -0.427440       -11.6312
 252   2.0000      -0.424434       -11.5494
 253   2.0000      -0.422325       -11.4920
 254   2.0000      -0.421986       -11.4828
 255   2.0000      -0.419382       -11.4120
 256   2.0000      -0.416000       -11.3199
 257   2.0000      -0.413747       -11.2586
 258   2.0000      -0.412234       -11.2175
 259   2.0000      -0.407796       -11.0967
 260   2.0000      -0.404945       -11.0191
 261   2.0000      -0.402570       -10.9545
 262   2.0000      -0.400755       -10.9051
 263   2.0000      -0.398053       -10.8316
 264   2.0000      -0.395475       -10.7614
 265   2.0000      -0.393743       -10.7143
 266   2.0000      -0.378148       -10.2899
 267   2.0000      -0.374955       -10.2030
 268   2.0000      -0.371232       -10.1017
 269   2.0000      -0.362715        -9.8700
 270   2.0000      -0.356030        -9.6881
 271   2.0000      -0.344665        -9.3788
 272   2.0000      -0.339316        -9.2333
 273   2.0000      -0.337945        -9.1960
 274   2.0000      -0.334826        -9.1111
 275   2.0000      -0.331950        -9.0328
 276   2.0000      -0.329260        -8.9596
 277   2.0000      -0.325654        -8.8615
 278   2.0000      -0.319475        -8.6934
 279   2.0000      -0.318546        -8.6681
 280   2.0000      -0.314340        -8.5536
 281   2.0000      -0.299941        -8.1618
 282   2.0000      -0.295231        -8.0336
 283   2.0000      -0.291107        -7.9214
 284   2.0000      -0.285817        -7.7775
 285   2.0000      -0.266844        -7.2612
 286   2.0000      -0.238822        -6.4987
 287   2.0000      -0.226612        -6.1664
 288   0.0000      -0.091592        -2.4923
 289   0.0000      -0.083933        -2.2839
 290   0.0000      -0.072965        -1.9855
 291   0.0000      -0.066824        -1.8184
 292   0.0000      -0.042341        -1.1522

MULLIKEN ATOMIC CHARGES
-----------------------
   0 C :   -0.122663
   1 C :    0.118109
   2 O :   -0.153047
   3 C :    0.010447
   4 C :   -0.011181
   5 C :    0.260509
   6 C :   -0.335151
   7 C :   -0.204244
   8 N :    0.178501
   9 C :   -0.176401
  10 N :    0.156272
  11 C :   -0.021550
  12 C :    0.005190
  13 C :    0.077426
  14 C :    0.034992
  15 C :   -0.022907
  16 C :    0.035561
  17 C :    0.036317
  18 C :   -0.019581
  19 C :    0.083219
  20 C :   -0.070280
  21 C :    0.003382
  22 C :    0.023560
  23 C :   -0.084717
  24 S :    0.097078
  25 C :    0.095988
  26 O :   -0.308186
  27 C :    0.164122
  28 C :    0.062218
  29 C :   -0.107950
  30 C :    0.116997
  31 O :   -0.309006
  32 C :    0.164698
  33 S :    0.075964
  34 C :    0.013751
  35 C :   -0.075232
  36 C :   -0.115795
  37 C :    0.192248
  38 F :   -0.170316
  39 C :    0.193402
  40 F :   -0.170398
  41 C :   -0.112620
  42 S :    0.170902
  43 C :    0.000085
  44 C :   -0.091003
  45 C :    0.074204
  46 C :   -0.108547
  47 S :    0.136235
  48 C :    0.128432
  49 O :   -0.317665
  50 C :    0.173317
  51 C :    0.038363
  52 C :   -0.108282
  53 C :    0.108168
  54 O :   -0.306570
  55 C :    0.166298
  56 S :    0.091699
  57 C :   -0.057178
  58 C :   -0.035358
  59 C :    0.088502
  60 C :   -0.123148
  61 C :    0.117777
  62 O :   -0.148869
  63 C :    0.011569
  64 C :   -0.008810
  65 C :    0.262703
  66 C :   -0.352911
  67 C :   -0.198993
  68 N :    0.174884
  69 C :   -0.179120
  70 N :    0.159423
  71 C :   -0.026921
  72 C :    0.007274
  73 C :    0.078777
  74 C :    0.034654
  75 C :   -0.025967
  76 C :    0.037399
  77 C :    0.039086
  78 C :   -0.019837
  79 H :   -0.000324
  80 H :   -0.013186
  81 H :    0.000635
  82 H :   -0.007316
  83 H :   -0.006055
  84 H :   -0.022096
  85 H :    0.019949
  86 H :    0.002989
  87 H :    0.035054
  88 H :    0.041482
  89 H :    0.041644
  90 H :    0.040960
  91 H :    0.044044
  92 H :    0.037901
  93 H :   -0.002846
  94 H :   -0.006309
  95 H :    0.039539
  96 H :    0.031881
  97 H :    0.042249
  98 H :    0.041281
  99 H :    0.037089
 100 H :    0.039842
 101 H :   -0.017413
 102 H :    0.020748
 103 H :    0.001192
 104 H :   -0.012292
 105 H :    0.001302
 106 H :   -0.004995
 107 H :   -0.006254
 108 H :   -0.019992
Sum of atomic charges:   -0.0000000

LOEWDIN ATOMIC CHARGES
----------------------
   0 C :   -0.087930
   1 C :    0.087423
   2 O :   -0.143944
   3 C :   -0.033500
   4 C :   -0.004176
   5 C :    0.066276
   6 C :   -0.135799
   7 C :   -0.018438
   8 N :   -0.037479
   9 C :   -0.020558
  10 N :   -0.053012
  11 C :   -0.018234
  12 C :    0.017681
  13 C :   -0.009936
  14 C :   -0.003061
  15 C :   -0.002120
  16 C :   -0.013123
  17 C :   -0.013517
  18 C :   -0.012955
  19 C :    0.047212
  20 C :   -0.178968
  21 C :    0.005330
  22 C :   -0.061144
  23 C :   -0.173924
  24 S :    0.408960
  25 C :    0.024513
  26 O :   -0.099322
  27 C :    0.066829
  28 C :   -0.049948
  29 C :   -0.184069
  30 C :    0.036680
  31 O :   -0.097655
  32 C :    0.067582
  33 S :    0.390712
  34 C :   -0.170955
  35 C :   -0.035867
  36 C :   -0.215594
  37 C :    0.029879
  38 F :   -0.043988
  39 C :    0.029414
  40 F :   -0.044021
  41 C :   -0.214777
  42 S :    0.454119
  43 C :   -0.167655
  44 C :   -0.040006
  45 C :   -0.051208
  46 C :   -0.171823
  47 S :    0.408897
  48 C :    0.032456
  49 O :   -0.109575
  50 C :    0.080268
  51 C :   -0.071467
  52 C :   -0.176513
  53 C :    0.026469
  54 O :   -0.099271
  55 C :    0.066152
  56 S :    0.409099
  57 C :   -0.179605
  58 C :   -0.006373
  59 C :    0.049265
  60 C :   -0.089339
  61 C :    0.088005
  62 O :   -0.140546
  63 C :   -0.032151
  64 C :   -0.006027
  65 C :    0.069106
  66 C :   -0.144274
  67 C :   -0.020344
  68 N :   -0.038505
  69 C :   -0.024304
  70 N :   -0.051847
  71 C :   -0.019255
  72 C :    0.019133
  73 C :   -0.009127
  74 C :   -0.002896
  75 C :   -0.001759
  76 C :   -0.011541
  77 C :   -0.011618
  78 C :   -0.012305
  79 H :    0.039143
  80 H :    0.035193
  81 H :    0.035422
  82 H :    0.032279
  83 H :    0.031832
  84 H :    0.029947
  85 H :    0.044866
  86 H :    0.035574
  87 H :    0.012208
  88 H :    0.015740
  89 H :    0.032062
  90 H :    0.016469
  91 H :    0.033159
  92 H :    0.012882
  93 H :    0.034824
  94 H :    0.033511
  95 H :    0.022503
  96 H :    0.014420
  97 H :    0.031531
  98 H :    0.032183
  99 H :    0.011918
 100 H :    0.015566
 101 H :    0.030201
 102 H :    0.045510
 103 H :    0.039209
 104 H :    0.035851
 105 H :    0.035828
 106 H :    0.033129
 107 H :    0.032246
 108 H :    0.030683

  Mayer bond orders larger than 0.100000
B(  0-C ,  1-C ) :   0.9589 B(  0-C ,  5-C ) :   1.0262 B(  0-C , 19-C ) :   1.6930
B(  1-C ,  2-O ) :   2.1905 B(  1-C ,  3-C ) :   0.9377 B(  3-C ,  4-C ) :   1.4171
B(  3-C , 14-C ) :   1.2394 B(  4-C ,  5-C ) :   1.0027 B(  4-C , 11-C ) :   1.2611
B(  5-C ,  6-C ) :   1.6534 B(  6-C ,  7-C ) :   1.1658 B(  6-C ,  9-C ) :   1.1257
B(  7-C ,  8-N ) :   3.0083 B(  9-C , 10-N ) :   2.9946 B( 11-C , 12-C ) :   1.4671
B( 11-C , 79-H ) :   0.9866 B( 12-C , 13-C ) :   1.2249 B( 12-C , 80-H ) :   0.9939
B( 13-C , 14-C ) :   1.2408 B( 13-C , 18-C ) :   1.2397 B( 14-C , 15-C ) :   1.2755
B( 15-C , 16-C ) :   1.4751 B( 15-C , 81-H ) :   0.9861 B( 16-C , 17-C ) :   1.2541
B( 16-C , 82-H ) :   0.9880 B( 17-C , 18-C ) :   1.4960 B( 17-C , 83-H ) :   0.9897
B( 18-C , 84-H ) :   0.9974 B( 19-C , 20-C ) :   1.1077 B( 19-C , 85-H ) :   0.9275
B( 20-C , 21-C ) :   1.4879 B( 20-C , 24-S ) :   1.0469 B( 21-C , 22-C ) :   1.2387
B( 21-C , 86-H ) :   0.9947 B( 22-C , 23-C ) :   1.3116 B( 22-C , 28-C ) :   0.1009
B( 22-C , 30-C ) :   1.2799 B( 23-C , 24-S ) :   1.0195 B( 23-C , 25-C ) :   1.3633
B( 25-C , 26-O ) :   1.2250 B( 25-C , 28-C ) :   1.2937 B( 26-O , 27-C ) :   0.9448
B( 27-C , 87-H ) :   0.9670 B( 27-C , 88-H ) :   0.9684 B( 27-C , 89-H ) :   0.9765
B( 28-C , 29-C ) :   1.3161 B( 28-C , 35-C ) :   1.1636 B( 29-C , 30-C ) :   1.3775
B( 29-C , 33-S ) :   1.0073 B( 30-C , 31-O ) :   1.2256 B( 31-O , 32-C ) :   0.9416
B( 32-C , 90-H ) :   0.9681 B( 32-C , 91-H ) :   0.9764 B( 32-C , 92-H ) :   0.9666
B( 33-S , 34-C ) :   1.0483 B( 34-C , 35-C ) :   1.5604 B( 34-C , 36-C ) :   1.1135
B( 35-C , 93-H ) :   1.0131 B( 36-C , 37-C ) :   1.4884 B( 36-C , 41-C ) :   0.1465
B( 36-C , 42-S ) :   1.1034 B( 37-C , 38-F ) :   1.1432 B( 37-C , 39-C ) :   1.2216
B( 39-C , 40-F ) :   1.1413 B( 39-C , 41-C ) :   1.4878 B( 41-C , 42-S ) :   1.1038
B( 41-C , 43-C ) :   1.1131 B( 43-C , 44-C ) :   1.5636 B( 43-C , 47-S ) :   1.0593
B( 44-C , 45-C ) :   1.1603 B( 44-C , 94-H ) :   1.0140 B( 45-C , 46-C ) :   1.3668
B( 45-C , 53-C ) :   1.2721 B( 46-C , 47-S ) :   1.0394 B( 46-C , 48-C ) :   1.4038
B( 48-C , 49-O ) :   1.2631 B( 48-C , 51-C ) :   1.2259 B( 49-O , 50-C ) :   0.9332
B( 50-C , 95-H ) :   0.9672 B( 50-C , 96-H ) :   0.9686 B( 50-C , 97-H ) :   0.9736
B( 51-C , 52-C ) :   1.2641 B( 51-C , 58-C ) :   1.2198 B( 52-C , 53-C ) :   1.3849
B( 52-C , 56-S ) :   1.0160 B( 53-C , 54-O ) :   1.2320 B( 54-O , 55-C ) :   0.9432
B( 55-C , 98-H ) :   0.9759 B( 55-C , 99-H ) :   0.9666 B( 55-C ,100-H ) :   0.9682
B( 56-S , 57-C ) :   1.0493 B( 57-C , 58-C ) :   1.5109 B( 57-C , 59-C ) :   1.1141
B( 58-C ,101-H ) :   0.9839 B( 59-C , 60-C ) :   1.6805 B( 59-C ,102-H ) :   0.9278
B( 60-C , 61-C ) :   0.9563 B( 60-C , 65-C ) :   1.0321 B( 61-C , 62-O ) :   2.1934
B( 61-C , 63-C ) :   0.9379 B( 63-C , 64-C ) :   1.4179 B( 63-C , 74-C ) :   1.2386
B( 64-C , 65-C ) :   1.0043 B( 64-C , 71-C ) :   1.2578 B( 65-C , 66-C ) :   1.6355
B( 66-C , 67-C ) :   1.1800 B( 66-C , 69-C ) :   1.1264 B( 67-C , 68-N ) :   2.9553
B( 69-C , 70-N ) :   2.9942 B( 71-C , 72-C ) :   1.4673 B( 71-C ,103-H ) :   0.9873
B( 72-C , 73-C ) :   1.2264 B( 72-C ,104-H ) :   0.9935 B( 73-C , 74-C ) :   1.2388
B( 73-C , 78-C ) :   1.2398 B( 74-C , 75-C ) :   1.2746 B( 75-C , 76-C ) :   1.4762
B( 75-C ,105-H ) :   0.9867 B( 76-C , 77-C ) :   1.2536 B( 76-C ,106-H ) :   0.9881
B( 77-C , 78-C ) :   1.4967 B( 77-C ,107-H ) :   0.9892 B( 78-C ,108-H ) :   0.9974

-----------------------------------------------------------------------------
         ABSORPTION SPECTRUM VIA TRANSITION ELECTRIC DIPOLE MOMENTS
-----------------------------------------------------------------------------
State   Energy  Wavelength   fosc         T2         TX        TY        TZ
        (cm-1)    (nm)                  (au**2)     (au)      (au)      (au)
-----------------------------------------------------------------------------
   0   14754.5    677.8   0.735451104  16.40983   1.56714  -0.10180   3.73410
   1   15438.4    647.7   0.162125101   3.45720   0.96746   0.96130   1.26377
   2   20230.5    494.3   0.831641521  13.53334   1.10030   0.11875   3.50836
   3   20724.9    482.5   0.017218228   0.27351  -0.11445   0.37309  -0.34815
   4   21880.5    457.0   0.183073903   2.75451   0.29234  -0.74333   1.45482
   5   23514.0    425.3   0.516135929   7.22626   1.10720   0.89991   2.27827
   6   24701.4    404.8   0.175713567   2.34186  -0.19702  -1.42351   0.52598
   7   25713.4    388.9   0.123470071   1.58080  -0.43889  -1.15641   0.22559
   8   25796.3    387.7   0.323820272   4.13260  -0.55786   0.33340  -1.92620
   9   27043.6    369.8   0.064146192   0.78088  -0.19721   0.76646   0.39310
  10   27435.8    364.5   0.040319681   0.48381  -0.36172  -0.13820  -0.57782
  11   27805.1    359.6   0.136535417   1.61658   0.91754   0.78752   0.39309
  12   28307.5    353.3   0.254700996   2.96214  -0.22758   0.59618   1.59841
  13   29018.3    344.6   0.272144552   3.08748  -0.16772   0.01540   1.74903
  14   29571.0    338.2   0.165823538   1.84610  -0.40119  -1.27528  -0.24252
  15   29995.5    333.4   0.241057922   2.64570   0.01979  -1.35252   0.90332
  16   30060.8    332.7   0.051045947   0.55903  -0.24807   0.22781   0.66753
  17   30473.6    328.2   0.023586867   0.25481   0.22243  -0.06993  -0.44771
  18   30606.1    326.7   0.033675173   0.36222   0.07498  -0.20009  -0.56264
  19   30654.3    326.2   0.041748981   0.44836  -0.10993  -0.38267  -0.53837
  20   30851.2    324.1   0.099396357   1.06066   0.58242   0.78418  -0.32636
  21   31234.9    320.2   0.069892010   0.73665   0.12692  -0.22543   0.81837
  22   31995.1    312.5   0.271916026   2.79787  -0.06541  -0.42330  -1.61691
  23   32547.6    307.2   0.101886451   1.03056   0.13118   0.13874   0.99705
  24   32820.2    304.7   0.317755212   3.18733  -0.76322  -0.61861   1.49069
  25   33075.1    302.3   0.346826986   3.45213  -0.00221   1.30686   1.32070
  26   33368.0    299.7   0.552866028   5.45464   0.67515  -0.61065  -2.15079
  27   34301.3    291.5   0.007522604   0.07220  -0.23018   0.05380   0.12775
  28   34410.7    290.6   0.103786558   0.99294   0.13024  -0.07686  -0.98492
  29   34759.8    287.7   0.033623875   0.31845   0.30982   0.05600   0.46833
  30   34985.0    285.8   0.168317854   1.58389  -0.12786   0.04786   1.25110
  31   35210.9    284.0   0.034582350   0.32334   0.03736  -0.28983  -0.48779
  32   35598.5    280.9   0.014948185   0.13824  -0.03292  -0.28157  -0.24057
  33   35791.4    279.4   0.008896367   0.08183  -0.08238  -0.23271  -0.14452
  34   36019.8    277.6   0.022094311   0.20194  -0.14757  -0.38197   0.18509
  35   36127.8    276.8   0.011580634   0.10553   0.15554  -0.21238   0.19034
  36   36814.7    271.6   0.072837939   0.65135   0.33541   0.47405   0.56046
  37   37193.0    268.9   0.019923546   0.17635  -0.17598   0.27254  -0.26666
  38   37350.4    267.7   0.069632150   0.61375   0.03601  -0.34474   0.70257
  39   38289.1    261.2   0.008760660   0.07532   0.21306   0.16790   0.04169
  40   38583.1    259.2   0.138449330   1.18132  -0.22102  -0.21531  -1.04217
  41   38728.6    258.2   0.079200353   0.67324   0.31118   0.03945   0.75819
  42   38826.8    257.6   0.011689287   0.09911  -0.12419  -0.10289  -0.27038
  43   39262.8    254.7   0.047405699   0.39749  -0.18486  -0.60273  -0.00533
  44   39761.1    251.5   0.038657378   0.32007  -0.06175   0.22628  -0.51484
  45   40259.2    248.4   0.001398079   0.01143  -0.04748  -0.05635   0.07748

FINAL SINGLE POINT ENERGY     -5236.911416579362

DIPOLE MOMENT
-------------
                                X             Y             Z
Electronic contribution:     -5.15471     -28.48158       7.90797
Nuclear contribution   :      4.90035      29.32131      -8.84835
                        -----------------------------------------
Total Dipole Moment    :     -0.25436       0.83973      -0.94038
                        -----------------------------------------
Magnitude (a.u.)       :      1.28614
Magnitude (Debye)      :      3.26911

Rotational constants in cm-1:     0.001548     0.000164     0.000151
Rotational constants in MHz :    46.401734     4.910920     4.540697

                             ****ORCA TERMINATED NORMALLY****
TOTAL RUN TIME: 0 days 0 hours 11 minutes 55 seconds 75 msec
