                         Program Version 4.2.0 -  RELEASE  -
|  1> # ORCA input file
|  2> # SCF done       -165.319862021644          0.000631238247
|  3> ! CAM-B3LYP def2-SVP def2/J RIJCOSX Grid4 TightSCF
|  4> %maxcore 5000
|  5> %tddft
|  6>     Mode sTDDFT
|  7>     Ethresh 5.0
|  8>     maxcore 5000
|  9> end
| 10>
| 11> %pal
| 12>   nprocs 6
| 13>   end
| 14> * xyz 0 1
| 15>    C        5.52783        -0.63840         2.25683
| 16>    C        4.85464        -0.24035         3.52692
| 17>    O        4.22465         0.77871         3.70656
| 18>    C        5.08613        -1.36023         4.45596
| 19>    C        5.93389        -2.29237         3.85666
| 20>    C        6.34599        -1.79598         2.54593
| 21>    C        7.46702        -2.19503         1.86667
| 22>    C        7.99299        -1.51462         0.74936
| 23>    N        8.48939        -0.97587        -0.13422
| 24>    C        8.28830        -3.27429         2.25329
| 25>    N        8.98272        -4.15255         2.50681
| 26>    C        6.28760        -3.46972         4.52836
| 27>    C        5.79412        -3.68200         5.78924
| 28>    C        4.94871        -2.75073         6.43106
| 29>    C        4.57390        -1.55389         5.75356
| 30>    C        3.72599        -0.62893         6.39622
| 31>    C        3.27070        -0.87848         7.66143
| 32>    C        3.63883        -2.05465         8.33454
| 33>    C        4.45814        -2.97078         7.73421
| 34>    C        5.23743         0.03995         1.11519
| 35>    C        5.44874        -0.34006        -0.23144
| 36>    C        5.60098        -1.60416        -0.77247
| 37>    C        5.74599        -1.56044        -2.15498
| 38>    C        5.71883        -0.26723        -2.69504
| 39>    S        5.45946         0.91001        -1.46703
| 40>    C        5.90914        -0.22289        -4.07730
| 41>    C        6.07563        -1.47747        -4.61811
| 42>    S        5.98956        -2.73854        -3.38824
| 43>    C        6.30799        -1.85494        -5.98591
| 44>    C        6.31004        -3.19416        -6.34917
| 45>    C        6.56345        -3.61423        -7.64478
| 46>    C        6.84394        -2.72422        -8.67052
| 47>    C        6.82841        -1.33198        -8.35177
| 48>    N        7.04173        -0.42416        -9.32138
| 49>    C        7.02240         0.84407        -9.01106
| 50>    C        6.78740         1.27026        -7.69422
| 51>    N        6.55732         0.41629        -6.73358
| 52>    C        6.56122        -0.89854        -7.01777
| 53>    C        7.13696        -3.20680        -9.99291
| 54>    C        7.71841        -2.54111       -11.04805
| 55>    C        7.87047        -3.36497       -12.16416
| 56>    C        7.39260        -4.66898       -11.98619
| 57>    S        6.76440        -4.87968       -10.39542
| 58>    C        7.52353        -5.48179       -13.10988
| 59>    C        8.15298        -4.82699       -14.14934
| 60>    S        8.52803        -3.15474       -13.74319
| 61>    C        8.40286        -5.36180       -15.43965
| 62>    C        9.31201        -4.96137       -16.36333
| 63>    C        9.12943        -5.31958       -17.79908
| 64>    O        8.37427        -6.16150       -18.23264
| 65>    C       10.00989        -4.39557       -18.53682
| 66>    C       10.77314        -3.65549       -17.63228
| 67>    C       10.47492        -4.10274       -16.27637
| 68>    C       11.30043        -3.97957       -15.19117
| 69>    C       11.10194        -4.69578       -13.99129
| 70>    N       11.00092        -5.30649       -13.02464
| 71>    C       12.48705        -3.21924       -15.18016
| 72>    N       13.45375        -2.60384       -15.11370
| 73>    C       11.67733        -2.68607       -18.08393
| 74>    C       11.79978        -2.47961       -19.43318
| 75>    C       11.05136        -3.21811       -20.37618
| 76>    C       10.12700        -4.20627       -19.92773
| 77>    C        9.38198        -4.93983       -20.87326
| 78>    C        9.54656        -4.70409       -22.21032
| 79>    C       10.45526        -3.73168       -22.65779
| 80>    C       11.19121        -3.00499       -21.76263
| 81>    H        6.92631        -4.20191         4.06181
| 82>    H        6.05451        -4.58645         6.31989
| 83>    H        3.45027         0.27103         5.86957
| 84>    H        2.62226        -0.16920         8.15370
| 85>    H        3.26810        -2.23077         9.33352
| 86>    H        4.74337        -3.87625         8.25015
| 87>    H        4.71573         0.98073         1.26496
| 88>    H        5.56730        -2.50965        -0.19440
| 89>    H        5.93398         0.67080        -4.67004
| 90>    H        6.11351        -3.94048        -5.59334
| 91>    H        6.55843        -4.67327        -7.85762
| 92>    H        7.19263         1.54419        -9.81773
| 93>    H        6.78026         2.31771        -7.42467
| 94>    H        8.01768        -1.51255       -10.99386
| 95>    H        7.21567        -6.50971       -13.16401
| 96>    H        7.72583        -6.14822       -15.76029
| 97>    H       12.25616        -2.10460       -17.38469
| 98>    H       12.48773        -1.73157       -19.80001
| 99>    H        8.68672        -5.68379       -20.51775
|100>    H        8.97602        -5.26669       -22.93407
|101>    H       10.56848        -3.56141       -23.71822
|102>    H       11.89186        -2.25697       -22.10457
|103> *
|104>
|105>                          ****END OF INPUT****

CARTESIAN COORDINATES (ANGSTROEM)
---------------------------------
  C      5.527830   -0.638400    2.256830
  C      4.854640   -0.240350    3.526920
  O      4.224650    0.778710    3.706560
  C      5.086130   -1.360230    4.455960
  C      5.933890   -2.292370    3.856660
  C      6.345990   -1.795980    2.545930
  C      7.467020   -2.195030    1.866670
  C      7.992990   -1.514620    0.749360
  N      8.489390   -0.975870   -0.134220
  C      8.288300   -3.274290    2.253290
  N      8.982720   -4.152550    2.506810
  C      6.287600   -3.469720    4.528360
  C      5.794120   -3.682000    5.789240
  C      4.948710   -2.750730    6.431060
  C      4.573900   -1.553890    5.753560
  C      3.725990   -0.628930    6.396220
  C      3.270700   -0.878480    7.661430
  C      3.638830   -2.054650    8.334540
  C      4.458140   -2.970780    7.734210
  C      5.237430    0.039950    1.115190
  C      5.448740   -0.340060   -0.231440
  C      5.600980   -1.604160   -0.772470
  C      5.745990   -1.560440   -2.154980
  C      5.718830   -0.267230   -2.695040
  S      5.459460    0.910010   -1.467030
  C      5.909140   -0.222890   -4.077300
  C      6.075630   -1.477470   -4.618110
  S      5.989560   -2.738540   -3.388240
  C      6.307990   -1.854940   -5.985910
  C      6.310040   -3.194160   -6.349170
  C      6.563450   -3.614230   -7.644780
  C      6.843940   -2.724220   -8.670520
  C      6.828410   -1.331980   -8.351770
  N      7.041730   -0.424160   -9.321380
  C      7.022400    0.844070   -9.011060
  C      6.787400    1.270260   -7.694220
  N      6.557320    0.416290   -6.733580
  C      6.561220   -0.898540   -7.017770
  C      7.136960   -3.206800   -9.992910
  C      7.718410   -2.541110  -11.048050
  C      7.870470   -3.364970  -12.164160
  C      7.392600   -4.668980  -11.986190
  S      6.764400   -4.879680  -10.395420
  C      7.523530   -5.481790  -13.109880
  C      8.152980   -4.826990  -14.149340
  S      8.528030   -3.154740  -13.743190
  C      8.402860   -5.361800  -15.439650
  C      9.312010   -4.961370  -16.363330
  C      9.129430   -5.319580  -17.799080
  O      8.374270   -6.161500  -18.232640
  C     10.009890   -4.395570  -18.536820
  C     10.773140   -3.655490  -17.632280
  C     10.474920   -4.102740  -16.276370
  C     11.300430   -3.979570  -15.191170
  C     11.101940   -4.695780  -13.991290
  N     11.000920   -5.306490  -13.024640
  C     12.487050   -3.219240  -15.180160
  N     13.453750   -2.603840  -15.113700
  C     11.677330   -2.686070  -18.083930
  C     11.799780   -2.479610  -19.433180
  C     11.051360   -3.218110  -20.376180
  C     10.127000   -4.206270  -19.927730
  C      9.381980   -4.939830  -20.873260
  C      9.546560   -4.704090  -22.210320
  C     10.455260   -3.731680  -22.657790
  C     11.191210   -3.004990  -21.762630
  H      6.926310   -4.201910    4.061810
  H      6.054510   -4.586450    6.319890
  H      3.450270    0.271030    5.869570
  H      2.622260   -0.169200    8.153700
  H      3.268100   -2.230770    9.333520
  H      4.743370   -3.876250    8.250150
  H      4.715730    0.980730    1.264960
  H      5.567300   -2.509650   -0.194400
  H      5.933980    0.670800   -4.670040
  H      6.113510   -3.940480   -5.593340
  H      6.558430   -4.673270   -7.857620
  H      7.192630    1.544190   -9.817730
  H      6.780260    2.317710   -7.424670
  H      8.017680   -1.512550  -10.993860
  H      7.215670   -6.509710  -13.164010
  H      7.725830   -6.148220  -15.760290
  H     12.256160   -2.104600  -17.384690
  H     12.487730   -1.731570  -19.800010
  H      8.686720   -5.683790  -20.517750
  H      8.976020   -5.266690  -22.934070
  H     10.568480   -3.561410  -23.718220
  H     11.891860   -2.256970  -22.104570

 Total Charge           Charge          ....    0
 Multiplicity           Mult            ....    1
 Number of Electrons    NEL             ....  468
 Basis Dimension        Dim             .... 1050

ORBITAL ENERGIES
----------------

  NO   OCC          E(Eh)            E(eV)
   0   2.0000     -88.963698     -2420.8253
   1   2.0000     -88.963387     -2420.8168
   2   2.0000     -88.961402     -2420.7628
   3   2.0000     -88.960177     -2420.7295
   4   2.0000     -19.215021      -522.8673
   5   2.0000     -19.214578      -522.8552
   6   2.0000     -14.434893      -392.7934
   7   2.0000     -14.434719      -392.7887
   8   2.0000     -14.413101      -392.2004
   9   2.0000     -14.412303      -392.1787
  10   2.0000     -14.411225      -392.1494
  11   2.0000     -14.407989      -392.0613
  12   2.0000     -10.365677      -282.0644
  13   2.0000     -10.365470      -282.0588
  14   2.0000     -10.341940      -281.4185
  15   2.0000     -10.341054      -281.3944
  16   2.0000     -10.339723      -281.3582
  17   2.0000     -10.337534      -281.2986
  18   2.0000     -10.331242      -281.1274
  19   2.0000     -10.330799      -281.1153
  20   2.0000     -10.329493      -281.0798
  21   2.0000     -10.329088      -281.0688
  22   2.0000     -10.316456      -280.7250
  23   2.0000     -10.315907      -280.7101
  24   2.0000     -10.315788      -280.7069
  25   2.0000     -10.314885      -280.6823
  26   2.0000     -10.314720      -280.6778
  27   2.0000     -10.314702      -280.6773
  28   2.0000     -10.314600      -280.6745
  29   2.0000     -10.313959      -280.6571
  30   2.0000     -10.312373      -280.6139
  31   2.0000     -10.310217      -280.5553
  32   2.0000     -10.307109      -280.4707
  33   2.0000     -10.306603      -280.4569
  34   2.0000     -10.306540      -280.4552
  35   2.0000     -10.306342      -280.4498
  36   2.0000     -10.305758      -280.4339
  37   2.0000     -10.305420      -280.4247
  38   2.0000     -10.304520      -280.4003
  39   2.0000     -10.304384      -280.3965
  40   2.0000     -10.298443      -280.2349
  41   2.0000     -10.298135      -280.2265
  42   2.0000     -10.294792      -280.1355
  43   2.0000     -10.294526      -280.1283
  44   2.0000     -10.294323      -280.1228
  45   2.0000     -10.294104      -280.1168
  46   2.0000     -10.293855      -280.1100
  47   2.0000     -10.293708      -280.1060
  48   2.0000     -10.293526      -280.1011
  49   2.0000     -10.293326      -280.0956
  50   2.0000     -10.293184      -280.0918
  51   2.0000     -10.292964      -280.0858
  52   2.0000     -10.292856      -280.0828
  53   2.0000     -10.292579      -280.0753
  54   2.0000     -10.289569      -279.9934
  55   2.0000     -10.289154      -279.9821
  56   2.0000     -10.282244      -279.7941
  57   2.0000     -10.281757      -279.7808
  58   2.0000     -10.281729      -279.7801
  59   2.0000     -10.281246      -279.7669
  60   2.0000     -10.281149      -279.7643
  61   2.0000     -10.279812      -279.7279
  62   2.0000     -10.279540      -279.7205
  63   2.0000     -10.279477      -279.7188
  64   2.0000     -10.275758      -279.6176
  65   2.0000     -10.275345      -279.6063
  66   2.0000      -8.059023      -219.2972
  67   2.0000      -8.058265      -219.2765
  68   2.0000      -8.056718      -219.2344
  69   2.0000      -8.055421      -219.1991
  70   2.0000      -6.028449      -164.0424
  71   2.0000      -6.027803      -164.0248
  72   2.0000      -6.026231      -163.9821
  73   2.0000      -6.024959      -163.9475
  74   2.0000      -6.024500      -163.9350
  75   2.0000      -6.023813      -163.9163
  76   2.0000      -6.022264      -163.8741
  77   2.0000      -6.020996      -163.8396
  78   2.0000      -6.020711      -163.8319
  79   2.0000      -6.019781      -163.8066
  80   2.0000      -6.018234      -163.7645
  81   2.0000      -6.016908      -163.7284
  82   2.0000      -1.129995       -30.7487
  83   2.0000      -1.129540       -30.7363
  84   2.0000      -1.092451       -29.7271
  85   2.0000      -1.019163       -27.7328
  86   2.0000      -1.018001       -27.7012
  87   2.0000      -1.015846       -27.6426
  88   2.0000      -1.011689       -27.5295
  89   2.0000      -1.009173       -27.4610
  90   2.0000      -0.996615       -27.1193
  91   2.0000      -0.995538       -27.0900
  92   2.0000      -0.990326       -26.9481
  93   2.0000      -0.988348       -26.8943
  94   2.0000      -0.975775       -26.5522
  95   2.0000      -0.967472       -26.3262
  96   2.0000      -0.966113       -26.2893
  97   2.0000      -0.955272       -25.9943
  98   2.0000      -0.942533       -25.6476
  99   2.0000      -0.920018       -25.0350
 100   2.0000      -0.918873       -25.0038
 101   2.0000      -0.902012       -24.5450
 102   2.0000      -0.900116       -24.4934
 103   2.0000      -0.891189       -24.2505
 104   2.0000      -0.882832       -24.0231
 105   2.0000      -0.874044       -23.7839
 106   2.0000      -0.871737       -23.7212
 107   2.0000      -0.863038       -23.4844
 108   2.0000      -0.862341       -23.4655
 109   2.0000      -0.854913       -23.2634
 110   2.0000      -0.851452       -23.1692
 111   2.0000      -0.838444       -22.8152
 112   2.0000      -0.835871       -22.7452
 113   2.0000      -0.812251       -22.1025
 114   2.0000      -0.806043       -21.9335
 115   2.0000      -0.804098       -21.8806
 116   2.0000      -0.795376       -21.6433
 117   2.0000      -0.779688       -21.2164
 118   2.0000      -0.771219       -20.9859
 119   2.0000      -0.768980       -20.9250
 120   2.0000      -0.763334       -20.7714
 121   2.0000      -0.758454       -20.6386
 122   2.0000      -0.747778       -20.3481
 123   2.0000      -0.726541       -19.7702
 124   2.0000      -0.711910       -19.3721
 125   2.0000      -0.711492       -19.3607
 126   2.0000      -0.708118       -19.2689
 127   2.0000      -0.704549       -19.1718
 128   2.0000      -0.695965       -18.9382
 129   2.0000      -0.683034       -18.5863
 130   2.0000      -0.673741       -18.3334
 131   2.0000      -0.672898       -18.3105
 132   2.0000      -0.663249       -18.0479
 133   2.0000      -0.658552       -17.9201
 134   2.0000      -0.652343       -17.7512
 135   2.0000      -0.651944       -17.7403
 136   2.0000      -0.644344       -17.5335
 137   2.0000      -0.638423       -17.3724
 138   2.0000      -0.629430       -17.1277
 139   2.0000      -0.627045       -17.0628
 140   2.0000      -0.625383       -17.0175
 141   2.0000      -0.620483       -16.8842
 142   2.0000      -0.610822       -16.6213
 143   2.0000      -0.603426       -16.4201
 144   2.0000      -0.593162       -16.1407
 145   2.0000      -0.590476       -16.0677
 146   2.0000      -0.586448       -15.9581
 147   2.0000      -0.586186       -15.9509
 148   2.0000      -0.585030       -15.9195
 149   2.0000      -0.577535       -15.7155
 150   2.0000      -0.577090       -15.7034
 151   2.0000      -0.569591       -15.4994
 152   2.0000      -0.567499       -15.4424
 153   2.0000      -0.562702       -15.3119
 154   2.0000      -0.560489       -15.2517
 155   2.0000      -0.544103       -14.8058
 156   2.0000      -0.543498       -14.7893
 157   2.0000      -0.539115       -14.6701
 158   2.0000      -0.536611       -14.6019
 159   2.0000      -0.534858       -14.5542
 160   2.0000      -0.533739       -14.5238
 161   2.0000      -0.526940       -14.3388
 162   2.0000      -0.526199       -14.3186
 163   2.0000      -0.522858       -14.2277
 164   2.0000      -0.522062       -14.2060
 165   2.0000      -0.516736       -14.0611
 166   2.0000      -0.513159       -13.9638
 167   2.0000      -0.511852       -13.9282
 168   2.0000      -0.511725       -13.9247
 169   2.0000      -0.509669       -13.8688
 170   2.0000      -0.504547       -13.7294
 171   2.0000      -0.503831       -13.7099
 172   2.0000      -0.500084       -13.6080
 173   2.0000      -0.497779       -13.5453
 174   2.0000      -0.494950       -13.4683
 175   2.0000      -0.493839       -13.4380
 176   2.0000      -0.491642       -13.3783
 177   2.0000      -0.485371       -13.2076
 178   2.0000      -0.480775       -13.0825
 179   2.0000      -0.478086       -13.0094
 180   2.0000      -0.476778       -12.9738
 181   2.0000      -0.474363       -12.9081
 182   2.0000      -0.471431       -12.8283
 183   2.0000      -0.470959       -12.8155
 184   2.0000      -0.468969       -12.7613
 185   2.0000      -0.466762       -12.7012
 186   2.0000      -0.464501       -12.6397
 187   2.0000      -0.460041       -12.5184
 188   2.0000      -0.456231       -12.4147
 189   2.0000      -0.456126       -12.4118
 190   2.0000      -0.446829       -12.1588
 191   2.0000      -0.445229       -12.1153
 192   2.0000      -0.440754       -11.9935
 193   2.0000      -0.439004       -11.9459
 194   2.0000      -0.437639       -11.9088
 195   2.0000      -0.437406       -11.9024
 196   2.0000      -0.436677       -11.8826
 197   2.0000      -0.434141       -11.8136
 198   2.0000      -0.432413       -11.7666
 199   2.0000      -0.431688       -11.7468
 200   2.0000      -0.429416       -11.6850
 201   2.0000      -0.428802       -11.6683
 202   2.0000      -0.427249       -11.6260
 203   2.0000      -0.426939       -11.6176
 204   2.0000      -0.423838       -11.5332
 205   2.0000      -0.422254       -11.4901
 206   2.0000      -0.416075       -11.3220
 207   2.0000      -0.414626       -11.2825
 208   2.0000      -0.412038       -11.2121
 209   2.0000      -0.409190       -11.1346
 210   2.0000      -0.403968       -10.9925
 211   2.0000      -0.401364       -10.9217
 212   2.0000      -0.393097       -10.6967
 213   2.0000      -0.390341       -10.6217
 214   2.0000      -0.387750       -10.5512
 215   2.0000      -0.373388       -10.1604
 216   2.0000      -0.371356       -10.1051
 217   2.0000      -0.365770        -9.9531
 218   2.0000      -0.362126        -9.8539
 219   2.0000      -0.357282        -9.7221
 220   2.0000      -0.346276        -9.4226
 221   2.0000      -0.342453        -9.3186
 222   2.0000      -0.334125        -9.0920
 223   2.0000      -0.331805        -9.0289
 224   2.0000      -0.329366        -8.9625
 225   2.0000      -0.322719        -8.7816
 226   2.0000      -0.314717        -8.5639
 227   2.0000      -0.308599        -8.3974
 228   2.0000      -0.297380        -8.0921
 229   2.0000      -0.296797        -8.0763
 230   2.0000      -0.292237        -7.9522
 231   2.0000      -0.291033        -7.9194
 232   2.0000      -0.274948        -7.4817
 233   2.0000      -0.246942        -6.7196
 234   0.0000      -0.093802        -2.5525
 235   0.0000      -0.082553        -2.2464
 236   0.0000      -0.072476        -1.9722
 237   0.0000      -0.065446        -1.7809
 238   0.0000      -0.054820        -1.4917

MULLIKEN ATOMIC CHARGES
-----------------------
   0 C :   -0.125351
   1 C :    0.116382
   2 O :   -0.152279
   3 C :    0.012571
   4 C :   -0.008742
   5 C :    0.262494
   6 C :   -0.340863
   7 C :   -0.202710
   8 N :    0.182459
   9 C :   -0.179802
  10 N :    0.156870
  11 C :   -0.024054
  12 C :    0.005318
  13 C :    0.076591
  14 C :    0.033749
  15 C :   -0.027419
  16 C :    0.036128
  17 C :    0.039234
  18 C :   -0.018019
  19 C :    0.082561
  20 C :   -0.128337
  21 C :    0.017632
  22 C :   -0.015693
  23 C :    0.012867
  24 S :    0.161995
  25 C :   -0.032212
  26 C :   -0.112030
  27 S :    0.112625
  28 C :    0.167860
  29 C :   -0.061743
  30 C :   -0.059768
  31 C :    0.157424
  32 C :   -0.044492
  33 N :   -0.029980
  34 C :    0.034911
  35 C :    0.037729
  36 N :   -0.029761
  37 C :   -0.046821
  38 C :   -0.113853
  39 C :   -0.015395
  40 C :   -0.001821
  41 C :    0.003446
  42 S :    0.118488
  43 C :    0.022518
  44 C :   -0.113258
  45 S :    0.153860
  46 C :    0.049213
  47 C :   -0.127011
  48 C :    0.122160
  49 O :   -0.152249
  50 C :    0.007754
  51 C :   -0.003505
  52 C :    0.244034
  53 C :   -0.318206
  54 C :   -0.201501
  55 N :    0.173743
  56 C :   -0.176218
  57 N :    0.155804
  58 C :   -0.019898
  59 C :    0.005181
  60 C :    0.075601
  61 C :    0.033063
  62 C :   -0.025282
  63 C :    0.036981
  64 C :    0.037258
  65 C :   -0.018656
  66 H :    0.001213
  67 H :   -0.013711
  68 H :   -0.000041
  69 H :   -0.006646
  70 H :   -0.007426
  71 H :   -0.022124
  72 H :    0.022565
  73 H :    0.000422
  74 H :   -0.000338
  75 H :    0.001517
  76 H :    0.000621
  77 H :    0.016111
  78 H :    0.015884
  79 H :   -0.002956
  80 H :   -0.003816
  81 H :    0.026312
  82 H :    0.001085
  83 H :   -0.013516
  84 H :    0.000538
  85 H :   -0.007133
  86 H :   -0.006828
  87 H :   -0.021310
Sum of atomic charges:   -0.0000000

LOEWDIN ATOMIC CHARGES
----------------------
   0 C :   -0.092418
   1 C :    0.086895
   2 O :   -0.144111
   3 C :   -0.033553
   4 C :   -0.004807
   5 C :    0.065687
   6 C :   -0.137947
   7 C :   -0.020313
   8 N :   -0.037684
   9 C :   -0.021656
  10 N :   -0.051146
  11 C :   -0.018359
  12 C :    0.018236
  13 C :   -0.009830
  14 C :   -0.003070
  15 C :   -0.002162
  16 C :   -0.012992
  17 C :   -0.013049
  18 C :   -0.012674
  19 C :    0.045096
  20 C :   -0.177945
  21 C :   -0.028127
  22 C :   -0.195931
  23 C :   -0.183937
  24 S :    0.443974
  25 C :   -0.054277
  26 C :   -0.139498
  27 S :    0.420998
  28 C :   -0.033091
  29 C :   -0.012727
  30 C :   -0.012618
  31 C :   -0.033736
  32 C :    0.002590
  33 N :   -0.026668
  34 C :    0.008676
  35 C :    0.010303
  36 N :   -0.026095
  37 C :    0.002993
  38 C :   -0.140457
  39 C :   -0.052286
  40 C :   -0.182133
  41 C :   -0.200223
  42 S :    0.424199
  43 C :   -0.021462
  44 C :   -0.174342
  45 S :    0.446117
  46 C :    0.046846
  47 C :   -0.094045
  48 C :    0.087441
  49 O :   -0.144291
  50 C :   -0.033861
  51 C :   -0.003229
  52 C :    0.060405
  53 C :   -0.135470
  54 C :   -0.033205
  55 N :   -0.045656
  56 C :   -0.020219
  57 N :   -0.050188
  58 C :   -0.017411
  59 C :    0.018276
  60 C :   -0.010061
  61 C :   -0.003037
  62 C :   -0.002680
  63 C :   -0.012779
  64 C :   -0.013715
  65 C :   -0.012649
  66 H :    0.039411
  67 H :    0.035307
  68 H :    0.035365
  69 H :    0.032440
  70 H :    0.031720
  71 H :    0.030093
  72 H :    0.045726
  73 H :    0.036028
  74 H :    0.032111
  75 H :    0.026149
  76 H :    0.027107
  77 H :    0.028109
  78 H :    0.028167
  79 H :    0.032846
  80 H :    0.039127
  81 H :    0.051065
  82 H :    0.039483
  83 H :    0.035266
  84 H :    0.035417
  85 H :    0.032302
  86 H :    0.031695
  87 H :    0.030156

  Mayer bond orders larger than 0.100000
B(  0-C ,  1-C ) :   0.9600 B(  0-C ,  5-C ) :   1.0308 B(  0-C , 19-C ) :   1.6836
B(  1-C ,  2-O ) :   2.1912 B(  1-C ,  3-C ) :   0.9385 B(  3-C ,  4-C ) :   1.4171
B(  3-C , 14-C ) :   1.2373 B(  4-C ,  5-C ) :   0.9999 B(  4-C , 11-C ) :   1.2598
B(  5-C ,  6-C ) :   1.6478 B(  6-C ,  7-C ) :   1.1635 B(  6-C ,  9-C ) :   1.1276
B(  7-C ,  8-N ) :   3.0133 B(  9-C , 10-N ) :   2.9943 B( 11-C , 12-C ) :   1.4668
B( 11-C , 66-H ) :   0.9863 B( 12-C , 13-C ) :   1.2250 B( 12-C , 67-H ) :   0.9943
B( 13-C , 14-C ) :   1.2413 B( 13-C , 18-C ) :   1.2392 B( 14-C , 15-C ) :   1.2743
B( 15-C , 16-C ) :   1.4755 B( 15-C , 68-H ) :   0.9871 B( 16-C , 17-C ) :   1.2543
B( 16-C , 69-H ) :   0.9876 B( 17-C , 18-C ) :   1.4960 B( 17-C , 70-H ) :   0.9889
B( 18-C , 71-H ) :   0.9975 B( 19-C , 20-C ) :   1.1242 B( 19-C , 72-H ) :   0.9264
B( 20-C , 21-C ) :   1.4584 B( 20-C , 24-S ) :   1.0897 B( 21-C , 22-C ) :   1.3112
B( 21-C , 73-H ) :   0.9928 B( 22-C , 23-C ) :   1.4020 B( 22-C , 27-S ) :   1.0617
B( 23-C , 24-S ) :   1.0900 B( 23-C , 25-C ) :   1.2006 B( 25-C , 26-C ) :   1.5455
B( 25-C , 74-H ) :   0.9884 B( 26-C , 27-S ) :   1.0910 B( 26-C , 28-C ) :   1.1187
B( 28-C , 29-C ) :   1.3967 B( 28-C , 31-C ) :   0.1157 B( 28-C , 37-C ) :   1.2148
B( 29-C , 30-C ) :   1.2933 B( 29-C , 75-H ) :   0.9849 B( 30-C , 31-C ) :   1.3985
B( 30-C , 76-H ) :   0.9872 B( 31-C , 32-C ) :   1.2217 B( 31-C , 38-C ) :   1.1047
B( 32-C , 33-N ) :   1.4702 B( 32-C , 37-C ) :   1.2310 B( 33-N , 34-C ) :   1.6374
B( 34-C , 35-C ) :   1.2396 B( 34-C , 77-H ) :   0.9742 B( 35-C , 36-N ) :   1.6333
B( 35-C , 78-H ) :   0.9741 B( 36-N , 37-C ) :   1.4729 B( 38-C , 39-C ) :   1.5374
B( 38-C , 42-S ) :   1.0987 B( 39-C , 40-C ) :   1.2219 B( 39-C , 79-H ) :   0.9920
B( 40-C , 41-C ) :   1.3993 B( 40-C , 45-S ) :   1.0838 B( 41-C , 42-S ) :   1.0618
B( 41-C , 43-C ) :   1.2669 B( 43-C , 44-C ) :   1.4636 B( 43-C , 80-H ) :   1.0048
B( 44-C , 45-S ) :   1.0935 B( 44-C , 46-C ) :   1.1203 B( 46-C , 47-C ) :   1.6686
B( 46-C , 81-H ) :   0.9477 B( 47-C , 48-C ) :   0.9557 B( 47-C , 52-C ) :   1.0230
B( 48-C , 49-O ) :   2.1965 B( 48-C , 50-C ) :   0.9397 B( 50-C , 51-C ) :   1.4166
B( 50-C , 61-C ) :   1.2405 B( 51-C , 52-C ) :   1.0053 B( 51-C , 58-C ) :   1.2605
B( 52-C , 53-C ) :   1.6638 B( 53-C , 54-C ) :   1.1495 B( 53-C , 56-C ) :   1.1317
B( 54-C , 55-N ) :   3.0278 B( 56-C , 57-N ) :   2.9971 B( 58-C , 59-C ) :   1.4700
B( 58-C , 82-H ) :   0.9868 B( 59-C , 60-C ) :   1.2232 B( 59-C , 83-H ) :   0.9938
B( 60-C , 61-C ) :   1.2439 B( 60-C , 65-C ) :   1.2414 B( 61-C , 62-C ) :   1.2748
B( 62-C , 63-C ) :   1.4768 B( 62-C , 84-H ) :   0.9859 B( 63-C , 64-C ) :   1.2559
B( 63-C , 85-H ) :   0.9873 B( 64-C , 65-C ) :   1.4945 B( 64-C , 86-H ) :   0.9892
B( 65-C , 87-H ) :   0.9974

-----------------------------------------------------------------------------
         ABSORPTION SPECTRUM VIA TRANSITION ELECTRIC DIPOLE MOMENTS
-----------------------------------------------------------------------------
State   Energy  Wavelength   fosc         T2         TX        TY        TZ
        (cm-1)    (nm)                  (au**2)     (au)      (au)      (au)
-----------------------------------------------------------------------------
   0   17949.1    557.1   1.999949596  36.68190   1.18837  -0.73775  -5.89283
   1   20609.7    485.2   0.144028522   2.30066  -1.38677   0.57116   0.22651
   2   22895.3    436.8   0.216837054   3.11790  -0.11976   0.63800   1.64211
   3   25402.2    393.7   0.061851271   0.80159  -0.67768   0.43591  -0.39029
   4   26087.5    383.3   0.144759174   1.82679   0.36685   0.04808  -1.29996
   5   26529.4    376.9   0.002860928   0.03550   0.12124   0.00068   0.14423
   6   27159.4    368.2   0.151745098   1.83937  -0.28385  -0.38139   1.27017
   7   27590.9    362.4   0.036745147   0.43844   0.26124  -0.60056  -0.09755
   8   27775.2    360.0   0.346465840   4.10657   0.40500  -0.06092  -1.98465
   9   27851.9    359.0   0.053297926   0.62999  -0.78970   0.03590   0.07119
  10   29766.3    336.0   0.009198285   0.10173   0.11975   0.08808   0.28219
  11   29882.4    334.6   0.000323543   0.00356  -0.04416   0.00232   0.04011
  12   30224.7    330.9   0.021358153   0.23264  -0.43696   0.08591  -0.18527
  13   30454.1    328.4   0.061312401   0.66279   0.28764  -0.34991  -0.67647
  14   30568.8    327.1   0.026392643   0.28424  -0.26846  -0.33417  -0.31702
  15   30978.8    322.8   0.129794469   1.37933  -0.11850  -1.07784   0.45116
  16   31718.6    315.3   0.050899733   0.52830  -0.16724  -0.38119  -0.59584
  17   31934.5    313.1   0.178341699   1.83852  -0.12003   0.61070   1.20464
  18   32151.4    311.0   0.119211806   1.22066  -0.89015   0.47148   0.45387
  19   32183.4    310.7   0.085287612   0.87243  -0.60044  -0.23919  -0.67430
  20   32470.5    308.0   0.174249212   1.76668  -1.27726  -0.27018  -0.24956
  21   32898.0    304.0   0.522948364   5.23318   0.67164   0.42525  -2.14505
  22   33000.4    303.0   0.027459037   0.27393   0.51768  -0.05521  -0.05373
  23   33261.8    300.6   0.007964534   0.07883   0.24415   0.13674   0.02290
  24   34240.1    292.1   0.017367101   0.16698   0.01572  -0.08018  -0.40038
  25   34315.7    291.4   0.602763397   5.78268   0.35595   0.04132  -2.37787
  26   34707.6    288.1   0.107646634   1.02106   0.77606  -0.12395  -0.63516
  27   35035.0    285.4   0.040233796   0.37806  -0.19958   0.56235   0.14829
  28   35149.9    284.5   0.100730474   0.94344  -0.12846   0.18499  -0.94484
  29   35815.3    279.2   0.004591159   0.04220  -0.02277  -0.12784  -0.15919
  30   36166.3    276.5   0.025732796   0.23424   0.03920   0.47475  -0.08555
  31   36624.8    273.0   0.284777403   2.55980   0.22995  -0.84746  -1.33743
  32   37426.1    267.2   0.067348161   0.59242   0.04627  -0.21493   0.73762
  33   37707.8    265.2   0.088018566   0.76845   0.35783   0.37448  -0.70723
  34   38156.6    262.1   0.104441488   0.90111  -0.93573  -0.14692  -0.06273
  35   38733.4    258.2   0.020078783   0.17066  -0.11375   0.39543  -0.03678
  36   38851.4    257.4   0.017924274   0.15188  -0.08816   0.33078  -0.18626
  37   39105.1    255.7   0.052451953   0.44157  -0.12939  -0.63665   0.13968
  38   39826.3    251.1   0.030434178   0.25157   0.06804   0.47725   0.13850
  39   40144.7    249.1   0.181344395   1.48714  -0.07952  -1.12984   0.45197

FINAL SINGLE POINT ENERGY     -4138.932432489974

DIPOLE MOMENT
-------------
                                X             Y             Z
Electronic contribution:      3.93834      -0.13014       1.03336
Nuclear contribution   :     -6.66728       0.87893      -1.73768
                        -----------------------------------------
Total Dipole Moment    :     -2.72893       0.74880      -0.70431
                        -----------------------------------------
Magnitude (a.u.)       :      2.91613
Magnitude (Debye)      :      7.41222

Rotational constants in cm-1:     0.004378     0.000215     0.000213
Rotational constants in MHz :   131.251513     6.457737     6.388367

                             ****ORCA TERMINATED NORMALLY****
TOTAL RUN TIME: 0 days 0 hours 7 minutes 55 seconds 404 msec
