                         Program Version 4.2.0 -  RELEASE  -
|  1> # ORCA input file
|  2> # SCF done       -196.190004625118          0.000969933460
|  3> ! CAM-B3LYP def2-SVP def2/J RIJCOSX Grid4 TightSCF
|  4> %maxcore 5000
|  5> %tddft
|  6>     Mode sTDDFT
|  7>     Ethresh 5.0
|  8>     maxcore 5000
|  9> end
| 10>
| 11> %pal
| 12>   nprocs 6
| 13>   end
| 14> * xyz 0 1
| 15>    C        5.37672        -4.21500        -4.64122
| 16>    C        5.11195        -4.24782        -6.11042
| 17>    O        4.86243        -5.23813        -6.76458
| 18>    C        5.25956        -2.85386        -6.56855
| 19>    C        5.46617        -2.03154        -5.46234
| 20>    C        5.37953        -2.83733        -4.24540
| 21>    C        5.14846        -2.33534        -2.98417
| 22>    C        4.80709        -3.14802        -1.88687
| 23>    N        4.51248        -3.78147        -0.97526
| 24>    C        5.15944        -0.96781        -2.65230
| 25>    N        5.18396         0.12638        -2.30160
| 26>    C        5.70799        -0.66265        -5.62096
| 27>    C        5.70694        -0.13658        -6.88715
| 28>    C        5.45188        -0.93298        -8.02413
| 29>    C        5.23306        -2.33399        -7.87656
| 30>    C        5.00019        -3.12270        -9.02197
| 31>    C        4.97311        -2.54560       -10.26152
| 32>    C        5.17379        -1.16351       -10.41089
| 33>    C        5.40802        -0.37624        -9.31793
| 34>    C        5.59450        -5.41554        -4.00058
| 35>    C        6.20382        -5.75451        -2.78713
| 36>    C        7.07267        -5.01031        -2.01368
| 37>    C        7.57700        -5.36207        -0.73485
| 38>    C        8.35041        -4.40193        -0.14957
| 39>    C        8.51293        -3.25101        -0.94737
| 40>    S        7.74111        -3.47757        -2.49829
| 41>    C        9.00916        -1.99206        -0.65274
| 42>    C        9.62342        -1.49106         0.51467
| 43>    C        9.83517        -0.14469         0.47485
| 44>    C        9.40299         0.48632        -0.72292
| 45>    S        8.76845        -0.71834        -1.81506
| 46>    C        9.34489         1.84798        -0.91777
| 47>    C        8.83744         2.57762        -2.01317
| 48>    C        8.65995         2.15714        -3.34110
| 49>    F        9.16853         0.97886        -3.74910
| 50>    C        8.04054         2.90835        -4.33210
| 51>    F        7.93852         2.30019        -5.52866
| 52>    C        7.53286         4.20474        -4.14710
| 53>    C        7.76238         4.68487        -2.82232
| 54>    C        8.40250         3.91894        -1.81070
| 55>    N        8.45435         4.67441        -0.70810
| 56>    N        7.88995         5.79938        -1.05806
| 57>    N        7.45748         5.87321        -2.28877
| 58>    C        7.74281         6.88856        -0.14314
| 59>    C        6.86243         5.05452        -5.04737
| 60>    C        6.56489         4.96888        -6.39115
| 61>    C        5.84119         5.97764        -7.07885
| 62>    C        5.66169         5.74308        -8.40982
| 63>    C        6.24737         4.53787        -8.84727
| 64>    S        7.01251         3.71057        -7.52247
| 65>    C        6.26437         4.00500       -10.13004
| 66>    C        5.61194         4.48400       -11.28226
| 67>    C        5.81604         3.71376       -12.39247
| 68>    C        6.65946         2.60156       -12.17492
| 69>    S        7.14468         2.54474       -10.49668
| 70>    C        7.06433         1.59938       -13.03797
| 71>    C        6.90152         1.52511       -14.42213
| 72>    C        6.66275         2.48057       -15.38633
| 73>    C        6.13757         2.02649       -16.69916
| 74>    O        6.04231         0.87392       -17.06955
| 75>    C        5.73222         3.25425       -17.41024
| 76>    C        6.08545         4.36247       -16.64292
| 77>    C        6.78567         3.90983       -15.43807
| 78>    C        7.58196         4.70687       -14.64760
| 79>    C        8.47025         4.21324       -13.67521
| 80>    N        9.24907         3.87135       -12.90316
| 81>    C        7.66700         6.10730       -14.75162
| 82>    N        7.75888         7.25261       -14.75280
| 83>    C        5.78286         5.65680       -17.08218
| 84>    C        5.14033         5.81202       -18.28376
| 85>    C        4.78533         4.71105       -19.09215
| 86>    C        5.08413         3.38870       -18.65201
| 87>    C        4.72853         2.29043       -19.46180
| 88>    C        4.10385         2.49461       -20.66062
| 89>    C        3.80676         3.79539       -21.09920
| 90>    C        4.13842         4.87889       -20.33374
| 91>    H        5.91145        -0.03555        -4.76877
| 92>    H        5.91338         0.91382        -7.03223
| 93>    H        4.84246        -4.18214        -8.89472
| 94>    H        4.79317        -3.15082       -11.13763
| 95>    H        5.13999        -0.72614       -11.39843
| 96>    H        5.56361         0.68652        -9.42462
| 97>    H        5.26519        -6.26501        -4.59511
| 98>    H        6.01694        -6.76005        -2.43054
| 99>    H        7.30729        -6.29211        -0.26729
|100>    H        8.77030        -4.47612         0.83745
|101>    H        9.87690        -2.12479         1.34558
|102>    H       10.27136         0.42455         1.27685
|103>    H        9.61715         2.46268        -0.06870
|104>    H        8.69352         7.07740         0.35410
|105>    H        6.99358         6.64521         0.61197
|106>    H        7.42692         7.76299        -0.70680
|107>    H        6.52993         5.97173        -4.57451
|108>    H        5.47340         6.84712        -6.56321
|109>    H        5.14031         6.40484        -9.07740
|110>    H        4.99911         5.36758       -11.26764
|111>    H        5.34152         3.89289       -13.34002
|112>    H        7.52218         0.73692       -12.57003
|113>    H        6.93665         0.51943       -14.83480
|114>    H        6.03888         6.51795       -16.48675
|115>    H        4.89481         6.80437       -18.63401
|116>    H        4.96201         1.29676       -19.11329
|117>    H        3.83343         1.65355       -21.28156
|118>    H        3.31267         3.93316       -22.04977
|119>    H        3.91264         5.88074       -20.67009
|120> *
|121>
|122>                          ****END OF INPUT****

CARTESIAN COORDINATES (ANGSTROEM)
---------------------------------
  C      5.376720   -4.215000   -4.641220
  C      5.111950   -4.247820   -6.110420
  O      4.862430   -5.238130   -6.764580
  C      5.259560   -2.853860   -6.568550
  C      5.466170   -2.031540   -5.462340
  C      5.379530   -2.837330   -4.245400
  C      5.148460   -2.335340   -2.984170
  C      4.807090   -3.148020   -1.886870
  N      4.512480   -3.781470   -0.975260
  C      5.159440   -0.967810   -2.652300
  N      5.183960    0.126380   -2.301600
  C      5.707990   -0.662650   -5.620960
  C      5.706940   -0.136580   -6.887150
  C      5.451880   -0.932980   -8.024130
  C      5.233060   -2.333990   -7.876560
  C      5.000190   -3.122700   -9.021970
  C      4.973110   -2.545600  -10.261520
  C      5.173790   -1.163510  -10.410890
  C      5.408020   -0.376240   -9.317930
  C      5.594500   -5.415540   -4.000580
  C      6.203820   -5.754510   -2.787130
  C      7.072670   -5.010310   -2.013680
  C      7.577000   -5.362070   -0.734850
  C      8.350410   -4.401930   -0.149570
  C      8.512930   -3.251010   -0.947370
  S      7.741110   -3.477570   -2.498290
  C      9.009160   -1.992060   -0.652740
  C      9.623420   -1.491060    0.514670
  C      9.835170   -0.144690    0.474850
  C      9.402990    0.486320   -0.722920
  S      8.768450   -0.718340   -1.815060
  C      9.344890    1.847980   -0.917770
  C      8.837440    2.577620   -2.013170
  C      8.659950    2.157140   -3.341100
  F      9.168530    0.978860   -3.749100
  C      8.040540    2.908350   -4.332100
  F      7.938520    2.300190   -5.528660
  C      7.532860    4.204740   -4.147100
  C      7.762380    4.684870   -2.822320
  C      8.402500    3.918940   -1.810700
  N      8.454350    4.674410   -0.708100
  N      7.889950    5.799380   -1.058060
  N      7.457480    5.873210   -2.288770
  C      7.742810    6.888560   -0.143140
  C      6.862430    5.054520   -5.047370
  C      6.564890    4.968880   -6.391150
  C      5.841190    5.977640   -7.078850
  C      5.661690    5.743080   -8.409820
  C      6.247370    4.537870   -8.847270
  S      7.012510    3.710570   -7.522470
  C      6.264370    4.005000  -10.130040
  C      5.611940    4.484000  -11.282260
  C      5.816040    3.713760  -12.392470
  C      6.659460    2.601560  -12.174920
  S      7.144680    2.544740  -10.496680
  C      7.064330    1.599380  -13.037970
  C      6.901520    1.525110  -14.422130
  C      6.662750    2.480570  -15.386330
  C      6.137570    2.026490  -16.699160
  O      6.042310    0.873920  -17.069550
  C      5.732220    3.254250  -17.410240
  C      6.085450    4.362470  -16.642920
  C      6.785670    3.909830  -15.438070
  C      7.581960    4.706870  -14.647600
  C      8.470250    4.213240  -13.675210
  N      9.249070    3.871350  -12.903160
  C      7.667000    6.107300  -14.751620
  N      7.758880    7.252610  -14.752800
  C      5.782860    5.656800  -17.082180
  C      5.140330    5.812020  -18.283760
  C      4.785330    4.711050  -19.092150
  C      5.084130    3.388700  -18.652010
  C      4.728530    2.290430  -19.461800
  C      4.103850    2.494610  -20.660620
  C      3.806760    3.795390  -21.099200
  C      4.138420    4.878890  -20.333740
  H      5.911450   -0.035550   -4.768770
  H      5.913380    0.913820   -7.032230
  H      4.842460   -4.182140   -8.894720
  H      4.793170   -3.150820  -11.137630
  H      5.139990   -0.726140  -11.398430
  H      5.563610    0.686520   -9.424620
  H      5.265190   -6.265010   -4.595110
  H      6.016940   -6.760050   -2.430540
  H      7.307290   -6.292110   -0.267290
  H      8.770300   -4.476120    0.837450
  H      9.876900   -2.124790    1.345580
  H     10.271360    0.424550    1.276850
  H      9.617150    2.462680   -0.068700
  H      8.693520    7.077400    0.354100
  H      6.993580    6.645210    0.611970
  H      7.426920    7.762990   -0.706800
  H      6.529930    5.971730   -4.574510
  H      5.473400    6.847120   -6.563210
  H      5.140310    6.404840   -9.077400
  H      4.999110    5.367580  -11.267640
  H      5.341520    3.892890  -13.340020
  H      7.522180    0.736920  -12.570030
  H      6.936650    0.519430  -14.834800
  H      6.038880    6.517950  -16.486750
  H      4.894810    6.804370  -18.634010
  H      4.962010    1.296760  -19.113290
  H      3.833430    1.653550  -21.281560
  H      3.312670    3.933160  -22.049770
  H      3.912640    5.880740  -20.670090

 Total Charge           Charge          ....    0
 Multiplicity           Mult            ....    1
 Number of Electrons    NEL             ....  542
 Basis Dimension        Dim             .... 1225

ORBITAL ENERGIES
----------------

  NO   OCC          E(Eh)            E(eV)
   0   2.0000     -88.964940     -2420.8591
   1   2.0000     -88.959801     -2420.7193
   2   2.0000     -88.957304     -2420.6513
   3   2.0000     -88.957106     -2420.6459
   4   2.0000     -24.809577      -675.1029
   5   2.0000     -24.803476      -674.9369
   6   2.0000     -19.203082      -522.5424
   7   2.0000     -19.201561      -522.5010
   8   2.0000     -14.553574      -396.0229
   9   2.0000     -14.456701      -393.3868
  10   2.0000     -14.455322      -393.3493
  11   2.0000     -14.402692      -391.9172
  12   2.0000     -14.400674      -391.8623
  13   2.0000     -14.400660      -391.8619
  14   2.0000     -14.397889      -391.7865
  15   2.0000     -10.385311      -282.5987
  16   2.0000     -10.381822      -282.5037
  17   2.0000     -10.352039      -281.6933
  18   2.0000     -10.350946      -281.6635
  19   2.0000     -10.333125      -281.1786
  20   2.0000     -10.332994      -281.1751
  21   2.0000     -10.329262      -281.0735
  22   2.0000     -10.328967      -281.0655
  23   2.0000     -10.327836      -281.0347
  24   2.0000     -10.326252      -280.9916
  25   2.0000     -10.325535      -280.9721
  26   2.0000     -10.324631      -280.9475
  27   2.0000     -10.323743      -280.9233
  28   2.0000     -10.323041      -280.9042
  29   2.0000     -10.321667      -280.8668
  30   2.0000     -10.321536      -280.8633
  31   2.0000     -10.320613      -280.8382
  32   2.0000     -10.320289      -280.8293
  33   2.0000     -10.319816      -280.8165
  34   2.0000     -10.317492      -280.7532
  35   2.0000     -10.317312      -280.7483
  36   2.0000     -10.308651      -280.5127
  37   2.0000     -10.307059      -280.4693
  38   2.0000     -10.305830      -280.4359
  39   2.0000     -10.305347      -280.4227
  40   2.0000     -10.305071      -280.4152
  41   2.0000     -10.303953      -280.3848
  42   2.0000     -10.303018      -280.3594
  43   2.0000     -10.302911      -280.3565
  44   2.0000     -10.302780      -280.3529
  45   2.0000     -10.302540      -280.3464
  46   2.0000     -10.300507      -280.2911
  47   2.0000     -10.298648      -280.2404
  48   2.0000     -10.296273      -280.1758
  49   2.0000     -10.295548      -280.1561
  50   2.0000     -10.294500      -280.1276
  51   2.0000     -10.292602      -280.0759
  52   2.0000     -10.291234      -280.0387
  53   2.0000     -10.290549      -280.0201
  54   2.0000     -10.284944      -279.8676
  55   2.0000     -10.284304      -279.8501
  56   2.0000     -10.283447      -279.8268
  57   2.0000     -10.283041      -279.8158
  58   2.0000     -10.280941      -279.7586
  59   2.0000     -10.280750      -279.7534
  60   2.0000     -10.280175      -279.7378
  61   2.0000     -10.279742      -279.7260
  62   2.0000     -10.278926      -279.7038
  63   2.0000     -10.277775      -279.6725
  64   2.0000     -10.277022      -279.6520
  65   2.0000     -10.275978      -279.6236
  66   2.0000     -10.275925      -279.6221
  67   2.0000     -10.274357      -279.5795
  68   2.0000     -10.273480      -279.5556
  69   2.0000     -10.272827      -279.5378
  70   2.0000     -10.270680      -279.4794
  71   2.0000     -10.266953      -279.3780
  72   2.0000     -10.266402      -279.3630
  73   2.0000     -10.266252      -279.3589
  74   2.0000     -10.264655      -279.3155
  75   2.0000     -10.261708      -279.2353
  76   2.0000      -8.060397      -219.3346
  77   2.0000      -8.055220      -219.1937
  78   2.0000      -8.053497      -219.1468
  79   2.0000      -8.052872      -219.1298
  80   2.0000      -6.030132      -164.0882
  81   2.0000      -6.025822      -163.9710
  82   2.0000      -6.024777      -163.9425
  83   2.0000      -6.023257      -163.9012
  84   2.0000      -6.022544      -163.8818
  85   2.0000      -6.021503      -163.8534
  86   2.0000      -6.020526      -163.8268
  87   2.0000      -6.018952      -163.7840
  88   2.0000      -6.018469      -163.7709
  89   2.0000      -6.016697      -163.7226
  90   2.0000      -6.014381      -163.6596
  91   2.0000      -6.013945      -163.6478
  92   2.0000      -1.331375       -36.2286
  93   2.0000      -1.310410       -35.6581
  94   2.0000      -1.231643       -33.5147
  95   2.0000      -1.116836       -30.3907
  96   2.0000      -1.115387       -30.3512
  97   2.0000      -1.013452       -27.5774
  98   2.0000      -1.013241       -27.5717
  99   2.0000      -1.006143       -27.3785
 100   2.0000      -1.004112       -27.3233
 101   2.0000      -1.003300       -27.3012
 102   2.0000      -1.000351       -27.2209
 103   2.0000      -0.988638       -26.9022
 104   2.0000      -0.987008       -26.8579
 105   2.0000      -0.984701       -26.7951
 106   2.0000      -0.983077       -26.7509
 107   2.0000      -0.979187       -26.6450
 108   2.0000      -0.977473       -26.5984
 109   2.0000      -0.954966       -25.9860
 110   2.0000      -0.951897       -25.9024
 111   2.0000      -0.939763       -25.5722
 112   2.0000      -0.924364       -25.1532
 113   2.0000      -0.913377       -24.8542
 114   2.0000      -0.910226       -24.7685
 115   2.0000      -0.902624       -24.5616
 116   2.0000      -0.898707       -24.4550
 117   2.0000      -0.889525       -24.2052
 118   2.0000      -0.885019       -24.0826
 119   2.0000      -0.880772       -23.9670
 120   2.0000      -0.870444       -23.6860
 121   2.0000      -0.863606       -23.4999
 122   2.0000      -0.857416       -23.3315
 123   2.0000      -0.852942       -23.2097
 124   2.0000      -0.848346       -23.0847
 125   2.0000      -0.842172       -22.9167
 126   2.0000      -0.836500       -22.7623
 127   2.0000      -0.834407       -22.7054
 128   2.0000      -0.830582       -22.6013
 129   2.0000      -0.828920       -22.5561
 130   2.0000      -0.821785       -22.3619
 131   2.0000      -0.817385       -22.2422
 132   2.0000      -0.799212       -21.7477
 133   2.0000      -0.788982       -21.4693
 134   2.0000      -0.774375       -21.0718
 135   2.0000      -0.761549       -20.7228
 136   2.0000      -0.757095       -20.6016
 137   2.0000      -0.750566       -20.4239
 138   2.0000      -0.747212       -20.3327
 139   2.0000      -0.743779       -20.2393
 140   2.0000      -0.727749       -19.8030
 141   2.0000      -0.724456       -19.7135
 142   2.0000      -0.704177       -19.1616
 143   2.0000      -0.701183       -19.0802
 144   2.0000      -0.699369       -19.0308
 145   2.0000      -0.696684       -18.9577
 146   2.0000      -0.692473       -18.8432
 147   2.0000      -0.690397       -18.7867
 148   2.0000      -0.681851       -18.5541
 149   2.0000      -0.674187       -18.3456
 150   2.0000      -0.670707       -18.2509
 151   2.0000      -0.666124       -18.1262
 152   2.0000      -0.664224       -18.0745
 153   2.0000      -0.659908       -17.9570
 154   2.0000      -0.659437       -17.9442
 155   2.0000      -0.644951       -17.5500
 156   2.0000      -0.639681       -17.4066
 157   2.0000      -0.636734       -17.3264
 158   2.0000      -0.634526       -17.2663
 159   2.0000      -0.630932       -17.1685
 160   2.0000      -0.626508       -17.0481
 161   2.0000      -0.625933       -17.0325
 162   2.0000      -0.623577       -16.9684
 163   2.0000      -0.616866       -16.7858
 164   2.0000      -0.614009       -16.7080
 165   2.0000      -0.612010       -16.6536
 166   2.0000      -0.605922       -16.4880
 167   2.0000      -0.593310       -16.1448
 168   2.0000      -0.591399       -16.0928
 169   2.0000      -0.589545       -16.0423
 170   2.0000      -0.581359       -15.8196
 171   2.0000      -0.579965       -15.7817
 172   2.0000      -0.575988       -15.6734
 173   2.0000      -0.574748       -15.6397
 174   2.0000      -0.571646       -15.5553
 175   2.0000      -0.570708       -15.5298
 176   2.0000      -0.570191       -15.5157
 177   2.0000      -0.559677       -15.2296
 178   2.0000      -0.556622       -15.1465
 179   2.0000      -0.553624       -15.0649
 180   2.0000      -0.551049       -14.9948
 181   2.0000      -0.545542       -14.8450
 182   2.0000      -0.542098       -14.7512
 183   2.0000      -0.536832       -14.6079
 184   2.0000      -0.532250       -14.4833
 185   2.0000      -0.527615       -14.3571
 186   2.0000      -0.525810       -14.3080
 187   2.0000      -0.524153       -14.2629
 188   2.0000      -0.523064       -14.2333
 189   2.0000      -0.520448       -14.1621
 190   2.0000      -0.519056       -14.1242
 191   2.0000      -0.517738       -14.0884
 192   2.0000      -0.516091       -14.0435
 193   2.0000      -0.513886       -13.9835
 194   2.0000      -0.512440       -13.9442
 195   2.0000      -0.510454       -13.8902
 196   2.0000      -0.507874       -13.8200
 197   2.0000      -0.505407       -13.7528
 198   2.0000      -0.504787       -13.7359
 199   2.0000      -0.501675       -13.6513
 200   2.0000      -0.500321       -13.6144
 201   2.0000      -0.498438       -13.5632
 202   2.0000      -0.495408       -13.4807
 203   2.0000      -0.494166       -13.4469
 204   2.0000      -0.492939       -13.4136
 205   2.0000      -0.491342       -13.3701
 206   2.0000      -0.490370       -13.3436
 207   2.0000      -0.489881       -13.3303
 208   2.0000      -0.486615       -13.2415
 209   2.0000      -0.484091       -13.1728
 210   2.0000      -0.483014       -13.1435
 211   2.0000      -0.474705       -12.9174
 212   2.0000      -0.472399       -12.8546
 213   2.0000      -0.466735       -12.7005
 214   2.0000      -0.464331       -12.6351
 215   2.0000      -0.463436       -12.6107
 216   2.0000      -0.463194       -12.6041
 217   2.0000      -0.460381       -12.5276
 218   2.0000      -0.458677       -12.4812
 219   2.0000      -0.450022       -12.2457
 220   2.0000      -0.449141       -12.2217
 221   2.0000      -0.446457       -12.1487
 222   2.0000      -0.445756       -12.1296
 223   2.0000      -0.441837       -12.0230
 224   2.0000      -0.439470       -11.9586
 225   2.0000      -0.438292       -11.9265
 226   2.0000      -0.437491       -11.9047
 227   2.0000      -0.436230       -11.8704
 228   2.0000      -0.434911       -11.8345
 229   2.0000      -0.430038       -11.7019
 230   2.0000      -0.428513       -11.6604
 231   2.0000      -0.426587       -11.6080
 232   2.0000      -0.425397       -11.5756
 233   2.0000      -0.420927       -11.4540
 234   2.0000      -0.419983       -11.4283
 235   2.0000      -0.418985       -11.4012
 236   2.0000      -0.417072       -11.3491
 237   2.0000      -0.414591       -11.2816
 238   2.0000      -0.413633       -11.2555
 239   2.0000      -0.413145       -11.2423
 240   2.0000      -0.411710       -11.2032
 241   2.0000      -0.411378       -11.1942
 242   2.0000      -0.410047       -11.1580
 243   2.0000      -0.404539       -11.0081
 244   2.0000      -0.402067       -10.9408
 245   2.0000      -0.401490       -10.9251
 246   2.0000      -0.389853       -10.6085
 247   2.0000      -0.388950       -10.5839
 248   2.0000      -0.387818       -10.5531
 249   2.0000      -0.379052       -10.3145
 250   2.0000      -0.376366       -10.2414
 251   2.0000      -0.364677        -9.9234
 252   2.0000      -0.361363        -9.8332
 253   2.0000      -0.352958        -9.6045
 254   2.0000      -0.350385        -9.5345
 255   2.0000      -0.348614        -9.4863
 256   2.0000      -0.346636        -9.4324
 257   2.0000      -0.336986        -9.1698
 258   2.0000      -0.332341        -9.0435
 259   2.0000      -0.329071        -8.9545
 260   2.0000      -0.327209        -8.9038
 261   2.0000      -0.321615        -8.7516
 262   2.0000      -0.318872        -8.6769
 263   2.0000      -0.310323        -8.4443
 264   2.0000      -0.301455        -8.2030
 265   2.0000      -0.293334        -7.9820
 266   2.0000      -0.282622        -7.6905
 267   2.0000      -0.281367        -7.6564
 268   2.0000      -0.274681        -7.4744
 269   2.0000      -0.241829        -6.5805
 270   2.0000      -0.219690        -5.9781
 271   0.0000      -0.121320        -3.3013
 272   0.0000      -0.093406        -2.5417
 273   0.0000      -0.063299        -1.7224
 274   0.0000      -0.059506        -1.6192
 275   0.0000      -0.053197        -1.4476

MULLIKEN ATOMIC CHARGES
-----------------------
   0 C :   -0.129132
   1 C :    0.113917
   2 O :   -0.156186
   3 C :    0.016162
   4 C :   -0.005224
   5 C :    0.268077
   6 C :   -0.349589
   7 C :   -0.204421
   8 N :    0.163366
   9 C :   -0.176321
  10 N :    0.144387
  11 C :   -0.023021
  12 C :    0.009970
  13 C :    0.088022
  14 C :    0.027491
  15 C :   -0.029502
  16 C :    0.036153
  17 C :    0.032765
  18 C :   -0.013140
  19 C :    0.018538
  20 C :    0.010003
  21 C :   -0.051262
  22 C :    0.069791
  23 C :    0.040586
  24 C :   -0.051974
  25 S :    0.101357
  26 C :   -0.026458
  27 C :    0.040319
  28 C :    0.042889
  29 C :   -0.014621
  30 S :    0.124936
  31 C :   -0.050503
  32 C :    0.025807
  33 C :    0.160526
  34 F :   -0.174773
  35 C :    0.174402
  36 F :   -0.175686
  37 C :    0.030693
  38 C :   -0.039926
  39 C :   -0.030309
  40 N :   -0.057438
  41 N :   -0.075515
  42 N :   -0.056844
  43 C :    0.147364
  44 C :   -0.070521
  45 C :   -0.014956
  46 C :    0.041085
  47 C :    0.035819
  48 C :   -0.024787
  49 S :    0.137508
  50 C :   -0.060608
  51 C :    0.020509
  52 C :    0.071328
  53 C :   -0.091837
  54 S :    0.134255
  55 C :    0.039108
  56 C :    0.023597
  57 C :   -0.137609
  58 C :    0.112481
  59 O :   -0.163856
  60 C :    0.016684
  61 C :   -0.008928
  62 C :    0.259223
  63 C :   -0.367509
  64 C :   -0.194774
  65 N :    0.161671
  66 C :   -0.183763
  67 N :    0.144573
  68 C :   -0.027602
  69 C :   -0.001433
  70 C :    0.081906
  71 C :    0.033930
  72 C :   -0.030241
  73 C :    0.036986
  74 C :    0.038977
  75 C :   -0.024609
  76 H :   -0.018685
  77 H :   -0.033677
  78 H :   -0.004342
  79 H :   -0.011514
  80 H :   -0.014866
  81 H :   -0.035859
  82 H :    0.024094
  83 H :   -0.000982
  84 H :   -0.004261
  85 H :   -0.008696
  86 H :   -0.004048
  87 H :    0.000044
  88 H :    0.006355
  89 H :    0.053715
  90 H :    0.059019
  91 H :    0.053098
  92 H :    0.006850
  93 H :    0.000565
  94 H :   -0.002451
  95 H :   -0.002719
  96 H :    0.003338
  97 H :    0.003333
  98 H :    0.023760
  99 H :   -0.006104
 100 H :   -0.018876
 101 H :   -0.001819
 102 H :   -0.010503
 103 H :   -0.011253
 104 H :   -0.025796
Sum of atomic charges:   -0.0000000

LOEWDIN ATOMIC CHARGES
----------------------
   0 C :   -0.099037
   1 C :    0.089555
   2 O :   -0.146058
   3 C :   -0.040728
   4 C :   -0.000786
   5 C :    0.040642
   6 C :   -0.158468
   7 C :   -0.025843
   8 N :   -0.059406
   9 C :   -0.021055
  10 N :   -0.071147
  11 C :   -0.023035
  12 C :    0.017635
  13 C :   -0.012773
  14 C :   -0.002195
  15 C :   -0.007400
  16 C :   -0.014973
  17 C :   -0.021911
  18 C :   -0.015328
  19 C :    0.033246
  20 C :   -0.065942
  21 C :   -0.119397
  22 C :   -0.021135
  23 C :   -0.021533
  24 C :   -0.180588
  25 S :    0.458765
  26 C :   -0.155781
  27 C :   -0.030557
  28 C :   -0.012115
  29 C :   -0.138592
  30 S :    0.424439
  31 C :   -0.034627
  32 C :   -0.049378
  33 C :    0.058369
  34 F :   -0.048704
  35 C :    0.069444
  36 F :   -0.047167
  37 C :   -0.061800
  38 C :   -0.046055
  39 C :   -0.045691
  40 N :   -0.090116
  41 N :    0.154677
  42 N :   -0.089530
  43 C :    0.034287
  44 C :   -0.023605
  45 C :   -0.147492
  46 C :   -0.009260
  47 C :   -0.034495
  48 C :   -0.151893
  49 S :    0.421833
  50 C :   -0.190906
  51 C :    0.001991
  52 C :   -0.044067
  53 C :   -0.108569
  54 S :    0.437516
  55 C :   -0.081256
  56 C :    0.048469
  57 C :   -0.112801
  58 C :    0.085665
  59 O :   -0.152574
  60 C :   -0.035391
  61 C :   -0.005690
  62 C :    0.054670
  63 C :   -0.151500
  64 C :   -0.017430
  65 N :   -0.056832
  66 C :   -0.021562
  67 N :   -0.068874
  68 C :   -0.021575
  69 C :    0.012497
  70 C :   -0.011912
  71 C :   -0.003455
  72 C :   -0.003140
  73 C :   -0.016199
  74 C :   -0.017245
  75 C :   -0.014595
  76 H :    0.033521
  77 H :    0.023021
  78 H :    0.033778
  79 H :    0.030575
  80 H :    0.028102
  81 H :    0.010378
  82 H :    0.045987
  83 H :    0.040525
  84 H :    0.037747
  85 H :    0.035248
  86 H :    0.036008
  87 H :    0.037681
  88 H :    0.044336
  89 H :    0.042130
  90 H :    0.042851
  91 H :    0.042937
  92 H :    0.046531
  93 H :    0.038570
  94 H :    0.036250
  95 H :    0.037359
  96 H :    0.037985
  97 H :    0.035507
  98 H :    0.045787
  99 H :    0.037576
 100 H :    0.032957
 101 H :    0.034662
 102 H :    0.030952
 103 H :    0.030039
 104 H :    0.028470

  Mayer bond orders larger than 0.100000
B(  0-C ,  1-C ) :   0.9649 B(  0-C ,  5-C ) :   1.0999 B(  0-C , 19-C ) :   1.5331
B(  1-C ,  2-O ) :   2.1824 B(  1-C ,  3-C ) :   0.9380 B(  3-C ,  4-C ) :   1.4210
B(  3-C , 14-C ) :   1.2398 B(  4-C ,  5-C ) :   0.9942 B(  4-C , 11-C ) :   1.2678
B(  5-C ,  6-C ) :   1.5749 B(  6-C ,  7-C ) :   1.1663 B(  6-C ,  9-C ) :   1.1457
B(  7-C ,  8-N ) :   3.0072 B(  9-C , 10-N ) :   2.9770 B( 11-C , 12-C ) :   1.4581
B( 11-C , 76-H ) :   0.9853 B( 12-C , 13-C ) :   1.2289 B( 12-C , 77-H ) :   0.9896
B( 13-C , 14-C ) :   1.2320 B( 13-C , 18-C ) :   1.2437 B( 14-C , 15-C ) :   1.2735
B( 15-C , 16-C ) :   1.4779 B( 15-C , 78-H ) :   0.9870 B( 16-C , 17-C ) :   1.2490
B( 16-C , 79-H ) :   0.9875 B( 17-C , 18-C ) :   1.4934 B( 17-C , 80-H ) :   0.9882
B( 18-C , 81-H ) :   0.9882 B( 19-C , 20-C ) :   1.2819 B( 19-C , 82-H ) :   0.9243
B( 20-C , 21-C ) :   1.4836 B( 20-C , 83-H ) :   0.9544 B( 21-C , 22-C ) :   1.1554
B( 21-C , 25-S ) :   1.1027 B( 22-C , 23-C ) :   1.5801 B( 22-C , 84-H ) :   0.9957
B( 23-C , 24-C ) :   1.1994 B( 23-C , 85-H ) :   0.9919 B( 24-C , 25-S ) :   1.0452
B( 24-C , 26-C ) :   1.4715 B( 26-C , 27-C ) :   1.1868 B( 26-C , 30-S ) :   1.0743
B( 27-C , 28-C ) :   1.5879 B( 27-C , 86-H ) :   0.9958 B( 28-C , 29-C ) :   1.1455
B( 28-C , 87-H ) :   0.9981 B( 29-C , 30-S ) :   1.0671 B( 29-C , 31-C ) :   1.5387
B( 31-C , 32-C ) :   1.1915 B( 31-C , 88-H ) :   0.9594 B( 32-C , 33-C ) :   1.2973
B( 32-C , 37-C ) :   0.1167 B( 32-C , 39-C ) :   1.1523 B( 33-C , 34-F ) :   1.1314
B( 33-C , 35-C ) :   1.2481 B( 35-C , 36-F ) :   1.1113 B( 35-C , 37-C ) :   1.2826
B( 37-C , 38-C ) :   1.1417 B( 37-C , 44-C ) :   1.2126 B( 38-C , 39-C ) :   1.2248
B( 38-C , 42-N ) :   1.5076 B( 39-C , 40-N ) :   1.5108 B( 40-N , 41-N ) :   1.2151
B( 40-N , 42-N ) :   0.1578 B( 41-N , 42-N ) :   1.2302 B( 41-N , 43-C ) :   0.9524
B( 43-C , 89-H ) :   0.9695 B( 43-C , 90-H ) :   0.9697 B( 43-C , 91-H ) :   0.9669
B( 44-C , 45-C ) :   1.5178 B( 44-C , 92-H ) :   0.9564 B( 45-C , 46-C ) :   1.1545
B( 45-C , 49-S ) :   1.0452 B( 46-C , 47-C ) :   1.5674 B( 46-C , 93-H ) :   1.0004
B( 47-C , 48-C ) :   1.1990 B( 47-C , 94-H ) :   0.9945 B( 48-C , 49-S ) :   1.0686
B( 48-C , 50-C ) :   1.4420 B( 50-C , 51-C ) :   1.2247 B( 50-C , 54-S ) :   1.0560
B( 51-C , 52-C ) :   1.5451 B( 51-C , 95-H ) :   0.9949 B( 52-C , 53-C ) :   1.2039
B( 52-C , 96-H ) :   0.9800 B( 53-C , 54-S ) :   1.0922 B( 53-C , 55-C ) :   1.4481
B( 55-C , 56-C ) :   1.3141 B( 55-C , 97-H ) :   0.9379 B( 56-C , 57-C ) :   1.5208
B( 56-C , 98-H ) :   0.9266 B( 57-C , 58-C ) :   0.9791 B( 57-C , 62-C ) :   1.0880
B( 58-C , 59-O ) :   2.1730 B( 58-C , 60-C ) :   0.9337 B( 60-C , 61-C ) :   1.4274
B( 60-C , 71-C ) :   1.2368 B( 61-C , 62-C ) :   0.9899 B( 61-C , 68-C ) :   1.2644
B( 62-C , 63-C ) :   1.5947 B( 63-C , 64-C ) :   1.1670 B( 63-C , 66-C ) :   1.1409
B( 64-C , 65-N ) :   3.0017 B( 66-C , 67-N ) :   2.9814 B( 68-C , 69-C ) :   1.4608
B( 68-C , 99-H ) :   0.9859 B( 69-C , 70-C ) :   1.2285 B( 69-C ,100-H ) :   0.9941
B( 70-C , 71-C ) :   1.2383 B( 70-C , 75-C ) :   1.2350 B( 71-C , 72-C ) :   1.2703
B( 72-C , 73-C ) :   1.4781 B( 72-C ,101-H ) :   0.9872 B( 73-C , 74-C ) :   1.2498
B( 73-C ,102-H ) :   0.9877 B( 74-C , 75-C ) :   1.5001 B( 74-C ,103-H ) :   0.9884
B( 75-C ,104-H ) :   0.9976

-----------------------------------------------------------------------------
         ABSORPTION SPECTRUM VIA TRANSITION ELECTRIC DIPOLE MOMENTS
-----------------------------------------------------------------------------
State   Energy  Wavelength   fosc         T2         TX        TY        TZ
        (cm-1)    (nm)                  (au**2)     (au)      (au)      (au)
-----------------------------------------------------------------------------
   0    8269.2   1209.3   0.717043393  28.54678   0.26330   2.80531  -4.53957
   1   13465.4    742.6   0.865708191  21.16551   1.14798   1.90488   4.02729
   2   14179.0    705.3   0.262246352   6.08890   0.77600   0.70506   2.23374
   3   18745.1    533.5   0.076013506   1.33499   1.05656  -0.27733   0.37652
   4   19059.5    524.7   0.068397243   1.18141  -0.20625   0.72681  -0.78143
   5   19831.6    504.2   0.148588395   2.46662   0.47437   0.90207   1.19493
   6   20598.2    485.5   0.218022344   3.48455  -1.33426   0.55895  -1.17978
   7   20692.6    483.3   0.100233308   1.59468   0.59895  -0.05082   1.11057
   8   22319.6    448.0   0.109928919   1.62144   0.88051  -0.31286   0.86502
   9   22530.9    443.8   0.080815630   1.18084  -0.10282   0.92671   0.55811
  10   23721.5    421.6   0.056516799   0.78435   0.66590  -0.53277   0.23893
  11   24754.5    404.0   0.052345665   0.69615  -0.46165   0.36808  -0.58952
  12   25036.1    399.4   0.062330698   0.81962  -0.04060   0.88948  -0.16367
  13   25397.8    393.7   0.038284436   0.49625   0.46133   0.48722  -0.21456
  14   26822.9    372.8   0.349474470   4.28928  -0.58666   1.92664  -0.48287
  15   27306.2    366.2   0.101886341   1.22837  -0.05439   1.05292  -0.34173
  16   27671.8    361.4   0.016348284   0.19450   0.08432   0.33717  -0.27148
  17   28073.3    356.2   0.024643749   0.28899   0.07428  -0.52676  -0.07747
  18   28199.4    354.6   0.171571507   2.00300  -0.15209   1.40658  -0.03734
  19   28470.1    351.2   0.009020556   0.10431  -0.21143   0.22791  -0.08753
  20   28626.5    349.3   0.020466468   0.23537   0.17314   0.41245  -0.18783
  21   29159.0    342.9   0.002453112   0.02770   0.01621  -0.06775   0.15114
  22   29250.8    341.9   0.023058380   0.25952   0.22226  -0.34138   0.30591
  23   29404.4    340.1   0.107757125   1.20645   0.02455  -1.03946  -0.35408
  24   29750.9    336.1   0.033935496   0.37552  -0.16590  -0.58885   0.03542
  25   29848.3    335.0   0.110890607   1.22307  -0.14727  -0.48304  -0.98390
  26   30049.3    332.8   0.026293384   0.28806   0.23967   0.44365   0.18383
  27   30141.2    331.8   0.049443170   0.54003  -0.32870  -0.64173   0.14206
  28   30690.7    325.8   0.152806989   1.63913  -0.04941   0.47802  -1.18667
  29   30942.3    323.2   0.150003991   1.59597  -0.41755  -0.41246  -1.11870
  30   31286.1    319.6   0.046224283   0.48640   0.17089  -0.64671  -0.19740
  31   31712.7    315.3   0.065525857   0.68023   0.22001   0.60521   0.51531
  32   32000.9    312.5   0.095546526   0.98294   0.13775  -0.45862   0.86812
  33   32278.1    309.8   0.021985584   0.22424  -0.05754   0.36250  -0.29919
  34   32577.3    307.0   0.420580140   4.25019   0.56848   0.47469   1.92398
  35   32834.9    304.6   0.194980693   1.95493  -0.12986   0.87575   1.08219
  36   33125.4    301.9   0.245632247   2.44118   0.54517  -0.30694   1.43170
  37   33453.7    298.9   0.063807552   0.62792   0.59947   0.45615   0.24593
  38   33625.4    297.4   0.108127813   1.05863  -0.04823  -0.02986  -1.02733
  39   33888.9    295.1   0.044307889   0.43043   0.02734  -0.01501   0.65533
  40   34325.5    291.3   0.083142392   0.79741   0.72449   0.51060   0.10869
  41   34430.2    290.4   0.027536903   0.26330  -0.27318  -0.19784  -0.38669
  42   34623.9    288.8   0.027752989   0.26388   0.05405  -0.40008   0.31764
  43   35124.8    284.7   0.060500007   0.56704   0.08763   0.62430  -0.41184
  44   35753.3    279.7   0.035861052   0.33020  -0.01810  -0.56073  -0.12435
  45   35845.5    279.0   0.005969232   0.05482  -0.04757  -0.22214   0.05667
  46   36093.1    277.1   0.064386454   0.58728   0.09449  -0.07411   0.75688
  47   36361.3    275.0   0.006263436   0.05671   0.03121  -0.15808   0.17534
  48   36421.0    274.6   0.018276028   0.16520  -0.19063   0.29726   0.20123
  49   36484.0    274.1   0.070781573   0.63870   0.25853   0.03505   0.75540
  50   36638.7    272.9   0.039879756   0.35833   0.21676   0.04710   0.55599
  51   36859.5    271.3   0.057118696   0.51016   0.04207   0.70731  -0.08996
  52   37063.3    269.8   0.041577759   0.36931   0.10773   0.46196  -0.37986
  53   37297.9    268.1   0.244170388   2.15518   0.41459  -1.31220   0.51131
  54   37511.2    266.6   0.107507745   0.94353  -0.54214  -0.45221  -0.66717
  55   37621.2    265.8   0.083038019   0.72664  -0.50507  -0.21147  -0.65332
  56   37999.6    263.2   0.010893636   0.09438   0.27308   0.03614   0.13600
  57   38195.3    261.8   0.153751563   1.32521   0.26088  -0.50552   1.00080
  58   38354.5    260.7   0.039457199   0.33868  -0.19338  -0.31110  -0.45221
  59   38489.1    259.8   0.039435319   0.33731   0.03045   0.38731  -0.43170
  60   39068.0    256.0   0.003839353   0.03235  -0.01790  -0.17895   0.00309
  61   39209.0    255.0   0.022732297   0.19087   0.10881  -0.42288  -0.01405
  62   39706.2    251.8   0.005014112   0.04157   0.19275  -0.01235  -0.06534
  63   39785.5    251.3   0.017337743   0.14346  -0.13087   0.13164  -0.33016
  64   40012.2    249.9   0.018564716   0.15275  -0.33675   0.19572   0.03223
  65   40178.4    248.9   0.004539196   0.03719   0.05305  -0.14951  -0.10966

FINAL SINGLE POINT ENERGY     -4663.576795175027

DIPOLE MOMENT
-------------
                                X             Y             Z
Electronic contribution:     16.13505      -8.80254      28.19513
Nuclear contribution   :    -16.14221      10.81017     -25.01603
                        -----------------------------------------
Total Dipole Moment    :     -0.00716       2.00763       3.17910
                        -----------------------------------------
Magnitude (a.u.)       :      3.75996
Magnitude (Debye)      :      9.55707

Rotational constants in cm-1:     0.001411     0.000369     0.000307
Rotational constants in MHz :    42.305166    11.053138     9.206307

                             ****ORCA TERMINATED NORMALLY****
TOTAL RUN TIME: 0 days 0 hours 13 minutes 34 seconds 719 msec
