                         Program Version 4.2.0 -  RELEASE  -
|  1> # ORCA input file
|  2> # SCF done       -183.265206767371          0.000846688211
|  3> ! CAM-B3LYP def2-SVP def2/J RIJCOSX Grid4 TightSCF
|  4> %maxcore 5000
|  5> %tddft
|  6>     Mode sTDDFT
|  7>     Ethresh 5.0
|  8>     maxcore 5000
|  9> end
| 10>
| 11> %pal
| 12>   nprocs 6
| 13>   end
| 14> * xyz 0 1
| 15>    C        3.52590         0.28649         3.58273
| 16>    C        3.90175        -0.90953         4.39136
| 17>    O        4.25445        -1.98175         3.95288
| 18>    C        3.78878        -0.47423         5.79484
| 19>    C        3.26470         0.81917         5.84274
| 20>    C        2.93874         1.25738         4.49120
| 21>    C        2.05379         2.24425         4.15551
| 22>    C        1.54142         2.42036         2.85219
| 23>    N        1.02031         2.54770         1.83778
| 24>    C        1.45783         3.12353         5.08336
| 25>    N        0.95869         3.87410         5.79372
| 26>    C        3.09074         1.47399         7.06973
| 27>    C        3.43192         0.81525         8.22140
| 28>    C        3.94221        -0.50193         8.20985
| 29>    C        4.13394        -1.17427         6.96775
| 30>    C        4.64411        -2.48839         6.96133
| 31>    C        4.94706        -3.11345         8.13952
| 32>    C        4.75882        -2.45641         9.36600
| 33>    C        4.26946        -1.17944         9.40171
| 34>    C        3.84269         0.36519         2.27360
| 35>    C        3.86639         1.55441         1.44641
| 36>    C        3.47602         1.47980         0.09712
| 37>    O        3.01190         0.28528        -0.41287
| 38>    C        1.78659        -0.18060         0.12205
| 39>    C        3.57676         2.61254        -0.72092
| 40>    O        3.32412         2.66926        -2.04897
| 41>    C        2.46480         1.73777        -2.67010
| 42>    C        4.07308         3.80921        -0.16875
| 43>    C        4.48406         3.85780         1.15348
| 44>    C        4.37408         2.74643         1.96018
| 45>    C        4.11558         5.01510        -1.00974
| 46>    C        5.27691         5.71773        -1.22549
| 47>    C        5.30153         6.86018        -2.03501
| 48>    C        4.16268         7.33030        -2.64622
| 49>    C        2.94600         6.62338        -2.45603
| 50>    N        1.83481         7.01552        -3.11085
| 51>    C        0.73132         6.36383        -2.87286
| 52>    C        0.68074         5.29916        -1.94915
| 53>    N        1.75056         4.85845        -1.34955
| 54>    C        2.91708         5.48220        -1.60919
| 55>    C        4.16844         8.51257        -3.51987
| 56>    C        3.28004         9.56866        -3.28857
| 57>    O        2.48970         9.57902        -2.15395
| 58>    C        3.20464         9.74838        -0.94593
| 59>    C        3.20415        10.62522        -4.20724
| 60>    O        2.37061        11.68554        -4.15502
| 61>    C        1.31090        11.75481        -3.22340
| 62>    C        4.10384        10.65390        -5.29704
| 63>    C        5.01680         9.61366        -5.47369
| 64>    C        5.03346         8.54562        -4.61020
| 65>    C        4.01671        11.74256        -6.23618
| 66>    C        5.02222        12.31180        -6.93690
| 67>    C        4.72999        13.13574        -8.14449
| 68>    O        3.64956        13.58169        -8.46093
| 69>    C        6.01341        13.22940        -8.86530
| 70>    C        7.02380        12.65277        -8.09461
| 71>    C        6.46537        12.20929        -6.82142
| 72>    C        7.17328        11.97771        -5.67322
| 73>    C        6.58955        11.78857        -4.40203
| 74>    N        6.20054        11.68657        -3.32674
| 75>    C        8.58156        11.98699        -5.59803
| 76>    N        9.72341        11.96302        -5.48299
| 77>    C        8.33782        12.58534        -8.57778
| 78>    C        8.61079        13.09869        -9.81842
| 79>    C        7.61353        13.69886       -10.61860
| 80>    C        6.27354        13.77180       -10.13882
| 81>    C        5.27999        14.36842       -10.94171
| 82>    C        5.60192        14.87358       -12.17101
| 83>    C        6.92045        14.80418       -12.64887
| 84>    C        7.90437        14.23044       -11.89136
| 85>    H        2.70584         2.48017         7.10752
| 86>    H        3.30804         1.30661         9.17566
| 87>    H        4.78506        -2.98320         6.01342
| 88>    H        5.33448        -4.12127         8.13424
| 89>    H        5.00458        -2.96907        10.28420
| 90>    H        4.12366        -0.67171        10.34420
| 91>    H        4.20375        -0.54876         1.81054
| 92>    H        1.89015        -0.49362         1.16565
| 93>    H        1.50414        -1.03793        -0.48669
| 94>    H        1.01316         0.59092         0.06462
| 95>    H        1.49629         1.69818        -2.16621
| 96>    H        2.90411         0.73908        -2.70626
| 97>    H        2.32652         2.11455        -3.68380
| 98>    H        4.86929         4.78400         1.55260
| 99>    H        4.71799         2.77837         2.98360
|100>    H        6.19575         5.37340        -0.77351
|101>    H        6.23168         7.39315        -2.17099
|102>    H       -0.14714         6.67989        -3.41997
|103>    H       -0.24972         4.80098        -1.71064
|104>    H        2.45089         9.85517        -0.16710
|105>    H        3.83036        10.64667        -0.98252
|106>    H        3.83789         8.88514        -0.72019
|107>    H        1.67507        11.97949        -2.21869
|108>    H        0.73281        10.83015        -3.20137
|109>    H        0.68516        12.57762        -3.57079
|110>    H        5.67437         9.62965        -6.33027
|111>    H        5.70215         7.71496        -4.77618
|112>    H        3.01944        12.11278        -6.44820
|113>    H        9.11780        12.12619        -7.99226
|114>    H        9.61701        13.04804       -10.20897
|115>    H        4.27085        14.41489       -10.56397
|116>    H        4.84079        15.33073       -12.78556
|117>    H        7.15200        15.20839       -13.62329
|118>    H        8.91966        14.17625       -12.25706
|119> *
|120>
|121>                          ****END OF INPUT****

CARTESIAN COORDINATES (ANGSTROEM)
---------------------------------
  C      3.525900    0.286490    3.582730
  C      3.901750   -0.909530    4.391360
  O      4.254450   -1.981750    3.952880
  C      3.788780   -0.474230    5.794840
  C      3.264700    0.819170    5.842740
  C      2.938740    1.257380    4.491200
  C      2.053790    2.244250    4.155510
  C      1.541420    2.420360    2.852190
  N      1.020310    2.547700    1.837780
  C      1.457830    3.123530    5.083360
  N      0.958690    3.874100    5.793720
  C      3.090740    1.473990    7.069730
  C      3.431920    0.815250    8.221400
  C      3.942210   -0.501930    8.209850
  C      4.133940   -1.174270    6.967750
  C      4.644110   -2.488390    6.961330
  C      4.947060   -3.113450    8.139520
  C      4.758820   -2.456410    9.366000
  C      4.269460   -1.179440    9.401710
  C      3.842690    0.365190    2.273600
  C      3.866390    1.554410    1.446410
  C      3.476020    1.479800    0.097120
  O      3.011900    0.285280   -0.412870
  C      1.786590   -0.180600    0.122050
  C      3.576760    2.612540   -0.720920
  O      3.324120    2.669260   -2.048970
  C      2.464800    1.737770   -2.670100
  C      4.073080    3.809210   -0.168750
  C      4.484060    3.857800    1.153480
  C      4.374080    2.746430    1.960180
  C      4.115580    5.015100   -1.009740
  C      5.276910    5.717730   -1.225490
  C      5.301530    6.860180   -2.035010
  C      4.162680    7.330300   -2.646220
  C      2.946000    6.623380   -2.456030
  N      1.834810    7.015520   -3.110850
  C      0.731320    6.363830   -2.872860
  C      0.680740    5.299160   -1.949150
  N      1.750560    4.858450   -1.349550
  C      2.917080    5.482200   -1.609190
  C      4.168440    8.512570   -3.519870
  C      3.280040    9.568660   -3.288570
  O      2.489700    9.579020   -2.153950
  C      3.204640    9.748380   -0.945930
  C      3.204150   10.625220   -4.207240
  O      2.370610   11.685540   -4.155020
  C      1.310900   11.754810   -3.223400
  C      4.103840   10.653900   -5.297040
  C      5.016800    9.613660   -5.473690
  C      5.033460    8.545620   -4.610200
  C      4.016710   11.742560   -6.236180
  C      5.022220   12.311800   -6.936900
  C      4.729990   13.135740   -8.144490
  O      3.649560   13.581690   -8.460930
  C      6.013410   13.229400   -8.865300
  C      7.023800   12.652770   -8.094610
  C      6.465370   12.209290   -6.821420
  C      7.173280   11.977710   -5.673220
  C      6.589550   11.788570   -4.402030
  N      6.200540   11.686570   -3.326740
  C      8.581560   11.986990   -5.598030
  N      9.723410   11.963020   -5.482990
  C      8.337820   12.585340   -8.577780
  C      8.610790   13.098690   -9.818420
  C      7.613530   13.698860  -10.618600
  C      6.273540   13.771800  -10.138820
  C      5.279990   14.368420  -10.941710
  C      5.601920   14.873580  -12.171010
  C      6.920450   14.804180  -12.648870
  C      7.904370   14.230440  -11.891360
  H      2.705840    2.480170    7.107520
  H      3.308040    1.306610    9.175660
  H      4.785060   -2.983200    6.013420
  H      5.334480   -4.121270    8.134240
  H      5.004580   -2.969070   10.284200
  H      4.123660   -0.671710   10.344200
  H      4.203750   -0.548760    1.810540
  H      1.890150   -0.493620    1.165650
  H      1.504140   -1.037930   -0.486690
  H      1.013160    0.590920    0.064620
  H      1.496290    1.698180   -2.166210
  H      2.904110    0.739080   -2.706260
  H      2.326520    2.114550   -3.683800
  H      4.869290    4.784000    1.552600
  H      4.717990    2.778370    2.983600
  H      6.195750    5.373400   -0.773510
  H      6.231680    7.393150   -2.170990
  H     -0.147140    6.679890   -3.419970
  H     -0.249720    4.800980   -1.710640
  H      2.450890    9.855170   -0.167100
  H      3.830360   10.646670   -0.982520
  H      3.837890    8.885140   -0.720190
  H      1.675070   11.979490   -2.218690
  H      0.732810   10.830150   -3.201370
  H      0.685160   12.577620   -3.570790
  H      5.674370    9.629650   -6.330270
  H      5.702150    7.714960   -4.776180
  H      3.019440   12.112780   -6.448200
  H      9.117800   12.126190   -7.992260
  H      9.617010   13.048040  -10.208970
  H      4.270850   14.414890  -10.563970
  H      4.840790   15.330730  -12.785560
  H      7.152000   15.208390  -13.623290
  H      8.919660   14.176250  -12.257060

 Total Charge           Charge          ....    0
 Multiplicity           Mult            ....    1
 Number of Electrons    NEL             ....  472
 Basis Dimension        Dim             .... 1150

ORBITAL ENERGIES
----------------

  NO   OCC          E(Eh)            E(eV)
   0   2.0000     -19.243954      -523.6546
   1   2.0000     -19.236354      -523.4478
   2   2.0000     -19.235800      -523.4327
   3   2.0000     -19.225675      -523.1572
   4   2.0000     -19.218619      -522.9652
   5   2.0000     -19.209070      -522.7054
   6   2.0000     -14.416366      -392.2893
   7   2.0000     -14.413514      -392.2117
   8   2.0000     -14.412114      -392.1735
   9   2.0000     -14.411729      -392.1631
  10   2.0000     -14.408733      -392.0816
  11   2.0000     -14.405782      -392.0013
  12   2.0000     -10.369004      -282.1549
  13   2.0000     -10.359583      -281.8986
  14   2.0000     -10.345395      -281.5125
  15   2.0000     -10.341783      -281.4142
  16   2.0000     -10.336287      -281.2647
  17   2.0000     -10.334697      -281.2214
  18   2.0000     -10.333629      -281.1923
  19   2.0000     -10.331496      -281.1343
  20   2.0000     -10.329223      -281.0725
  21   2.0000     -10.321643      -280.8662
  22   2.0000     -10.318839      -280.7899
  23   2.0000     -10.316000      -280.7126
  24   2.0000     -10.312451      -280.6161
  25   2.0000     -10.312398      -280.6146
  26   2.0000     -10.311728      -280.5964
  27   2.0000     -10.310797      -280.5711
  28   2.0000     -10.309155      -280.5264
  29   2.0000     -10.308426      -280.5065
  30   2.0000     -10.307167      -280.4723
  31   2.0000     -10.307124      -280.4711
  32   2.0000     -10.306775      -280.4616
  33   2.0000     -10.306076      -280.4426
  34   2.0000     -10.305896      -280.4377
  35   2.0000     -10.305389      -280.4239
  36   2.0000     -10.302808      -280.3537
  37   2.0000     -10.300467      -280.2900
  38   2.0000     -10.297861      -280.2190
  39   2.0000     -10.297121      -280.1989
  40   2.0000     -10.296854      -280.1916
  41   2.0000     -10.296477      -280.1814
  42   2.0000     -10.295840      -280.1640
  43   2.0000     -10.292630      -280.0767
  44   2.0000     -10.291007      -280.0325
  45   2.0000     -10.290194      -280.0104
  46   2.0000     -10.289883      -280.0020
  47   2.0000     -10.288866      -279.9743
  48   2.0000     -10.286000      -279.8963
  49   2.0000     -10.285386      -279.8796
  50   2.0000     -10.284999      -279.8690
  51   2.0000     -10.284485      -279.8551
  52   2.0000     -10.283924      -279.8398
  53   2.0000     -10.282422      -279.7989
  54   2.0000     -10.281995      -279.7873
  55   2.0000     -10.281732      -279.7802
  56   2.0000     -10.279907      -279.7305
  57   2.0000     -10.279217      -279.7117
  58   2.0000     -10.278694      -279.6975
  59   2.0000     -10.278545      -279.6934
  60   2.0000     -10.278445      -279.6907
  61   2.0000     -10.277160      -279.6557
  62   2.0000     -10.276532      -279.6387
  63   2.0000     -10.276483      -279.6373
  64   2.0000     -10.275912      -279.6218
  65   2.0000     -10.272390      -279.5260
  66   2.0000     -10.272262      -279.5225
  67   2.0000     -10.271229      -279.4943
  68   2.0000     -10.270660      -279.4789
  69   2.0000     -10.263609      -279.2870
  70   2.0000      -1.152089       -31.3499
  71   2.0000      -1.149825       -31.2883
  72   2.0000      -1.133319       -30.8392
  73   2.0000      -1.129081       -30.7239
  74   2.0000      -1.124498       -30.5991
  75   2.0000      -1.123879       -30.5823
  76   2.0000      -1.069012       -29.0893
  77   2.0000      -1.019401       -27.7393
  78   2.0000      -1.011230       -27.5170
  79   2.0000      -0.999696       -27.2031
  80   2.0000      -0.993582       -27.0367
  81   2.0000      -0.992529       -27.0081
  82   2.0000      -0.992104       -26.9965
  83   2.0000      -0.985575       -26.8189
  84   2.0000      -0.970557       -26.4102
  85   2.0000      -0.963715       -26.2240
  86   2.0000      -0.961121       -26.1534
  87   2.0000      -0.952655       -25.9231
  88   2.0000      -0.940291       -25.5866
  89   2.0000      -0.923028       -25.1169
  90   2.0000      -0.915925       -24.9236
  91   2.0000      -0.905374       -24.6365
  92   2.0000      -0.898173       -24.4405
  93   2.0000      -0.893641       -24.3172
  94   2.0000      -0.884716       -24.0743
  95   2.0000      -0.867978       -23.6189
  96   2.0000      -0.858970       -23.3738
  97   2.0000      -0.851089       -23.1593
  98   2.0000      -0.847938       -23.0736
  99   2.0000      -0.844181       -22.9713
 100   2.0000      -0.841697       -22.9037
 101   2.0000      -0.838725       -22.8229
 102   2.0000      -0.835305       -22.7298
 103   2.0000      -0.823735       -22.4150
 104   2.0000      -0.810936       -22.0667
 105   2.0000      -0.791118       -21.5274
 106   2.0000      -0.783782       -21.3278
 107   2.0000      -0.776123       -21.1194
 108   2.0000      -0.771592       -20.9961
 109   2.0000      -0.763976       -20.7888
 110   2.0000      -0.756920       -20.5968
 111   2.0000      -0.754600       -20.5337
 112   2.0000      -0.751038       -20.4368
 113   2.0000      -0.745687       -20.2912
 114   2.0000      -0.732868       -19.9424
 115   2.0000      -0.722022       -19.6472
 116   2.0000      -0.714805       -19.4508
 117   2.0000      -0.709535       -19.3074
 118   2.0000      -0.707631       -19.2556
 119   2.0000      -0.703151       -19.1337
 120   2.0000      -0.696605       -18.9556
 121   2.0000      -0.683329       -18.5943
 122   2.0000      -0.678664       -18.4674
 123   2.0000      -0.674495       -18.3540
 124   2.0000      -0.670219       -18.2376
 125   2.0000      -0.666759       -18.1434
 126   2.0000      -0.660763       -17.9803
 127   2.0000      -0.652016       -17.7423
 128   2.0000      -0.630841       -17.1661
 129   2.0000      -0.624066       -16.9817
 130   2.0000      -0.623023       -16.9533
 131   2.0000      -0.621325       -16.9071
 132   2.0000      -0.618892       -16.8409
 133   2.0000      -0.614431       -16.7195
 134   2.0000      -0.609115       -16.5749
 135   2.0000      -0.602421       -16.3927
 136   2.0000      -0.596223       -16.2241
 137   2.0000      -0.594028       -16.1643
 138   2.0000      -0.590138       -16.0585
 139   2.0000      -0.589013       -16.0279
 140   2.0000      -0.583406       -15.8753
 141   2.0000      -0.582852       -15.8602
 142   2.0000      -0.580591       -15.7987
 143   2.0000      -0.578183       -15.7332
 144   2.0000      -0.572679       -15.5834
 145   2.0000      -0.562272       -15.3002
 146   2.0000      -0.560532       -15.2529
 147   2.0000      -0.556017       -15.1300
 148   2.0000      -0.554053       -15.0766
 149   2.0000      -0.551729       -15.0133
 150   2.0000      -0.549167       -14.9436
 151   2.0000      -0.547597       -14.9009
 152   2.0000      -0.542637       -14.7659
 153   2.0000      -0.536682       -14.6039
 154   2.0000      -0.534336       -14.5400
 155   2.0000      -0.529410       -14.4060
 156   2.0000      -0.529178       -14.3997
 157   2.0000      -0.527704       -14.3595
 158   2.0000      -0.526361       -14.3230
 159   2.0000      -0.522897       -14.2287
 160   2.0000      -0.521866       -14.2007
 161   2.0000      -0.519605       -14.1392
 162   2.0000      -0.518403       -14.1065
 163   2.0000      -0.516135       -14.0448
 164   2.0000      -0.513622       -13.9764
 165   2.0000      -0.511917       -13.9300
 166   2.0000      -0.509660       -13.8686
 167   2.0000      -0.507119       -13.7994
 168   2.0000      -0.504916       -13.7395
 169   2.0000      -0.503011       -13.6876
 170   2.0000      -0.501061       -13.6346
 171   2.0000      -0.500343       -13.6150
 172   2.0000      -0.498172       -13.5560
 173   2.0000      -0.497161       -13.5284
 174   2.0000      -0.496685       -13.5155
 175   2.0000      -0.491675       -13.3792
 176   2.0000      -0.484440       -13.1823
 177   2.0000      -0.480358       -13.0712
 178   2.0000      -0.479965       -13.0605
 179   2.0000      -0.473982       -12.8977
 180   2.0000      -0.472758       -12.8644
 181   2.0000      -0.472123       -12.8471
 182   2.0000      -0.466615       -12.6972
 183   2.0000      -0.462141       -12.5755
 184   2.0000      -0.461522       -12.5587
 185   2.0000      -0.457051       -12.4370
 186   2.0000      -0.450798       -12.2668
 187   2.0000      -0.449315       -12.2265
 188   2.0000      -0.445096       -12.1117
 189   2.0000      -0.444171       -12.0865
 190   2.0000      -0.443047       -12.0559
 191   2.0000      -0.440448       -11.9852
 192   2.0000      -0.439108       -11.9487
 193   2.0000      -0.436761       -11.8849
 194   2.0000      -0.434733       -11.8297
 195   2.0000      -0.434008       -11.8100
 196   2.0000      -0.432391       -11.7660
 197   2.0000      -0.431339       -11.7373
 198   2.0000      -0.428816       -11.6687
 199   2.0000      -0.427681       -11.6378
 200   2.0000      -0.427187       -11.6243
 201   2.0000      -0.424974       -11.5641
 202   2.0000      -0.424537       -11.5522
 203   2.0000      -0.420560       -11.4440
 204   2.0000      -0.418749       -11.3948
 205   2.0000      -0.416648       -11.3376
 206   2.0000      -0.415173       -11.2974
 207   2.0000      -0.411157       -11.1881
 208   2.0000      -0.409093       -11.1320
 209   2.0000      -0.406140       -11.0516
 210   2.0000      -0.405242       -11.0272
 211   2.0000      -0.400286       -10.8923
 212   2.0000      -0.396288       -10.7835
 213   2.0000      -0.391764       -10.6604
 214   2.0000      -0.385320       -10.4851
 215   2.0000      -0.383518       -10.4361
 216   2.0000      -0.374858       -10.2004
 217   2.0000      -0.372354       -10.1323
 218   2.0000      -0.367242        -9.9932
 219   2.0000      -0.359353        -9.7785
 220   2.0000      -0.351629        -9.5683
 221   2.0000      -0.344100        -9.3634
 222   2.0000      -0.341911        -9.3039
 223   2.0000      -0.332588        -9.0502
 224   2.0000      -0.326540        -8.8856
 225   2.0000      -0.319259        -8.6875
 226   2.0000      -0.318655        -8.6710
 227   2.0000      -0.313380        -8.5275
 228   2.0000      -0.309395        -8.4191
 229   2.0000      -0.306989        -8.3536
 230   2.0000      -0.296284        -8.0623
 231   2.0000      -0.291581        -7.9343
 232   2.0000      -0.288457        -7.8493
 233   2.0000      -0.284818        -7.7503
 234   2.0000      -0.277259        -7.5446
 235   2.0000      -0.267843        -7.2884
 236   0.0000      -0.082199        -2.2367
 237   0.0000      -0.074865        -2.0372
 238   0.0000      -0.064042        -1.7427
 239   0.0000      -0.056391        -1.5345
 240   0.0000      -0.033956        -0.9240

MULLIKEN ATOMIC CHARGES
-----------------------
   0 C :   -0.081972
   1 C :    0.118614
   2 O :   -0.143596
   3 C :    0.006827
   4 C :   -0.008266
   5 C :    0.258933
   6 C :   -0.328542
   7 C :   -0.174715
   8 N :    0.170881
   9 C :   -0.187147
  10 N :    0.157751
  11 C :   -0.017475
  12 C :    0.003336
  13 C :    0.080169
  14 C :    0.034049
  15 C :   -0.029441
  16 C :    0.041587
  17 C :    0.038869
  18 C :   -0.021310
  19 C :   -0.034141
  20 C :   -0.009497
  21 C :    0.091422
  22 O :   -0.345440
  23 C :    0.182992
  24 C :    0.196371
  25 O :   -0.308898
  26 C :    0.195111
  27 C :    0.000799
  28 C :   -0.013830
  29 C :    0.000461
  30 C :    0.080717
  31 C :   -0.035626
  32 C :   -0.024572
  33 C :   -0.001662
  34 C :   -0.028685
  35 N :    0.015997
  36 C :    0.022155
  37 C :    0.021064
  38 N :    0.005447
  39 C :   -0.033796
  40 C :    0.046943
  41 C :    0.099787
  42 O :   -0.359028
  43 C :    0.195898
  44 C :    0.194159
  45 O :   -0.304327
  46 C :    0.202417
  47 C :   -0.066140
  48 C :    0.016749
  49 C :   -0.031799
  50 C :    0.061126
  51 C :   -0.104797
  52 C :    0.115171
  53 O :   -0.148439
  54 C :    0.010970
  55 C :   -0.012934
  56 C :    0.261806
  57 C :   -0.336364
  58 C :   -0.182330
  59 N :    0.169087
  60 C :   -0.191823
  61 N :    0.154496
  62 C :   -0.018111
  63 C :    0.002470
  64 C :    0.080516
  65 C :    0.031363
  66 C :   -0.028257
  67 C :    0.038608
  68 C :    0.039726
  69 C :   -0.022304
  70 H :    0.000376
  71 H :   -0.012760
  72 H :    0.000844
  73 H :   -0.006228
  74 H :   -0.006403
  75 H :   -0.020961
  76 H :    0.042093
  77 H :    0.026338
  78 H :    0.029715
  79 H :    0.040102
  80 H :    0.013166
  81 H :    0.035246
  82 H :    0.023294
  83 H :   -0.027315
  84 H :   -0.020083
  85 H :   -0.021319
  86 H :   -0.013881
  87 H :    0.005625
  88 H :    0.010537
  89 H :    0.027216
  90 H :    0.028864
  91 H :    0.026168
  92 H :    0.016607
  93 H :    0.036543
  94 H :    0.026983
  95 H :   -0.014691
  96 H :   -0.028927
  97 H :    0.028372
  98 H :   -0.000728
  99 H :   -0.014902
 100 H :    0.000441
 101 H :   -0.007883
 102 H :   -0.008908
 103 H :   -0.023120
Sum of atomic charges:   -0.0000000

LOEWDIN ATOMIC CHARGES
----------------------
   0 C :   -0.087457
   1 C :    0.086819
   2 O :   -0.139465
   3 C :   -0.033265
   4 C :   -0.005242
   5 C :    0.068538
   6 C :   -0.128580
   7 C :   -0.011403
   8 N :   -0.042270
   9 C :   -0.020177
  10 N :   -0.048945
  11 C :   -0.017445
  12 C :    0.019373
  13 C :   -0.009154
  14 C :   -0.003124
  15 C :   -0.001984
  16 C :   -0.011785
  17 C :   -0.011887
  18 C :   -0.012447
  19 C :    0.080381
  20 C :   -0.059107
  21 C :    0.032174
  22 O :   -0.127630
  23 C :    0.077729
  24 C :    0.059494
  25 O :   -0.092238
  26 C :    0.077417
  27 C :   -0.016836
  28 C :   -0.015851
  29 C :   -0.023556
  30 C :   -0.005793
  31 C :   -0.011757
  32 C :   -0.010849
  33 C :   -0.018652
  34 C :   -0.005643
  35 N :   -0.026373
  36 C :   -0.000219
  37 C :    0.001534
  38 N :   -0.027790
  39 C :   -0.002189
  40 C :   -0.007106
  41 C :    0.024735
  42 O :   -0.127541
  43 C :    0.075676
  44 C :    0.068204
  45 O :   -0.089009
  46 C :    0.081537
  47 C :   -0.068366
  48 C :   -0.003304
  49 C :   -0.030105
  50 C :    0.091947
  51 C :   -0.093142
  52 C :    0.087593
  53 O :   -0.141615
  54 C :   -0.032191
  55 C :   -0.006356
  56 C :    0.069641
  57 C :   -0.134860
  58 C :   -0.012403
  59 N :   -0.051248
  60 C :   -0.020138
  61 N :   -0.055168
  62 C :   -0.017331
  63 C :    0.016157
  64 C :   -0.009589
  65 C :   -0.003701
  66 C :   -0.001736
  67 C :   -0.013983
  68 C :   -0.013590
  69 C :   -0.013722
  70 H :    0.039714
  71 H :    0.035791
  72 H :    0.035652
  73 H :    0.032888
  74 H :    0.032166
  75 H :    0.030475
  76 H :    0.049191
  77 H :    0.012482
  78 H :    0.024281
  79 H :    0.016428
  80 H :    0.014315
  81 H :    0.016354
  82 H :    0.021568
  83 H :    0.030842
  84 H :    0.027526
  85 H :    0.032090
  86 H :    0.034374
  87 H :    0.023763
  88 H :    0.025264
  89 H :    0.022791
  90 H :    0.017257
  91 H :    0.013981
  92 H :    0.016506
  93 H :    0.020863
  94 H :    0.022093
  95 H :    0.029788
  96 H :    0.029534
  97 H :    0.046285
  98 H :    0.039073
  99 H :    0.034744
 100 H :    0.035460
 101 H :    0.032018
 102 H :    0.031152
 103 H :    0.029653

  Mayer bond orders larger than 0.100000
B(  0-C ,  1-C ) :   0.9471 B(  0-C ,  5-C ) :   1.0057 B(  0-C , 19-C ) :   1.7164
B(  1-C ,  2-O ) :   2.2115 B(  1-C ,  3-C ) :   0.9371 B(  3-C ,  4-C ) :   1.4125
B(  3-C , 14-C ) :   1.2327 B(  4-C ,  5-C ) :   1.0069 B(  4-C , 11-C ) :   1.2584
B(  5-C ,  6-C ) :   1.6710 B(  6-C ,  7-C ) :   1.1601 B(  6-C ,  9-C ) :   1.1278
B(  7-C ,  8-N ) :   2.9805 B(  9-C , 10-N ) :   2.9960 B( 11-C , 12-C ) :   1.4698
B( 11-C , 70-H ) :   0.9860 B( 12-C , 13-C ) :   1.2197 B( 12-C , 71-H ) :   0.9946
B( 13-C , 14-C ) :   1.2442 B( 13-C , 18-C ) :   1.2408 B( 14-C , 15-C ) :   1.2741
B( 15-C , 16-C ) :   1.4742 B( 15-C , 72-H ) :   0.9874 B( 16-C , 17-C ) :   1.2567
B( 16-C , 73-H ) :   0.9868 B( 17-C , 18-C ) :   1.4933 B( 17-C , 74-H ) :   0.9894
B( 18-C , 75-H ) :   0.9982 B( 19-C , 20-C ) :   0.9939 B( 19-C , 76-H ) :   0.9453
B( 20-C , 21-C ) :   1.3269 B( 20-C , 27-C ) :   0.1118 B( 20-C , 29-C ) :   1.3496
B( 21-C , 22-O ) :   1.1506 B( 21-C , 24-C ) :   1.3184 B( 22-O , 23-C ) :   0.9308
B( 23-C , 77-H ) :   0.9594 B( 23-C , 78-H ) :   0.9781 B( 23-C , 79-H ) :   0.9586
B( 24-C , 25-O ) :   1.2068 B( 24-C , 27-C ) :   1.3676 B( 25-O , 26-C ) :   0.9347
B( 26-C , 80-H ) :   0.9709 B( 26-C , 81-H ) :   0.9732 B( 26-C , 82-H ) :   0.9768
B( 27-C , 28-C ) :   1.4135 B( 27-C , 30-C ) :   0.9165 B( 28-C , 29-C ) :   1.3362
B( 28-C , 83-H ) :   1.0029 B( 29-C , 84-H ) :   0.9976 B( 30-C , 31-C ) :   1.4997
B( 30-C , 33-C ) :   0.1177 B( 30-C , 39-C ) :   1.2556 B( 31-C , 32-C ) :   1.1901
B( 31-C , 85-H ) :   1.0079 B( 32-C , 33-C ) :   1.4867 B( 32-C , 86-H ) :   1.0069
B( 33-C , 34-C ) :   1.2464 B( 33-C , 40-C ) :   0.9330 B( 34-C , 35-N ) :   1.4738
B( 34-C , 39-C ) :   1.2548 B( 35-N , 36-C ) :   1.6702 B( 36-C , 37-C ) :   1.2128
B( 36-C , 87-H ) :   0.9742 B( 37-C , 38-N ) :   1.6684 B( 37-C , 88-H ) :   0.9746
B( 38-N , 39-C ) :   1.4689 B( 40-C , 41-C ) :   1.3750 B( 40-C , 47-C ) :   0.1076
B( 40-C , 49-C ) :   1.3626 B( 41-C , 42-O ) :   1.0992 B( 41-C , 44-C ) :   1.3080
B( 42-O , 43-C ) :   0.9415 B( 43-C , 89-H ) :   0.9799 B( 43-C , 90-H ) :   0.9636
B( 43-C , 91-H ) :   0.9653 B( 44-C , 45-O ) :   1.2448 B( 44-C , 47-C ) :   1.3268
B( 45-O , 46-C ) :   0.9291 B( 46-C , 92-H ) :   0.9770 B( 46-C , 93-H ) :   0.9736
B( 46-C , 94-H ) :   0.9765 B( 47-C , 48-C ) :   1.3504 B( 47-C , 50-C ) :   1.0405
B( 48-C , 49-C ) :   1.3601 B( 48-C , 95-H ) :   0.9978 B( 49-C , 96-H ) :   1.0011
B( 50-C , 51-C ) :   1.7052 B( 50-C , 97-H ) :   0.9378 B( 51-C , 52-C ) :   0.9540
B( 51-C , 56-C ) :   1.0155 B( 52-C , 53-O ) :   2.2023 B( 52-C , 54-C ) :   0.9356
B( 54-C , 55-C ) :   1.4172 B( 54-C , 65-C ) :   1.2331 B( 55-C , 56-C ) :   1.0019
B( 55-C , 62-C ) :   1.2592 B( 56-C , 57-C ) :   1.6634 B( 57-C , 58-C ) :   1.1553
B( 57-C , 60-C ) :   1.1326 B( 58-C , 59-N ) :   3.0108 B( 60-C , 61-N ) :   2.9955
B( 62-C , 63-C ) :   1.4693 B( 62-C , 98-H ) :   0.9861 B( 63-C , 64-C ) :   1.2218
B( 63-C , 99-H ) :   0.9942 B( 64-C , 65-C ) :   1.2449 B( 64-C , 69-C ) :   1.2397
B( 65-C , 66-C ) :   1.2737 B( 66-C , 67-C ) :   1.4742 B( 66-C ,100-H ) :   0.9869
B( 67-C , 68-C ) :   1.2564 B( 67-C ,101-H ) :   0.9872 B( 68-C , 69-C ) :   1.4952
B( 68-C ,102-H ) :   0.9884 B( 69-C ,103-H ) :   0.9976

-----------------------------------------------------------------------------
         ABSORPTION SPECTRUM VIA TRANSITION ELECTRIC DIPOLE MOMENTS
-----------------------------------------------------------------------------
State   Energy  Wavelength   fosc         T2         TX        TY        TZ
        (cm-1)    (nm)                  (au**2)     (au)      (au)      (au)
-----------------------------------------------------------------------------
   0   23241.2    430.3   0.343762753   4.86941   1.17679   1.27909  -1.35960
   1   23680.1    422.3   0.034737352   0.48293   0.14713   0.32214  -0.59792
   2   25915.3    385.9   0.110421788   1.40273   0.01047   0.32838  -1.13789
   3   26662.9    375.1   0.016723971   0.20649  -0.22541   0.25096   0.30447
   4   27965.7    357.6   0.372727280   4.38774   1.05586   1.28185  -1.27663
   5   28314.9    353.2   0.052456709   0.60990  -0.08608  -0.68997  -0.35558
   6   28965.2    345.2   0.318613984   3.62129   0.01993   1.11069  -1.54508
   7   29411.1    340.0   0.281924765   3.15571   0.42986  -1.20135   1.23599
   8   30025.7    333.0   0.213047208   2.33592  -0.36969   1.04497  -1.05227
   9   30106.2    332.2   0.061338916   0.67074   0.30934  -0.40744  -0.63956
  10   30289.9    330.1   0.000387908   0.00422  -0.04346  -0.03820  -0.02947
  11   30715.3    325.6   0.149429037   1.60160   0.27630  -0.32457   1.19160
  12   31536.5    317.1   0.029256091   0.30541  -0.51231   0.19843   0.05978
  13   31615.5    316.3   0.037484014   0.39032  -0.32745   0.44175  -0.29656
  14   31971.0    312.8   0.077833866   0.80147  -0.16934  -0.49184   0.72862
  15   32068.7    311.8   0.082697786   0.84896  -0.39432   0.82597  -0.10607
  16   32257.7    310.0   0.038263023   0.39050  -0.28622  -0.52755   0.17399
  17   32991.0    303.1   0.869366737   8.67527   1.19965  -1.94620   1.85699
  18   33090.9    302.2   0.176488491   1.75583  -0.22120   0.09212  -1.30323
  19   33344.5    299.9   0.020322561   0.20065   0.38745   0.10169  -0.20046
  20   33727.5    296.5   0.032857111   0.32072   0.55406  -0.09044   0.07452
  21   33888.9    295.1   0.877924544   8.52854  -0.01166   1.06146  -2.72061
  22   34024.1    293.9   0.073625837   0.71239  -0.74540   0.10252   0.38243
  23   34539.2    289.5   0.044122560   0.42056  -0.03017   0.17843  -0.62274
  24   35134.0    284.6   0.005242917   0.04913  -0.06658   0.17912  -0.11230
  25   36076.6    277.2   0.003200246   0.02920   0.02315   0.08582  -0.14595
  26   36223.5    276.1   0.065597006   0.59617   0.39331  -0.64986   0.13843
  27   36689.1    272.6   0.032312895   0.28994   0.21516   0.11210  -0.48071
  28   36735.4    272.2   0.090368638   0.80986   0.17190   0.14040  -0.87212
  29   37177.6    269.0   0.057395151   0.50824   0.30348  -0.06046   0.64225
  30   37493.0    266.7   0.020487252   0.17989  -0.32269   0.22915   0.15248
  31   37788.4    264.6   0.022246483   0.19381   0.06905   0.16367  -0.40281
  32   38040.7    262.9   0.023235616   0.20109   0.34680   0.15818   0.23620
  33   38238.8    261.5   0.011901719   0.10247  -0.20385  -0.19798  -0.14736
  34   38344.4    260.8   0.008003091   0.06871   0.22126   0.05637   0.12875
  35   38740.1    258.1   0.000485154   0.00412  -0.06037   0.00830  -0.02022
  36   39101.9    255.7   0.003238301   0.02726  -0.02528  -0.05327   0.15423
  37   39206.2    255.1   0.016570027   0.13914  -0.03972   0.01317  -0.37066
  38   39349.0    254.1   0.024690890   0.20658   0.43749  -0.10530   0.06393

FINAL SINGLE POINT ENERGY     -3006.603771076249

DIPOLE MOMENT
-------------
                                X             Y             Z
Electronic contribution:      7.84588       7.58462       1.26158
Nuclear contribution   :     -7.94600      -9.15674      -1.06349
                        -----------------------------------------
Total Dipole Moment    :     -0.10012      -1.57212       0.19809
                        -----------------------------------------
Magnitude (a.u.)       :      1.58771
Magnitude (Debye)      :      4.03564

Rotational constants in cm-1:     0.003200     0.000293     0.000291
Rotational constants in MHz :    95.929073     8.775772     8.728780

                             ****ORCA TERMINATED NORMALLY****
TOTAL RUN TIME: 0 days 0 hours 10 minutes 38 seconds 255 msec
